<event>
 6    0  0.4227619E+002  0.1175666E+03  0.7546771E-02  0.1247166E+00
         21   -1    0    0  504  501  0.00000000000E+00  0.00000000000E+00  0.24267379531E+03  0.24267379531E+03  0.00000000000E+00 0. -1.
         21   -1    0    0  506  502 -0.00000000000E+00 -0.00000000000E+00 -0.48385346944E+03  0.48385346944E+03  0.00000000000E+00 0. -1.
         21    1    1    2  503  502  0.20751739114E+02  0.94994445144E+02 -0.34371136404E+03  0.35720033742E+03  0.00000000000E+00 0. -1.
         21    1    1    2  504  505  0.44161422265E+01 -0.70589056895E+02  0.10933269231E+03  0.13021503321E+03  0.00000000000E+00 0. -1.
         21    1    1    2  505  503  0.78163464744E+02 -0.72660167617E+02  0.42496825934E+02  0.11486952334E+03  0.00000000000E+00 0. -1.
         21    1    1    2  506  501 -0.10333134608E+03  0.48254779369E+02 -0.49297828339E+02  0.12424237077E+03  0.00000000000E+00 0. -1.
<scales pt_clust_3="93.50790" pt_clust_4="70.72706" pt_clust_5="14000.00000" pt_clust_6="117.56663"></scales>
<clustering>
<clus scale="   70.727">  1  4  2 -1</clus>
<clus scale="   93.508">  2  3  1 -1</clus>
<clus scale="  117.567">  2  6  1 -1</clus>
<clus scale="   70.727">  1  3  2 -1</clus>
</clustering>
</event>
<event>
 6    0  0.4227619E+002  0.8390920E+02  0.7546771E-02  0.1318310E+00
         21   -1    0    0  503  501  0.00000000000E+00  0.00000000000E+00  0.14745720726E+03  0.14745720726E+03  0.00000000000E+00 0. -1.
         21   -1    0    0  504  502 -0.00000000000E+00 -0.00000000000E+00 -0.70933736814E+03  0.70933736814E+03  0.00000000000E+00 0. -1.
         21    1    1    2  503  506 -0.80083870171E+02  0.10300126613E+02  0.10228745224E+03  0.13031593055E+03  0.00000000000E+00 0. -1.
         21    1    1    2  504  501  0.12407741187E+03  0.42351126670E+02 -0.12924009659E+03  0.18409732381E+03  0.00000000000E+00 0. -1.
         21    1    1    2  505  502 -0.19361679338E+02 -0.26789468274E+02 -0.43516451132E+03  0.43641803600E+03  0.00000000000E+00 0. -1.
         21    1    1    2  506  505 -0.24631862364E+02 -0.25861785009E+02 -0.99763005205E+02  0.10596328503E+03  0.00000000000E+00 0. -1.
<scales pt_clust_3="14000.00000" pt_clust_4="83.90920" pt_clust_5="33.05375" pt_clust_6="48.06014"></scales>
<clustering>
<clus scale="   33.054">  2  5  1 -1</clus>
<clus scale="   48.060">  2  6  1 -1</clus>
<clus scale="   83.909">  2  4  1 -1</clus>
<clus scale="   83.909">  1  3  2 -1</clus>
</clustering>
</event>
<event>
 6    0  0.4227619E+002  0.3956341E+03  0.7546771E-02  0.1045302E+00
         21   -1    0    0  503  501  0.00000000000E+00  0.00000000000E+00  0.55552156857E+03  0.55552156857E+03  0.00000000000E+00 0.  1.
         21   -1    0    0  505  502 -0.00000000000E+00 -0.00000000000E+00 -0.62484523077E+03  0.62484523077E+03  0.00000000000E+00 0.  1.
         21    1    1    2  503  506 -0.56060589445E+02  0.10871902515E+03  0.31989308985E+02  0.12643548556E+03  0.00000000000E+00 0.  1.
         21    1    1    2  504  502 -0.32810858336E+03  0.11627854751E+03 -0.17612091225E+03  0.39012115915E+03  0.00000000000E+00 0.  1.
         21    1    1    2  505  501  0.41216368717E+03 -0.31476581021E+03 -0.34336828108E+02  0.51974555127E+03  0.00000000000E+00 0.  1.
         21    1    1    2  506  504 -0.27994514363E+02  0.89768237547E+02  0.10914476916E+03  0.14406460336E+03  0.00000000000E+00 0.  1.
<scales pt_clust_3="230.76280" pt_clust_4="14000.00000" pt_clust_5="395.63406" pt_clust_6="72.24196"></scales>
<clustering>
<clus scale="   72.242">  3  6 -1 -1</clus>
<clus scale="  230.763">  1  3  2 -1</clus>
<clus scale="  395.634">  1  5  2 -1</clus>
<clus scale="  230.763">  1  3  2 -1</clus>
</clustering>
</event>
<event>
 6    0  0.4227619E+002  0.9122376E+02  0.7546771E-02  0.1299915E+00
         21   -1    0    0  504  501  0.00000000000E+00  0.00000000000E+00  0.23553948062E+04  0.23553948062E+04  0.00000000000E+00 0.  1.
         21   -1    0    0  503  502 -0.00000000000E+00 -0.00000000000E+00 -0.10966050983E+04  0.10966050983E+04  0.00000000000E+00 0. -1.
         21    1    1    2  503  505 -0.18291871472E+02  0.82416120677E+02 -0.89398541378E+03  0.89796265488E+03  0.00000000000E+00 0. -1.
         21    1    1    2  504  506 -0.52742448681E+02 -0.16710116347E+02  0.11993265192E+04  0.12006019713E+04  0.00000000000E+00 0.  1.
         21    1    1    2  505  501  0.34203433025E+02 -0.72749992272E+02  0.11502689622E+04  0.11530746384E+04  0.00000000000E+00 0.  1.
         21    1    1    2  506  502  0.36830887128E+02  0.70439879416E+01 -0.19682035971E+03  0.20036063987E+03  0.00000000000E+00 0. -1.
<scales pt_clust_3="91.22376" pt_clust_4="55.29980" pt_clust_5="14000.00000" pt_clust_6="37.49843"></scales>
<clustering>
<clus scale="   37.498">  2  6  1 -1</clus>
<clus scale="   55.300">  1  4  2 -1</clus>
<clus scale="   91.224">  2  3  1 -1</clus>
<clus scale="   55.300">  1  3  2 -1</clus>
</clustering>
</event>
<event>
 6    0  0.4227619E+002  0.1167190E+03  0.7546771E-02  0.1248610E+00
         21   -1    0    0  503  501  0.00000000000E+00  0.00000000000E+00  0.27473666937E+03  0.27473666937E+03  0.00000000000E+00 0. -1.
         21   -1    0    0  505  502 -0.00000000000E+00 -0.00000000000E+00 -0.27450688511E+03  0.27450688511E+03  0.00000000000E+00 0. -1.
         21    1    1    2  503  504 -0.10266216107E+03 -0.14609550764E+02  0.13401148052E+03  0.16944626051E+03  0.00000000000E+00 0. -1.
         21    1    1    2  504  506  0.12881534953E+03  0.18943523386E+02  0.20535500793E+02  0.13181031122E+03  0.00000000000E+00 0. -1.
         21    1    1    2  505  501 -0.72059415425E+01 -0.32129664394E+02  0.39413058663E+02  0.51357863280E+02  0.00000000000E+00 0. -1.
         21    1    1    2  506  502 -0.18947246913E+02  0.27795691772E+02 -0.19373025571E+03  0.19662911947E+03  0.00000000000E+00 0. -1.
<scales pt_clust_3="116.71897" pt_clust_4="14000.00000" pt_clust_5="32.92781" pt_clust_6="33.49746"></scales>
<clustering>
<clus scale="   32.928">  1  5  2 -1</clus>
<clus scale="   33.497">  2  6  1 -1</clus>
<clus scale="  116.719">  1  3  2 -1</clus>
<clus scale="   32.928">  1  3  2 -1</clus>
</clustering>
</event>
<event>
 6    0  0.4227619E+002  0.1070846E+03  0.7546771E-02  0.1266066E+00
         21   -1    0    0  504  501  0.00000000000E+00  0.00000000000E+00  0.66725407646E+03  0.66725407646E+03  0.00000000000E+00 0. -1.
         21   -1    0    0  505  502 -0.00000000000E+00 -0.00000000000E+00 -0.10037715685E+03  0.10037715685E+03  0.00000000000E+00 0. -1.
         21    1    1    2  503  501  0.76475707375E+02  0.21500140965E+02  0.32939457931E+03  0.33883857330E+03  0.00000000000E+00 0. -1.
         21    1    1    2  504  506 -0.15790798646E+03  0.43782822578E+02  0.24463210723E+03  0.29444309404E+03  0.00000000000E+00 0. -1.
         21    1    1    2  505  503  0.31377125236E+02  0.74513230662E+00  0.30116451891E+02  0.43498044608E+02  0.00000000000E+00 0.  1.
         21    1    1    2  506  502  0.50055153851E+02 -0.66028095849E+02 -0.37266218823E+02  0.90851521362E+02  0.00000000000E+00 0. -1.
<scales pt_clust_3="80.97405" pt_clust_4="107.08457" pt_clust_5="31.38597" pt_clust_6="14000.00000"></scales>
<clustering>
<clus scale="   31.386">  2  5  1 -1</clus>
<clus scale="   80.974">  1  3  2 -1</clus>
<clus scale="  107.085">  1  4  2 -1</clus>
<clus scale="   80.974">  1  3  2 -1</clus>
</clustering>
</event>
<event>
 6    0  0.4227619E+002  0.2208290E+03  0.7546771E-02  0.1133267E+00
         21   -1    0    0  506  501  0.00000000000E+00  0.00000000000E+00  0.17587832094E+04  0.17587832094E+04  0.00000000000E+00 0. -1.
         21   -1    0    0  503  502 -0.00000000000E+00 -0.00000000000E+00 -0.50896632993E+03  0.50896632993E+03  0.00000000000E+00 0. -1.
         21    1    1    2  503  505  0.30361646979E+02  0.36746427437E+02 -0.37230940282E+03  0.37534839945E+03  0.00000000000E+00 0. -1.
         21    1    1    2  504  502  0.27050089435E+03  0.54501206499E+01  0.31342152727E+03  0.41404527701E+03  0.00000000000E+00 0. -1.
         21    1    1    2  505  501 -0.21889630822E+03  0.76655268525E+01  0.61547280188E+02  0.22751356389E+03  0.00000000000E+00 0. -1.
         21    1    1    2  506  504 -0.81966233109E+02 -0.49862074940E+02  0.12471574748E+04  0.12508422990E+04  0.00000000000E+00 0. -1.
<scales pt_clust_3="47.66686" pt_clust_4="14000.00000" pt_clust_5="220.82896" pt_clust_6="95.32730"></scales>
<clustering>
<clus scale="   47.667">  2  3  1 -1</clus>
<clus scale="   95.327">  1  6  2 -1</clus>
<clus scale="  220.829">  2  5  1 -1</clus>
<clus scale="   95.327">  1  3  2 -1</clus>
</clustering>
</event>
<event>
 6    0  0.4227619E+002  0.1053176E+03  0.7546771E-02  0.1269495E+00
         21   -1    0    0  505  501  0.00000000000E+00  0.00000000000E+00  0.15655900433E+04  0.15655900433E+04  0.00000000000E+00 0. -1.
         21   -1    0    0  506  502 -0.00000000000E+00 -0.00000000000E+00 -0.10272583298E+03  0.10272583298E+03  0.00000000000E+00 0. -1.
         21    1    1    2  503  504 -0.36055335779E+01  0.10811726989E+03  0.26316983954E+02  0.11133250902E+03  0.00000000000E+00 0. -1.
         21    1    1    2  504  502 -0.31600875426E+02 -0.10092343856E+03 -0.28365827582E+00  0.10575554946E+03  0.00000000000E+00 0. -1.
         21    1    1    2  505  503  0.17346790813E+02  0.52555668826E+02  0.11198041486E+03  0.12491045909E+03  0.00000000000E+00 0. -1.
         21    1    1    2  506  501  0.17859618191E+02 -0.59749500155E+02  0.13248504698E+04  0.13263173587E+04  0.00000000000E+00 0. -1.
<scales pt_clust_3="14000.00000" pt_clust_4="105.31763" pt_clust_5="55.34446" pt_clust_6="35.68993"></scales>
<clustering>
<clus scale="   55.344">  1  5  2 -1</clus>
<clus scale="   35.690">  1  6  2 -1</clus>
<clus scale="  105.318">  2  4  1 -1</clus>
<clus scale="   55.344">  1  3  2 -1</clus>
</clustering>
</event>
<event>
 6    0  0.4227619E+002  0.1020274E+03  0.7546771E-02  0.1276089E+00
         21   -1    0    0  504  501  0.00000000000E+00  0.00000000000E+00  0.77690081744E+03  0.77690081744E+03  0.00000000000E+00 0.  1.
         21   -1    0    0  506  502 -0.00000000000E+00 -0.00000000000E+00 -0.23833398325E+03  0.23833398325E+03  0.00000000000E+00 0. -1.
         21    1    1    2  503  501  0.47067727238E+02  0.91073303136E+02  0.67739302240E+03  0.68510657878E+03  0.00000000000E+00 0.  1.
         21    1    1    2  504  502 -0.90372667423E+02 -0.44416879923E+02 -0.14728817880E+03  0.17842053092E+03  0.00000000000E+00 0. -1.
         21    1    1    2  505  503  0.91372361898E+02 -0.12122450240E+02  0.23084283302E+01  0.92201904319E+02  0.00000000000E+00 0.  1.
         21    1    1    2  506  505 -0.48067421713E+02 -0.34533972973E+02  0.61535622514E+01  0.59505786675E+02  0.00000000000E+00 0.  1.
<scales pt_clust_3="102.02740" pt_clust_4="14000.00000" pt_clust_5="83.46428" pt_clust_6="59.18676"></scales>
<clustering>
<clus scale="   59.187">  2  6  1 -1</clus>
<clus scale="   83.464">  2  5  1 -1</clus>
<clus scale="  102.027">  1  3  2 -1</clus>
<clus scale="  102.027">  1  3  2 -1</clus>
</clustering>
</event>
<event>
 6    0  0.4227619E+002  0.1116942E+03  0.7546771E-02  0.1257464E+00
         21   -1    0    0  504  501  0.00000000000E+00  0.00000000000E+00  0.54530319130E+03  0.54530319130E+03  0.00000000000E+00 0. -1.
         21   -1    0    0  503  502 -0.00000000000E+00 -0.00000000000E+00 -0.23908093124E+03  0.23908093124E+03  0.00000000000E+00 0. -1.
         21    1    1    2  503  501 -0.11916222720E+03 -0.65927226431E+02  0.13323048425E+03  0.19051613451E+03  0.00000000000E+00 0. -1.
         21    1    1    2  504  506 -0.51565007382E+01 -0.38049388769E+02  0.24675749978E+03  0.24972706939E+03  0.00000000000E+00 0. -1.
         21    1    1    2  505  502  0.77510045180E+02  0.31588507649E+01 -0.17649147140E+03  0.19278751235E+03  0.00000000000E+00 0. -1.
         21    1    1    2  506  505  0.46808682759E+02  0.10081776444E+03  0.10272574743E+03  0.15135340628E+03  0.00000000000E+00 0. -1.
<scales pt_clust_3="111.69418" pt_clust_4="38.39721" pt_clust_5="77.39752" pt_clust_6="14000.00000"></scales>
<clustering>
<clus scale="   38.397">  1  4  2 -1</clus>
<clus scale="   77.398">  2  5  1 -1</clus>
<clus scale="  111.694">  2  3  1 -1</clus>
<clus scale="   38.397">  1  3  2 -1</clus>
</clustering>
</event>
<event>
 6    0  0.4227619E+002  0.1169843E+03  0.7546771E-02  0.1248157E+00
         21   -1    0    0  505  501  0.00000000000E+00  0.00000000000E+00  0.13673742771E+03  0.13673742771E+03  0.00000000000E+00 0.  1.
         21   -1    0    0  506  502 -0.00000000000E+00 -0.00000000000E+00 -0.32206412409E+03  0.32206412409E+03  0.00000000000E+00 0.  1.
         21    1    1    2  503  504 -0.79241664146E+02 -0.59351051393E+02 -0.25065094845E+02  0.10212760458E+03  0.00000000000E+00 0.  1.
         21    1    1    2  504  501  0.11506177881E+03  0.63880551011E+02  0.36294621782E+02  0.13651826732E+03  0.00000000000E+00 0.  1.
         21    1    1    2  505  502 -0.30045774497E+02  0.30098880178E+02 -0.35739959629E+02  0.55552100477E+02  0.00000000000E+00 0. -1.
         21    1    1    2  506  503 -0.57743401709E+01 -0.34628379795E+02 -0.16081626369E+03  0.16460357942E+03  0.00000000000E+00 0.  1.
<scales pt_clust_3="14000.00000" pt_clust_4="116.98432" pt_clust_5="37.57794" pt_clust_6="35.10652"></scales>
<clustering>
<clus scale="   35.107">  2  6  1 -1</clus>
<clus scale="   37.578">  2  5  1 -1</clus>
<clus scale="  116.984">  1  4  2 -1</clus>
<clus scale="  116.984">  1  3  2 -1</clus>
</clustering>
</event>
<event>
 6    0  0.4227619E+002  0.1747605E+03  0.7546771E-02  0.1172972E+00
         21   -1    0    0  506  501  0.00000000000E+00  0.00000000000E+00  0.39796613764E+03  0.39796613764E+03  0.00000000000E+00 0.  1.
         21   -1    0    0  505  502 -0.00000000000E+00 -0.00000000000E+00 -0.30818720726E+04  0.30818720726E+04  0.00000000000E+00 0.  1.
         21    1    1    2  503  504  0.41079093809E+02  0.13567987895E+03 -0.84759473255E+03  0.85936799576E+03  0.00000000000E+00 0.  1.
         21    1    1    2  504  502 -0.39099657990E+02 -0.59923044450E+01 -0.36487486531E+03  0.36701274951E+03  0.00000000000E+00 0. -1.
         21    1    1    2  505  501  0.21438064893E+02  0.44307934500E+02 -0.18423944738E+04  0.18430518660E+04  0.00000000000E+00 0.  1.
         21    1    1    2  506  503 -0.23417500712E+02 -0.17399550901E+03  0.37095813669E+03  0.41040559897E+03  0.00000000000E+00 0.  1.
<scales pt_clust_3="174.76051" pt_clust_4="39.55617" pt_clust_5="40.56293" pt_clust_6="14000.00000"></scales>
<clustering>
<clus scale="   39.556">  2  4  1 -1</clus>
<clus scale="   40.563">  2  5  1 -1</clus>
<clus scale="  174.761">  2  3  1 -1</clus>
<clus scale="  174.761">  1  3  2 -1</clus>
</clustering>
</event>
<event>
 6    0  0.4227619E+002  0.9102378E+02  0.7546771E-02  0.1300391E+00
         21   -1    0    0  506  501  0.00000000000E+00  0.00000000000E+00  0.84183361141E+03  0.84183361141E+03  0.00000000000E+00 0. -1.
         21   -1    0    0  505  502 -0.00000000000E+00 -0.00000000000E+00 -0.50897112275E+02  0.50897112275E+02  0.00000000000E+00 0.  1.
         21    1    1    2  503  502 -0.84575243039E+01 -0.57789310894E+02  0.33634210154E+02  0.67397286767E+02  0.00000000000E+00 0.  1.
         21    1    1    2  504  501  0.35540758716E+02  0.64048616728E+02  0.14100755889E+03  0.15889777374E+03  0.00000000000E+00 0.  1.
         21    1    1    2  505  504  0.60294834414E+02  0.49988255608E+02  0.55249394815E+02  0.95847735410E+02  0.00000000000E+00 0.  1.
         21    1    1    2  506  503 -0.87378068827E+02 -0.56247561442E+02  0.56104533528E+03  0.57058792777E+03  0.00000000000E+00 0. -1.
<scales pt_clust_3="58.40492" pt_clust_4="91.02378" pt_clust_5="57.38133" pt_clust_6="14000.00000"></scales>
<clustering>
<clus scale="   58.405">  2  3  1 -1</clus>
<clus scale="   57.381">  2  5  1 -1</clus>
<clus scale="   91.024">  2  4  1 -1</clus>
<clus scale="   91.024">  1  3  2 -1</clus>
</clustering>
</event>
<event>
 6    0  0.4227619E+002  0.7060193E+02  0.7546771E-02  0.1358058E+00
         21   -1    0    0  506  501  0.00000000000E+00  0.00000000000E+00  0.20146373933E+02  0.20146373933E+02  0.00000000000E+00 0. -1.
         21   -1    0    0  504  502 -0.00000000000E+00 -0.00000000000E+00 -0.11049342603E+04  0.11049342603E+04  0.00000000000E+00 0. -1.
         21    1    1    2  503  501  0.25621415949E+02  0.18849788583E+02 -0.28574700821E+02  0.42758449596E+02  0.00000000000E+00 0. -1.
         21    1    1    2  504  505 -0.61954131342E+02  0.21383123988E+02 -0.37809583424E+03  0.38373429903E+03  0.00000000000E+00 0. -1.
         21    1    1    2  505  503  0.53211817704E+02  0.45856381055E+02 -0.42337268433E+03  0.42916050036E+03  0.00000000000E+00 0. -1.
         21    1    1    2  506  502 -0.16879102311E+02 -0.86089293626E+02 -0.25474466696E+03  0.26942738524E+03  0.00000000000E+00 0. -1.
<scales pt_clust_3="31.80836" pt_clust_4="61.89690" pt_clust_5="70.60193" pt_clust_6="14000.00000"></scales>
<clustering>
<clus scale="   31.808">  1  3  2 -1</clus>
<clus scale="   61.897">  2  4  1 -1</clus>
<clus scale="   70.602">  2  5  1 -1</clus>
<clus scale="   31.808">  1  3  2 -1</clus>
</clustering>
</event>
<event>
 6    0  0.4227619E+002  0.1148070E+03  0.7546771E-02  0.1251918E+00
         21   -1    0    0  504  501  0.00000000000E+00  0.00000000000E+00  0.73000068351E+03  0.73000068351E+03  0.00000000000E+00 0. -1.
         21   -1    0    0  505  502 -0.00000000000E+00 -0.00000000000E+00 -0.23417651811E+03  0.23417651811E+03  0.00000000000E+00 0. -1.
         21    1    1    2  503  501 -0.28019352605E+02 -0.17324045040E+02  0.37494717632E+03  0.37639154040E+03  0.00000000000E+00 0. -1.
         21    1    1    2  504  502  0.44368851177E+02 -0.70032477160E+02 -0.13349744424E+03  0.15714550719E+03  0.00000000000E+00 0. -1.
         21    1    1    2  505  506  0.80110814058E+02  0.73366247553E+02 -0.43657942861E+02  0.11707418496E+03  0.00000000000E+00 0. -1.
         21    1    1    2  506  503 -0.96460312631E+02  0.13990274648E+02  0.29803237618E+03  0.31356596906E+03  0.00000000000E+00 0.  1.
<scales pt_clust_3="32.94247" pt_clust_4="82.89966" pt_clust_5="114.80703" pt_clust_6="14000.00000"></scales>
<clustering>
<clus scale="   32.942">  1  3  2 -1</clus>
<clus scale="   82.900">  2  4  1 -1</clus>
<clus scale="  114.807">  2  5  1 -1</clus>
<clus scale="   32.942">  1  3  2 -1</clus>
</clustering>
</event>
<event>
 6    0  0.4227619E+002  0.8480433E+02  0.7546771E-02  0.1315945E+00
         21   -1    0    0  504  501  0.00000000000E+00  0.00000000000E+00  0.10635839687E+03  0.10635839687E+03  0.00000000000E+00 0. -1.
         21   -1    0    0  506  502 -0.00000000000E+00 -0.00000000000E+00 -0.39443934962E+03  0.39443934962E+03  0.00000000000E+00 0. -1.
         21    1    1    2  503  505 -0.98673661383E+02 -0.22671115660E+02 -0.79987966945E+02  0.12902924394E+03  0.00000000000E+00 0. -1.
         21    1    1    2  504  502  0.63411121732E+02 -0.78052927480E+02 -0.21006321418E+03  0.23289436189E+03  0.00000000000E+00 0. -1.
         21    1    1    2  505  501  0.24232219491E+02  0.60400703818E+02  0.44811448334E+02  0.79015893243E+02  0.00000000000E+00 0. -1.
         21    1    1    2  506  503  0.11030320160E+02  0.40323339323E+02 -0.42841219954E+02  0.59858247419E+02  0.00000000000E+00 0. -1.
<scales pt_clust_3="84.80433" pt_clust_4="14000.00000" pt_clust_5="67.15094" pt_clust_6="41.80478"></scales>
<clustering>
<clus scale="   41.805">  2  6  1 -1</clus>
<clus scale="   67.151">  1  5  2 -1</clus>
<clus scale="   84.804">  1  3  2 -1</clus>
<clus scale="   67.151">  1  3  2 -1</clus>
</clustering>
</event>
<event>
 6    0  0.4227619E+002  0.9788014E+02  0.7546771E-02  0.1284818E+00
         21   -1    0    0  503  501  0.00000000000E+00  0.00000000000E+00  0.81577372962E+03  0.81577372962E+03  0.00000000000E+00 0. -1.
         21   -1    0    0  504  502 -0.00000000000E+00 -0.00000000000E+00 -0.90342206604E+02  0.90342206604E+02  0.00000000000E+00 0.  1.
         21    1    1    2  503  502 -0.78016983360E+02  0.75194694542E+02  0.10246596959E+03  0.14913137398E+03  0.00000000000E+00 0.  1.
         21    1    1    2  504  505  0.56307432918E+02  0.39443584780E+02 -0.40143833549E+02  0.79610619606E+02  0.00000000000E+00 0.  1.
         21    1    1    2  505  506  0.15711701963E+02 -0.81303020991E+02  0.26055266819E+03  0.27339482749E+03  0.00000000000E+00 0. -1.
         21    1    1    2  506  501  0.59978484786E+01 -0.33335258331E+02  0.40255671879E+03  0.40397911515E+03  0.00000000000E+00 0. -1.
<scales pt_clust_3="97.88014" pt_clust_4="68.08421" pt_clust_5="14000.00000" pt_clust_6="33.87054"></scales>
<clustering>
<clus scale="   33.871">  1  6  2 -1</clus>
<clus scale="   68.084">  2  4  1 -1</clus>
<clus scale="   97.880">  2  3  1 -1</clus>
<clus scale="   33.871">  1  3  2 -1</clus>
</clustering>
</event>
<event>
 6    0  0.4227619E+002  0.9143899E+02  0.7546771E-02  0.1299404E+00
         21   -1    0    0  504  501  0.00000000000E+00  0.00000000000E+00  0.43699201988E+03  0.43699201988E+03  0.00000000000E+00 0.  1.
         21   -1    0    0  506  502 -0.00000000000E+00 -0.00000000000E+00 -0.83905767993E+02  0.83905767993E+02  0.00000000000E+00 0. -1.
         21    1    1    2  503  502 -0.17349753745E+02 -0.12415766679E+03  0.18300454596E+02  0.12669272598E+03  0.00000000000E+00 0. -1.
         21    1    1    2  504  503  0.70719889023E+02  0.41599920232E+02  0.15887332181E+03  0.17880880417E+03  0.00000000000E+00 0.  1.
         21    1    1    2  505  501 -0.63978419882E+02  0.53103752569E+02  0.15991659589E+03  0.18024029624E+03  0.00000000000E+00 0.  1.
         21    1    1    2  506  505  0.10608284603E+02  0.29453993986E+02  0.15995879594E+02  0.35155961485E+02  0.00000000000E+00 0.  1.
<scales pt_clust_3="14000.00000" pt_clust_4="91.43899" pt_clust_5="84.69756" pt_clust_6="31.30613"></scales>
<clustering>
<clus scale="   31.306">  2  6  1 -1</clus>
<clus scale="   84.698">  1  5  2 -1</clus>
<clus scale="   91.439">  1  4  2 -1</clus>
<clus scale="   84.698">  1  3  2 -1</clus>
</clustering>
</event>
<event>
 6    0  0.4227619E+002  0.9824426E+02  0.7546771E-02  0.1284032E+00
         21   -1    0    0  503  501  0.00000000000E+00  0.00000000000E+00  0.41166968494E+02  0.41166968494E+02  0.00000000000E+00 0.  1.
         21   -1    0    0  506  502 -0.00000000000E+00 -0.00000000000E+00 -0.19719669512E+04  0.19719669512E+04  0.00000000000E+00 0. -1.
         21    1    1    2  503  504  0.21436766883E+02  0.63655072401E+02 -0.52550097526E+03  0.52977615860E+03  0.00000000000E+00 0. -1.
         21    1    1    2  504  502  0.26332785436E+02  0.29522744710E+02 -0.87526852916E+03  0.87616208899E+03  0.00000000000E+00 0. -1.
         21    1    1    2  505  501 -0.49580039808E+02  0.65823507560E+02 -0.39209156993E+02  0.91259369311E+02  0.00000000000E+00 0.  1.
         21    1    1    2  506  505  0.18104874888E+01 -0.15900132467E+03 -0.49082132134E+03  0.51593630285E+03  0.00000000000E+00 0. -1.
<scales pt_clust_3="14000.00000" pt_clust_4="39.56018" pt_clust_5="82.89965" pt_clust_6="98.24426"></scales>
<clustering>
<clus scale="   39.560">  2  4  1 -1</clus>
<clus scale="   82.900">  1  5  2 -1</clus>
<clus scale="   98.244">  1  6  2 -1</clus>
<clus scale="   82.900">  1  3  2 -1</clus>
</clustering>
</event>
<event>
 6    0  0.6636137E+002  0.1689253E+03  0.7546771E-02  0.1178973E+00
         21   -1    0    0  504  501  0.00000000000E+00  0.00000000000E+00  0.66785877596E+03  0.66785877596E+03  0.00000000000E+00 0. -1.
         21   -1    0    0  506  502 -0.00000000000E+00 -0.00000000000E+00 -0.13881684784E+04  0.13881684784E+04  0.00000000000E+00 0. -1.
         21    1    1    2  503  502 -0.12014789649E+03 -0.11829060041E+03 -0.13428298494E+04  0.13533736319E+04  0.00000000000E+00 0. -1.
         21    1    1    2  504  503 -0.15873534301E+02 -0.40567342687E+02  0.95237365921E+01  0.44591254104E+02  0.00000000000E+00 0. -1.
         21    1    1    2  505  501 -0.12488981837E+02  0.29240184400E+02  0.17343681743E+03  0.17632723185E+03  0.00000000000E+00 0. -1.
         21    1    1    2  506  505  0.14851041263E+03  0.12961775869E+03  0.43955959291E+03  0.48173513651E+03  0.00000000000E+00 0. -1.
<scales pt_clust_3="14000.00000" pt_clust_4="42.33526" pt_clust_5="31.79565" pt_clust_6="168.92525"></scales>
<clustering>
<clus scale="   31.796">  1  5  2 -1</clus>
<clus scale="   42.335">  1  4  2 -1</clus>
<clus scale="  168.925">  1  6  2 -1</clus>
<clus scale="   31.796">  1  3  2 -1</clus>
</clustering>
</event>
<event>
 6    0  0.4227619E+002  0.6001872E+02  0.7546771E-02  0.1397753E+00
         21   -1    0    0  503  501  0.00000000000E+00  0.00000000000E+00  0.32441843545E+03  0.32441843545E+03  0.00000000000E+00 0.  1.
         21   -1    0    0  504  502 -0.00000000000E+00 -0.00000000000E+00 -0.75130331941E+02  0.75130331941E+02  0.00000000000E+00 0.  1.
         21    1    1    2  503  505 -0.23695688100E+01 -0.62200441481E+02  0.98670012035E+02  0.11666310922E+03  0.00000000000E+00 0.  1.
         21    1    1    2  504  506 -0.48716282456E+02 -0.37165642792E+02  0.14004587808E+02  0.62854511852E+02  0.00000000000E+00 0.  1.
         21    1    1    2  505  502 -0.24009065988E+01  0.72137173390E+02  0.15064375844E+01  0.72192835458E+02  0.00000000000E+00 0.  1.
         21    1    1    2  506  501  0.53486757864E+02  0.27228910883E+02  0.13510706609E+03  0.14783831087E+03  0.00000000000E+00 0.  1.
<scales pt_clust_3="14000.00000" pt_clust_4="48.92507" pt_clust_5="57.46637" pt_clust_6="60.01872"></scales>
<clustering>
<clus scale="   60.019">  1  6  2 -1</clus>
<clus scale="   48.925">  2  4  1 -1</clus>
<clus scale="   57.466">  2  5  1 -1</clus>
<clus scale="   60.019">  1  3  2 -1</clus>
</clustering>
</event>
<event>
 6    0  0.4227619E+002  0.7840414E+02  0.7546771E-02  0.1333642E+00
         21   -1    0    0  504  501  0.00000000000E+00  0.00000000000E+00  0.19162290722E+03  0.19162290722E+03  0.00000000000E+00 0.  1.
         21   -1    0    0  506  502 -0.00000000000E+00 -0.00000000000E+00 -0.24044534637E+03  0.24044534637E+03  0.00000000000E+00 0.  1.
         21    1    1    2  503  501 -0.60695190814E+01 -0.35657588652E+02  0.25640540747E+02  0.44336666769E+02  0.00000000000E+00 0.  1.
         21    1    1    2  504  505  0.37411476288E+02  0.79211944424E+02  0.93534981104E+02  0.12815203232E+03  0.00000000000E+00 0.  1.
         21    1    1    2  505  502 -0.48550953028E+02  0.56932285635E+02 -0.13149421197E+03  0.15129179743E+03  0.00000000000E+00 0.  1.
         21    1    1    2  506  503  0.17208995821E+02 -0.10048664141E+03 -0.36503749034E+02  0.10828775707E+03  0.00000000000E+00 0.  1.
<scales pt_clust_3="36.17047" pt_clust_4="63.32754" pt_clust_5="78.40414" pt_clust_6="14000.00000"></scales>
<clustering>
<clus scale="   36.170">  1  3  2 -1</clus>
<clus scale="   63.328">  1  4  2 -1</clus>
<clus scale="   78.404">  2  5  1 -1</clus>
<clus scale="   36.170">  1  3  2 -1</clus>
</clustering>
</event>
<event>
 6    0  0.4227619E+002  0.8146237E+02  0.7546771E-02  0.1324952E+00
         21   -1    0    0  503  501  0.00000000000E+00  0.00000000000E+00  0.23012610466E+03  0.23012610466E+03  0.00000000000E+00 0. -1.
         21   -1    0    0  506  502 -0.00000000000E+00 -0.00000000000E+00 -0.11882110792E+03  0.11882110792E+03  0.00000000000E+00 0. -1.
         21    1    1    2  503  502  0.79351447404E+02  0.56885960934E+02  0.10022241488E+03  0.13991853773E+03  0.00000000000E+00 0. -1.
         21    1    1    2  504  505  0.30218135112E+02 -0.57603579102E+02 -0.49615649367E+01  0.65237451986E+02  0.00000000000E+00 0. -1.
         21    1    1    2  505  501 -0.67433250920E+02 -0.17460918567E+02  0.50809430962E+02  0.86219054052E+02  0.00000000000E+00 0. -1.
         21    1    1    2  506  504 -0.42136331595E+02  0.18178536735E+02 -0.34765284167E+02  0.57572168809E+02  0.00000000000E+00 0. -1.
<scales pt_clust_3="81.46237" pt_clust_4="49.80724" pt_clust_5="14000.00000" pt_clust_6="45.89041"></scales>
<clustering>
<clus scale="   45.890">  2  6  1 -1</clus>
<clus scale="   49.807">  2  4  1 -1</clus>
<clus scale="   81.462">  2  3  1 -1</clus>
<clus scale="   81.462">  1  3  2 -1</clus>
</clustering>
</event>
<event>
 6    0  0.4227619E+002  0.2137516E+03  0.7546771E-02  0.1138629E+00
         21   -1    0    0  504  501  0.00000000000E+00  0.00000000000E+00  0.51470354919E+03  0.51470354919E+03  0.00000000000E+00 0. -1.
         21   -1    0    0  506  502 -0.00000000000E+00 -0.00000000000E+00 -0.55429709471E+03  0.55429709471E+03  0.00000000000E+00 0. -1.
         21    1    1    2  503  501  0.59754648956E+02 -0.38834910758E+02  0.26951122549E+03  0.27877422590E+03  0.00000000000E+00 0. -1.
         21    1    1    2  504  502 -0.12133307570E+03 -0.75439768769E+02 -0.15617359324E+02  0.14372465301E+03  0.00000000000E+00 0. -1.
         21    1    1    2  505  503  0.81003319027E+02 -0.11744143798E+03  0.11044441507E+03  0.18042172228E+03  0.00000000000E+00 0. -1.
         21    1    1    2  506  505 -0.19424892282E+02  0.23171611751E+03 -0.40393182675E+03  0.46608004271E+03  0.00000000000E+00 0. -1.
<scales pt_clust_3="71.26548" pt_clust_4="135.91218" pt_clust_5="14000.00000" pt_clust_6="213.75161"></scales>
<clustering>
<clus scale="   71.265">  1  3  2 -1</clus>
<clus scale="  135.912">  1  4  2 -1</clus>
<clus scale="  213.752">  2  6  1 -1</clus>
<clus scale="   71.265">  1  3  2 -1</clus>
</clustering>
</event>
<event>
 6    0  0.4227619E+002  0.1197608E+03  0.7546771E-02  0.1243492E+00
         21   -1    0    0  505  501  0.00000000000E+00  0.00000000000E+00  0.25327025324E+02  0.25327025324E+02  0.00000000000E+00 0. -1.
         21   -1    0    0  504  502 -0.00000000000E+00 -0.00000000000E+00 -0.11755416944E+04  0.11755416944E+04  0.00000000000E+00 0. -1.
         21    1    1    2  503  501  0.11337616551E+03  0.43229925246E+02 -0.23063433675E+03  0.26060540791E+03  0.00000000000E+00 0. -1.
         21    1    1    2  504  503  0.27571408559E+02 -0.13527004919E+02 -0.20669898965E+03  0.20896802328E+03  0.00000000000E+00 0.  1.
         21    1    1    2  505  506 -0.12324834080E+03  0.57254094049E+01 -0.52910149619E+03  0.54329672104E+03  0.00000000000E+00 0. -1.
         21    1    1    2  506  502 -0.17699233265E+02 -0.35428329732E+02 -0.18377984650E+03  0.18799856750E+03  0.00000000000E+00 0. -1.
<scales pt_clust_3="14000.00000" pt_clust_4="30.71095" pt_clust_5="119.76085" pt_clust_6="39.99836"></scales>
<clustering>
<clus scale="   30.711">  2  4  1 -1</clus>
<clus scale="   39.998">  2  6  1 -1</clus>
<clus scale="  119.761">  2  5  1 -1</clus>
<clus scale="  119.761">  1  3  2 -1</clus>
</clustering>
</event>
<event>
 6    0  0.4227619E+002  0.2028954E+03  0.7546771E-02  0.1147319E+00
         21   -1    0    0  504  501  0.00000000000E+00  0.00000000000E+00  0.80460390788E+03  0.80460390788E+03  0.00000000000E+00 0.  1.
         21   -1    0    0  506  502 -0.00000000000E+00 -0.00000000000E+00 -0.45828106176E+03  0.45828106176E+03  0.00000000000E+00 0.  1.
         21    1    1    2  503  502  0.54098003636E+02  0.96431507517E+02  0.35655292537E+03  0.37330365418E+03  0.00000000000E+00 0.  1.
         21    1    1    2  504  503 -0.15163678253E-01  0.95596405196E+02  0.38769463259E+03  0.39930665041E+03  0.00000000000E+00 0.  1.
         21    1    1    2  505  501 -0.28581863733E+01 -0.15365656387E+03 -0.95027996927E+02  0.18068986981E+03  0.00000000000E+00 0.  1.
         21    1    1    2  506  505 -0.51224653584E+02 -0.38371348840E+02 -0.30289671491E+03  0.30958479525E+03  0.00000000000E+00 0.  1.
<scales pt_clust_3="52.78433" pt_clust_4="52.78433" pt_clust_5="194.79208" pt_clust_6="64.00254"></scales>
<clustering>
<clus scale="   52.784">  3  4 -1 -1</clus>
<clus scale="   64.003">  2  6  1 -1</clus>
<clus scale="  194.792">  2  5  1 -1</clus>
<clus scale="  202.895">  1  3  2 -1</clus>
</clustering>
</event>
<event>
 6    0  0.4227619E+002  0.2629416E+03  0.7546771E-02  0.1105389E+00
         21   -1    0    0  504  501  0.00000000000E+00  0.00000000000E+00  0.11375751473E+04  0.11375751473E+04  0.00000000000E+00 0. -1.
         21   -1    0    0  506  502 -0.00000000000E+00 -0.00000000000E+00 -0.20940652854E+03  0.20940652854E+03  0.00000000000E+00 0. -1.
         21    1    1    2  503  505 -0.15918743371E+03  0.20059512538E+03  0.39298909346E+03  0.46906233163E+03  0.00000000000E+00 0. -1.
         21    1    1    2  504  502  0.16057438874E+03  0.11145806119E+03 -0.27738097114E+02  0.19742450647E+03  0.00000000000E+00 0. -1.
         21    1    1    2  505  501  0.28458963593E+02  0.99335853389E+01  0.16510498754E+03  0.16783398237E+03  0.00000000000E+00 0.  1.
         21    1    1    2  506  503 -0.29845918624E+02 -0.32198677191E+03  0.39781263484E+03  0.51266085532E+03  0.00000000000E+00 0. -1.
<scales pt_clust_3="262.94159" pt_clust_4="198.00488" pt_clust_5="30.14281" pt_clust_6="14000.00000"></scales>
<clustering>
<clus scale="   30.143">  1  5  2 -1</clus>
<clus scale="  198.005">  2  4  1 -1</clus>
<clus scale="  262.942">  1  3  2 -1</clus>
<clus scale="   30.143">  1  3  2 -1</clus>
</clustering>
</event>
<event>
 6    0  0.4227619E+002  0.1319153E+03  0.7546771E-02  0.1224641E+00
         21   -1    0    0  506  501  0.00000000000E+00  0.00000000000E+00  0.63486477085E+03  0.63486477085E+03  0.00000000000E+00 0. -1.
         21   -1    0    0  504  502 -0.00000000000E+00 -0.00000000000E+00 -0.94384800018E+03  0.94384800018E+03  0.00000000000E+00 0. -1.
         21    1    1    2  503  502 -0.12160539684E+02 -0.38851587184E+02 -0.89561887965E+03  0.89654364207E+03  0.00000000000E+00 0. -1.
         21    1    1    2  504  505  0.77327516328E+02  0.10865643629E+03  0.41737734723E+03  0.43816619668E+03  0.00000000000E+00 0. -1.
         21    1    1    2  505  501  0.29476418625E+02 -0.11458529920E+02  0.11691137764E+03  0.12111328327E+03  0.00000000000E+00 0. -1.
         21    1    1    2  506  503 -0.94643395270E+02 -0.58346319184E+02  0.52346925449E+02  0.12288964901E+03  0.00000000000E+00 0.  1.
<scales pt_clust_3="40.71217" pt_clust_4="14000.00000" pt_clust_5="31.62526" pt_clust_6="131.91532"></scales>
<clustering>
<clus scale="   31.625">  1  5  2 -1</clus>
<clus scale="   40.712">  2  3  1 -1</clus>
<clus scale="  131.915">  2  6  1 -1</clus>
<clus scale="   31.625">  1  3  2 -1</clus>
</clustering>
</event>
<event>
 6    0  0.4227619E+002  0.1009940E+03  0.7546771E-02  0.1278219E+00
         21   -1    0    0  504  501  0.00000000000E+00  0.00000000000E+00  0.77131919811E+03  0.77131919811E+03  0.00000000000E+00 0. -1.
         21   -1    0    0  506  502 -0.00000000000E+00 -0.00000000000E+00 -0.85116978469E+03  0.85116978469E+03  0.00000000000E+00 0. -1.
         21    1    1    2  503  502 -0.25476852223E+02  0.56384784488E+02 -0.79580817632E+03  0.79820985175E+03  0.00000000000E+00 0. -1.
         21    1    1    2  504  503  0.11585596556E+03 -0.12012004870E+03  0.64060166955E+03  0.66198333052E+03  0.00000000000E+00 0. -1.
         21    1    1    2  505  501 -0.44185803902E+02  0.50414208389E+02  0.89831756089E+02  0.11208801040E+03  0.00000000000E+00 0. -1.
         21    1    1    2  506  505 -0.46193309439E+02  0.13321055819E+02 -0.14475835891E+02  0.50207790130E+02  0.00000000000E+00 0.  1.
<scales pt_clust_3="14000.00000" pt_clust_4="100.99404" pt_clust_5="67.58799" pt_clust_6="48.07569"></scales>
<clustering>
<clus scale="   48.076">  2  6  1 -1</clus>
<clus scale="   67.588">  1  5  2 -1</clus>
<clus scale="  100.994">  1  4  2 -1</clus>
<clus scale="   67.588">  1  3  2 -1</clus>
</clustering>
</event>
<event>
 6    0  0.4227619E+002  0.1204056E+03  0.7546771E-02  0.1242429E+00
         21   -1    0    0  506  501  0.00000000000E+00  0.00000000000E+00  0.24319315794E+02  0.24319315794E+02  0.00000000000E+00 0.  1.
         21   -1    0    0  504  502 -0.00000000000E+00 -0.00000000000E+00 -0.11155023673E+04  0.11155023673E+04  0.00000000000E+00 0.  1.
         21    1    1    2  503  501  0.68556107446E+01  0.66810229308E+02 -0.14788718618E+03  0.16242298475E+03  0.00000000000E+00 0.  1.
         21    1    1    2  504  505 -0.69057201916E+02  0.28732174836E+02 -0.34986224561E+03  0.35776811752E+03  0.00000000000E+00 0.  1.
         21    1    1    2  505  503  0.20843444498E+02  0.34608609032E+02 -0.16928033152E+03  0.17403458173E+03  0.00000000000E+00 0.  1.
         21    1    1    2  506  502  0.41358146674E+02 -0.13015101318E+03 -0.42415328818E+03  0.44559599909E+03  0.00000000000E+00 0.  1.
<scales pt_clust_3="30.58875" pt_clust_4="74.79596" pt_clust_5="30.58875" pt_clust_6="113.76317"></scales>
<clustering>
<clus scale="   30.589">  3  5 -1 -1</clus>
<clus scale="   74.796">  2  4  1 -1</clus>
<clus scale="  113.763">  2  6  1 -1</clus>
<clus scale="  120.406">  1  3  2 -1</clus>
</clustering>
</event>
<event>
 6    0  0.4227619E+002  0.8899753E+02  0.7546771E-02  0.1305298E+00
         21   -1    0    0  503  501  0.00000000000E+00  0.00000000000E+00  0.13532661214E+03  0.13532661214E+03  0.00000000000E+00 0. -1.
         21   -1    0    0  505  502 -0.00000000000E+00 -0.00000000000E+00 -0.28796370441E+03  0.28796370441E+03  0.00000000000E+00 0. -1.
         21    1    1    2  503  504 -0.88588538236E+02 -0.54266442375E+02  0.39465747911E+02  0.11113199869E+03  0.00000000000E+00 0. -1.
         21    1    1    2  504  506  0.32558059595E+02  0.70703897021E+02 -0.15545843836E+02  0.79377210577E+02  0.00000000000E+00 0. -1.
         21    1    1    2  505  501 -0.84931176239E+01  0.41697459183E+02 -0.12439119565E+03  0.13146855405E+03  0.00000000000E+00 0. -1.
         21    1    1    2  506  502  0.64523596265E+02 -0.58134913828E+02 -0.52165800689E+02  0.10131255323E+03  0.00000000000E+00 0. -1.
<scales pt_clust_3="88.99753" pt_clust_4="14000.00000" pt_clust_5="42.55363" pt_clust_6="71.47725"></scales>
<clustering>
<clus scale="   42.554">  2  5  1 -1</clus>
<clus scale="   71.477">  2  6  1 -1</clus>
<clus scale="   88.998">  1  3  2 -1</clus>
<clus scale="   88.998">  1  3  2 -1</clus>
</clustering>
</event>
<event>
 6    0  0.4227619E+002  0.1072147E+03  0.7546771E-02  0.1265816E+00
         21   -1    0    0  506  501  0.00000000000E+00  0.00000000000E+00  0.18530168505E+04  0.18530168505E+04  0.00000000000E+00 0. -1.
         21   -1    0    0  505  502 -0.00000000000E+00 -0.00000000000E+00 -0.11266036079E+03  0.11266036079E+03  0.00000000000E+00 0. -1.
         21    1    1    2  503  501 -0.55496222637E+02 -0.12552102664E+02  0.51483692276E+03  0.51797146933E+03  0.00000000000E+00 0. -1.
         21    1    1    2  504  502  0.77126155943E+01  0.58763965720E+02 -0.73070921100E+02  0.94085320943E+02  0.00000000000E+00 0. -1.
         21    1    1    2  505  503 -0.18485343422E+02 -0.15281163723E+03  0.22438308464E+03  0.27210452599E+03  0.00000000000E+00 0. -1.
         21    1    1    2  506  504  0.66268950465E+02  0.10659977417E+03  0.10742074034E+04  0.10815158950E+04  0.00000000000E+00 0. -1.
<scales pt_clust_3="56.89803" pt_clust_4="59.11482" pt_clust_5="107.21472" pt_clust_6="14000.00000"></scales>
<clustering>
<clus scale="   56.898">  1  3  2 -1</clus>
<clus scale="   59.115">  2  4  1 -1</clus>
<clus scale="  107.215">  2  5  1 -1</clus>
<clus scale="   56.898">  1  3  2 -1</clus>
</clustering>
</event>
<event>
 6    0  0.4227619E+002  0.7194094E+02  0.7546771E-02  0.1353614E+00
         21   -1    0    0  506  501  0.00000000000E+00  0.00000000000E+00  0.62789166891E+03  0.62789166891E+03  0.00000000000E+00 0.  1.
         21   -1    0    0  503  502 -0.00000000000E+00 -0.00000000000E+00 -0.86846697145E+03  0.86846697145E+03  0.00000000000E+00 0.  1.
         21    1    1    2  503  501  0.23627433960E+02  0.22628919418E+02 -0.51707391716E+03  0.51810786468E+03  0.00000000000E+00 0.  1.
         21    1    1    2  504  502 -0.44262656992E+02  0.49632593904E+02 -0.30600669026E+03  0.31314959950E+03  0.00000000000E+00 0.  1.
         21    1    1    2  505  504  0.77154096882E+02 -0.27416408259E+02  0.38559569729E+01  0.81971229780E+02  0.00000000000E+00 0. -1.
         21    1    1    2  506  505 -0.56518873850E+02 -0.44845105063E+02  0.57864934792E+03  0.58312994641E+03  0.00000000000E+00 0.  1.
<scales pt_clust_3="32.71580" pt_clust_4="14000.00000" pt_clust_5="71.17289" pt_clust_6="71.94094"></scales>
<clustering>
<clus scale="   32.716">  2  3  1 -1</clus>
<clus scale="   71.941">  1  6  2 -1</clus>
<clus scale="   71.173">  1  5  2 -1</clus>
<clus scale="   71.941">  1  3  2 -1</clus>
</clustering>
</event>
<event>
 6    0  0.4227619E+002  0.1644625E+03  0.7546771E-02  0.1183749E+00
         21   -1    0    0  505  501  0.00000000000E+00  0.00000000000E+00  0.21362338665E+04  0.21362338665E+04  0.00000000000E+00 0. -1.
         21   -1    0    0  503  502 -0.00000000000E+00 -0.00000000000E+00 -0.69990763813E+02  0.69990763813E+02  0.00000000000E+00 0. -1.
         21    1    1    2  503  506 -0.41186917674E+02  0.61108731954E+02  0.52053555005E+02  0.90223122852E+02  0.00000000000E+00 0. -1.
         21    1    1    2  504  502  0.90801826639E+02 -0.19527345340E+03  0.25276642156E+03  0.33206559170E+03  0.00000000000E+00 0. -1.
         21    1    1    2  505  504  0.68708317634E+01  0.19722325979E+03  0.11819384896E+04  0.11982999690E+04  0.00000000000E+00 0. -1.
         21    1    1    2  506  501 -0.56485740728E+02 -0.63058538348E+02  0.57948463645E+03  0.58563594668E+03  0.00000000000E+00 0.  1.
<scales pt_clust_3="73.69287" pt_clust_4="164.46246" pt_clust_5="14000.00000" pt_clust_6="83.67993"></scales>
<clustering>
<clus scale="   73.693">  2  3  1 -1</clus>
<clus scale="   83.680">  1  6  2 -1</clus>
<clus scale="  164.462">  2  4  1 -1</clus>
<clus scale="   83.680">  1  3  2 -1</clus>
</clustering>
</event>
<event>
 6    0  0.4227619E+002  0.1290605E+03  0.7546771E-02  0.1228856E+00
         21   -1    0    0  506  501  0.00000000000E+00  0.00000000000E+00  0.46752227558E+03  0.46752227558E+03  0.00000000000E+00 0.  1.
         21   -1    0    0  505  502 -0.00000000000E+00 -0.00000000000E+00 -0.30799029061E+03  0.30799029061E+03  0.00000000000E+00 0.  1.
         21    1    1    2  503  501  0.81383767812E+01  0.32447375759E+02  0.28273319785E+02  0.43800068287E+02  0.00000000000E+00 0.  1.
         21    1    1    2  504  502  0.10725754434E+03  0.21333634841E+02 -0.33343429237E+02  0.11432886367E+03  0.00000000000E+00 0.  1.
         21    1    1    2  505  503 -0.13783068969E+03  0.61089252669E+02 -0.19081797603E+03  0.24318860127E+03  0.00000000000E+00 0.  1.
         21    1    1    2  506  504  0.22434768563E+02 -0.11487026327E+03  0.35542007045E+03  0.37419503297E+03  0.00000000000E+00 0.  1.
<scales pt_clust_3="33.45243" pt_clust_4="14000.00000" pt_clust_5="129.06051" pt_clust_6="92.22056"></scales>
<clustering>
<clus scale="   33.452">  1  3  2 -1</clus>
<clus scale="   92.221">  1  6  2 -1</clus>
<clus scale="  129.061">  2  5  1 -1</clus>
<clus scale="   33.452">  1  3  2 -1</clus>
</clustering>
</event>
<event>
 6    0  0.4227619E+002  0.1592670E+03  0.7546771E-02  0.1189527E+00
         21   -1    0    0  505  501  0.00000000000E+00  0.00000000000E+00  0.75894335830E+03  0.75894335830E+03  0.00000000000E+00 0. -1.
         21   -1    0    0  504  502 -0.00000000000E+00 -0.00000000000E+00 -0.28150651937E+03  0.28150651937E+03  0.00000000000E+00 0. -1.
         21    1    1    2  503  502  0.65224287560E+02  0.43351005913E+02 -0.11312168895E+03  0.13758645977E+03  0.00000000000E+00 0. -1.
         21    1    1    2  504  501  0.13354820718E+03  0.49793747004E+01  0.26498028429E+03  0.29677343020E+03  0.00000000000E+00 0. -1.
         21    1    1    2  505  506  0.16950704488E+02 -0.57031242941E+02  0.37903146393E+03  0.38367269867E+03  0.00000000000E+00 0. -1.
         21    1    1    2  506  503 -0.21572319922E+03  0.87008623280E+01 -0.53453220344E+02  0.22241728902E+03  0.00000000000E+00 0. -1.
<scales pt_clust_3="77.77324" pt_clust_4="14000.00000" pt_clust_5="59.49697" pt_clust_6="159.26702"></scales>
<clustering>
<clus scale="   59.497">  1  5  2 -1</clus>
<clus scale="   77.773">  2  3  1 -1</clus>
<clus scale="  159.267">  2  6  1 -1</clus>
<clus scale="   59.497">  1  3  2 -1</clus>
</clustering>
</event>
<event>
 6    0  0.4227619E+002  0.2394460E+03  0.7546771E-02  0.1120162E+00
         21   -1    0    0  506  501  0.00000000000E+00  0.00000000000E+00  0.48978160627E+03  0.48978160627E+03  0.00000000000E+00 0.  1.
         21   -1    0    0  505  502 -0.00000000000E+00 -0.00000000000E+00 -0.22117836308E+03  0.22117836308E+03  0.00000000000E+00 0.  1.
         21    1    1    2  503  502  0.22032139051E+03  0.35221814394E+02  0.27932771500E+02  0.22486069253E+03  0.00000000000E+00 0.  1.
         21    1    1    2  504  501 -0.24137359865E+03 -0.59006321864E+02  0.21415663003E+03  0.32803356891E+03  0.00000000000E+00 0.  1.
         21    1    1    2  505  504  0.32112580548E+02 -0.19903108864E+02 -0.53936994977E+02  0.65852494250E+02  0.00000000000E+00 0.  1.
         21    1    1    2  506  503 -0.11060372407E+02  0.43687616334E+02  0.80450836634E+02  0.92213213662E+02  0.00000000000E+00 0. -1.
<scales pt_clust_3="239.44596" pt_clust_4="14000.00000" pt_clust_5="37.78031" pt_clust_6="44.08538"></scales>
<clustering>
<clus scale="   37.780">  2  5  1 -1</clus>
<clus scale="   44.085">  1  6  2 -1</clus>
<clus scale="  239.446">  2  3  1 -1</clus>
<clus scale="   44.085">  1  3  2 -1</clus>
</clustering>
</event>
<event>
 6    0  0.4227619E+002  0.6520482E+02  0.7546771E-02  0.1377203E+00
         21   -1    0    0  506  501  0.00000000000E+00  0.00000000000E+00  0.55231707503E+03  0.55231707503E+03  0.00000000000E+00 0.  1.
         21   -1    0    0  504  502 -0.00000000000E+00 -0.00000000000E+00 -0.66337387653E+02  0.66337387653E+02  0.00000000000E+00 0.  1.
         21    1    1    2  503  502 -0.38127913572E+02  0.12829115751E+02 -0.19000070943E+01  0.40273242125E+02  0.00000000000E+00 0.  1.
         21    1    1    2  504  505  0.87105293370E+02 -0.16375517022E+02  0.24171884599E+02  0.91868219183E+02  0.00000000000E+00 0.  1.
         21    1    1    2  505  501  0.36166241785E+02 -0.21763600096E+02  0.27164115819E+03  0.27490101883E+03  0.00000000000E+00 0.  1.
         21    1    1    2  506  503 -0.85143621583E+02  0.25310001367E+02  0.19206665168E+03  0.21161198254E+03  0.00000000000E+00 0.  1.
<scales pt_clust_3="40.22840" pt_clust_4="65.20482" pt_clust_5="40.79581" pt_clust_6="14000.00000"></scales>
<clustering>
<clus scale="   40.228">  2  3  1 -1</clus>
<clus scale="   40.796">  1  5  2 -1</clus>
<clus scale="   65.205">  2  4  1 -1</clus>
<clus scale="   40.796">  1  3  2 -1</clus>
</clustering>
</event>
<event>
 6    0  0.4227619E+002  0.1535192E+03  0.7546771E-02  0.1196214E+00
         21   -1    0    0  506  501  0.00000000000E+00  0.00000000000E+00  0.19399447105E+03  0.19399447105E+03  0.00000000000E+00 0.  1.
         21   -1    0    0  503  502 -0.00000000000E+00 -0.00000000000E+00 -0.18135630417E+04  0.18135630417E+04  0.00000000000E+00 0.  1.
         21    1    1    2  503  505  0.57538934613E+02  0.22222426748E+02 -0.15214204229E+04  0.15226702428E+04  0.00000000000E+00 0.  1.
         21    1    1    2  504  501 -0.42056920272E+02  0.41133015670E+02 -0.21685614265E+02  0.62697491073E+02  0.00000000000E+00 0. -1.
         21    1    1    2  505  504  0.23559727242E+02  0.12062526356E+03 -0.17187305123E+03  0.21129567127E+03  0.00000000000E+00 0.  1.
         21    1    1    2  506  502 -0.39041741583E+02 -0.18398070598E+03  0.95410517664E+02  0.21089410764E+03  0.00000000000E+00 0.  1.
<scales pt_clust_3="61.59352" pt_clust_4="58.82780" pt_clust_5="153.51918" pt_clust_6="14000.00000"></scales>
<clustering>
<clus scale="   58.828">  1  4  2 -1</clus>
<clus scale="   61.594">  2  3  1 -1</clus>
<clus scale="  153.519">  2  5  1 -1</clus>
<clus scale="   58.828">  1  3  2 -1</clus>
</clustering>
</event>
<event>
 6    0  0.4227619E+002  0.8970273E+02  0.7546771E-02  0.1303573E+00
         21   -1    0    0  503  501  0.00000000000E+00  0.00000000000E+00  0.74601327522E+02  0.74601327522E+02  0.00000000000E+00 0.  1.
         21   -1    0    0  506  502 -0.00000000000E+00 -0.00000000000E+00 -0.25476569901E+03  0.25476569901E+03  0.00000000000E+00 0.  1.
         21    1    1    2  503  502  0.17622238381E+02 -0.32467816160E+02 -0.52331290402E+02  0.64056743025E+02  0.00000000000E+00 0.  1.
         21    1    1    2  504  505 -0.50959915361E+02 -0.63700495955E+02 -0.21148284045E+02  0.84272866787E+02  0.00000000000E+00 0.  1.
         21    1    1    2  505  501 -0.31437988361E+02  0.19863433944E+02 -0.36109635208E+01  0.37362309588E+02  0.00000000000E+00 0.  1.
         21    1    1    2  506  504  0.64775665340E+02  0.76304878171E+02 -0.10307383352E+03  0.14367510713E+03  0.00000000000E+00 0.  1.
<scales pt_clust_3="36.94188" pt_clust_4="14000.00000" pt_clust_5="33.87952" pt_clust_6="89.70273"></scales>
<clustering>
<clus scale="   36.942">  2  3  1 -1</clus>
<clus scale="   33.880">  1  5  2 -1</clus>
<clus scale="   89.703">  2  6  1 -1</clus>
<clus scale="   33.880">  1  3  2 -1</clus>
</clustering>
</event>
<event>
 6    0  0.4227619E+002  0.3462772E+03  0.7546771E-02  0.1064153E+00
         21   -1    0    0  505  501  0.00000000000E+00  0.00000000000E+00  0.18960840716E+04  0.18960840716E+04  0.00000000000E+00 0.  1.
         21   -1    0    0  504  502 -0.00000000000E+00 -0.00000000000E+00 -0.21994363638E+03  0.21994363638E+03  0.00000000000E+00 0.  1.
         21    1    1    2  503  501 -0.19282042224E+03  0.33051341799E+03  0.13211930074E+04  0.13754889304E+04  0.00000000000E+00 0.  1.
         21    1    1    2  504  506  0.23459663995E+02 -0.38287391177E+02 -0.71401676717E+02  0.84347374564E+02  0.00000000000E+00 0. -1.
         21    1    1    2  505  502 -0.11193444574E+02 -0.30338882680E+03  0.33975325485E+03  0.45563400620E+03  0.00000000000E+00 0.  1.
         21    1    1    2  506  503  0.18055420282E+03  0.11162799987E+02  0.86595849701E+02  0.20055739688E+03  0.00000000000E+00 0.  1.
<scales pt_clust_3="14000.00000" pt_clust_4="44.90301" pt_clust_5="346.27719" pt_clust_6="190.00963"></scales>
<clustering>
<clus scale="   44.903">  2  4  1 -1</clus>
<clus scale="  190.010">  2  6  1 -1</clus>
<clus scale="  346.277">  2  5  1 -1</clus>
<clus scale="  346.277">  1  3  2 -1</clus>
</clustering>
</event>
<event>
 6    0  0.4227619E+002  0.1197802E+03  0.7546771E-02  0.1243460E+00
         21   -1    0    0  505  501  0.00000000000E+00  0.00000000000E+00  0.64748169596E+02  0.64748169596E+02  0.00000000000E+00 0. -1.
         21   -1    0    0  504  502 -0.00000000000E+00 -0.00000000000E+00 -0.10033986244E+04  0.10033986244E+04  0.00000000000E+00 0. -1.
         21    1    1    2  503  502 -0.34132412510E+02 -0.71393946685E+01 -0.25701683233E+03  0.25937163423E+03  0.00000000000E+00 0. -1.
         21    1    1    2  504  506 -0.10168663711E+03 -0.55509666118E+02 -0.32397411927E+03  0.34406500135E+03  0.00000000000E+00 0. -1.
         21    1    1    2  505  503  0.12873705793E+03  0.31515216692E+02 -0.39437654909E+03  0.41605204174E+03  0.00000000000E+00 0. -1.
         21    1    1    2  506  501  0.70819916905E+01  0.31133844095E+02  0.36717045914E+02  0.48658116642E+02  0.00000000000E+00 0. -1.
<scales pt_clust_3="34.19602" pt_clust_4="14000.00000" pt_clust_5="119.78018" pt_clust_6="31.92915"></scales>
<clustering>
<clus scale="   31.929">  1  6  2 -1</clus>
<clus scale="   34.196">  2  3  1 -1</clus>
<clus scale="  119.780">  2  5  1 -1</clus>
<clus scale="   31.929">  1  3  2 -1</clus>
</clustering>
</event>
<event>
 6    0  0.4227619E+002  0.9032896E+02  0.7546771E-02  0.1302057E+00
         21   -1    0    0  506  501  0.00000000000E+00  0.00000000000E+00  0.25615440148E+03  0.25615440148E+03  0.00000000000E+00 0. -1.
         21   -1    0    0  505  502 -0.00000000000E+00 -0.00000000000E+00 -0.14457066812E+04  0.14457066812E+04  0.00000000000E+00 0. -1.
         21    1    1    2  503  502 -0.40000614994E+02 -0.29945648067E+02 -0.12107774464E+04  0.12118080771E+04  0.00000000000E+00 0. -1.
         21    1    1    2  504  501 -0.89018370739E+02 -0.87636477448E+02  0.28209765764E+02  0.12806331791E+03  0.00000000000E+00 0. -1.
         21    1    1    2  505  504  0.10031411783E+03  0.70535618209E+02 -0.15870891441E+03  0.20056598711E+03  0.00000000000E+00 0. -1.
         21    1    1    2  506  503  0.28704867908E+02  0.47046507305E+02  0.15172431524E+03  0.16142370063E+03  0.00000000000E+00 0. -1.
<scales pt_clust_3="49.96790" pt_clust_4="14000.00000" pt_clust_5="90.32896" pt_clust_6="54.15356"></scales>
<clustering>
<clus scale="   49.968">  2  3  1 -1</clus>
<clus scale="   54.154">  1  6  2 -1</clus>
<clus scale="   90.329">  2  5  1 -1</clus>
<clus scale="   54.154">  1  3  2 -1</clus>
</clustering>
</event>
<event>
 6    0  0.4227619E+002  0.1110175E+03  0.7546771E-02  0.1258697E+00
         21   -1    0    0  506  501  0.00000000000E+00  0.00000000000E+00  0.83035609231E+03  0.83035609231E+03  0.00000000000E+00 0.  1.
         21   -1    0    0  505  502 -0.00000000000E+00 -0.00000000000E+00 -0.55922940498E+03  0.55922940498E+03  0.00000000000E+00 0.  1.
         21    1    1    2  503  501 -0.13565749130E+03  0.10653402336E+03  0.64247151161E+03  0.66522334318E+03  0.00000000000E+00 0.  1.
         21    1    1    2  504  502  0.19771395262E+02 -0.40699837013E+02 -0.18524772848E+02  0.48893271649E+02  0.00000000000E+00 0.  1.
         21    1    1    2  505  503  0.42712818386E+02 -0.51002788945E+02 -0.50319804422E+03  0.50757653712E+03  0.00000000000E+00 0.  1.
         21    1    1    2  506  504  0.73173277650E+02 -0.14831397399E+02  0.15037799278E+03  0.16789234534E+03  0.00000000000E+00 0.  1.
<scales pt_clust_3="14000.00000" pt_clust_4="45.24804" pt_clust_5="111.01749" pt_clust_6="75.12125"></scales>
<clustering>
<clus scale="   45.248">  2  4  1 -1</clus>
<clus scale="   75.121">  1  6  2 -1</clus>
<clus scale="  111.017">  2  5  1 -1</clus>
<clus scale="   75.121">  1  3  2 -1</clus>
</clustering>
</event>
<event>
 6    0  0.4227619E+002  0.7000984E+02  0.7546771E-02  0.1360060E+00
         21   -1    0    0  503  501  0.00000000000E+00  0.00000000000E+00  0.67575988232E+03  0.67575988232E+03  0.00000000000E+00 0.  1.
         21   -1    0    0  504  502 -0.00000000000E+00 -0.00000000000E+00 -0.13436754849E+04  0.13436754849E+04  0.00000000000E+00 0. -1.
         21    1    1    2  503  502  0.50073985145E+01 -0.71333176004E+02 -0.79044115897E+03  0.79366915137E+03  0.00000000000E+00 0. -1.
         21    1    1    2  504  505 -0.71835800645E+02  0.51223663934E+02 -0.54345765035E+03  0.55057285052E+03  0.00000000000E+00 0. -1.
         21    1    1    2  505  506  0.46874541344E+02  0.53810174861E+02  0.39503757884E+03  0.40143174544E+03  0.00000000000E+00 0.  1.
         21    1    1    2  506  501  0.19953860787E+02 -0.33700662791E+02  0.27094562792E+03  0.27376161989E+03  0.00000000000E+00 0.  1.
<scales pt_clust_3="70.00984" pt_clust_4="14000.00000" pt_clust_5="69.66969" pt_clust_6="39.16492"></scales>
<clustering>
<clus scale="   39.165">  1  6  2 -1</clus>
<clus scale="   69.670">  1  5  2 -1</clus>
<clus scale="   70.010">  2  3  1 -1</clus>
<clus scale="   39.165">  1  3  2 -1</clus>
</clustering>
</event>
<event>
 6    0  0.4227619E+002  0.8426181E+02  0.7546771E-02  0.1317374E+00
         21   -1    0    0  505  501  0.00000000000E+00  0.00000000000E+00  0.72552445910E+03  0.72552445910E+03  0.00000000000E+00 0. -1.
         21   -1    0    0  504  502 -0.00000000000E+00 -0.00000000000E+00 -0.38852884189E+03  0.38852884189E+03  0.00000000000E+00 0. -1.
         21    1    1    2  503  501 -0.53823779852E+00  0.91269798686E+02  0.62663780703E+03  0.63324987726E+03  0.00000000000E+00 0. -1.
         21    1    1    2  504  506  0.11760692569E+02  0.35154827275E+02 -0.51965325278E+02  0.63832364845E+02  0.00000000000E+00 0. -1.
         21    1    1    2  505  502  0.34649560513E+02 -0.15168881630E+02  0.73869440056E+02  0.82990247547E+02  0.00000000000E+00 0. -1.
         21    1    1    2  506  503 -0.45872015284E+02 -0.11125574433E+03 -0.31154630459E+03  0.33398081133E+03  0.00000000000E+00 0. -1.
<scales pt_clust_3="14000.00000" pt_clust_4="37.06988" pt_clust_5="37.78200" pt_clust_6="84.26181"></scales>
<clustering>
<clus scale="   37.070">  2  4  1 -1</clus>
<clus scale="   37.782">  1  5  2 -1</clus>
<clus scale="   84.262">  2  6  1 -1</clus>
<clus scale="   37.782">  1  3  2 -1</clus>
</clustering>
</event>
<event>
 6    0  0.4227619E+002  0.8654777E+02  0.7546771E-02  0.1311434E+00
         21   -1    0    0  506  501  0.00000000000E+00  0.00000000000E+00  0.34906890079E+03  0.34906890079E+03  0.00000000000E+00 0.  1.
         21   -1    0    0  504  502 -0.00000000000E+00 -0.00000000000E+00 -0.76316330784E+02  0.76316330784E+02  0.00000000000E+00 0.  1.
         21    1    1    2  503  502  0.40771873089E+01 -0.30386902301E+02 -0.11029157478E+02  0.32582658002E+02  0.00000000000E+00 0.  1.
         21    1    1    2  504  505 -0.12127027515E+02  0.48411967178E+02 -0.91844021109E+01  0.50745803812E+02  0.00000000000E+00 0.  1.
         21    1    1    2  505  501 -0.32931081081E+02  0.67461786602E+02  0.84397362699E+02  0.11295336907E+03  0.00000000000E+00 0.  1.
         21    1    1    2  506  503  0.40980921287E+02 -0.85486851479E+02  0.20856876689E+03  0.22910340069E+03  0.00000000000E+00 0.  1.
<scales pt_clust_3="30.65921" pt_clust_4="33.21322" pt_clust_5="14000.00000" pt_clust_6="86.54777"></scales>
<clustering>
<clus scale="   30.659">  2  3  1 -1</clus>
<clus scale="   33.213">  2  4  1 -1</clus>
<clus scale="   86.548">  1  6  2 -1</clus>
<clus scale="   86.548">  1  3  2 -1</clus>
</clustering>
</event>
<event>
 6    0  0.4227619E+002  0.1648165E+03  0.7546771E-02  0.1183364E+00
         21   -1    0    0  503  501  0.00000000000E+00  0.00000000000E+00  0.37964503509E+02  0.37964503509E+02  0.00000000000E+00 0.  1.
         21   -1    0    0  505  502 -0.00000000000E+00 -0.00000000000E+00 -0.15839217708E+04  0.15839217708E+04  0.00000000000E+00 0.  1.
         21    1    1    2  503  506 -0.20187594289E+02 -0.36927957009E+02 -0.87201949160E+02  0.96826612609E+02  0.00000000000E+00 0. -1.
         21    1    1    2  504  501  0.57030620813E+02  0.32149428234E+02 -0.61725808099E+03  0.62072023972E+03  0.00000000000E+00 0.  1.
         21    1    1    2  505  504  0.22755334900E+02  0.95946246625E+02 -0.76478723303E+03  0.77111801905E+03  0.00000000000E+00 0.  1.
         21    1    1    2  506  502 -0.59598361424E+02 -0.91167717850E+02 -0.76710004068E+02  0.13322140288E+03  0.00000000000E+00 0.  1.
<scales pt_clust_3="35.60369" pt_clust_4="53.98847" pt_clust_5="53.98847" pt_clust_6="161.41549"></scales>
<clustering>
<clus scale="   35.604">  3  6 -1 -1</clus>
<clus scale="   53.988">  4  5 -1 -1</clus>
<clus scale="  161.415">  1  3  2 -1</clus>
<clus scale="  161.415">  1  3  2 -1</clus>
</clustering>
</event>
<event>
 6    0  0.4227619E+002  0.4177911E+03  0.7546771E-02  0.1037788E+00
         21   -1    0    0  503  501  0.00000000000E+00  0.00000000000E+00  0.73345264370E+03  0.73345264370E+03  0.00000000000E+00 0.  1.
         21   -1    0    0  506  502 -0.00000000000E+00 -0.00000000000E+00 -0.55513014386E+03  0.55513014386E+03  0.00000000000E+00 0.  1.
         21    1    1    2  503  502  0.87108170233E+01  0.49275167081E+03  0.92440499687E+02  0.50142330759E+03  0.00000000000E+00 0.  1.
         21    1    1    2  504  505  0.29364398859E+02 -0.90048628835E+02  0.11874162824E+03  0.15189008444E+03  0.00000000000E+00 0.  1.
         21    1    1    2  505  501  0.47103886229E+02 -0.20927470372E+02  0.18187787405E+03  0.18904046176E+03  0.00000000000E+00 0.  1.
         21    1    1    2  506  504 -0.85179102112E+02 -0.38177557160E+03 -0.21473750213E+03  0.44622893376E+03  0.00000000000E+00 0.  1.
<scales pt_clust_3="417.79115" pt_clust_4="103.66670" pt_clust_5="51.54353" pt_clust_6="14000.00000"></scales>
<clustering>
<clus scale="   51.544">  1  5  2 -1</clus>
<clus scale="  103.667">  1  4  2 -1</clus>
<clus scale="  417.791">  1  3  2 -1</clus>
<clus scale="   51.544">  1  3  2 -1</clus>
</clustering>
</event>
<event>
 6    0  0.4227619E+002  0.8635692E+02  0.7546771E-02  0.1311922E+00
         21   -1    0    0  504  501  0.00000000000E+00  0.00000000000E+00  0.77682725746E+02  0.77682725746E+02  0.00000000000E+00 0.  1.
         21   -1    0    0  506  502 -0.00000000000E+00 -0.00000000000E+00 -0.66326470629E+03  0.66326470629E+03  0.00000000000E+00 0.  1.
         21    1    1    2  503  501  0.38839531992E+02 -0.39766661719E+02  0.40213000413E+02  0.68607448807E+02  0.00000000000E+00 0.  1.
         21    1    1    2  504  505 -0.34556028994E+02 -0.39750171796E+01 -0.37854024675E+02  0.51408628512E+02  0.00000000000E+00 0.  1.
         21    1    1    2  505  502 -0.39632313820E+02  0.11025135997E+03 -0.27241504400E+03  0.29654011343E+03  0.00000000000E+00 0.  1.
         21    1    1    2  506  503  0.35348810822E+02 -0.66509681074E+02 -0.31552591228E+03  0.32439124129E+03  0.00000000000E+00 0.  1.
<scales pt_clust_3="44.55485" pt_clust_4="34.78390" pt_clust_5="86.35692" pt_clust_6="14000.00000"></scales>
<clustering>
<clus scale="   34.784">  1  4  2 -1</clus>
<clus scale="   44.555">  1  3  2 -1</clus>
<clus scale="   86.357">  1  5  2 -1</clus>
<clus scale="   34.784">  1  3  2 -1</clus>
</clustering>
</event>
<event>
 6    0  0.4227619E+002  0.9027981E+02  0.7546771E-02  0.1302176E+00
         21   -1    0    0  506  501  0.00000000000E+00  0.00000000000E+00  0.58389263629E+03  0.58389263629E+03  0.00000000000E+00 0. -1.
         21   -1    0    0  505  502 -0.00000000000E+00 -0.00000000000E+00 -0.47457265747E+02  0.47457265747E+02  0.00000000000E+00 0. -1.
         21    1    1    2  503  504 -0.34622367876E+02 -0.20821549515E+02  0.18882880437E+03  0.19310246669E+03  0.00000000000E+00 0. -1.
         21    1    1    2  504  501 -0.12801042584E+02 -0.54423872168E+02  0.21455216424E+03  0.22171706234E+03  0.00000000000E+00 0. -1.
         21    1    1    2  505  503  0.78267634977E+02 -0.69033264868E+01  0.38377465931E+02  0.87443172934E+02  0.00000000000E+00 0. -1.
         21    1    1    2  506  502 -0.30844224518E+02  0.82148748170E+02  0.94676935998E+02  0.12908720007E+03  0.00000000000E+00 0. -1.
<scales pt_clust_3="32.34945" pt_clust_4="32.34945" pt_clust_5="78.57149" pt_clust_6="81.86734"></scales>
<clustering>
<clus scale="   32.349">  3  4 -1 -1</clus>
<clus scale="   78.571">  2  5  1 -1</clus>
<clus scale="   81.867">  2  6  1 -1</clus>
<clus scale="   90.280">  1  3  2 -1</clus>
</clustering>
</event>
<event>
 6    0  0.4227619E+002  0.1248833E+03  0.7546771E-02  0.1235252E+00
         21   -1    0    0  504  501  0.00000000000E+00  0.00000000000E+00  0.12169653198E+03  0.12169653198E+03  0.00000000000E+00 0. -1.
         21   -1    0    0  503  502 -0.00000000000E+00 -0.00000000000E+00 -0.53298164812E+03  0.53298164812E+03  0.00000000000E+00 0. -1.
         21    1    1    2  503  501  0.59895378439E+02  0.16283980029E+03 -0.20728303418E+03  0.27031558071E+03  0.00000000000E+00 0. -1.
         21    1    1    2  504  506 -0.63868230711E+01 -0.69836934528E+02  0.47285367817E+02  0.84580700770E+02  0.00000000000E+00 0. -1.
         21    1    1    2  505  502 -0.25678194138E+02 -0.63871703909E+02 -0.25017998289E+03  0.25947829977E+03  0.00000000000E+00 0. -1.
         21    1    1    2  506  505 -0.27830361230E+02 -0.29131161851E+02 -0.11074668855E+01  0.40303598845E+02  0.00000000000E+00 0. -1.
<scales pt_clust_3="114.44497" pt_clust_4="37.88399" pt_clust_5="68.84014" pt_clust_6="37.88399"></scales>
<clustering>
<clus scale="   37.884">  4  6 -1 -1</clus>
<clus scale="   68.840">  2  5  1 -1</clus>
<clus scale="  114.445">  2  3  1 -1</clus>
<clus scale="  124.883">  1  3  2 -1</clus>
</clustering>
</event>
<event>
 6    0  0.4227619E+002  0.1681182E+03  0.7546771E-02  0.1179825E+00
         21   -1    0    0  505  501  0.00000000000E+00  0.00000000000E+00  0.52436909398E+02  0.52436909398E+02  0.00000000000E+00 0.  1.
         21   -1    0    0  503  502 -0.00000000000E+00 -0.00000000000E+00 -0.21074194763E+04  0.21074194763E+04  0.00000000000E+00 0.  1.
         21    1    1    2  503  506 -0.62725668824E+02  0.10135499857E+03 -0.10821093989E+03  0.16098743050E+03  0.00000000000E+00 0.  1.
         21    1    1    2  504  502  0.13300268876E+02 -0.27751571791E+02 -0.11461707100E+04  0.11465837707E+04  0.00000000000E+00 0.  1.
         21    1    1    2  505  504  0.57758706700E+02 -0.11799813662E+03 -0.79612718581E+03  0.80689412220E+03  0.00000000000E+00 0.  1.
         21    1    1    2  506  501 -0.83333067522E+01  0.44394709837E+02 -0.44737312085E+01  0.45391062268E+02  0.00000000000E+00 0.  1.
<scales pt_clust_3="37.30560" pt_clust_4="30.77413" pt_clust_5="157.04084" pt_clust_6="37.30560"></scales>
<clustering>
<clus scale="   30.774">  2  4  1 -1</clus>
<clus scale="   37.306">  3  6 -1 -1</clus>
<clus scale="  157.041">  2  5  1 -1</clus>
<clus scale="  168.118">  1  3  2 -1</clus>
</clustering>
</event>
<event>
 6    0  0.4227619E+002  0.9871974E+02  0.7546771E-02  0.1283011E+00
         21   -1    0    0  503  501  0.00000000000E+00  0.00000000000E+00  0.51277928589E+03  0.51277928589E+03  0.00000000000E+00 0. -1.
         21   -1    0    0  504  502 -0.00000000000E+00 -0.00000000000E+00 -0.81574885927E+03  0.81574885927E+03  0.00000000000E+00 0.  1.
         21    1    1    2  503  506  0.52965320782E+02 -0.83248954708E+02  0.46444294176E+03  0.47480834009E+03  0.00000000000E+00 0. -1.
         21    1    1    2  504  505  0.15176598959E+02 -0.33354865541E+02 -0.64977828702E+03  0.65081080085E+03  0.00000000000E+00 0.  1.
         21    1    1    2  505  501 -0.74131836981E+02  0.71292436302E+02 -0.11886774866E+03  0.15718677552E+03  0.00000000000E+00 0.  1.
         21    1    1    2  506  502  0.59899172399E+01  0.45311383948E+02  0.12335205362E+01  0.45722228694E+02  0.00000000000E+00 0.  1.
<scales pt_clust_3="98.71974" pt_clust_4="36.64528" pt_clust_5="14000.00000" pt_clust_6="41.60927"></scales>
<clustering>
<clus scale="   36.645">  2  4  1 -1</clus>
<clus scale="   41.609">  2  6  1 -1</clus>
<clus scale="   98.720">  1  3  2 -1</clus>
<clus scale="   98.720">  1  3  2 -1</clus>
</clustering>
</event>
<event>
 6    0  0.4227619E+002  0.9509237E+02  0.7546771E-02  0.1290968E+00
         21   -1    0    0  505  501  0.00000000000E+00  0.00000000000E+00  0.16551138774E+03  0.16551138774E+03  0.00000000000E+00 0.  1.
         21   -1    0    0  506  502 -0.00000000000E+00 -0.00000000000E+00 -0.38109357879E+03  0.38109357879E+03  0.00000000000E+00 0.  1.
         21    1    1    2  503  504  0.84780704986E+02 -0.78362328181E+02  0.79247083004E+01  0.11572045376E+03  0.00000000000E+00 0.  1.
         21    1    1    2  504  502 -0.38205692549E+02  0.30245328783E+02 -0.65682303630E+02  0.81783982946E+02  0.00000000000E+00 0.  1.
         21    1    1    2  505  503  0.13707188144E+02  0.47612881656E+02  0.85282468395E+02  0.98630486777E+02  0.00000000000E+00 0.  1.
         21    1    1    2  506  501 -0.60282200581E+02  0.50411774236E+00 -0.24310706412E+03  0.25047004305E+03  0.00000000000E+00 0.  1.
<scales pt_clust_3="95.09237" pt_clust_4="48.72838" pt_clust_5="49.95788" pt_clust_6="14000.00000"></scales>
<clustering>
<clus scale="   48.728">  2  4  1 -1</clus>
<clus scale="   49.958">  1  5  2 -1</clus>
<clus scale="   95.092">  1  3  2 -1</clus>
<clus scale="   49.958">  1  3  2 -1</clus>
</clustering>
</event>
<event>
 6    0  0.4227619E+002  0.1180016E+03  0.7546771E-02  0.1246431E+00
         21   -1    0    0  506  501  0.00000000000E+00  0.00000000000E+00  0.21093111649E+03  0.21093111649E+03  0.00000000000E+00 0.  1.
         21   -1    0    0  505  502 -0.00000000000E+00 -0.00000000000E+00 -0.16071219057E+03  0.16071219057E+03  0.00000000000E+00 0.  1.
         21    1    1    2  503  501  0.51425520507E+02 -0.35653356037E+02  0.85636843101E+02  0.10606325873E+03  0.00000000000E+00 0. -1.
         21    1    1    2  504  503 -0.66792110866E+02  0.67060606412E+02  0.22790980395E+01  0.94675790433E+02  0.00000000000E+00 0.  1.
         21    1    1    2  505  504  0.43691041033E+01  0.55219482567E+02  0.27581812601E+02  0.61879210660E+02  0.00000000000E+00 0.  1.
         21    1    1    2  506  502  0.10997486256E+02 -0.86626732941E+02 -0.65278827814E+02  0.10902504724E+03  0.00000000000E+00 0.  1.
<scales pt_clust_3="62.57592" pt_clust_4="52.82861" pt_clust_5="52.82861" pt_clust_6="95.68508"></scales>
<clustering>
<clus scale="   52.829">  4  5 -1 -1</clus>
<clus scale="   62.576">  1  3  2 -1</clus>
<clus scale="   95.685">  2  6  1 -1</clus>
<clus scale="   62.576">  1  3  2 -1</clus>
</clustering>
</event>
<event>
 6    0  0.4227619E+002  0.9005482E+02  0.7546771E-02  0.1302719E+00
         21   -1    0    0  504  501  0.00000000000E+00  0.00000000000E+00  0.10514093487E+04  0.10514093487E+04  0.00000000000E+00 0. -1.
         21   -1    0    0  503  502 -0.00000000000E+00 -0.00000000000E+00 -0.21110999679E+02  0.21110999679E+02  0.00000000000E+00 0. -1.
         21    1    1    2  503  501 -0.59079698773E+01  0.31512063671E+02  0.34250489379E+03  0.34400220426E+03  0.00000000000E+00 0. -1.
         21    1    1    2  504  505  0.37780994699E+01 -0.48500387247E+02  0.21688253320E+03  0.22227144397E+03  0.00000000000E+00 0. -1.
         21    1    1    2  505  506  0.84984081061E+02  0.43731223971E+02  0.29263580108E+03  0.30784805677E+03  0.00000000000E+00 0. -1.
         21    1    1    2  506  502 -0.82854210653E+02 -0.26742900395E+02  0.17827512099E+03  0.19839864341E+03  0.00000000000E+00 0. -1.
<scales pt_clust_3="32.06110" pt_clust_4="38.77835" pt_clust_5="90.05482" pt_clust_6="14000.00000"></scales>
<clustering>
<clus scale="   32.061">  1  3  2 -1</clus>
<clus scale="   38.778">  1  4  2 -1</clus>
<clus scale="   90.055">  1  5  2 -1</clus>
<clus scale="   32.061">  1  3  2 -1</clus>
</clustering>
</event>
<event>
 6    0  0.4227619E+002  0.9671456E+02  0.7546771E-02  0.1287361E+00
         21   -1    0    0  504  501  0.00000000000E+00  0.00000000000E+00  0.20513291424E+02  0.20513291424E+02  0.00000000000E+00 0.  1.
         21   -1    0    0  503  502 -0.00000000000E+00 -0.00000000000E+00 -0.15236408045E+04  0.15236408045E+04  0.00000000000E+00 0.  1.
         21    1    1    2  503  505  0.18139775026E+02 -0.36189431363E+02 -0.49256146956E+03  0.49422214406E+03  0.00000000000E+00 0.  1.
         21    1    1    2  504  502 -0.12341624722E+03  0.64939734224E+02 -0.63118135614E+03  0.64640439625E+03  0.00000000000E+00 0.  1.
         21    1    1    2  505  506  0.60783279016E+02 -0.28801250995E+02 -0.33112461991E+03  0.33788701215E+03  0.00000000000E+00 0.  1.
         21    1    1    2  506  501  0.44493193174E+02  0.50948134109E-01 -0.48260067456E+02  0.65640543458E+02  0.00000000000E+00 0.  1.
<scales pt_clust_3="40.48119" pt_clust_4="96.71456" pt_clust_5="14000.00000" pt_clust_6="45.53768"></scales>
<clustering>
<clus scale="   40.481">  2  3  1 -1</clus>
<clus scale="   45.538">  1  6  2 -1</clus>
<clus scale="   96.715">  1  4  2 -1</clus>
<clus scale="   45.538">  1  3  2 -1</clus>
</clustering>
</event>
<event>
 6    0  0.4227619E+002  0.2897110E+03  0.7546771E-02  0.1090500E+00
         21   -1    0    0  506  501  0.00000000000E+00  0.00000000000E+00  0.10607182983E+04  0.10607182983E+04  0.00000000000E+00 0.  1.
         21   -1    0    0  503  502 -0.00000000000E+00 -0.00000000000E+00 -0.28102008565E+03  0.28102008565E+03  0.00000000000E+00 0.  1.
         21    1    1    2  503  505  0.27697247782E+03 -0.15322677802E+03 -0.11401602553E+03  0.33643996946E+03  0.00000000000E+00 0.  1.
         21    1    1    2  504  502 -0.30429486603E+02  0.34443029553E+00 -0.76193362043E+01  0.31370791691E+02  0.00000000000E+00 0.  1.
         21    1    1    2  505  501  0.20125926432E+02  0.91547999267E+02  0.27138613645E+03  0.28711761378E+03  0.00000000000E+00 0.  1.
         21    1    1    2  506  504 -0.26666891765E+03  0.61334348462E+02  0.62994743794E+03  0.68681000904E+03  0.00000000000E+00 0.  1.
<scales pt_clust_3="289.71097" pt_clust_4="30.43144" pt_clust_5="93.55204" pt_clust_6="14000.00000"></scales>
<clustering>
<clus scale="   30.431">  2  4  1 -1</clus>
<clus scale="   93.552">  1  5  2 -1</clus>
<clus scale="  289.711">  2  3  1 -1</clus>
<clus scale="   93.552">  1  3  2 -1</clus>
</clustering>
</event>
<event>
 6    0  0.4227619E+002  0.7790370E+02  0.7546771E-02  0.1335108E+00
         21   -1    0    0  505  501  0.00000000000E+00  0.00000000000E+00  0.51029364396E+03  0.51029364396E+03  0.00000000000E+00 0. -1.
         21   -1    0    0  506  502 -0.00000000000E+00 -0.00000000000E+00 -0.18194324866E+03  0.18194324866E+03  0.00000000000E+00 0. -1.
         21    1    1    2  503  502  0.21321012226E+02  0.32048219948E+02 -0.97526969680E+01  0.39708803335E+02  0.00000000000E+00 0.  1.
         21    1    1    2  504  501  0.64445249403E+02 -0.18740832933E+02  0.19845701521E+03  0.20949843884E+03  0.00000000000E+00 0. -1.
         21    1    1    2  505  503 -0.83865286578E+02  0.41543359948E+02  0.27845595968E+03  0.29376343974E+03  0.00000000000E+00 0. -1.
         21    1    1    2  506  504 -0.19009750512E+01 -0.54850746962E+02 -0.13880988261E+03  0.14926621071E+03  0.00000000000E+00 0. -1.
<scales pt_clust_3="38.49252" pt_clust_4="14000.00000" pt_clust_5="77.90370" pt_clust_6="30.99325"></scales>
<clustering>
<clus scale="   38.493">  2  3  1 -1</clus>
<clus scale="   30.993">  2  6  1 -1</clus>
<clus scale="   77.904">  2  5  1 -1</clus>
<clus scale="   77.904">  1  3  2 -1</clus>
</clustering>
</event>
<event>
 6    0  0.4227619E+002  0.8517978E+02  0.7546771E-02  0.1314963E+00
         21   -1    0    0  503  501  0.00000000000E+00  0.00000000000E+00  0.59798257451E+03  0.59798257451E+03  0.00000000000E+00 0.  1.
         21   -1    0    0  504  502 -0.00000000000E+00 -0.00000000000E+00 -0.67423083971E+02  0.67423083971E+02  0.00000000000E+00 0.  1.
         21    1    1    2  503  505 -0.17281622794E+02  0.65715965339E+02  0.21801910924E+03  0.22836281348E+03  0.00000000000E+00 0. -1.
         21    1    1    2  504  501 -0.73608093738E+01 -0.13027727318E+03  0.32725164094E+03  0.35230666460E+03  0.00000000000E+00 0.  1.
         21    1    1    2  505  506  0.37234075612E+02  0.35095748917E+02 -0.12154801874E+02  0.52591132212E+02  0.00000000000E+00 0.  1.
         21    1    1    2  506  502 -0.12591643444E+02  0.29465558924E+02 -0.25564577614E+01  0.32145048198E+02  0.00000000000E+00 0.  1.
<scales pt_clust_3="14000.00000" pt_clust_4="85.17978" pt_clust_5="61.46708" pt_clust_6="32.04323"></scales>
<clustering>
<clus scale="   32.043">  2  6  1 -1</clus>
<clus scale="   61.467">  2  5  1 -1</clus>
<clus scale="   85.180">  2  4  1 -1</clus>
<clus scale="   85.180">  1  3  2 -1</clus>
</clustering>
</event>
<event>
 6    0  0.4227619E+002  0.8341148E+02  0.7546771E-02  0.1319640E+00
         21   -1    0    0  504  501  0.00000000000E+00  0.00000000000E+00  0.10170284548E+03  0.10170284548E+03  0.00000000000E+00 0.  1.
         21   -1    0    0  503  502 -0.00000000000E+00 -0.00000000000E+00 -0.43705418817E+03  0.43705418817E+03  0.00000000000E+00 0.  1.
         21    1    1    2  503  505  0.13473397889E+02  0.45354988976E+02 -0.42239278945E+02  0.63425264379E+02  0.00000000000E+00 0.  1.
         21    1    1    2  504  506 -0.44113374786E+02 -0.94259404805E+02 -0.84940745040E+02  0.13433449072E+03  0.00000000000E+00 0.  1.
         21    1    1    2  505  501 -0.32529414045E+01  0.80666655737E+02  0.38887499938E+02  0.89609869027E+02  0.00000000000E+00 0.  1.
         21    1    1    2  506  502  0.33892918301E+02 -0.31762239908E+02 -0.24705881864E+03  0.25138740952E+03  0.00000000000E+00 0.  1.
<scales pt_clust_3="43.07898" pt_clust_4="14000.00000" pt_clust_5="83.41148" pt_clust_6="46.44965"></scales>
<clustering>
<clus scale="   46.450">  2  6  1 -1</clus>
<clus scale="   43.079">  2  3  1 -1</clus>
<clus scale="   83.411">  1  5  2 -1</clus>
<clus scale="   83.411">  1  3  2 -1</clus>
</clustering>
</event>
<event>
 6    0  0.4227619E+002  0.1070834E+03  0.7546771E-02  0.1266068E+00
         21   -1    0    0  504  501  0.00000000000E+00  0.00000000000E+00  0.68323221490E+02  0.68323221490E+02  0.00000000000E+00 0. -1.
         21   -1    0    0  503  502 -0.00000000000E+00 -0.00000000000E+00 -0.71197647983E+03  0.71197647983E+03  0.00000000000E+00 0.  1.
         21    1    1    2  503  506  0.18350106956E+02  0.64082398672E+02 -0.26350772218E+03  0.27180802029E+03  0.00000000000E+00 0.  1.
         21    1    1    2  504  502  0.37067659547E+02 -0.64070109325E+02 -0.12016862610E+03  0.14113641980E+03  0.00000000000E+00 0. -1.
         21    1    1    2  505  501 -0.32903550993E+02 -0.53610881902E+02  0.31351550377E+02  0.70282928491E+02  0.00000000000E+00 0. -1.
         21    1    1    2  506  505 -0.22514215510E+02  0.53598592554E+02 -0.29132846043E+03  0.29707233274E+03  0.00000000000E+00 0.  1.
<scales pt_clust_3="40.87294" pt_clust_4="97.73098" pt_clust_5="62.90286" pt_clust_6="40.87294"></scales>
<clustering>
<clus scale="   40.873">  3  6 -1 -1</clus>
<clus scale="   62.903">  1  5  2 -1</clus>
<clus scale="   97.731">  1  4  2 -1</clus>
<clus scale="   62.903">  1  3  2 -1</clus>
</clustering>
</event>
<event>
 6    0  0.4227619E+002  0.6517503E+02  0.7546771E-02  0.1377314E+00
         21   -1    0    0  506  501  0.00000000000E+00  0.00000000000E+00  0.86840866110E+02  0.86840866110E+02  0.00000000000E+00 0. -1.
         21   -1    0    0  503  502 -0.00000000000E+00 -0.00000000000E+00 -0.10912936346E+04  0.10912936346E+04  0.00000000000E+00 0. -1.
         21    1    1    2  503  504  0.10035080086E+02 -0.61870866342E+02 -0.15122848650E+03  0.16370327444E+03  0.00000000000E+00 0. -1.
         21    1    1    2  504  501  0.49986420616E+02  0.41400413302E+02  0.61643161567E+02  0.89512657404E+02  0.00000000000E+00 0. -1.
         21    1    1    2  505  502  0.27352361889E+02 -0.13177401576E+02 -0.43148702777E+03  0.43255387034E+03  0.00000000000E+00 0. -1.
         21    1    1    2  506  505 -0.87373862590E+02  0.33647854616E+02 -0.48338041580E+03  0.49236469854E+03  0.00000000000E+00 0. -1.
<scales pt_clust_3="63.35073" pt_clust_4="65.17503" pt_clust_5="30.36109" pt_clust_6="14000.00000"></scales>
<clustering>
<clus scale="   30.361">  2  5  1 -1</clus>
<clus scale="   65.175">  1  4  2 -1</clus>
<clus scale="   63.351">  1  3  2 -1</clus>
<clus scale="   65.175">  1  3  2 -1</clus>
</clustering>
</event>
<event>
 6    0  0.4227619E+002  0.1459450E+03  0.7546771E-02  0.1205546E+00
         21   -1    0    0  503  501  0.00000000000E+00  0.00000000000E+00  0.21410885781E+04  0.21410885781E+04  0.00000000000E+00 0.  1.
         21   -1    0    0  506  502 -0.00000000000E+00 -0.00000000000E+00 -0.34106166348E+02  0.34106166348E+02  0.00000000000E+00 0.  1.
         21    1    1    2  503  502  0.18478003643E+02 -0.14563425751E+03  0.15086560096E+04  0.15157815571E+04  0.00000000000E+00 0.  1.
         21    1    1    2  504  501  0.15910113599E+02  0.14536588901E+03  0.44649362791E+03  0.46983074949E+03  0.00000000000E+00 0.  1.
         21    1    1    2  505  504 -0.60828997871E+02  0.30747617882E+02  0.12071290260E+03  0.13862607201E+03  0.00000000000E+00 0.  1.
         21    1    1    2  506  505  0.26440880629E+02 -0.30479249384E+02  0.31119871735E+02  0.50956365924E+02  0.00000000000E+00 0. -1.
<scales pt_clust_3="145.94496" pt_clust_4="14000.00000" pt_clust_5="54.62271" pt_clust_6="40.34978"></scales>
<clustering>
<clus scale="   40.350">  2  6  1 -1</clus>
<clus scale="   54.623">  2  5  1 -1</clus>
<clus scale="  145.945">  1  3  2 -1</clus>
<clus scale="  145.945">  1  3  2 -1</clus>
</clustering>
</event>
<event>
 6    0  0.4227619E+002  0.8337677E+02  0.7546771E-02  0.1319733E+00
         21   -1    0    0  504  501  0.00000000000E+00  0.00000000000E+00  0.54802988050E+03  0.54802988050E+03  0.00000000000E+00 0.  1.
         21   -1    0    0  506  502 -0.00000000000E+00 -0.00000000000E+00 -0.40643305387E+02  0.40643305387E+02  0.00000000000E+00 0.  1.
         21    1    1    2  503  502 -0.14049462805E+02 -0.69984946839E+02  0.57350170463E+02  0.91565944768E+02  0.00000000000E+00 0.  1.
         21    1    1    2  504  503  0.17249962619E+02 -0.51531630868E+02  0.14251609781E+03  0.15252510720E+03  0.00000000000E+00 0.  1.
         21    1    1    2  505  501 -0.30991184875E+02  0.72894901972E+01  0.11203827420E+03  0.11647388159E+03  0.00000000000E+00 0.  1.
         21    1    1    2  506  505  0.27790685061E+02  0.11422708751E+03  0.19548203264E+03  0.22810825234E+03  0.00000000000E+00 0.  1.
<scales pt_clust_3="14000.00000" pt_clust_4="49.50942" pt_clust_5="31.83693" pt_clust_6="83.37677"></scales>
<clustering>
<clus scale="   31.837">  1  5  2 -1</clus>
<clus scale="   49.509">  1  4  2 -1</clus>
<clus scale="   83.377">  1  6  2 -1</clus>
<clus scale="   31.837">  1  3  2 -1</clus>
</clustering>
</event>
<event>
 6    0  0.4227619E+002  0.8251538E+02  0.7546771E-02  0.1322061E+00
         21   -1    0    0  504  501  0.00000000000E+00  0.00000000000E+00  0.10202508555E+03  0.10202508555E+03  0.00000000000E+00 0.  1.
         21   -1    0    0  506  502 -0.00000000000E+00 -0.00000000000E+00 -0.21713699370E+03  0.21713699370E+03  0.00000000000E+00 0.  1.
         21    1    1    2  503  502  0.37486341228E+02  0.79502907148E+02 -0.12408746475E+03  0.15206458145E+03  0.00000000000E+00 0.  1.
         21    1    1    2  504  505  0.36564293734E+01  0.32004822694E+02  0.49636133307E+01  0.32593183470E+02  0.00000000000E+00 0. -1.
         21    1    1    2  505  503 -0.45513389737E+02 -0.38743197878E+02 -0.90375230066E+01  0.60449820920E+02  0.00000000000E+00 0.  1.
         21    1    1    2  506  501  0.43706191358E+01 -0.72764531964E+02  0.13049466280E+02  0.74054493407E+02  0.00000000000E+00 0.  1.
<scales pt_clust_3="14000.00000" pt_clust_4="32.21301" pt_clust_5="52.94225" pt_clust_6="82.51538"></scales>
<clustering>
<clus scale="   32.213">  1  4  2 -1</clus>
<clus scale="   52.942">  1  5  2 -1</clus>
<clus scale="   82.515">  1  6  2 -1</clus>
<clus scale="   32.213">  1  3  2 -1</clus>
</clustering>
</event>
<event>
 6    0  0.4227619E+002  0.3544568E+03  0.7546771E-02  0.1060801E+00
         21   -1    0    0  505  501  0.00000000000E+00  0.00000000000E+00  0.84959284873E+02  0.84959284873E+02  0.00000000000E+00 0.  1.
         21   -1    0    0  506  502 -0.00000000000E+00 -0.00000000000E+00 -0.26670949458E+04  0.26670949458E+04  0.00000000000E+00 0.  1.
         21    1    1    2  503  501 -0.22718412602E+03 -0.24789722980E+03 -0.54943651551E+03  0.64416313791E+03  0.00000000000E+00 0.  1.
         21    1    1    2  504  503 -0.49168620580E+02  0.16879700162E+02 -0.31657679522E+03  0.32081668410E+03  0.00000000000E+00 0.  1.
         21    1    1    2  505  502  0.30972241926E+03  0.23914904441E+03 -0.10578023541E+04  0.11278590616E+04  0.00000000000E+00 0.  1.
         21    1    1    2  506  504 -0.33369672661E+02 -0.81315147723E+01 -0.65831999610E+03  0.65921534710E+03  0.00000000000E+00 0.  1.
<scales pt_clust_3="354.45681" pt_clust_4="56.65114" pt_clust_5="14000.00000" pt_clust_6="34.34613"></scales>
<clustering>
<clus scale="   34.346">  2  6  1 -1</clus>
<clus scale="   56.651">  2  4  1 -1</clus>
<clus scale="  354.457">  1  3  2 -1</clus>
<clus scale="  354.457">  1  3  2 -1</clus>
</clustering>
</event>
<event>
 6    0  0.4227619E+002  0.7571755E+02  0.7546771E-02  0.1341663E+00
         21   -1    0    0  503  501  0.00000000000E+00  0.00000000000E+00  0.10925536465E+04  0.10925536465E+04  0.00000000000E+00 0.  1.
         21   -1    0    0  504  502 -0.00000000000E+00 -0.00000000000E+00 -0.43291700189E+03  0.43291700189E+03  0.00000000000E+00 0. -1.
         21    1    1    2  503  505 -0.34053764265E+02 -0.12556686243E+02  0.26644753415E+03  0.26890819564E+03  0.00000000000E+00 0.  1.
         21    1    1    2  504  506  0.35423303623E+02  0.11309785185E+03 -0.11794914616E+03  0.16720626667E+03  0.00000000000E+00 0. -1.
         21    1    1    2  505  502 -0.23713720246E+02 -0.38705009583E+02 -0.28596534768E+03  0.28954550310E+03  0.00000000000E+00 0. -1.
         21    1    1    2  506  501  0.22344180888E+02 -0.61836156020E+02  0.79710360430E+03  0.79981068298E+03  0.00000000000E+00 0.  1.
<scales pt_clust_3="36.29503" pt_clust_4="14000.00000" pt_clust_5="45.45370" pt_clust_6="75.71755"></scales>
<clustering>
<clus scale="   36.295">  1  3  2 -1</clus>
<clus scale="   45.454">  2  5  1 -1</clus>
<clus scale="   75.718">  1  6  2 -1</clus>
<clus scale="   36.295">  1  3  2 -1</clus>
</clustering>
</event>
<event>
 6    0  0.4227619E+002  0.1903886E+03  0.7546771E-02  0.1158111E+00
         21   -1    0    0  506  501  0.00000000000E+00  0.00000000000E+00  0.19417091773E+03  0.19417091773E+03  0.00000000000E+00 0.  1.
         21   -1    0    0  505  502 -0.00000000000E+00 -0.00000000000E+00 -0.10333016566E+04  0.10333016566E+04  0.00000000000E+00 0.  1.
         21    1    1    2  503  502 -0.71999641648E+02  0.17413034109E+03 -0.84032468544E+03  0.86119155885E+03  0.00000000000E+00 0.  1.
         21    1    1    2  504  501 -0.77211169825E+02  0.20180829675E+02  0.42268948604E+02  0.90307777341E+02  0.00000000000E+00 0.  1.
         21    1    1    2  505  504  0.98668748386E+02 -0.18006064386E+03 -0.68861319776E+02  0.21656232068E+03  0.00000000000E+00 0.  1.
         21    1    1    2  506  503  0.50542063087E+02 -0.14250526903E+02  0.27786317753E+02  0.59410917451E+02  0.00000000000E+00 0.  1.
<scales pt_clust_3="14000.00000" pt_clust_4="56.69262" pt_clust_5="190.38859" pt_clust_6="52.51264"></scales>
<clustering>
<clus scale="   52.513">  1  6  2 -1</clus>
<clus scale="   56.693">  1  4  2 -1</clus>
<clus scale="  190.389">  1  5  2 -1</clus>
<clus scale="   52.513">  1  3  2 -1</clus>
</clustering>
</event>
<event>
 6    0  0.4227619E+002  0.7494704E+02  0.7546771E-02  0.1344035E+00
         21   -1    0    0  506  501  0.00000000000E+00  0.00000000000E+00  0.45139476822E+03  0.45139476822E+03  0.00000000000E+00 0.  1.
         21   -1    0    0  505  502 -0.00000000000E+00 -0.00000000000E+00 -0.59213793451E+03  0.59213793451E+03  0.00000000000E+00 0. -1.
         21    1    1    2  503  502 -0.15411242856E+02  0.10059580722E+03 -0.44627544329E+03  0.45773222972E+03  0.00000000000E+00 0. -1.
         21    1    1    2  504  501 -0.72620907721E+02 -0.72710182210E+02  0.38454973859E+03  0.39804405319E+03  0.00000000000E+00 0.  1.
         21    1    1    2  505  504  0.38606655533E+02 -0.30473037763E+02 -0.11598414323E+03  0.12598175012E+03  0.00000000000E+00 0. -1.
         21    1    1    2  506  503  0.49425495043E+02  0.25874127499E+01  0.36966681646E+02  0.61774669703E+02  0.00000000000E+00 0.  1.
<scales pt_clust_3="14000.00000" pt_clust_4="74.94704" pt_clust_5="49.18414" pt_clust_6="50.47346"></scales>
<clustering>
<clus scale="   49.184">  2  5  1 -1</clus>
<clus scale="   50.473">  1  6  2 -1</clus>
<clus scale="   74.947">  1  4  2 -1</clus>
<clus scale="   50.473">  1  3  2 -1</clus>
</clustering>
</event>
<event>
 6    0  0.4227619E+002  0.1055190E+03  0.7546771E-02  0.1269100E+00
         21   -1    0    0  504  501  0.00000000000E+00  0.00000000000E+00  0.44595647050E+03  0.44595647050E+03  0.00000000000E+00 0.  1.
         21   -1    0    0  505  502 -0.00000000000E+00 -0.00000000000E+00 -0.70649307084E+03  0.70649307084E+03  0.00000000000E+00 0.  1.
         21    1    1    2  503  502  0.34956734576E+02  0.97905459963E+01 -0.52197296886E+03  0.52323379889E+03  0.00000000000E+00 0.  1.
         21    1    1    2  504  503 -0.40312981616E+00 -0.33352178237E+02  0.16675823174E+03  0.17006127766E+03  0.00000000000E+00 0.  1.
         21    1    1    2  505  506  0.10519165723E+02 -0.10343316586E+03 -0.14841619062E+03  0.18120827323E+03  0.00000000000E+00 0.  1.
         21    1    1    2  506  501 -0.45072770483E+02  0.12699479810E+03  0.24309432740E+03  0.27794619155E+03  0.00000000000E+00 0.  1.
<scales pt_clust_3="36.28066" pt_clust_4="33.35461" pt_clust_5="14000.00000" pt_clust_6="105.51902"></scales>
<clustering>
<clus scale="   33.355">  1  4  2 -1</clus>
<clus scale="   36.281">  2  3  1 -1</clus>
<clus scale="  105.519">  1  6  2 -1</clus>
<clus scale="   33.355">  1  3  2 -1</clus>
</clustering>
</event>
<event>
 6    0  0.4227619E+002  0.7305291E+02  0.7546771E-02  0.1350009E+00
         21   -1    0    0  503  501  0.00000000000E+00  0.00000000000E+00  0.82994328210E+03  0.82994328210E+03  0.00000000000E+00 0. -1.
         21   -1    0    0  501  502 -0.00000000000E+00 -0.00000000000E+00 -0.24952128569E+04  0.24952128569E+04  0.00000000000E+00 0.  1.
         21    1    1    2  503  506  0.32785794367E+02  0.16190992167E+01  0.66850578286E+03  0.66931122172E+03  0.00000000000E+00 0. -1.
         21    1    1    2  504  505 -0.33639072674E+00  0.12164509373E+03 -0.52466790685E+03  0.53858523417E+03  0.00000000000E+00 0.  1.
         21    1    1    2  505  502 -0.26059377446E+02 -0.53899498218E+02 -0.19548285949E+04  0.19557451477E+04  0.00000000000E+00 0.  1.
         21    1    1    2  506  504 -0.63900261946E+01 -0.69364694728E+02  0.14572114413E+03  0.16151453543E+03  0.00000000000E+00 0.  1.
<scales pt_clust_3="32.82575" pt_clust_4="14000.00000" pt_clust_5="59.82388" pt_clust_6="73.05291"></scales>
<clustering>
<clus scale="   32.826">  1  3  2 -1</clus>
<clus scale="   59.824">  2  5  1 -1</clus>
<clus scale="   73.053">  1  6  2 -1</clus>
<clus scale="   32.826">  1  3  2 -1</clus>
</clustering>
</event>
<event>
 6    0  0.4227619E+002  0.1968620E+03  0.7546771E-02  0.1152414E+00
         21   -1    0    0  505  501  0.00000000000E+00  0.00000000000E+00  0.43341132046E+03  0.43341132046E+03  0.00000000000E+00 0.  1.
         21   -1    0    0  503  502 -0.00000000000E+00 -0.00000000000E+00 -0.29989556134E+03  0.29989556134E+03  0.00000000000E+00 0.  1.
         21    1    1    2  503  506 -0.18887458559E+03 -0.95148415625E+02 -0.16148063540E+03  0.26608800365E+03  0.00000000000E+00 0.  1.
         21    1    1    2  504  502  0.12481670204E+03  0.10773089687E+03  0.74634395969E+02  0.18098466319E+03  0.00000000000E+00 0.  1.
         21    1    1    2  505  504  0.11682339667E+03 -0.12092435358E+02  0.19511826280E+03  0.22773903811E+03  0.00000000000E+00 0.  1.
         21    1    1    2  506  501 -0.52765513121E+02 -0.49004589087E+00  0.25243735753E+02  0.58495176849E+02  0.00000000000E+00 0.  1.
<scales pt_clust_3="14000.00000" pt_clust_4="196.86201" pt_clust_5="89.19071" pt_clust_6="52.76779"></scales>
<clustering>
<clus scale="   52.768">  1  6  2 -1</clus>
<clus scale="   89.191">  1  5  2 -1</clus>
<clus scale="  196.862">  1  4  2 -1</clus>
<clus scale="   52.768">  1  3  2 -1</clus>
</clustering>
</event>
<event>
 6    0  0.4227619E+002  0.1172998E+03  0.7546771E-02  0.1247619E+00
         21   -1    0    0  504  501  0.00000000000E+00  0.00000000000E+00  0.12348641068E+04  0.12348641068E+04  0.00000000000E+00 0.  1.
         21   -1    0    0  505  502 -0.00000000000E+00 -0.00000000000E+00 -0.16141096750E+03  0.16141096750E+03  0.00000000000E+00 0. -1.
         21    1    1    2  503  501  0.50929424759E+02 -0.12900886469E+03 -0.56921725279E+01  0.13881460407E+03  0.00000000000E+00 0. -1.
         21    1    1    2  504  506  0.45353173051E+02  0.24300027493E+02  0.10430201107E+04  0.10442884434E+04  0.00000000000E+00 0.  1.
         21    1    1    2  505  503 -0.59804263722E+01  0.29453550597E+02 -0.56179154996E+02  0.63713221535E+02  0.00000000000E+00 0. -1.
         21    1    1    2  506  502 -0.90302171437E+02  0.75255286603E+02  0.92304356127E+02  0.14945880532E+03  0.00000000000E+00 0. -1.
<scales pt_clust_3="117.29983" pt_clust_4="51.50721" pt_clust_5="30.05457" pt_clust_6="14000.00000"></scales>
<clustering>
<clus scale="   30.055">  2  5  1 -1</clus>
<clus scale="   51.507">  1  4  2 -1</clus>
<clus scale="  117.300">  2  3  1 -1</clus>
<clus scale="   51.507">  1  3  2 -1</clus>
</clustering>
</event>
<event>
 6    0  0.4227619E+002  0.1068659E+03  0.7546771E-02  0.1266486E+00
         21   -1    0    0  502  501  0.00000000000E+00  0.00000000000E+00  0.19221778148E+03  0.19221778148E+03  0.00000000000E+00 0.  1.
         21   -1    0    0  504  502 -0.00000000000E+00 -0.00000000000E+00 -0.81042815057E+03  0.81042815057E+03  0.00000000000E+00 0.  1.
         21    1    1    2  503  501 -0.17578580152E+02  0.33346057074E+02  0.78332439488E+02  0.86930645222E+02  0.00000000000E+00 0.  1.
         21    1    1    2  504  506 -0.50173805249E+02  0.11652311204E+01 -0.45127808271E+03  0.45406021235E+03  0.00000000000E+00 0.  1.
         21    1    1    2  505  503 -0.75914474363E+02  0.20168631012E+02  0.73618431140E+02  0.10765432875E+03  0.00000000000E+00 0.  1.
         21    1    1    2  506  505  0.14366685976E+03 -0.54679919207E+02 -0.31888315701E+03  0.35400074573E+03  0.00000000000E+00 0.  1.
<scales pt_clust_3="37.69570" pt_clust_4="50.42197" pt_clust_5="106.86587" pt_clust_6="14000.00000"></scales>
<clustering>
<clus scale="   37.696">  1  3  2 -1</clus>
<clus scale="   50.422">  2  4  1 -1</clus>
<clus scale="  106.866">  1  5  2 -1</clus>
<clus scale="   37.696">  1  3  2 -1</clus>
</clustering>
</event>
<event>
 6    0  0.4227619E+002  0.1305427E+03  0.7546771E-02  0.1226653E+00
         21   -1    0    0  504  501  0.00000000000E+00  0.00000000000E+00  0.35366476442E+03  0.35366476442E+03  0.00000000000E+00 0. -1.
         21   -1    0    0  503  502 -0.00000000000E+00 -0.00000000000E+00 -0.94110761414E+03  0.94110761414E+03  0.00000000000E+00 0.  1.
         21    1    1    2  503  506  0.11540508286E+03 -0.50857604391E+02 -0.88598598731E+03  0.89491675523E+03  0.00000000000E+00 0.  1.
         21    1    1    2  504  502  0.17653703245E+02  0.30135058173E+02 -0.23539702896E+02  0.42117604179E+02  0.00000000000E+00 0. -1.
         21    1    1    2  505  501 -0.61906888914E+02 -0.29509670725E+02  0.13969926816E+03  0.15562509144E+03  0.00000000000E+00 0. -1.
         21    1    1    2  506  505 -0.71151897188E+02  0.50232216943E+02  0.18238357233E+03  0.20211292771E+03  0.00000000000E+00 0. -1.
<scales pt_clust_3="14000.00000" pt_clust_4="34.92528" pt_clust_5="68.32731" pt_clust_6="130.54271"></scales>
<clustering>
<clus scale="   34.925">  2  4  1 -1</clus>
<clus scale="   68.327">  1  5  2 -1</clus>
<clus scale="  130.543">  1  6  2 -1</clus>
<clus scale="   68.327">  1  3  2 -1</clus>
</clustering>
</event>
<event>
 6    0  0.4227619E+002  0.8143611E+02  0.7546771E-02  0.1325025E+00
         21   -1    0    0  504  501  0.00000000000E+00  0.00000000000E+00  0.44684156408E+03  0.44684156408E+03  0.00000000000E+00 0. -1.
         21   -1    0    0  503  502 -0.00000000000E+00 -0.00000000000E+00 -0.21968041216E+03  0.21968041216E+03  0.00000000000E+00 0. -1.
         21    1    1    2  503  505  0.56381694534E+02  0.47562553675E+02 -0.14441719128E+03  0.16216478387E+03  0.00000000000E+00 0. -1.
         21    1    1    2  504  506  0.21598022238E+02  0.23610341027E+02  0.26808344148E+03  0.26998639663E+03  0.00000000000E+00 0. -1.
         21    1    1    2  505  501 -0.10514546064E+03  0.15505330313E+02  0.14610455780E+02  0.10728209813E+03  0.00000000000E+00 0. -1.
         21    1    1    2  506  502  0.27165743864E+02 -0.86678225015E+02  0.88884445938E+02  0.12708869761E+03  0.00000000000E+00 0. -1.
<scales pt_clust_3="75.34771" pt_clust_4="31.99879" pt_clust_5="14000.00000" pt_clust_6="81.43611"></scales>
<clustering>
<clus scale="   31.999">  1  4  2 -1</clus>
<clus scale="   75.348">  2  3  1 -1</clus>
<clus scale="   81.436">  1  6  2 -1</clus>
<clus scale="   31.999">  1  3  2 -1</clus>
</clustering>
</event>
<event>
 6    0  0.4227619E+002  0.1236480E+03  0.7546771E-02  0.1237198E+00
         21   -1    0    0  504  501  0.00000000000E+00  0.00000000000E+00  0.14456380242E+04  0.14456380242E+04  0.00000000000E+00 0.  1.
         21   -1    0    0  506  502 -0.00000000000E+00 -0.00000000000E+00 -0.55215611315E+02  0.55215611315E+02  0.00000000000E+00 0.  1.
         21    1    1    2  503  505  0.38761138322E+02  0.13153675280E+03  0.11052037878E+04  0.11136784796E+04  0.00000000000E+00 0.  1.
         21    1    1    2  504  502 -0.78522851110E+02 -0.80793896407E+02  0.16406606222E+03  0.19902553760E+03  0.00000000000E+00 0.  1.
         21    1    1    2  505  501  0.25227561160E+02 -0.22076192880E+02  0.14455533669E+03  0.14839148729E+03  0.00000000000E+00 0.  1.
         21    1    1    2  506  503  0.14534151628E+02 -0.28666663517E+02 -0.23402773871E+02  0.39758131063E+02  0.00000000000E+00 0.  1.
<scales pt_clust_3="123.64796" pt_clust_4="14000.00000" pt_clust_5="35.95580" pt_clust_6="32.14062"></scales>
<clustering>
<clus scale="   32.141">  2  6  1 -1</clus>
<clus scale="   35.956">  1  5  2 -1</clus>
<clus scale="  123.648">  1  3  2 -1</clus>
<clus scale="   35.956">  1  3  2 -1</clus>
</clustering>
</event>
<event>
 6    0  0.4227619E+002  0.9633698E+02  0.7546771E-02  0.1288193E+00
         21   -1    0    0  504  501  0.00000000000E+00  0.00000000000E+00  0.14669424760E+03  0.14669424760E+03  0.00000000000E+00 0.  1.
         21   -1    0    0  505  502 -0.00000000000E+00 -0.00000000000E+00 -0.50938048370E+03  0.50938048370E+03  0.00000000000E+00 0.  1.
         21    1    1    2  503  506  0.80723995828E+02 -0.99015845077E+01  0.54512786388E+02  0.97908369193E+02  0.00000000000E+00 0.  1.
         21    1    1    2  504  503 -0.66433113008E+00 -0.52718842353E+02  0.34479618005E+02  0.62996521592E+02  0.00000000000E+00 0.  1.
         21    1    1    2  505  501 -0.45538105412E+02  0.12376391892E+03 -0.31556571587E+03  0.34201308119E+03  0.00000000000E+00 0.  1.
         21    1    1    2  506  502 -0.34521559286E+02 -0.61143492055E+02 -0.13611292462E+03  0.15315675932E+03  0.00000000000E+00 0.  1.
<scales pt_clust_3="14000.00000" pt_clust_4="52.72303" pt_clust_5="96.33698" pt_clust_6="74.27079"></scales>
<clustering>
<clus scale="   52.723">  1  4  2 -1</clus>
<clus scale="   74.271">  2  6  1 -1</clus>
<clus scale="   96.337">  2  5  1 -1</clus>
<clus scale="   52.723">  1  3  2 -1</clus>
</clustering>
</event>
<event>
 6    0  0.4227619E+002  0.7489973E+02  0.7546771E-02  0.1344182E+00
         21   -1    0    0  504  501  0.00000000000E+00  0.00000000000E+00  0.88432552045E+02  0.88432552045E+02  0.00000000000E+00 0.  1.
         21   -1    0    0  505  502 -0.00000000000E+00 -0.00000000000E+00 -0.20654609805E+03  0.20654609805E+03  0.00000000000E+00 0.  1.
         21    1    1    2  503  501  0.28139817989E+02  0.29790327753E+02  0.11316645259E+02  0.42513285500E+02  0.00000000000E+00 0.  1.
         21    1    1    2  504  502 -0.18494561906E+02 -0.54877909045E+02 -0.11539847718E+02  0.59049147382E+02  0.00000000000E+00 0.  1.
         21    1    1    2  505  506  0.58742062111E+02  0.51549905184E+02 -0.75758821415E+02  0.10884586169E+03  0.00000000000E+00 0.  1.
         21    1    1    2  506  503 -0.68387318194E+02 -0.26462323892E+02 -0.42131522130E+02  0.84570355518E+02  0.00000000000E+00 0.  1.
<scales pt_clust_3="40.97942" pt_clust_4="44.04028" pt_clust_5="14000.00000" pt_clust_6="74.89973"></scales>
<clustering>
<clus scale="   40.979">  1  3  2 -1</clus>
<clus scale="   44.040">  1  4  2 -1</clus>
<clus scale="   74.900">  1  6  2 -1</clus>
<clus scale="   40.979">  1  3  2 -1</clus>
</clustering>
</event>
<event>
 6    0  0.4227619E+002  0.7621390E+02  0.7546771E-02  0.1340153E+00
         21   -1    0    0  503  501  0.00000000000E+00  0.00000000000E+00  0.16713472006E+03  0.16713472006E+03  0.00000000000E+00 0. -1.
         21   -1    0    0  506  502 -0.00000000000E+00 -0.00000000000E+00 -0.67692551418E+03  0.67692551418E+03  0.00000000000E+00 0. -1.
         21    1    1    2  503  504 -0.22545043240E+01 -0.56779428386E+02 -0.46563815709E+02  0.73465469514E+02  0.00000000000E+00 0. -1.
         21    1    1    2  504  502 -0.60515394903E+02  0.58802725473E+02 -0.58186305585E+03  0.58794939349E+03  0.00000000000E+00 0. -1.
         21    1    1    2  505  501  0.19291378498E+01 -0.42889069911E+02  0.97238399611E+02  0.10629440366E+03  0.00000000000E+00 0. -1.
         21    1    1    2  506  505  0.60840761377E+02  0.40865772823E+02  0.21397677831E+02  0.76350967578E+02  0.00000000000E+00 0. -1.
<scales pt_clust_3="14000.00000" pt_clust_4="76.21390" pt_clust_5="42.93243" pt_clust_6="62.90155"></scales>
<clustering>
<clus scale="   42.932">  1  5  2 -1</clus>
<clus scale="   62.902">  1  6  2 -1</clus>
<clus scale="   76.214">  2  4  1 -1</clus>
<clus scale="   42.932">  1  3  2 -1</clus>
</clustering>
</event>
<event>
 6    0  0.4227619E+002  0.1132653E+03  0.7546771E-02  0.1254640E+00
         21   -1    0    0  504  501  0.00000000000E+00  0.00000000000E+00  0.53873219139E+02  0.53873219139E+02  0.00000000000E+00 0. -1.
         21   -1    0    0  503  502 -0.00000000000E+00 -0.00000000000E+00 -0.12553828567E+04  0.12553828567E+04  0.00000000000E+00 0. -1.
         21    1    1    2  503  501  0.11046637096E+03 -0.14414898005E+02 -0.37687656344E+02  0.11760513525E+03  0.00000000000E+00 0. -1.
         21    1    1    2  504  506 -0.49786163965E+02 -0.37124292427E+02 -0.84313733928E+02  0.10471714730E+03  0.00000000000E+00 0. -1.
         21    1    1    2  505  502 -0.24651936337E+02  0.53250354550E+02 -0.96714160481E+03  0.96892012157E+03  0.00000000000E+00 0. -1.
         21    1    1    2  506  505 -0.36028270657E+02 -0.17111641183E+01 -0.11236664245E+03  0.11801367168E+03  0.00000000000E+00 0. -1.
<scales pt_clust_3="103.80509" pt_clust_4="34.53494" pt_clust_5="58.67979" pt_clust_6="34.53494"></scales>
<clustering>
<clus scale="   34.535">  4  6 -1 -1</clus>
<clus scale="   58.680">  2  5  1 -1</clus>
<clus scale="  103.805">  1  3  2 -1</clus>
<clus scale="  103.805">  1  3  2 -1</clus>
</clustering>
</event>
<event>
 6    0  0.4227619E+002  0.9058678E+02  0.7546771E-02  0.1301437E+00
         21   -1    0    0  505  501  0.00000000000E+00  0.00000000000E+00  0.27279359678E+03  0.27279359678E+03  0.00000000000E+00 0.  1.
         21   -1    0    0  504  502 -0.00000000000E+00 -0.00000000000E+00 -0.86071066666E+03  0.86071066666E+03  0.00000000000E+00 0.  1.
         21    1    1    2  503  506 -0.10543152146E+03  0.18225389008E+02  0.61159365104E+02  0.12324138291E+03  0.00000000000E+00 0.  1.
         21    1    1    2  504  503  0.81831891487E+02 -0.14937167988E+02  0.51292001512E+02  0.97726387792E+02  0.00000000000E+00 0.  1.
         21    1    1    2  505  502 -0.27109506256E+02 -0.28906049760E+02 -0.79831910535E+03  0.79930211998E+03  0.00000000000E+00 0.  1.
         21    1    1    2  506  501  0.50709136232E+02  0.25617828740E+02  0.97950668846E+02  0.11323437276E+03  0.00000000000E+00 0.  1.
<scales pt_clust_3="90.58678" pt_clust_4="14000.00000" pt_clust_5="39.62935" pt_clust_6="52.24328"></scales>
<clustering>
<clus scale="   39.629">  2  5  1 -1</clus>
<clus scale="   52.243">  1  6  2 -1</clus>
<clus scale="   90.587">  1  3  2 -1</clus>
<clus scale="   52.243">  1  3  2 -1</clus>
</clustering>
</event>
<event>
 6    0  0.4227619E+002  0.1508695E+03  0.7546771E-02  0.1199409E+00
         21   -1    0    0  506  501  0.00000000000E+00  0.00000000000E+00  0.25630367285E+03  0.25630367285E+03  0.00000000000E+00 0. -1.
         21   -1    0    0  504  502 -0.00000000000E+00 -0.00000000000E+00 -0.56567971114E+03  0.56567971114E+03  0.00000000000E+00 0. -1.
         21    1    1    2  503  502  0.11276072191E+01 -0.69764460922E+02 -0.11406022465E+03  0.13370896138E+03  0.00000000000E+00 0.  1.
         21    1    1    2  504  501 -0.28245521902E+02  0.12614292373E+03 -0.20278794428E+03  0.24048450482E+03  0.00000000000E+00 0.  1.
         21    1    1    2  505  503  0.65364497304E+02 -0.51493170021E+02 -0.21054379277E+03  0.22639070816E+03  0.00000000000E+00 0. -1.
         21    1    1    2  506  505 -0.38246582620E+02 -0.48852927916E+01  0.21801592341E+03  0.22139920963E+03  0.00000000000E+00 0. -1.
<scales pt_clust_3="69.16392" pt_clust_4="132.59791" pt_clust_5="69.16392" pt_clust_6="38.55732"></scales>
<clustering>
<clus scale="   38.557">  1  6  2 -1</clus>
<clus scale="   69.164">  3  5 -1 -1</clus>
<clus scale="  132.598">  1  4  2 -1</clus>
<clus scale="   38.557">  1  3  2 -1</clus>
</clustering>
</event>
<event>
 6    0  0.4227619E+002  0.1588699E+03  0.7546771E-02  0.1189979E+00
         21   -1    0    0  506  501  0.00000000000E+00  0.00000000000E+00  0.17536498503E+03  0.17536498503E+03  0.00000000000E+00 0. -1.
         21   -1    0    0  504  502 -0.00000000000E+00 -0.00000000000E+00 -0.46046144699E+03  0.46046144699E+03  0.00000000000E+00 0. -1.
         21    1    1    2  503  501 -0.24198519172E+02  0.39871628842E+02  0.51317061265E+02  0.69345193731E+02  0.00000000000E+00 0. -1.
         21    1    1    2  504  505  0.34274536090E+02  0.24870309462E+02 -0.21483332441E+03  0.21896719707E+03  0.00000000000E+00 0. -1.
         21    1    1    2  505  503 -0.23523305211E+02 -0.19301488485E+03 -0.92388210774E+02  0.21527580717E+03  0.00000000000E+00 0. -1.
         21    1    1    2  506  502  0.13447288294E+02  0.12827294655E+03 -0.29191988035E+02  0.13223823405E+03  0.00000000000E+00 0. -1.
<scales pt_clust_3="46.79508" pt_clust_4="42.34709" pt_clust_5="158.86990" pt_clust_6="14000.00000"></scales>
<clustering>
<clus scale="   42.347">  2  4  1 -1</clus>
<clus scale="   46.795">  1  3  2 -1</clus>
<clus scale="  158.870">  2  5  1 -1</clus>
<clus scale="   46.795">  1  3  2 -1</clus>
</clustering>
</event>
<event>
 6    0  0.4227619E+002  0.1230473E+03  0.7546771E-02  0.1238153E+00
         21   -1    0    0  504  501  0.00000000000E+00  0.00000000000E+00  0.27409794343E+03  0.27409794343E+03  0.00000000000E+00 0. -1.
         21   -1    0    0  506  502 -0.00000000000E+00 -0.00000000000E+00 -0.22305366141E+03  0.22305366141E+03  0.00000000000E+00 0. -1.
         21    1    1    2  503  505  0.85704707014E+01 -0.10418267875E+03  0.90806201874E+02  0.13846750455E+03  0.00000000000E+00 0. -1.
         21    1    1    2  504  502  0.93795808467E+02 -0.33352435499E+02  0.11733839405E+02  0.10023832414E+03  0.00000000000E+00 0. -1.
         21    1    1    2  505  501 -0.55983269488E+02  0.17594767039E+02  0.63119932099E+02  0.86184848541E+02  0.00000000000E+00 0. -1.
         21    1    1    2  506  503 -0.46383009680E+02  0.11994034721E+03 -0.11461569136E+03  0.17226092761E+03  0.00000000000E+00 0. -1.
<scales pt_clust_3="123.04727" pt_clust_4="83.08994" pt_clust_5="58.68307" pt_clust_6="14000.00000"></scales>
<clustering>
<clus scale="   58.683">  1  5  2 -1</clus>
<clus scale="   83.090">  1  4  2 -1</clus>
<clus scale="  123.047">  1  3  2 -1</clus>
<clus scale="   58.683">  1  3  2 -1</clus>
</clustering>
</event>
<event>
 6    0  0.4227619E+002  0.1422953E+03  0.7546771E-02  0.1210273E+00
         21   -1    0    0  504  501  0.00000000000E+00  0.00000000000E+00  0.13015407499E+04  0.13015407499E+04  0.00000000000E+00 0.  1.
         21   -1    0    0  503  502 -0.00000000000E+00 -0.00000000000E+00 -0.17093517775E+03  0.17093517775E+03  0.00000000000E+00 0.  1.
         21    1    1    2  503  501 -0.12190397106E+03  0.81122168512E+02  0.50395210125E+02  0.15485819832E+03  0.00000000000E+00 0.  1.
         21    1    1    2  504  506 -0.21517462935E+02 -0.72227479263E+02  0.73410583196E+03  0.73796421491E+03  0.00000000000E+00 0.  1.
         21    1    1    2  505  502  0.10763106168E+03  0.95453088575E+02 -0.62183972242E+02  0.15672454805E+03  0.00000000000E+00 0.  1.
         21    1    1    2  506  505  0.35790372307E+02 -0.10434777782E+03  0.40828850234E+03  0.42292896641E+03  0.00000000000E+00 0.  1.
<scales pt_clust_3="14000.00000" pt_clust_4="75.36451" pt_clust_5="138.54840" pt_clust_6="142.29526"></scales>
<clustering>
<clus scale="   75.365">  1  4  2 -1</clus>
<clus scale="  138.548">  2  5  1 -1</clus>
<clus scale="  142.295">  1  6  2 -1</clus>
<clus scale="   75.365">  1  3  2 -1</clus>
</clustering>
</event>
<event>
 6    0  0.4227619E+002  0.2509087E+03  0.7546771E-02  0.1112732E+00
         21   -1    0    0  506  501  0.00000000000E+00  0.00000000000E+00  0.11687990812E+03  0.11687990812E+03  0.00000000000E+00 0.  1.
         21   -1    0    0  505  502 -0.00000000000E+00 -0.00000000000E+00 -0.13873144558E+04  0.13873144558E+04  0.00000000000E+00 0.  1.
         21    1    1    2  503  501  0.33164616774E+02 -0.64789903902E+02 -0.32168392552E+02  0.79576560197E+02  0.00000000000E+00 0. -1.
         21    1    1    2  504  502  0.16033404934E+02  0.22860465810E+03 -0.74156067832E+03  0.77616325564E+03  0.00000000000E+00 0.  1.
         21    1    1    2  505  503  0.10112399198E+03 -0.22931597554E+03 -0.26664437465E+03  0.36593865733E+03  0.00000000000E+00 0.  1.
         21    1    1    2  506  504 -0.15032201369E+03  0.65501221340E+02 -0.23006110216E+03  0.28251589075E+03  0.00000000000E+00 0. -1.
<scales pt_clust_3="36.79971" pt_clust_4="241.43769" pt_clust_5="36.79971" pt_clust_6="163.97292"></scales>
<clustering>
<clus scale="   36.800">  3  5 -1 -1</clus>
<clus scale="  163.973">  1  6  2 -1</clus>
<clus scale="  241.438">  2  4  1 -1</clus>
<clus scale="  163.973">  1  3  2 -1</clus>
</clustering>
</event>
<event>
 6    0  0.4227619E+002  0.1456175E+03  0.7546771E-02  0.1205964E+00
         21   -1    0    0  505  501  0.00000000000E+00  0.00000000000E+00  0.47473684054E+03  0.47473684054E+03  0.00000000000E+00 0. -1.
         21   -1    0    0  503  502 -0.00000000000E+00 -0.00000000000E+00 -0.34360268527E+03  0.34360268527E+03  0.00000000000E+00 0. -1.
         21    1    1    2  503  506  0.12682539675E+03 -0.11417718896E+03 -0.20959594984E+03  0.27028054671E+03  0.00000000000E+00 0. -1.
         21    1    1    2  504  501  0.32595980297E+02  0.14763127354E+02  0.12509733268E+03  0.13011452842E+03  0.00000000000E+00 0. -1.
         21    1    1    2  505  502 -0.68428435014E+02 -0.17946838547E+02 -0.67785711239E+02  0.97976744080E+02  0.00000000000E+00 0. -1.
         21    1    1    2  506  504 -0.90992942031E+02  0.11736090016E+03  0.28341848367E+03  0.31996770661E+03  0.00000000000E+00 0. -1.
<scales pt_clust_3="145.61753" pt_clust_4="35.78335" pt_clust_5="69.20928" pt_clust_6="14000.00000"></scales>
<clustering>
<clus scale="   35.783">  1  4  2 -1</clus>
<clus scale="   69.209">  2  5  1 -1</clus>
<clus scale="  145.618">  2  3  1 -1</clus>
<clus scale="   35.783">  1  3  2 -1</clus>
</clustering>
</event>
<event>
 6    0  0.4227619E+002  0.1542213E+03  0.7546771E-02  0.1195380E+00
         21   -1    0    0  506  501  0.00000000000E+00  0.00000000000E+00  0.79277962870E+03  0.79277962870E+03  0.00000000000E+00 0.  1.
         21   -1    0    0  503  502 -0.00000000000E+00 -0.00000000000E+00 -0.16922373828E+03  0.16922373828E+03  0.00000000000E+00 0.  1.
         21    1    1    2  503  504 -0.22098972621E+02 -0.24139956371E+02 -0.38115215298E+01  0.32948896505E+02  0.00000000000E+00 0.  1.
         21    1    1    2  504  501 -0.60317803251E+01 -0.16752802708E+03  0.64694385402E+03  0.66831008707E+03  0.00000000000E+00 0.  1.
         21    1    1    2  505  502  0.12932626874E+02  0.77277271553E+02 -0.94805500092E+02  0.12299232653E+03  0.00000000000E+00 0.  1.
         21    1    1    2  506  505  0.15198126072E+02  0.11439071190E+03  0.75229058025E+02  0.13775205689E+03  0.00000000000E+00 0.  1.
<scales pt_clust_3="32.72770" pt_clust_4="14000.00000" pt_clust_5="59.92606" pt_clust_6="154.22128"></scales>
<clustering>
<clus scale="   32.728">  2  3  1 -1</clus>
<clus scale="   59.926">  2  5  1 -1</clus>
<clus scale="  154.221">  2  6  1 -1</clus>
<clus scale="  154.221">  1  3  2 -1</clus>
</clustering>
</event>
<event>
 6    0  0.4227619E+002  0.8532611E+02  0.7546771E-02  0.1314582E+00
         21   -1    0    0  505  501  0.00000000000E+00  0.00000000000E+00  0.38322600079E+03  0.38322600079E+03  0.00000000000E+00 0. -1.
         21   -1    0    0  503  502 -0.00000000000E+00 -0.00000000000E+00 -0.55637654896E+03  0.55637654896E+03  0.00000000000E+00 0. -1.
         21    1    1    2  503  506  0.82120682534E+01  0.74758343491E+02 -0.21954812388E+03  0.23207245999E+03  0.00000000000E+00 0. -1.
         21    1    1    2  504  502  0.16015438866E+02 -0.63330115209E+02 -0.27500862512E+03  0.28266047064E+03  0.00000000000E+00 0. -1.
         21    1    1    2  505  504  0.80614016625E+02 -0.20168978910E+02  0.30776186412E+03  0.31878326868E+03  0.00000000000E+00 0. -1.
         21    1    1    2  506  501 -0.10484152374E+03  0.87407506283E+01  0.13644336722E+02  0.10608635043E+03  0.00000000000E+00 0. -1.
<scales pt_clust_3="31.47992" pt_clust_4="65.32379" pt_clust_5="85.32611" pt_clust_6="14000.00000"></scales>
<clustering>
<clus scale="   65.324">  2  4  1 -1</clus>
<clus scale="   31.480">  2  3  1 -1</clus>
<clus scale="   85.326">  1  5  2 -1</clus>
<clus scale="   85.326">  1  3  2 -1</clus>
</clustering>
</event>
<event>
 6    0  0.4227619E+002  0.1364046E+03  0.7546771E-02  0.1218250E+00
         21   -1    0    0  503  501  0.00000000000E+00  0.00000000000E+00  0.12185214311E+03  0.12185214311E+03  0.00000000000E+00 0.  1.
         21   -1    0    0  504  502 -0.00000000000E+00 -0.00000000000E+00 -0.40076344961E+03  0.40076344961E+03  0.00000000000E+00 0.  1.
         21    1    1    2  503  505 -0.14623247732E+03  0.33293626233E+02 -0.91989939820E+02  0.17593905763E+03  0.00000000000E+00 0.  1.
         21    1    1    2  504  506  0.21178951308E+02  0.48661023883E+02 -0.81792059391E+02  0.97500688219E+02  0.00000000000E+00 0.  1.
         21    1    1    2  505  502  0.14705612575E+01 -0.40519502543E+02 -0.11153304362E+03  0.11867439680E+03  0.00000000000E+00 0.  1.
         21    1    1    2  506  501  0.12358296476E+03 -0.41435147573E+02  0.64037363237E+01  0.13050145007E+03  0.00000000000E+00 0.  1.
<scales pt_clust_3="136.40463" pt_clust_4="41.95664" pt_clust_5="40.54618" pt_clust_6="14000.00000"></scales>
<clustering>
<clus scale="   40.546">  2  5  1 -1</clus>
<clus scale="   41.957">  2  4  1 -1</clus>
<clus scale="  136.405">  2  3  1 -1</clus>
<clus scale="  136.405">  1  3  2 -1</clus>
</clustering>
</event>
<event>
 6    0  0.4227619E+002  0.1000079E+03  0.7546771E-02  0.1280279E+00
         21   -1    0    0  506  501  0.00000000000E+00  0.00000000000E+00  0.43061033070E+03  0.43061033070E+03  0.00000000000E+00 0. -1.
         21   -1    0    0  505  502 -0.00000000000E+00 -0.00000000000E+00 -0.10837330367E+04  0.10837330367E+04  0.00000000000E+00 0.  1.
         21    1    1    2  503  502  0.27527550764E+02  0.59714701212E+02 -0.86157850365E+03  0.86408398292E+03  0.00000000000E+00 0.  1.
         21    1    1    2  504  501  0.27700916019E+02  0.78471197243E+02  0.11033347252E+03  0.13819748443E+03  0.00000000000E+00 0. -1.
         21    1    1    2  505  504  0.16752025712E+02 -0.47623331419E+02 -0.19263276040E+03  0.19913812403E+03  0.00000000000E+00 0. -1.
         21    1    1    2  506  503 -0.71980492494E+02 -0.90562567035E+02  0.29075508552E+03  0.31292377602E+03  0.00000000000E+00 0. -1.
<scales pt_clust_3="45.82089" pt_clust_4="14000.00000" pt_clust_5="50.48378" pt_clust_6="100.00785"></scales>
<clustering>
<clus scale="   50.484">  2  5  1 -1</clus>
<clus scale="   45.821">  2  3  1 -1</clus>
<clus scale="  100.008">  1  6  2 -1</clus>
<clus scale="  100.008">  1  3  2 -1</clus>
</clustering>
</event>
<event>
 6    0  0.4227619E+002  0.8885775E+02  0.7546771E-02  0.1305642E+00
         21   -1    0    0  504  501  0.00000000000E+00  0.00000000000E+00  0.39646080486E+03  0.39646080486E+03  0.00000000000E+00 0. -1.
         21   -1    0    0  506  502 -0.00000000000E+00 -0.00000000000E+00 -0.19993819686E+03  0.19993819686E+03  0.00000000000E+00 0.  1.
         21    1    1    2  503  505 -0.47931452689E+02 -0.32629087849E+02 -0.84150651711E+01  0.58590911006E+02  0.00000000000E+00 0. -1.
         21    1    1    2  504  503  0.12944762943E+02 -0.39159791880E+02  0.28123840700E+03  0.28424654397E+03  0.00000000000E+00 0. -1.
         21    1    1    2  505  502  0.68625390621E+02  0.96256122363E+02 -0.13638310778E+03  0.18048556014E+03  0.00000000000E+00 0.  1.
         21    1    1    2  506  501 -0.33638700875E+02 -0.24467242635E+02  0.60082373957E+02  0.73075986610E+02  0.00000000000E+00 0. -1.
<scales pt_clust_3="88.85775" pt_clust_4="41.24386" pt_clust_5="14000.00000" pt_clust_6="54.08638"></scales>
<clustering>
<clus scale="   41.244">  1  4  2 -1</clus>
<clus scale="   54.086">  1  6  2 -1</clus>
<clus scale="   88.858">  1  3  2 -1</clus>
<clus scale="   41.244">  1  3  2 -1</clus>
</clustering>
</event>
<event>
 6    0  0.4227619E+002  0.1102529E+03  0.7546771E-02  0.1260102E+00
         21   -1    0    0  506  501  0.00000000000E+00  0.00000000000E+00  0.22986614775E+04  0.22986614775E+04  0.00000000000E+00 0. -1.
         21   -1    0    0  504  502 -0.00000000000E+00 -0.00000000000E+00 -0.63291843703E+02  0.63291843703E+02  0.00000000000E+00 0. -1.
         21    1    1    2  503  501 -0.10127648475E+03 -0.68531356267E+02  0.14741659271E+04  0.14792290742E+04  0.00000000000E+00 0. -1.
         21    1    1    2  504  505  0.40732057116E+02  0.35008507599E+02 -0.64997939061E+01  0.54101232906E+02  0.00000000000E+00 0. -1.
         21    1    1    2  505  503  0.55822733443E+02 -0.46711068681E+01 -0.38128294196E+01  0.56147435174E+02  0.00000000000E+00 0. -1.
         21    1    1    2  506  502  0.47216941860E+01  0.38193955536E+02  0.77151633003E+03  0.77247557899E+03  0.00000000000E+00 0.  1.
<scales pt_clust_3="101.73723" pt_clust_4="41.76438" pt_clust_5="41.76438" pt_clust_6="38.48471"></scales>
<clustering>
<clus scale="   38.485">  1  6  2 -1</clus>
<clus scale="   41.764">  4  5 -1 -1</clus>
<clus scale="  101.737">  1  3  2 -1</clus>
<clus scale="   38.485">  1  3  2 -1</clus>
</clustering>
</event>
<event>
 6    0  0.4227619E+002  0.1057484E+03  0.7546771E-02  0.1268652E+00
         21   -1    0    0  503  501  0.00000000000E+00  0.00000000000E+00  0.45091507372E+03  0.45091507372E+03  0.00000000000E+00 0.  1.
         21   -1    0    0  506  502 -0.00000000000E+00 -0.00000000000E+00 -0.41044410785E+03  0.41044410785E+03  0.00000000000E+00 0.  1.
         21    1    1    2  503  505  0.65736013780E+02 -0.37497778335E+02  0.30799886295E+02  0.81706424983E+02  0.00000000000E+00 0. -1.
         21    1    1    2  504  501 -0.30690325425E+01 -0.44737012362E+02  0.29445814045E+03  0.29785301024E+03  0.00000000000E+00 0.  1.
         21    1    1    2  505  502  0.42029756220E+02  0.10165911493E+03 -0.34316379696E+03  0.36036435396E+03  0.00000000000E+00 0.  1.
         21    1    1    2  506  504 -0.10469673746E+03 -0.19424324237E+02  0.58376736097E+02  0.12143539238E+03  0.00000000000E+00 0.  1.
<scales pt_clust_3="84.05859" pt_clust_4="44.84216" pt_clust_5="14000.00000" pt_clust_6="105.74835"></scales>
<clustering>
<clus scale="   44.842">  1  4  2 -1</clus>
<clus scale="   84.059">  1  3  2 -1</clus>
<clus scale="  105.748">  1  6  2 -1</clus>
<clus scale="   44.842">  1  3  2 -1</clus>
</clustering>
</event>
<event>
 6    0  0.4227619E+002  0.2113790E+03  0.7546771E-02  0.1140479E+00
         21   -1    0    0  503  501  0.00000000000E+00  0.00000000000E+00  0.40250765668E+03  0.40250765668E+03  0.00000000000E+00 0. -1.
         21   -1    0    0  504  502 -0.00000000000E+00 -0.00000000000E+00 -0.43569290548E+03  0.43569290548E+03  0.00000000000E+00 0. -1.
         21    1    1    2  503  505  0.63878934026E-01  0.49342731117E+02  0.93691017990E+02  0.10589011307E+03  0.00000000000E+00 0.  1.
         21    1    1    2  504  506  0.20693416151E+03 -0.16163558993E+03  0.11690114687E+03  0.28742597181E+03  0.00000000000E+00 0. -1.
         21    1    1    2  505  502 -0.17832866868E+03  0.99163246171E+02 -0.31023683647E+03  0.37132379155E+03  0.00000000000E+00 0. -1.
         21    1    1    2  506  501 -0.28669371766E+02  0.13129612640E+02  0.66459422809E+02  0.73560685734E+02  0.00000000000E+00 0. -1.
<scales pt_clust_3="53.96336" pt_clust_4="211.37904" pt_clust_5="14000.00000" pt_clust_6="31.53283"></scales>
<clustering>
<clus scale="   31.533">  1  6  2 -1</clus>
<clus scale="   53.963">  1  3  2 -1</clus>
<clus scale="  211.379">  1  4  2 -1</clus>
<clus scale="   31.533">  1  3  2 -1</clus>
</clustering>
</event>
<event>
 6    0  0.4227619E+002  0.7240095E+02  0.7546771E-02  0.1352114E+00
         21   -1    0    0  503  501  0.00000000000E+00  0.00000000000E+00  0.46695721254E+03  0.46695721254E+03  0.00000000000E+00 0.  1.
         21   -1    0    0  505  502 -0.00000000000E+00 -0.00000000000E+00 -0.85680965174E+02  0.85680965174E+02  0.00000000000E+00 0. -1.
         21    1    1    2  503  504 -0.34899897350E+02  0.10382668214E+02  0.56939173738E+02  0.67586035098E+02  0.00000000000E+00 0.  1.
         21    1    1    2  504  502 -0.59540248635E+02 -0.88740185235E+02  0.14873572874E+03  0.18314523933E+03  0.00000000000E+00 0.  1.
         21    1    1    2  505  506  0.38414838861E+02  0.56470341384E+02 -0.39265062118E+02  0.78780355444E+02  0.00000000000E+00 0. -1.
         21    1    1    2  506  501  0.56025307123E+02  0.21887175638E+02  0.21486640700E+03  0.22312654785E+03  0.00000000000E+00 0.  1.
<scales pt_clust_3="36.41157" pt_clust_4="14000.00000" pt_clust_5="72.40095" pt_clust_6="46.21589"></scales>
<clustering>
<clus scale="   36.412">  1  3  2 -1</clus>
<clus scale="   46.216">  1  6  2 -1</clus>
<clus scale="   72.401">  2  5  1 -1</clus>
<clus scale="   36.412">  1  3  2 -1</clus>
</clustering>
</event>
<event>
 6    0  0.4227619E+002  0.1569207E+03  0.7546771E-02  0.1192218E+00
         21   -1    0    0  505  501  0.00000000000E+00  0.00000000000E+00  0.41779684726E+03  0.41779684726E+03  0.00000000000E+00 0. -1.
         21   -1    0    0  506  502 -0.00000000000E+00 -0.00000000000E+00 -0.12113918447E+04  0.12113918447E+04  0.00000000000E+00 0. -1.
         21    1    1    2  503  501  0.91320695601E+02  0.72372301974E+02  0.61883027500E+01  0.11668553736E+03  0.00000000000E+00 0.  1.
         21    1    1    2  504  502  0.30858854404E+02 -0.33827211801E+02 -0.31630631123E+03  0.31960324103E+03  0.00000000000E+00 0. -1.
         21    1    1    2  505  504 -0.17547121371E+03 -0.29601834018E+02  0.33144177897E+03  0.37619153136E+03  0.00000000000E+00 0. -1.
         21    1    1    2  506  503  0.53291663707E+02 -0.89432561553E+01 -0.81491876789E+03  0.81670838217E+03  0.00000000000E+00 0. -1.
<scales pt_clust_3="156.92072" pt_clust_4="45.78809" pt_clust_5="14000.00000" pt_clust_6="90.68527"></scales>
<clustering>
<clus scale="   45.788">  2  4  1 -1</clus>
<clus scale="   90.685">  2  6  1 -1</clus>
<clus scale="  156.921">  2  3  1 -1</clus>
<clus scale="  156.921">  1  3  2 -1</clus>
</clustering>
</event>
<event>
 6    0  0.4227619E+002  0.9644619E+02  0.7546771E-02  0.1287952E+00
         21   -1    0    0  503  501  0.00000000000E+00  0.00000000000E+00  0.20157712042E+03  0.20157712042E+03  0.00000000000E+00 0. -1.
         21   -1    0    0  505  502 -0.00000000000E+00 -0.00000000000E+00 -0.25429172193E+03  0.25429172193E+03  0.00000000000E+00 0.  1.
         21    1    1    2  503  502 -0.77514511902E+02  0.10121563889E+03 -0.88153543985E+02  0.15499726587E+03  0.00000000000E+00 0.  1.
         21    1    1    2  504  506  0.31949048218E+02  0.12558212672E+02 -0.33537304625E+01  0.34491997558E+02  0.00000000000E+00 0.  1.
         21    1    1    2  505  504 -0.96613598146E+00 -0.33393187095E+02 -0.96588102469E+02  0.10220224998E+03  0.00000000000E+00 0.  1.
         21    1    1    2  506  501  0.46531599666E+02 -0.80380664464E+02  0.13538077541E+03  0.16417732894E+03  0.00000000000E+00 0. -1.
<scales pt_clust_3="14000.00000" pt_clust_4="32.94090" pt_clust_5="33.40716" pt_clust_6="96.44619"></scales>
<clustering>
<clus scale="   33.407">  2  5  1 -1</clus>
<clus scale="   32.941">  2  4  1 -1</clus>
<clus scale="   96.446">  1  6  2 -1</clus>
<clus scale="   96.446">  1  3  2 -1</clus>
</clustering>
</event>
<event>
 6    0  0.4227619E+002  0.1410932E+03  0.7546771E-02  0.1211865E+00
         21   -1    0    0  504  501  0.00000000000E+00  0.00000000000E+00  0.46888285163E+03  0.46888285163E+03  0.00000000000E+00 0.  1.
         21   -1    0    0  503  502 -0.00000000000E+00 -0.00000000000E+00 -0.30274650235E+03  0.30274650235E+03  0.00000000000E+00 0.  1.
         21    1    1    2  503  506 -0.13121644963E+03  0.25085021086E+02 -0.19238264011E+03  0.23421805044E+03  0.00000000000E+00 0.  1.
         21    1    1    2  504  505 -0.68070824975E+00 -0.56812231520E+02  0.24120502409E+03  0.24780628858E+03  0.00000000000E+00 0.  1.
         21    1    1    2  505  502  0.18247223141E+03 -0.16599751197E+01  0.32478385035E+02  0.18534755527E+03  0.00000000000E+00 0.  1.
         21    1    1    2  506  501 -0.50575073522E+02  0.33387185554E+02  0.84835580266E+02  0.10425745968E+03  0.00000000000E+00 0.  1.
<scales pt_clust_3="141.09324" pt_clust_4="56.81631" pt_clust_5="14000.00000" pt_clust_6="51.73199"></scales>
<clustering>
<clus scale="   56.816">  1  4  2 -1</clus>
<clus scale="   51.732">  1  6  2 -1</clus>
<clus scale="  141.093">  2  3  1 -1</clus>
<clus scale="   56.816">  1  3  2 -1</clus>
</clustering>
</event>
<event>
 6    0  0.4227619E+002  0.1436131E+03  0.7546771E-02  0.1208548E+00
         21   -1    0    0  503  501  0.00000000000E+00  0.00000000000E+00  0.25325433465E+04  0.25325433465E+04  0.00000000000E+00 0.  1.
         21   -1    0    0  506  502 -0.00000000000E+00 -0.00000000000E+00 -0.14082358569E+03  0.14082358569E+03  0.00000000000E+00 0.  1.
         21    1    1    2  503  505  0.31118257109E+02 -0.23387448171E+02  0.34551673331E+03  0.34770264833E+03  0.00000000000E+00 0.  1.
         21    1    1    2  504  501  0.39124381712E+02  0.96632983978E+01  0.20268530080E+04  0.20272536133E+04  0.00000000000E+00 0.  1.
         21    1    1    2  505  502 -0.17336734679E+03  0.58499836132E+02 -0.63632557950E+01  0.18308183631E+03  0.00000000000E+00 0.  1.
         21    1    1    2  506  504  0.10312470797E+03 -0.44775686359E+02  0.25713275292E+02  0.11532883425E+03  0.00000000000E+00 0.  1.
<scales pt_clust_3="38.92709" pt_clust_4="69.03609" pt_clust_5="143.61311" pt_clust_6="14000.00000"></scales>
<clustering>
<clus scale="   38.927">  1  3  2 -1</clus>
<clus scale="   69.036">  1  4  2 -1</clus>
<clus scale="  143.613">  1  5  2 -1</clus>
<clus scale="   38.927">  1  3  2 -1</clus>
</clustering>
</event>
<event>
 6    0  0.4227619E+002  0.1376940E+03  0.7546771E-02  0.1216466E+00
         21   -1    0    0  504  501  0.00000000000E+00  0.00000000000E+00  0.13196955282E+03  0.13196955282E+03  0.00000000000E+00 0.  1.
         21   -1    0    0  503  502 -0.00000000000E+00 -0.00000000000E+00 -0.18176122811E+03  0.18176122811E+03  0.00000000000E+00 0.  1.
         21    1    1    2  503  505 -0.34498786708E+02 -0.67612310117E+02  0.10651540905E+02  0.76648849224E+02  0.00000000000E+00 0.  1.
         21    1    1    2  504  506  0.54401431157E+02  0.60489715692E+02 -0.40830590792E+02  0.91025592889E+02  0.00000000000E+00 0.  1.
         21    1    1    2  505  501 -0.22082068798E+02 -0.44739695114E+02  0.42195230408E+02  0.65342907423E+02  0.00000000000E+00 0.  1.
         21    1    1    2  506  502  0.21794243480E+01  0.51862289540E+02 -0.61807855808E+02  0.80713431388E+02  0.00000000000E+00 0.  1.
<scales pt_clust_3="131.79104" pt_clust_4="44.72651" pt_clust_5="31.86232" pt_clust_6="44.72651"></scales>
<clustering>
<clus scale="   31.862">  3  5 -1 -1</clus>
<clus scale="   44.727">  4  6 -1 -1</clus>
<clus scale="  131.791">  1  3  2 -1</clus>
<clus scale="  131.791">  1  3  2 -1</clus>
</clustering>
</event>
<event>
 6    0  0.4227619E+002  0.1792100E+03  0.7546771E-02  0.1168570E+00
         21   -1    0    0  503  501  0.00000000000E+00  0.00000000000E+00  0.59182042352E+03  0.59182042352E+03  0.00000000000E+00 0.  1.
         21   -1    0    0  504  502 -0.00000000000E+00 -0.00000000000E+00 -0.28174056761E+03  0.28174056761E+03  0.00000000000E+00 0.  1.
         21    1    1    2  503  506  0.19185454404E+02  0.47741347564E+02  0.20732162935E+03  0.21361080479E+03  0.00000000000E+00 0. -1.
         21    1    1    2  504  505  0.13216295778E+02  0.42575950781E+02  0.16781885631E+01  0.44611639466E+02  0.00000000000E+00 0.  1.
         21    1    1    2  505  501 -0.13782804830E+03  0.88401603572E+02  0.29109215353E+03  0.33398511383E+03  0.00000000000E+00 0.  1.
         21    1    1    2  506  502  0.10542629812E+03 -0.17871890192E+03 -0.19001211553E+03  0.28135343304E+03  0.00000000000E+00 0.  1.
<scales pt_clust_3="51.98895" pt_clust_4="44.58006" pt_clust_5="14000.00000" pt_clust_6="179.21003"></scales>
<clustering>
<clus scale="   44.580">  2  4  1 -1</clus>
<clus scale="   51.989">  1  3  2 -1</clus>
<clus scale="  179.210">  2  6  1 -1</clus>
<clus scale="   51.989">  1  3  2 -1</clus>
</clustering>
</event>
<event>
 6    0  0.4227619E+002  0.9186868E+02  0.7546771E-02  0.1298388E+00
         21   -1    0    0  505  501  0.00000000000E+00  0.00000000000E+00  0.26029524339E+03  0.26029524339E+03  0.00000000000E+00 0. -1.
         21   -1    0    0  503  502 -0.00000000000E+00 -0.00000000000E+00 -0.17734236532E+03  0.17734236532E+03  0.00000000000E+00 0. -1.
         21    1    1    2  503  501 -0.10395664424E+03 -0.71216821277E+02 -0.94257814410E+02  0.15736376677E+03  0.00000000000E+00 0. -1.
         21    1    1    2  504  502  0.38418715802E+02  0.23126288999E+01 -0.13330266951E+02  0.40731339203E+02  0.00000000000E+00 0. -1.
         21    1    1    2  505  506  0.54864459097E+02 -0.10278770180E+02  0.12242178876E+03  0.13454685560E+03  0.00000000000E+00 0. -1.
         21    1    1    2  506  504  0.10673469338E+02  0.79182962556E+02  0.68119170673E+02  0.10499564715E+03  0.00000000000E+00 0. -1.
<scales pt_clust_3="91.86868" pt_clust_4="38.48826" pt_clust_5="57.32612" pt_clust_6="14000.00000"></scales>
<clustering>
<clus scale="   38.488">  2  4  1 -1</clus>
<clus scale="   57.326">  1  5  2 -1</clus>
<clus scale="   91.869">  2  3  1 -1</clus>
<clus scale="   57.326">  1  3  2 -1</clus>
</clustering>
</event>
<event>
 6    0  0.4227619E+002  0.1117035E+03  0.7546771E-02  0.1257447E+00
         21   -1    0    0  505  501  0.00000000000E+00  0.00000000000E+00  0.26125794820E+03  0.26125794820E+03  0.00000000000E+00 0.  1.
         21   -1    0    0  506  502 -0.00000000000E+00 -0.00000000000E+00 -0.12678036177E+03  0.12678036177E+03  0.00000000000E+00 0.  1.
         21    1    1    2  503  504 -0.22236039438E+02 -0.33491094065E+02  0.52025703873E+02  0.65747765704E+02  0.00000000000E+00 0.  1.
         21    1    1    2  504  502 -0.37388482359E+02 -0.36577290338E+02 -0.24647309165E+02  0.57821160752E+02  0.00000000000E+00 0.  1.
         21    1    1    2  505  503  0.22450195093E+02 -0.60615435114E+02  0.11110716494E+03  0.12854199444E+03  0.00000000000E+00 0.  1.
         21    1    1    2  506  501  0.37174326705E+02  0.13068381952E+03 -0.40079732165E+01  0.13592738907E+03  0.00000000000E+00 0.  1.
<scales pt_clust_3="37.65690" pt_clust_4="52.30484" pt_clust_5="37.65690" pt_clust_6="100.98302"></scales>
<clustering>
<clus scale="   37.657">  3  5 -1 -1</clus>
<clus scale="   52.305">  2  4  1 -1</clus>
<clus scale="  100.983">  2  6  1 -1</clus>
<clus scale="  111.703">  1  3  2 -1</clus>
</clustering>
</event>
<event>
 6    0  0.4227619E+002  0.1538622E+03  0.7546771E-02  0.1195806E+00
         21   -1    0    0  506  501  0.00000000000E+00  0.00000000000E+00  0.23813034811E+03  0.23813034811E+03  0.00000000000E+00 0. -1.
         21   -1    0    0  505  502 -0.00000000000E+00 -0.00000000000E+00 -0.27765210583E+03  0.27765210583E+03  0.00000000000E+00 0. -1.
         21    1    1    2  503  504 -0.39628251913E+02 -0.15456408900E+02  0.79531380294E+01  0.43272986150E+02  0.00000000000E+00 0. -1.
         21    1    1    2  504  501  0.48070909132E+02 -0.80473746810E+02  0.12872372450E+03  0.15923766351E+03  0.00000000000E+00 0. -1.
         21    1    1    2  505  503 -0.70159452598E+02 -0.58986032794E+02 -0.52372036995E+02  0.10556766130E+03  0.00000000000E+00 0. -1.
         21    1    1    2  506  502  0.61716795380E+02  0.15491618850E+03 -0.12382658326E+03  0.20770414299E+03  0.00000000000E+00 0. -1.
<scales pt_clust_3="34.63830" pt_clust_4="93.73813" pt_clust_5="34.63830" pt_clust_6="145.21735"></scales>
<clustering>
<clus scale="   34.638">  3  5 -1 -1</clus>
<clus scale="   93.738">  1  4  2 -1</clus>
<clus scale="  145.217">  2  6  1 -1</clus>
<clus scale="   93.738">  1  3  2 -1</clus>
</clustering>
</event>
<event>
 6    0  0.4227619E+002  0.9189191E+02  0.7546771E-02  0.1298334E+00
         21   -1    0    0  505  501  0.00000000000E+00  0.00000000000E+00  0.40719648194E+03  0.40719648194E+03  0.00000000000E+00 0. -1.
         21   -1    0    0  503  502 -0.00000000000E+00 -0.00000000000E+00 -0.34014819409E+03  0.34014819409E+03  0.00000000000E+00 0.  1.
         21    1    1    2  503  506 -0.68495229245E+02  0.19794928618E+02 -0.10175975152E+02  0.72020733810E+02  0.00000000000E+00 0.  1.
         21    1    1    2  504  502  0.95111327555E+02 -0.22423034635E+02 -0.26510262894E+03  0.28253913177E+03  0.00000000000E+00 0.  1.
         21    1    1    2  505  504  0.64966960663E+02 -0.14111288306E+02  0.42667215889E+02  0.78995732462E+02  0.00000000000E+00 0. -1.
         21    1    1    2  506  501 -0.91583058974E+02  0.16739394323E+02  0.29965967605E+03  0.31378907798E+03  0.00000000000E+00 0. -1.
<scales pt_clust_3="91.89191" pt_clust_4="14000.00000" pt_clust_5="66.48184" pt_clust_6="34.31475"></scales>
<clustering>
<clus scale="   66.482">  1  5  2 -1</clus>
<clus scale="   34.315">  1  6  2 -1</clus>
<clus scale="   91.892">  1  3  2 -1</clus>
<clus scale="   66.482">  1  3  2 -1</clus>
</clustering>
</event>
<event>
 6    0  0.4227619E+002  0.6328860E+02  0.7546771E-02  0.1384527E+00
         21   -1    0    0  505  501  0.00000000000E+00  0.00000000000E+00  0.12322874595E+04  0.12322874595E+04  0.00000000000E+00 0. -1.
         21   -1    0    0  501  502 -0.00000000000E+00 -0.00000000000E+00 -0.37663611255E+02  0.37663611255E+02  0.00000000000E+00 0.  1.
         21    1    1    2  503  504 -0.88757906359E+02 -0.51633993149E+02  0.75212445925E+03  0.75910159886E+03  0.00000000000E+00 0. -1.
         21    1    1    2  504  502  0.10540265849E+02  0.62197388738E+02  0.45017405184E+01  0.63244589000E+02  0.00000000000E+00 0.  1.
         21    1    1    2  505  506  0.27021951220E+02  0.17564363407E+02  0.19766950841E+03  0.20027962269E+03  0.00000000000E+00 0. -1.
         21    1    1    2  506  503  0.51195689290E+02 -0.28127758996E+02  0.24032814003E+03  0.24732526017E+03  0.00000000000E+00 0. -1.
<scales pt_clust_3="63.28860" pt_clust_4="14000.00000" pt_clust_5="32.22876" pt_clust_6="62.36763"></scales>
<clustering>
<clus scale="   32.229">  1  5  2 -1</clus>
<clus scale="   62.368">  1  6  2 -1</clus>
<clus scale="   63.289">  1  3  2 -1</clus>
<clus scale="   32.229">  1  3  2 -1</clus>
</clustering>
</event>
<event>
 6    0  0.4227619E+002  0.7339506E+02  0.7546771E-02  0.1348914E+00
         21   -1    0    0  506  501  0.00000000000E+00  0.00000000000E+00  0.51914188828E+03  0.51914188828E+03  0.00000000000E+00 0. -1.
         21   -1    0    0  503  502 -0.00000000000E+00 -0.00000000000E+00 -0.46513986379E+02  0.46513986379E+02  0.00000000000E+00 0. -1.
         21    1    1    2  503  505 -0.17096140525E+01  0.36694073533E+02 -0.27006811982E+01  0.36833021754E+02  0.00000000000E+00 0. -1.
         21    1    1    2  504  502 -0.68786950319E+02 -0.68912353744E+02  0.12341738615E+03  0.15720180736E+03  0.00000000000E+00 0. -1.
         21    1    1    2  505  501  0.17138627581E+02  0.57663602914E+02  0.16827353141E+03  0.17870311981E+03  0.00000000000E+00 0. -1.
         21    1    1    2  506  504  0.53357936791E+02 -0.25445322703E+02  0.18363766553E+03  0.19291792573E+03  0.00000000000E+00 0. -1.
<scales pt_clust_3="36.73388" pt_clust_4="14000.00000" pt_clust_5="73.39506" pt_clust_6="56.38739"></scales>
<clustering>
<clus scale="   36.734">  2  3  1 -1</clus>
<clus scale="   56.387">  1  6  2 -1</clus>
<clus scale="   73.395">  1  5  2 -1</clus>
<clus scale="   56.387">  1  3  2 -1</clus>
</clustering>
</event>
<event>
 6    0  0.4227619E+002  0.9835116E+02  0.7546771E-02  0.1283802E+00
         21   -1    0    0  506  501  0.00000000000E+00  0.00000000000E+00  0.39059038366E+02  0.39059038366E+02  0.00000000000E+00 0.  1.
         21   -1    0    0  505  502 -0.00000000000E+00 -0.00000000000E+00 -0.97090362938E+03  0.97090362938E+03  0.00000000000E+00 0.  1.
         21    1    1    2  503  502  0.91161468989E+01 -0.75608867737E+02 -0.44766791560E+03  0.45409951296E+03  0.00000000000E+00 0.  1.
         21    1    1    2  504  501  0.10565216480E+02  0.38243404799E+02 -0.21713941760E+02  0.45229161795E+02  0.00000000000E+00 0. -1.
         21    1    1    2  505  504  0.52554273160E+02  0.10491427710E+03 -0.26355214259E+03  0.28849382841E+03  0.00000000000E+00 0.  1.
         21    1    1    2  506  503 -0.72235636538E+02 -0.67548814166E+02 -0.19891059107E+03  0.22214016458E+03  0.00000000000E+00 0.  1.
<scales pt_clust_3="71.85509" pt_clust_4="39.67596" pt_clust_5="98.35116" pt_clust_6="14000.00000"></scales>
<clustering>
<clus scale="   39.676">  1  4  2 -1</clus>
<clus scale="   71.855">  2  3  1 -1</clus>
<clus scale="   98.351">  2  5  1 -1</clus>
<clus scale="   39.676">  1  3  2 -1</clus>
</clustering>
</event>
<event>
 6    0  0.4227619E+002  0.2297397E+03  0.7546771E-02  0.1126823E+00
         21   -1    0    0  506  501  0.00000000000E+00  0.00000000000E+00  0.31500439044E+03  0.31500439044E+03  0.00000000000E+00 0. -1.
         21   -1    0    0  503  502 -0.00000000000E+00 -0.00000000000E+00 -0.53851743247E+03  0.53851743247E+03  0.00000000000E+00 0.  1.
         21    1    1    2  503  504  0.31992017651E+02 -0.26283869278E+02 -0.77588477117E+02  0.87944884780E+02  0.00000000000E+00 0.  1.
         21    1    1    2  504  501 -0.27445461132E+03 -0.55210936607E+02 -0.16584481583E+03  0.32538912726E+03  0.00000000000E+00 0.  1.
         21    1    1    2  505  502  0.35821291887E+02  0.76605734470E+01 -0.15518485441E+03  0.15944964213E+03  0.00000000000E+00 0.  1.
         21    1    1    2  506  505  0.20664130179E+03  0.73834232439E+02  0.17510510533E+03  0.28073816875E+03  0.00000000000E+00 0. -1.
<scales pt_clust_3="46.77385" pt_clust_4="14000.00000" pt_clust_5="36.63126" pt_clust_6="229.73974"></scales>
<clustering>
<clus scale="   36.631">  2  5  1 -1</clus>
<clus scale="   46.774">  2  3  1 -1</clus>
<clus scale="  229.740">  1  6  2 -1</clus>
<clus scale="  229.740">  1  3  2 -1</clus>
</clustering>
</event>
<event>
 6    0  0.4227619E+002  0.1855167E+03  0.7546771E-02  0.1162568E+00
         21   -1    0    0  503  501  0.00000000000E+00  0.00000000000E+00  0.51539815561E+03  0.51539815561E+03  0.00000000000E+00 0. -1.
         21   -1    0    0  505  502 -0.00000000000E+00 -0.00000000000E+00 -0.50450962676E+03  0.50450962676E+03  0.00000000000E+00 0.  1.
         21    1    1    2  503  506 -0.56568495084E+02  0.13156455760E+03  0.12873822588E+03  0.19256884030E+03  0.00000000000E+00 0. -1.
         21    1    1    2  504  502  0.39526126524E+02 -0.45984755654E+02 -0.25906550177E+03  0.26606737237E+03  0.00000000000E+00 0. -1.
         21    1    1    2  505  501 -0.79382424592E+02 -0.25209756050E+02  0.33027946065E+03  0.34061946988E+03  0.00000000000E+00 0. -1.
         21    1    1    2  506  504  0.96424793152E+02 -0.60370045892E+02 -0.18906365590E+03  0.22065209983E+03  0.00000000000E+00 0.  1.
<scales pt_clust_3="167.73297" pt_clust_4="57.86564" pt_clust_5="83.28926" pt_clust_6="57.86564"></scales>
<clustering>
<clus scale="   57.866">  4  6 -1 -1</clus>
<clus scale="   83.289">  1  5  2 -1</clus>
<clus scale="  167.733">  1  3  2 -1</clus>
<clus scale="   83.289">  1  3  2 -1</clus>
</clustering>
</event>
<event>
 6    0  0.4227619E+002  0.1652058E+03  0.7546771E-02  0.1182942E+00
         21   -1    0    0  505  501  0.00000000000E+00  0.00000000000E+00  0.68924362981E+03  0.68924362981E+03  0.00000000000E+00 0.  1.
         21   -1    0    0  503  502 -0.00000000000E+00 -0.00000000000E+00 -0.14544720987E+03  0.14544720987E+03  0.00000000000E+00 0.  1.
         21    1    1    2  503  501  0.46901506157E+02  0.75620945574E+01  0.66462349811E+01  0.47969875895E+02  0.00000000000E+00 0. -1.
         21    1    1    2  504  502 -0.96043348335E+02 -0.16775132781E+03 -0.20986323668E+02  0.19443574395E+03  0.00000000000E+00 0.  1.
         21    1    1    2  505  506  0.49378921351E+02  0.13881828927E+02  0.16598614209E+03  0.17373077567E+03  0.00000000000E+00 0.  1.
         21    1    1    2  506  504 -0.23707917282E+00  0.14630740433E+03  0.39215036653E+03  0.41855444417E+03  0.00000000000E+00 0.  1.
<scales pt_clust_3="47.50723" pt_clust_4="14000.00000" pt_clust_5="52.75801" pt_clust_6="165.20576"></scales>
<clustering>
<clus scale="   47.507">  2  3  1 -1</clus>
<clus scale="   52.758">  1  5  2 -1</clus>
<clus scale="  165.206">  1  6  2 -1</clus>
<clus scale="   52.758">  1  3  2 -1</clus>
</clustering>
</event>
<event>
 6    0  0.4227619E+002  0.8722428E+02  0.7546771E-02  0.1309716E+00
         21   -1    0    0  506  501  0.00000000000E+00  0.00000000000E+00  0.19419249408E+04  0.19419249408E+04  0.00000000000E+00 0. -1.
         21   -1    0    0  504  502 -0.00000000000E+00 -0.00000000000E+00 -0.65967213277E+03  0.65967213277E+03  0.00000000000E+00 0.  1.
         21    1    1    2  503  502  0.60280798577E+02 -0.92102185069E+01 -0.83532531007E+02  0.10342285308E+03  0.00000000000E+00 0.  1.
         21    1    1    2  504  505 -0.96130601183E+02 -0.35269288801E+02 -0.55491100744E+03  0.56427940012E+03  0.00000000000E+00 0.  1.
         21    1    1    2  505  501  0.82456364583E+02  0.64267210631E+02  0.43685919652E+03  0.44919403826E+03  0.00000000000E+00 0.  1.
         21    1    1    2  506  503 -0.46606561977E+02 -0.19787703323E+02  0.14838371500E+04  0.14847007821E+04  0.00000000000E+00 0. -1.
<scales pt_clust_3="14000.00000" pt_clust_4="87.22428" pt_clust_5="58.56059" pt_clust_6="50.63324"></scales>
<clustering>
<clus scale="   50.633">  1  6  2 -1</clus>
<clus scale="   58.561">  1  5  2 -1</clus>
<clus scale="   87.224">  2  4  1 -1</clus>
<clus scale="   50.633">  1  3  2 -1</clus>
</clustering>
</event>
<event>
 6    0  0.4227619E+002  0.8621742E+02  0.7546771E-02  0.1312279E+00
         21   -1    0    0  503  501  0.00000000000E+00  0.00000000000E+00  0.80200964608E+03  0.80200964608E+03  0.00000000000E+00 0. -1.
         21   -1    0    0  506  502 -0.00000000000E+00 -0.00000000000E+00 -0.84380745686E+03  0.84380745686E+03  0.00000000000E+00 0. -1.
         21    1    1    2  503  504 -0.28028903660E+02 -0.21059866763E+02  0.77520670035E+03  0.77599907584E+03  0.00000000000E+00 0. -1.
         21    1    1    2  504  502  0.99362742219E+02  0.73935955773E+02 -0.24615310364E+03  0.27555549446E+03  0.00000000000E+00 0. -1.
         21    1    1    2  505  501 -0.23553862858E+02 -0.59778887043E+02 -0.87767293824E+02  0.10877222833E+03  0.00000000000E+00 0. -1.
         21    1    1    2  506  505 -0.47779975701E+02  0.69027980324E+01 -0.48308411366E+03  0.48549030430E+03  0.00000000000E+00 0. -1.
<scales pt_clust_3="35.05906" pt_clust_4="86.21742" pt_clust_5="14000.00000" pt_clust_6="49.41568"></scales>
<clustering>
<clus scale="   35.059">  1  3  2 -1</clus>
<clus scale="   49.416">  2  6  1 -1</clus>
<clus scale="   86.217">  2  4  1 -1</clus>
<clus scale="   35.059">  1  3  2 -1</clus>
</clustering>
</event>
<event>
 6    0  0.4227619E+002  0.1075007E+03  0.7546771E-02  0.1265269E+00
         21   -1    0    0  503  501  0.00000000000E+00  0.00000000000E+00  0.83286588854E+02  0.83286588854E+02  0.00000000000E+00 0. -1.
         21   -1    0    0  506  502 -0.00000000000E+00 -0.00000000000E+00 -0.67568652879E+03  0.67568652879E+03  0.00000000000E+00 0. -1.
         21    1    1    2  503  502 -0.64229498399E+02 -0.48557389315E+02 -0.72973677373E+02  0.10866649029E+03  0.00000000000E+00 0. -1.
         21    1    1    2  504  501 -0.30277245698E+02  0.48783185447E+02 -0.35053215749E+02  0.67269894632E+02  0.00000000000E+00 0. -1.
         21    1    1    2  505  504  0.15343473491E+03  0.69432498602E+01 -0.77835953496E+02  0.17218844982E+03  0.00000000000E+00 0. -1.
         21    1    1    2  506  505 -0.58927990814E+02 -0.71690459919E+01 -0.40653709332E+03  0.41084828291E+03  0.00000000000E+00 0. -1.
<scales pt_clust_3="107.50070" pt_clust_4="57.41525" pt_clust_5="14000.00000" pt_clust_6="60.16106"></scales>
<clustering>
<clus scale="   57.415">  1  4  2 -1</clus>
<clus scale="   60.161">  2  6  1 -1</clus>
<clus scale="  107.501">  2  3  1 -1</clus>
<clus scale="   57.415">  1  3  2 -1</clus>
</clustering>
</event>
<event>
 6    0  0.4227619E+002  0.1311474E+03  0.7546771E-02  0.1225763E+00
         21   -1    0    0  505  501  0.00000000000E+00  0.00000000000E+00  0.38122344132E+03  0.38122344132E+03  0.00000000000E+00 0.  1.
         21   -1    0    0  506  502 -0.00000000000E+00 -0.00000000000E+00 -0.13277197263E+03  0.13277197263E+03  0.00000000000E+00 0.  1.
         21    1    1    2  503  502 -0.28154083099E+02  0.28459948030E+02 -0.11180940808E+02  0.41564822559E+02  0.00000000000E+00 0.  1.
         21    1    1    2  504  501  0.46035961869E+02  0.26292161842E+02  0.37294367175E+02  0.64818649959E+02  0.00000000000E+00 0. -1.
         21    1    1    2  505  503 -0.15676220338E+03 -0.16050244645E+02  0.21050773644E+03  0.26295533055E+03  0.00000000000E+00 0.  1.
         21    1    1    2  506  504  0.13888032461E+03 -0.38701865226E+02  0.11830305869E+02  0.14465661088E+03  0.00000000000E+00 0.  1.
<scales pt_clust_3="40.03275" pt_clust_4="51.91996" pt_clust_5="14000.00000" pt_clust_6="131.14741"></scales>
<clustering>
<clus scale="   40.033">  2  3  1 -1</clus>
<clus scale="   51.920">  1  4  2 -1</clus>
<clus scale="  131.147">  2  6  1 -1</clus>
<clus scale="   51.920">  1  3  2 -1</clus>
</clustering>
</event>
<event>
 6    0  0.4227619E+002  0.1552392E+03  0.7546771E-02  0.1194179E+00
         21   -1    0    0  503  501  0.00000000000E+00  0.00000000000E+00  0.85729919845E+02  0.85729919845E+02  0.00000000000E+00 0.  1.
         21   -1    0    0  504  502 -0.00000000000E+00 -0.00000000000E+00 -0.46512335082E+03  0.46512335082E+03  0.00000000000E+00 0.  1.
         21    1    1    2  503  502  0.94564165764E+02 -0.46547531433E+02 -0.22672705589E+03  0.25002842239E+03  0.00000000000E+00 0.  1.
         21    1    1    2  504  506  0.18711122567E+02 -0.74530346696E+02 -0.74856992794E+02  0.10727743498E+03  0.00000000000E+00 0.  1.
         21    1    1    2  505  501 -0.76069599793E+02  0.11298869454E+03 -0.74693436902E+02  0.15534522401E+03  0.00000000000E+00 0.  1.
         21    1    1    2  506  505 -0.37205688538E+02  0.80891835886E+01 -0.31159453930E+01  0.38202189288E+02  0.00000000000E+00 0.  1.
<scales pt_clust_3="142.07061" pt_clust_4="76.84321" pt_clust_5="33.08189" pt_clust_6="33.08189"></scales>
<clustering>
<clus scale="   33.082">  5  6 -1 -1</clus>
<clus scale="   76.843">  2  4  1 -1</clus>
<clus scale="  142.071">  2  3  1 -1</clus>
<clus scale="  155.239">  1  3  2 -1</clus>
</clustering>
</event>
<event>
 6    0  0.4227619E+002  0.2096668E+03  0.7546771E-02  0.1141830E+00
         21   -1    0    0  503  501  0.00000000000E+00  0.00000000000E+00  0.17654171789E+03  0.17654171789E+03  0.00000000000E+00 0.  1.
         21   -1    0    0  506  502 -0.00000000000E+00 -0.00000000000E+00 -0.43429307086E+03  0.43429307086E+03  0.00000000000E+00 0.  1.
         21    1    1    2  503  504 -0.58439264913E+02  0.30603032918E+02  0.57009284888E+02  0.87188025960E+02  0.00000000000E+00 0.  1.
         21    1    1    2  504  505 -0.15484032245E+02 -0.12173686197E+03 -0.11545415834E+03  0.16849119114E+03  0.00000000000E+00 0.  1.
         21    1    1    2  505  502 -0.56445682504E+02 -0.67481680279E+02 -0.70922708941E+02  0.11300408351E+03  0.00000000000E+00 0.  1.
         21    1    1    2  506  501  0.13036897966E+03  0.15861550933E+03 -0.12838377058E+03  0.24215148814E+03  0.00000000000E+00 0.  1.
<scales pt_clust_3="65.96737" pt_clust_4="50.27518" pt_clust_5="50.27518" pt_clust_6="201.08315"></scales>
<clustering>
<clus scale="   50.275">  4  5 -1 -1</clus>
<clus scale="   65.967">  1  3  2 -1</clus>
<clus scale="  201.083">  1  6  2 -1</clus>
<clus scale="   65.967">  1  3  2 -1</clus>
</clustering>
</event>
<event>
 6    0  0.4227619E+002  0.7420646E+02  0.7546771E-02  0.1346346E+00
         21   -1    0    0  504  501  0.00000000000E+00  0.00000000000E+00  0.13314223859E+04  0.13314223859E+04  0.00000000000E+00 0.  1.
         21   -1    0    0  503  502 -0.00000000000E+00 -0.00000000000E+00 -0.53295938855E+02  0.53295938855E+02  0.00000000000E+00 0.  1.
         21    1    1    2  503  501  0.59268573860E+01 -0.36051223622E+02  0.57974954310E+02  0.68526737048E+02  0.00000000000E+00 0.  1.
         21    1    1    2  504  505  0.73408023333E+02 -0.62824137232E+01  0.11097996400E+04  0.11122425309E+04  0.00000000000E+00 0.  1.
         21    1    1    2  505  506 -0.90944345403E+02 -0.26417783310E+02  0.34177431562E+02  0.10068202453E+03  0.00000000000E+00 0.  1.
         21    1    1    2  506  502  0.11609464684E+02  0.68751420656E+02  0.76174421171E+02  0.10326703227E+03  0.00000000000E+00 0.  1.
<scales pt_clust_3="36.53517" pt_clust_4="74.20646" pt_clust_5="14000.00000" pt_clust_6="60.06818"></scales>
<clustering>
<clus scale="   36.535">  2  3  1 -1</clus>
<clus scale="   60.068">  2  6  1 -1</clus>
<clus scale="   74.206">  1  4  2 -1</clus>
<clus scale="   74.206">  1  3  2 -1</clus>
</clustering>
</event>
<event>
 6    0  0.4227619E+002  0.2561219E+03  0.7546771E-02  0.1109496E+00
         21   -1    0    0  502  501  0.00000000000E+00  0.00000000000E+00  0.51978087788E+03  0.51978087788E+03  0.00000000000E+00 0.  1.
         21   -1    0    0  503  502 -0.00000000000E+00 -0.00000000000E+00 -0.25196025794E+03  0.25196025794E+03  0.00000000000E+00 0.  1.
         21    1    1    2  503  506 -0.22779393540E+02 -0.31198471125E+02 -0.62515803948E+02  0.73487897737E+02  0.00000000000E+00 0.  1.
         21    1    1    2  504  501  0.75698732400E+02 -0.22578238118E+03  0.34929054843E+03  0.42274326601E+03  0.00000000000E+00 0.  1.
         21    1    1    2  505  504 -0.45392438887E+02  0.20406308346E+03  0.19063522382E+02  0.20991815887E+03  0.00000000000E+00 0.  1.
         21    1    1    2  506  505 -0.75268999727E+01  0.52917768839E+02 -0.38017646922E+02  0.65591813205E+02  0.00000000000E+00 0.  1.
<scales pt_clust_3="38.62959" pt_clust_4="242.67583" pt_clust_5="39.75562" pt_clust_6="39.75562"></scales>
<clustering>
<clus scale="   38.630">  2  3  1 -1</clus>
<clus scale="   39.756">  5  6 -1 -1</clus>
<clus scale="  242.676">  1  4  2 -1</clus>
<clus scale="  242.676">  1  3  2 -1</clus>
</clustering>
</event>
<event>
 6    0  0.4227619E+002  0.1737894E+03  0.7546771E-02  0.1173953E+00
         21   -1    0    0  504  501  0.00000000000E+00  0.00000000000E+00  0.67976210294E+03  0.67976210294E+03  0.00000000000E+00 0. -1.
         21   -1    0    0  505  502 -0.00000000000E+00 -0.00000000000E+00 -0.15039761916E+03  0.15039761916E+03  0.00000000000E+00 0. -1.
         21    1    1    2  503  506  0.54377485446E+02 -0.11538332319E+02  0.18532848984E+03  0.19348564076E+03  0.00000000000E+00 0. -1.
         21    1    1    2  504  503 -0.52180687073E+02  0.54350066547E+02  0.14504331979E+03  0.16344515427E+03  0.00000000000E+00 0. -1.
         21    1    1    2  505  501 -0.13549800070E+03 -0.84514291605E+02 -0.66697210155E+02  0.17306325873E+03  0.00000000000E+00 0. -1.
         21    1    1    2  506  502  0.13330120232E+03  0.41702557376E+02  0.26568988430E+03  0.30016566834E+03  0.00000000000E+00 0. -1.
<scales pt_clust_3="40.59589" pt_clust_4="75.34424" pt_clust_5="161.43689" pt_clust_6="40.59589"></scales>
<clustering>
<clus scale="   40.596">  3  6 -1 -1</clus>
<clus scale="   75.344">  1  4  2 -1</clus>
<clus scale="  161.437">  2  5  1 -1</clus>
<clus scale="   75.344">  1  3  2 -1</clus>
</clustering>
</event>
<event>
 6    0  0.4227619E+002  0.8433008E+02  0.7546771E-02  0.1317194E+00
         21   -1    0    0  506  501  0.00000000000E+00  0.00000000000E+00  0.11575785428E+04  0.11575785428E+04  0.00000000000E+00 0. -1.
         21   -1    0    0  504  502 -0.00000000000E+00 -0.00000000000E+00 -0.25553755423E+03  0.25553755423E+03  0.00000000000E+00 0. -1.
         21    1    1    2  503  502  0.60090635795E+02  0.17032062528E+02 -0.12326261541E+03  0.13818338548E+03  0.00000000000E+00 0. -1.
         21    1    1    2  504  505  0.32494689918E+02 -0.36923995815E+02 -0.56904646382E+02  0.75215856837E+02  0.00000000000E+00 0. -1.
         21    1    1    2  505  501 -0.90361188909E+02  0.54102615287E+02 -0.11071220191E+02  0.10589999697E+03  0.00000000000E+00 0. -1.
         21    1    1    2  506  503 -0.22241368037E+01 -0.34210682000E+02  0.10932794705E+04  0.10938168577E+04  0.00000000000E+00 0. -1.
<scales pt_clust_3="14000.00000" pt_clust_4="52.76261" pt_clust_5="84.33008" pt_clust_6="34.28290"></scales>
<clustering>
<clus scale="   34.283">  1  6  2 -1</clus>
<clus scale="   52.763">  2  4  1 -1</clus>
<clus scale="   84.330">  1  5  2 -1</clus>
<clus scale="   34.283">  1  3  2 -1</clus>
</clustering>
</event>
<event>
 6    0  0.4227619E+002  0.1518122E+03  0.7546771E-02  0.1198264E+00
         21   -1    0    0  504  501  0.00000000000E+00  0.00000000000E+00  0.34142144535E+03  0.34142144535E+03  0.00000000000E+00 0. -1.
         21   -1    0    0  505  502 -0.00000000000E+00 -0.00000000000E+00 -0.53977499026E+03  0.53977499026E+03  0.00000000000E+00 0.  1.
         21    1    1    2  503  501  0.14498346255E+03  0.45782560235E+02  0.29697293256E+03  0.33363028925E+03  0.00000000000E+00 0. -1.
         21    1    1    2  504  506 -0.14143081282E+03 -0.40604367643E+02 -0.36472657123E+03  0.39328979296E+03  0.00000000000E+00 0.  1.
         21    1    1    2  505  503  0.99549406006E+01  0.34256798201E+02 -0.34964825299E+02  0.49951657365E+02  0.00000000000E+00 0. -1.
         21    1    1    2  506  502 -0.13507590332E+02 -0.39434990793E+02 -0.95635080937E+02  0.10432469603E+03  0.00000000000E+00 0.  1.
<scales pt_clust_3="14000.00000" pt_clust_4="151.81219" pt_clust_5="35.67393" pt_clust_6="34.52202"></scales>
<clustering>
<clus scale="   35.674">  2  5  1 -1</clus>
<clus scale="   34.522">  2  6  1 -1</clus>
<clus scale="  151.812">  2  4  1 -1</clus>
<clus scale="  151.812">  1  3  2 -1</clus>
</clustering>
</event>
<event>
 6    0  0.4227619E+002  0.9850395E+02  0.7546771E-02  0.1283474E+00
         21   -1    0    0  503  501  0.00000000000E+00  0.00000000000E+00  0.45905443394E+03  0.45905443394E+03  0.00000000000E+00 0. -1.
         21   -1    0    0  504  502 -0.00000000000E+00 -0.00000000000E+00 -0.13527601915E+03  0.13527601915E+03  0.00000000000E+00 0. -1.
         21    1    1    2  503  505 -0.54460465844E+02 -0.44085921746E+02  0.21169914555E+03  0.22299336103E+03  0.00000000000E+00 0. -1.
         21    1    1    2  504  506 -0.69617538865E+02  0.34954952288E+01  0.32474254684E+01  0.69780842476E+02  0.00000000000E+00 0. -1.
         21    1    1    2  505  502  0.13988871654E+03  0.17126603416E+01 -0.41139735640E+02  0.14582271452E+03  0.00000000000E+00 0. -1.
         21    1    1    2  506  501 -0.15810711835E+02  0.38877766175E+02  0.14997157941E+03  0.15573353506E+03  0.00000000000E+00 0. -1.
<scales pt_clust_3="67.72142" pt_clust_4="98.50395" pt_clust_5="14000.00000" pt_clust_6="41.96974"></scales>
<clustering>
<clus scale="   41.970">  1  6  2 -1</clus>
<clus scale="   67.721">  1  3  2 -1</clus>
<clus scale="   98.504">  2  4  1 -1</clus>
<clus scale="   41.970">  1  3  2 -1</clus>
</clustering>
</event>
<event>
 6    0  0.4227619E+002  0.1022045E+03  0.7546771E-02  0.1275727E+00
         21   -1    0    0  504  501  0.00000000000E+00  0.00000000000E+00  0.18377678081E+04  0.18377678081E+04  0.00000000000E+00 0. -1.
         21   -1    0    0  505  502 -0.00000000000E+00 -0.00000000000E+00 -0.50668084318E+02  0.50668084318E+02  0.00000000000E+00 0.  1.
         21    1    1    2  503  501  0.33192329988E+02  0.33275414612E+02  0.10205190112E+04  0.10216007225E+04  0.00000000000E+00 0. -1.
         21    1    1    2  504  502 -0.19619832856E+02 -0.10503646203E+03  0.24809856423E+03  0.27013051247E+03  0.00000000000E+00 0.  1.
         21    1    1    2  505  506 -0.10376496864E+03  0.20624083867E+02  0.50233956656E+02  0.11711520804E+03  0.00000000000E+00 0.  1.
         21    1    1    2  506  503  0.90192471511E+02  0.51136963547E+02  0.46824819171E+03  0.47958944942E+03  0.00000000000E+00 0. -1.
<scales pt_clust_3="46.99983" pt_clust_4="94.91545" pt_clust_5="102.20450" pt_clust_6="14000.00000"></scales>
<clustering>
<clus scale="   47.000">  1  3  2 -1</clus>
<clus scale="   94.915">  1  4  2 -1</clus>
<clus scale="  102.205">  2  5  1 -1</clus>
<clus scale="   47.000">  1  3  2 -1</clus>
</clustering>
</event>
<event>
 6    0  0.4227619E+002  0.8194846E+02  0.7546771E-02  0.1323611E+00
         21   -1    0    0  505  501  0.00000000000E+00  0.00000000000E+00  0.28331214179E+03  0.28331214179E+03  0.00000000000E+00 0.  1.
         21   -1    0    0  503  502 -0.00000000000E+00 -0.00000000000E+00 -0.10491440371E+03  0.10491440371E+03  0.00000000000E+00 0.  1.
         21    1    1    2  503  501  0.25350570364E+02 -0.87462416919E+02  0.45132456867E+02  0.10163298900E+03  0.00000000000E+00 0.  1.
         21    1    1    2  504  506  0.14014161369E+02  0.78553538188E+02  0.27538017168E+02  0.84412069458E+02  0.00000000000E+00 0. -1.
         21    1    1    2  505  504 -0.45513242491E+02 -0.22346210797E+02  0.14383716134E+03  0.15251208923E+03  0.00000000000E+00 0.  1.
         21    1    1    2  506  502  0.61485107586E+01  0.31255089528E+02 -0.38109897297E+02  0.49669397802E+02  0.00000000000E+00 0.  1.
<scales pt_clust_3="81.94846" pt_clust_4="14000.00000" pt_clust_5="49.36465" pt_clust_6="31.85412"></scales>
<clustering>
<clus scale="   31.854">  2  6  1 -1</clus>
<clus scale="   49.365">  1  5  2 -1</clus>
<clus scale="   81.948">  2  3  1 -1</clus>
<clus scale="   49.365">  1  3  2 -1</clus>
</clustering>
</event>
<event>
 6    0  0.4227619E+002  0.7608791E+02  0.7546771E-02  0.1340535E+00
         21   -1    0    0  504  501  0.00000000000E+00  0.00000000000E+00  0.18320618282E+04  0.18320618282E+04  0.00000000000E+00 0. -1.
         21   -1    0    0  506  502 -0.00000000000E+00 -0.00000000000E+00 -0.14167003700E+03  0.14167003700E+03  0.00000000000E+00 0. -1.
         21    1    1    2  503  501 -0.45772539881E+02 -0.67247093886E+01  0.17799556846E+03  0.18390967760E+03  0.00000000000E+00 0. -1.
         21    1    1    2  504  505  0.79246444810E+02  0.26901478123E+02  0.15532648840E+04  0.15555177558E+04  0.00000000000E+00 0. -1.
         21    1    1    2  505  502 -0.67913890878E+02  0.47902390464E+02  0.63805409959E+02  0.10477626604E+03  0.00000000000E+00 0. -1.
         21    1    1    2  506  503  0.34439985948E+02 -0.68079159198E+02 -0.10467407123E+03  0.12952816581E+03  0.00000000000E+00 0. -1.
<scales pt_clust_3="46.26389" pt_clust_4="41.59745" pt_clust_5="14000.00000" pt_clust_6="76.08791"></scales>
<clustering>
<clus scale="   46.264">  1  3  2 -1</clus>
<clus scale="   41.597">  1  4  2 -1</clus>
<clus scale="   76.088">  2  6  1 -1</clus>
<clus scale="   46.264">  1  3  2 -1</clus>
</clustering>
</event>
<event>
 6    0  0.4227619E+002  0.1314877E+03  0.7546771E-02  0.1225265E+00
         21   -1    0    0  506  501  0.00000000000E+00  0.00000000000E+00  0.10877996756E+04  0.10877996756E+04  0.00000000000E+00 0. -1.
         21   -1    0    0  503  502 -0.00000000000E+00 -0.00000000000E+00 -0.62453473661E+03  0.62453473661E+03  0.00000000000E+00 0. -1.
         21    1    1    2  503  505  0.25898044086E+02  0.35515190684E+02 -0.43866543015E+03  0.44086210664E+03  0.00000000000E+00 0. -1.
         21    1    1    2  504  502  0.63545345779E+02  0.87987657551E+02 -0.23099490282E+02  0.11096587450E+03  0.00000000000E+00 0.  1.
         21    1    1    2  505  501 -0.12997757265E+03 -0.10365071004E+03 -0.58276998196E+02  0.17616426313E+03  0.00000000000E+00 0.  1.
         21    1    1    2  506  504  0.40534182789E+02 -0.19852138191E+02  0.98330685763E+03  0.98434216796E+03  0.00000000000E+00 0. -1.
<scales pt_clust_3="43.95495" pt_clust_4="131.48774" pt_clust_5="14000.00000" pt_clust_6="45.15611"></scales>
<clustering>
<clus scale="   43.955">  2  3  1 -1</clus>
<clus scale="   45.156">  1  6  2 -1</clus>
<clus scale="  131.488">  1  4  2 -1</clus>
<clus scale="   45.156">  1  3  2 -1</clus>
</clustering>
</event>
<event>
 6    0  0.4227619E+002  0.1469314E+03  0.7546771E-02  0.1204295E+00
         21   -1    0    0  505  501  0.00000000000E+00  0.00000000000E+00  0.58850659520E+03  0.58850659520E+03  0.00000000000E+00 0. -1.
         21   -1    0    0  503  502 -0.00000000000E+00 -0.00000000000E+00 -0.23731829517E+03  0.23731829517E+03  0.00000000000E+00 0. -1.
         21    1    1    2  503  506 -0.68751846748E+02 -0.11637039036E+03  0.62619163692E+02  0.14896322984E+03  0.00000000000E+00 0.  1.
         21    1    1    2  504  502 -0.14201824998E+03  0.25149984505E+02 -0.11356891796E+03  0.18357451940E+03  0.00000000000E+00 0. -1.
         21    1    1    2  505  504  0.17398288301E+03  0.81320009815E+02  0.16525953965E+03  0.25336476279E+03  0.00000000000E+00 0. -1.
         21    1    1    2  506  501  0.36787213712E+02  0.99003960368E+01  0.23687851464E+03  0.23992237835E+03  0.00000000000E+00 0.  1.
<scales pt_clust_3="127.18745" pt_clust_4="146.93144" pt_clust_5="14000.00000" pt_clust_6="38.09615"></scales>
<clustering>
<clus scale="   38.096">  1  6  2 -1</clus>
<clus scale="  127.187">  1  3  2 -1</clus>
<clus scale="  146.931">  2  4  1 -1</clus>
<clus scale="   38.096">  1  3  2 -1</clus>
</clustering>
</event>
<event>
 6    0  0.4227619E+002  0.1032657E+03  0.7546771E-02  0.1273575E+00
         21   -1    0    0  504  501  0.00000000000E+00  0.00000000000E+00  0.18697169782E+02  0.18697169782E+02  0.00000000000E+00 0. -1.
         21   -1    0    0  503  502 -0.00000000000E+00 -0.00000000000E+00 -0.28610462774E+04  0.28610462774E+04  0.00000000000E+00 0.  1.
         21    1    1    2  503  506  0.30356980115E+02  0.39294725162E+02 -0.21746115035E+04  0.21751783405E+04  0.00000000000E+00 0.  1.
         21    1    1    2  504  505 -0.57015795530E+02 -0.26168263544E+02 -0.19904927416E+03  0.20870120388E+03  0.00000000000E+00 0.  1.
         21    1    1    2  505  502 -0.57208069458E+02  0.91160677929E+01 -0.30648771713E+03  0.31191438994E+03  0.00000000000E+00 0.  1.
         21    1    1    2  506  501  0.83866884873E+02 -0.22242529411E+02 -0.16220061283E+03  0.18394951290E+03  0.00000000000E+00 0. -1.
<scales pt_clust_3="49.65503" pt_clust_4="44.40234" pt_clust_5="44.40234" pt_clust_6="92.35105"></scales>
<clustering>
<clus scale="   44.402">  4  5 -1 -1</clus>
<clus scale="   49.655">  2  3  1 -1</clus>
<clus scale="   92.351">  1  6  2 -1</clus>
<clus scale="   92.351">  1  3  2 -1</clus>
</clustering>
</event>
<event>
 6    0  0.4227619E+002  0.8860580E+02  0.7546771E-02  0.1306264E+00
         21   -1    0    0  506  501  0.00000000000E+00  0.00000000000E+00  0.13170901505E+03  0.13170901505E+03  0.00000000000E+00 0.  1.
         21   -1    0    0  505  502 -0.00000000000E+00 -0.00000000000E+00 -0.11269224181E+04  0.11269224181E+04  0.00000000000E+00 0.  1.
         21    1    1    2  503  501  0.24742731120E+02  0.32731626555E+02  0.94547885633E+02  0.10306728287E+03  0.00000000000E+00 0.  1.
         21    1    1    2  504  502  0.51232067861E+02  0.16549350724E+02 -0.79450395989E+03  0.79632603126E+03  0.00000000000E+00 0.  1.
         21    1    1    2  505  503  0.58860056970E+02 -0.33066661005E+02 -0.79507399984E+02  0.10430406046E+03  0.00000000000E+00 0.  1.
         21    1    1    2  506  504 -0.13483485595E+03 -0.16214316274E+02 -0.21574992886E+03  0.25493405860E+03  0.00000000000E+00 0.  1.
<scales pt_clust_3="41.03123" pt_clust_4="54.77313" pt_clust_5="14000.00000" pt_clust_6="88.60580"></scales>
<clustering>
<clus scale="   41.031">  1  3  2 -1</clus>
<clus scale="   54.773">  2  4  1 -1</clus>
<clus scale="   88.606">  2  6  1 -1</clus>
<clus scale="   41.031">  1  3  2 -1</clus>
</clustering>
</event>
<event>
 6    0  0.4227619E+002  0.1654404E+03  0.7546771E-02  0.1182688E+00
         21   -1    0    0  505  501  0.00000000000E+00  0.00000000000E+00  0.73090301504E+03  0.73090301504E+03  0.00000000000E+00 0.  1.
         21   -1    0    0  506  502 -0.00000000000E+00 -0.00000000000E+00 -0.18584542353E+03  0.18584542353E+03  0.00000000000E+00 0.  1.
         21    1    1    2  503  502  0.98425644033E+02 -0.41008742588E+02 -0.77721220972E+02  0.13194662770E+03  0.00000000000E+00 0.  1.
         21    1    1    2  504  501  0.14248325702E+03  0.59769713097E+02  0.38553534951E+03  0.41534492035E+03  0.00000000000E+00 0.  1.
         21    1    1    2  505  503 -0.18388398636E+03 -0.52439623325E+02  0.23530309228E+03  0.30320089012E+03  0.00000000000E+00 0.  1.
         21    1    1    2  506  504 -0.57024914695E+02  0.33678652817E+02  0.19403706852E+01  0.66256000407E+02  0.00000000000E+00 0. -1.
<scales pt_clust_3="62.19988" pt_clust_4="14000.00000" pt_clust_5="165.44035" pt_clust_6="66.22758"></scales>
<clustering>
<clus scale="   66.228">  2  6  1 -1</clus>
<clus scale="   62.200">  2  3  1 -1</clus>
<clus scale="  165.440">  2  5  1 -1</clus>
<clus scale="  165.440">  1  3  2 -1</clus>
</clustering>
</event>
<event>
 6    0  0.4227619E+002  0.7996783E+02  0.7546771E-02  0.1329143E+00
         21   -1    0    0  505  501  0.00000000000E+00  0.00000000000E+00  0.82370527169E+02  0.82370527169E+02  0.00000000000E+00 0. -1.
         21   -1    0    0  504  502 -0.00000000000E+00 -0.00000000000E+00 -0.32440561803E+03  0.32440561803E+03  0.00000000000E+00 0. -1.
         21    1    1    2  503  506  0.54058590022E+01 -0.81892551454E+02 -0.54473874018E+02  0.98503889496E+02  0.00000000000E+00 0. -1.
         21    1    1    2  504  503  0.78978852469E+02  0.23132738470E+02 -0.79472338367E+02  0.11440557369E+03  0.00000000000E+00 0. -1.
         21    1    1    2  505  502 -0.76032438176E+02 -0.17234469258E+02 -0.81850846673E+02  0.11303769144E+03  0.00000000000E+00 0.  1.
         21    1    1    2  506  501 -0.83522732948E+01  0.75994282243E+02 -0.26238031799E+02  0.80828990563E+02  0.00000000000E+00 0. -1.
<scales pt_clust_3="51.55701" pt_clust_4="79.96783" pt_clust_5="14000.00000" pt_clust_6="76.45189"></scales>
<clustering>
<clus scale="   76.452">  1  6  2 -1</clus>
<clus scale="   51.557">  1  3  2 -1</clus>
<clus scale="   79.968">  1  4  2 -1</clus>
<clus scale="   76.452">  1  3  2 -1</clus>
</clustering>
</event>
<event>
 6    0  0.4227619E+002  0.8227848E+02  0.7546771E-02  0.1322707E+00
         21   -1    0    0  506  501  0.00000000000E+00  0.00000000000E+00  0.91633600185E+03  0.91633600185E+03  0.00000000000E+00 0. -1.
         21   -1    0    0  503  502 -0.00000000000E+00 -0.00000000000E+00 -0.55253695589E+02  0.55253695589E+02  0.00000000000E+00 0. -1.
         21    1    1    2  503  504 -0.44203062014E+02 -0.33148856543E+02  0.11731808680E+03  0.12967764214E+03  0.00000000000E+00 0. -1.
         21    1    1    2  504  501 -0.47687144059E+02  0.22550737206E+02  0.12732224151E+03  0.13781709851E+03  0.00000000000E+00 0. -1.
         21    1    1    2  505  502 -0.68180418007E+02  0.35840309309E+02  0.11568162366E+02  0.77890432990E+02  0.00000000000E+00 0. -1.
         21    1    1    2  506  505  0.16007062408E+03 -0.25242189972E+02  0.60487381559E+03  0.62620452380E+03  0.00000000000E+00 0. -1.
<scales pt_clust_3="59.58654" pt_clust_4="52.75035" pt_clust_5="14000.00000" pt_clust_6="82.27848"></scales>
<clustering>
<clus scale="   52.750">  1  4  2 -1</clus>
<clus scale="   59.587">  1  3  2 -1</clus>
<clus scale="   82.278">  1  6  2 -1</clus>
<clus scale="   52.750">  1  3  2 -1</clus>
</clustering>
</event>
<event>
 6    0  0.4227619E+002  0.1147627E+03  0.7546771E-02  0.1251996E+00
         21   -1    0    0  503  501  0.00000000000E+00  0.00000000000E+00  0.10421686894E+03  0.10421686894E+03  0.00000000000E+00 0.  1.
         21   -1    0    0  504  502 -0.00000000000E+00 -0.00000000000E+00 -0.13762907889E+04  0.13762907889E+04  0.00000000000E+00 0.  1.
         21    1    1    2  503  505 -0.48679286092E+02  0.81631824079E+02  0.35822327012E+02  0.10157099345E+03  0.00000000000E+00 0.  1.
         21    1    1    2  504  506  0.93223890866E+02 -0.67973277288E+01 -0.40280152851E+03  0.41350449678E+03  0.00000000000E+00 0. -1.
         21    1    1    2  505  502 -0.13590538019E+03 -0.56772742543E+02 -0.83751340163E+03  0.85036587100E+03  0.00000000000E+00 0.  1.
         21    1    1    2  506  501  0.91360775411E+02 -0.18061753807E+02 -0.67581316879E+02  0.11506629665E+03  0.00000000000E+00 0.  1.
<scales pt_clust_3="72.41084" pt_clust_4="14000.00000" pt_clust_5="114.76274" pt_clust_6="93.12904"></scales>
<clustering>
<clus scale="   93.129">  1  6  2 -1</clus>
<clus scale="   72.411">  1  3  2 -1</clus>
<clus scale="  114.763">  1  5  2 -1</clus>
<clus scale="   93.129">  1  3  2 -1</clus>
</clustering>
</event>
<event>
 6    0  0.4227619E+002  0.1122493E+03  0.7546771E-02  0.1256460E+00
         21   -1    0    0  505  501  0.00000000000E+00  0.00000000000E+00  0.55077034864E+03  0.55077034864E+03  0.00000000000E+00 0. -1.
         21   -1    0    0  506  502 -0.00000000000E+00 -0.00000000000E+00 -0.67390050142E+03  0.67390050142E+03  0.00000000000E+00 0.  1.
         21    1    1    2  503  502 -0.10282941512E+03  0.80713550732E+02 -0.56149938560E+03  0.57651550362E+03  0.00000000000E+00 0.  1.
         21    1    1    2  504  501  0.43609293975E+02  0.25172360177E+02  0.49465839397E+03  0.49721458643E+03  0.00000000000E+00 0. -1.
         21    1    1    2  505  503  0.15567182558E+02 -0.45632219201E+02  0.12285323373E+02  0.49755057757E+02  0.00000000000E+00 0. -1.
         21    1    1    2  506  504  0.43652938585E+02 -0.60253691707E+02 -0.68574484517E+02  0.10118570224E+03  0.00000000000E+00 0. -1.
<scales pt_clust_3="14000.00000" pt_clust_4="61.28110" pt_clust_5="48.21449" pt_clust_6="112.24932"></scales>
<clustering>
<clus scale="   48.214">  1  5  2 -1</clus>
<clus scale="   61.281">  1  4  2 -1</clus>
<clus scale="  112.249">  1  6  2 -1</clus>
<clus scale="   48.214">  1  3  2 -1</clus>
</clustering>
</event>
<event>
 6    0  0.4227619E+002  0.6633864E+02  0.7546771E-02  0.1373006E+00
         21   -1    0    0  504  501  0.00000000000E+00  0.00000000000E+00  0.84720557473E+03  0.84720557473E+03  0.00000000000E+00 0.  1.
         21   -1    0    0  506  502 -0.00000000000E+00 -0.00000000000E+00 -0.13609896778E+03  0.13609896778E+03  0.00000000000E+00 0. -1.
         21    1    1    2  503  501 -0.49392222612E+02  0.21557224200E+02  0.30930386718E+03  0.31396367277E+03  0.00000000000E+00 0.  1.
         21    1    1    2  504  505 -0.52823542442E+01  0.99667372753E+02  0.11847101785E+03  0.15490923319E+03  0.00000000000E+00 0.  1.
         21    1    1    2  505  502  0.11788017423E+02 -0.63053970502E+02 -0.10303095343E+03  0.12136777956E+03  0.00000000000E+00 0. -1.
         21    1    1    2  506  503  0.42886559433E+02 -0.58170626451E+02  0.38636267536E+03  0.39306385699E+03  0.00000000000E+00 0. -1.
<scales pt_clust_3="53.89161" pt_clust_4="14000.00000" pt_clust_5="66.33864" pt_clust_6="43.04839"></scales>
<clustering>
<clus scale="   53.892">  1  3  2 -1</clus>
<clus scale="   43.048">  1  6  2 -1</clus>
<clus scale="   66.339">  2  5  1 -1</clus>
<clus scale="   53.892">  1  3  2 -1</clus>
</clustering>
</event>
<event>
 6    0  0.4227619E+002  0.7508453E+02  0.7546771E-02  0.1343609E+00
         21   -1    0    0  506  501  0.00000000000E+00  0.00000000000E+00  0.74953097880E+02  0.74953097880E+02  0.00000000000E+00 0. -1.
         21   -1    0    0  505  502 -0.00000000000E+00 -0.00000000000E+00 -0.30887364280E+03  0.30887364280E+03  0.00000000000E+00 0. -1.
         21    1    1    2  503  502 -0.42237364775E+02  0.12604472255E+02 -0.96113240053E+02  0.10573846328E+03  0.00000000000E+00 0.  1.
         21    1    1    2  504  501 -0.15773485450E+02 -0.10761379753E+03 -0.86042070518E+02  0.13868226333E+03  0.00000000000E+00 0. -1.
         21    1    1    2  505  504  0.45764728996E+02  0.44316340138E+02 -0.58909252186E+02  0.86767784439E+02  0.00000000000E+00 0. -1.
         21    1    1    2  506  503  0.12246121228E+02  0.50692985142E+02  0.71440178359E+01  0.52638229630E+02  0.00000000000E+00 0. -1.
<scales pt_clust_3="44.07797" pt_clust_4="14000.00000" pt_clust_5="75.08453" pt_clust_6="52.62720"></scales>
<clustering>
<clus scale="   44.078">  2  3  1 -1</clus>
<clus scale="   52.627">  1  6  2 -1</clus>
<clus scale="   75.085">  2  5  1 -1</clus>
<clus scale="   52.627">  1  3  2 -1</clus>
</clustering>
</event>
<event>
 6    0  0.4227619E+002  0.7153821E+02  0.7546771E-02  0.1354939E+00
         21   -1    0    0  504  501  0.00000000000E+00  0.00000000000E+00  0.53222628056E+03  0.53222628056E+03  0.00000000000E+00 0. -1.
         21   -1    0    0  506  502 -0.00000000000E+00 -0.00000000000E+00 -0.59031896838E+02  0.59031896838E+02  0.00000000000E+00 0. -1.
         21    1    1    2  503  502 -0.47274076068E+02  0.60120865707E+02  0.43743003043E+02  0.88106793590E+02  0.00000000000E+00 0. -1.
         21    1    1    2  504  503 -0.66186052560E+02 -0.39920388344E+01  0.29019652320E+03  0.29767524588E+03  0.00000000000E+00 0. -1.
         21    1    1    2  505  501  0.93091052502E+02 -0.31768876352E+02  0.14293504256E+03  0.17350974599E+03  0.00000000000E+00 0. -1.
         21    1    1    2  506  505  0.20369076126E+02 -0.24359950521E+02 -0.36801850881E+01  0.31966391944E+02  0.00000000000E+00 0.  1.
<scales pt_clust_3="59.39848" pt_clust_4="71.53821" pt_clust_5="14000.00000" pt_clust_6="31.75384"></scales>
<clustering>
<clus scale="   31.754">  2  6  1 -1</clus>
<clus scale="   59.398">  2  3  1 -1</clus>
<clus scale="   71.538">  1  4  2 -1</clus>
<clus scale="   71.538">  1  3  2 -1</clus>
</clustering>
</event>
<event>
 6    0  0.4227619E+002  0.7178685E+02  0.7546771E-02  0.1354120E+00
         21   -1    0    0  505  501  0.00000000000E+00  0.00000000000E+00  0.10112186967E+03  0.10112186967E+03  0.00000000000E+00 0. -1.
         21   -1    0    0  503  502 -0.00000000000E+00 -0.00000000000E+00 -0.52630862071E+03  0.52630862071E+03  0.00000000000E+00 0. -1.
         21    1    1    2  503  504  0.15729256538E+02 -0.65334616546E+02 -0.37222208287E+03  0.37823973959E+03  0.00000000000E+00 0. -1.
         21    1    1    2  504  501 -0.59780649400E+02 -0.13797589893E+02  0.11149246477E+02  0.62357078399E+02  0.00000000000E+00 0. -1.
         21    1    1    2  505  506  0.75733850687E+02  0.45108046554E+02  0.20306416887E+02  0.90458291884E+02  0.00000000000E+00 0. -1.
         21    1    1    2  506  502 -0.31682457825E+02  0.34024159885E+02 -0.84420331544E+02  0.96375380506E+02  0.00000000000E+00 0. -1.
<scales pt_clust_3="37.84976" pt_clust_4="14000.00000" pt_clust_5="71.78685" pt_clust_6="46.49109"></scales>
<clustering>
<clus scale="   46.491">  2  6  1 -1</clus>
<clus scale="   37.850">  2  3  1 -1</clus>
<clus scale="   71.787">  2  5  1 -1</clus>
<clus scale="   71.787">  1  3  2 -1</clus>
</clustering>
</event>
<event>
 6    0  0.4227619E+002  0.1031149E+03  0.7546771E-02  0.1273879E+00
         21   -1    0    0  505  501  0.00000000000E+00  0.00000000000E+00  0.40437552609E+03  0.40437552609E+03  0.00000000000E+00 0. -1.
         21   -1    0    0  504  502 -0.00000000000E+00 -0.00000000000E+00 -0.33164284913E+04  0.33164284913E+04  0.00000000000E+00 0. -1.
         21    1    1    2  503  502 -0.35331184069E+01 -0.45504707961E+02 -0.32572964700E+04  0.32576162227E+04  0.00000000000E+00 0. -1.
         21    1    1    2  504  501  0.20994776385E+02  0.11327749694E+03  0.16366295685E+03  0.20014528571E+03  0.00000000000E+00 0. -1.
         21    1    1    2  505  506  0.60819771871E+02 -0.88553874867E+02  0.12160578789E+03  0.16226152055E+03  0.00000000000E+00 0.  1.
         21    1    1    2  506  503 -0.78281429849E+02  0.20781085884E+02  0.59974759995E+02  0.10078098842E+03  0.00000000000E+00 0. -1.
<scales pt_clust_3="45.64166" pt_clust_4="103.11486" pt_clust_5="14000.00000" pt_clust_6="79.66324"></scales>
<clustering>
<clus scale="   45.642">  2  3  1 -1</clus>
<clus scale="   79.663">  2  6  1 -1</clus>
<clus scale="  103.115">  1  4  2 -1</clus>
<clus scale="  103.115">  1  3  2 -1</clus>
</clustering>
</event>
<event>
 6    0  0.4227619E+002  0.6629326E+02  0.7546771E-02  0.1373172E+00
         21   -1    0    0  503  501  0.00000000000E+00  0.00000000000E+00  0.34691251387E+03  0.34691251387E+03  0.00000000000E+00 0.  1.
         21   -1    0    0  506  502 -0.00000000000E+00 -0.00000000000E+00 -0.74772276059E+03  0.74772276059E+03  0.00000000000E+00 0.  1.
         21    1    1    2  503  505 -0.22036799598E+02 -0.49409714132E+02  0.24901247601E+03  0.25482180754E+03  0.00000000000E+00 0.  1.
         21    1    1    2  504  501 -0.45180311762E+02  0.43902497270E+02  0.74826429640E+02  0.97814540893E+02  0.00000000000E+00 0. -1.
         21    1    1    2  505  502 -0.32453187598E+02  0.12260901420E+02 -0.55619738984E+02  0.65552226915E+02  0.00000000000E+00 0. -1.
         21    1    1    2  506  504  0.99670298957E+02 -0.67536845575E+01 -0.66902941340E+03  0.67644669911E+03  0.00000000000E+00 0.  1.
<scales pt_clust_3="54.10995" pt_clust_4="66.29326" pt_clust_5="34.69206" pt_clust_6="14000.00000"></scales>
<clustering>
<clus scale="   34.692">  2  5  1 -1</clus>
<clus scale="   54.110">  1  3  2 -1</clus>
<clus scale="   66.293">  1  4  2 -1</clus>
<clus scale="   54.110">  1  3  2 -1</clus>
</clustering>
</event>
<event>
 6    0  0.4227619E+002  0.1338419E+03  0.7546771E-02  0.1221864E+00
         21   -1    0    0  506  501  0.00000000000E+00  0.00000000000E+00  0.13155638980E+03  0.13155638980E+03  0.00000000000E+00 0.  1.
         21   -1    0    0  504  502 -0.00000000000E+00 -0.00000000000E+00 -0.46884782550E+03  0.46884782550E+03  0.00000000000E+00 0.  1.
         21    1    1    2  503  501  0.37232249992E+02 -0.56002792628E+02  0.18959443825E+02  0.69871408543E+02  0.00000000000E+00 0.  1.
         21    1    1    2  504  503 -0.12736189722E+03  0.15167154116E+03 -0.72090674021E+02  0.21076616081E+03  0.00000000000E+00 0.  1.
         21    1    1    2  505  502  0.14501113305E+02 -0.37028947664E+02 -0.35427461634E+02  0.53259086455E+02  0.00000000000E+00 0.  1.
         21    1    1    2  506  505  0.75628533926E+02 -0.58639800872E+02 -0.24873274387E+03  0.26650755949E+03  0.00000000000E+00 0.  1.
<scales pt_clust_3="69.58233" pt_clust_4="14000.00000" pt_clust_5="39.76714" pt_clust_6="133.84191"></scales>
<clustering>
<clus scale="   39.767">  2  5  1 -1</clus>
<clus scale="   69.582">  1  3  2 -1</clus>
<clus scale="  133.842">  2  6  1 -1</clus>
<clus scale="   69.582">  1  3  2 -1</clus>
</clustering>
</event>
<event>
 6    0  0.4227619E+002  0.1201370E+03  0.7546771E-02  0.1242871E+00
         21   -1    0    0  506  501  0.00000000000E+00  0.00000000000E+00  0.49307737551E+03  0.49307737551E+03  0.00000000000E+00 0.  1.
         21   -1    0    0  504  502 -0.00000000000E+00 -0.00000000000E+00 -0.30614047383E+03  0.30614047383E+03  0.00000000000E+00 0.  1.
         21    1    1    2  503  502  0.27356578290E+01  0.56911760069E+02  0.21634071074E+02  0.60946413259E+02  0.00000000000E+00 0.  1.
         21    1    1    2  504  505 -0.12083218567E+03 -0.14353796277E+02 -0.25688078405E+03  0.28424318070E+03  0.00000000000E+00 0.  1.
         21    1    1    2  505  501  0.95157549538E+02 -0.77983780226E+02  0.28298844303E+03  0.30857557923E+03  0.00000000000E+00 0.  1.
         21    1    1    2  506  503  0.22938978302E+02  0.35425816434E+02  0.13919517163E+03  0.14545267615E+03  0.00000000000E+00 0.  1.
<scales pt_clust_3="61.32345" pt_clust_4="120.13704" pt_clust_5="14000.00000" pt_clust_6="42.20409"></scales>
<clustering>
<clus scale="   42.204">  1  6  2 -1</clus>
<clus scale="   61.323">  1  3  2 -1</clus>
<clus scale="  120.137">  2  4  1 -1</clus>
<clus scale="   42.204">  1  3  2 -1</clus>
</clustering>
</event>
<event>
 6    0  0.4227619E+002  0.7379477E+02  0.7546771E-02  0.1347644E+00
         21   -1    0    0  505  501  0.00000000000E+00  0.00000000000E+00  0.71358889393E+02  0.71358889393E+02  0.00000000000E+00 0. -1.
         21   -1    0    0  503  502 -0.00000000000E+00 -0.00000000000E+00 -0.48589588786E+03  0.48589588786E+03  0.00000000000E+00 0. -1.
         21    1    1    2  503  506  0.77130633822E+02 -0.76195752912E+02 -0.11173483206E+03  0.15569071947E+03  0.00000000000E+00 0. -1.
         21    1    1    2  504  502 -0.55718436529E+02  0.37176468386E+02 -0.24378804117E+03  0.25282255237E+03  0.00000000000E+00 0. -1.
         21    1    1    2  505  504 -0.88492503955E+01 -0.31062478945E+02  0.23360852584E+02  0.39861212528E+02  0.00000000000E+00 0. -1.
         21    1    1    2  506  501 -0.12562946897E+02  0.70081763471E+02 -0.82374977831E+02  0.10888029288E+03  0.00000000000E+00 0. -1.
<scales pt_clust_3="14000.00000" pt_clust_4="73.79477" pt_clust_5="32.29840" pt_clust_6="61.70688"></scales>
<clustering>
<clus scale="   32.298">  1  5  2 -1</clus>
<clus scale="   61.707">  1  6  2 -1</clus>
<clus scale="   73.795">  2  4  1 -1</clus>
<clus scale="   32.298">  1  3  2 -1</clus>
</clustering>
</event>
<event>
 6    0  0.4227619E+002  0.9714797E+02  0.7546771E-02  0.1286410E+00
         21   -1    0    0  503  501  0.00000000000E+00  0.00000000000E+00  0.57566396204E+03  0.57566396204E+03  0.00000000000E+00 0. -1.
         21   -1    0    0  505  502 -0.00000000000E+00 -0.00000000000E+00 -0.85212424622E+02  0.85212424622E+02  0.00000000000E+00 0. -1.
         21    1    1    2  503  506 -0.47738566949E+01 -0.10863853384E+03  0.43247132030E+03  0.44593336232E+03  0.00000000000E+00 0. -1.
         21    1    1    2  504  501  0.10424645538E+02  0.71324925284E+02  0.73564045390E+02  0.10299314043E+03  0.00000000000E+00 0. -1.
         21    1    1    2  505  504  0.41048288779E+02  0.33805952080E+02 -0.32308350816E+02  0.62222455273E+02  0.00000000000E+00 0. -1.
         21    1    1    2  506  502 -0.46699077623E+02  0.35076564801E+01  0.16724522538E+02  0.49727428638E+02  0.00000000000E+00 0. -1.
<scales pt_clust_3="97.14797" pt_clust_4="14000.00000" pt_clust_5="37.30216" pt_clust_6="46.83063"></scales>
<clustering>
<clus scale="   46.831">  2  6  1 -1</clus>
<clus scale="   37.302">  2  5  1 -1</clus>
<clus scale="   97.148">  1  3  2 -1</clus>
<clus scale="   97.148">  1  3  2 -1</clus>
</clustering>
</event>
<event>
 6    0  0.4227619E+002  0.9967526E+02  0.7546771E-02  0.1280980E+00
         21   -1    0    0  503  501  0.00000000000E+00  0.00000000000E+00  0.33190418234E+03  0.33190418234E+03  0.00000000000E+00 0. -1.
         21   -1    0    0  506  502 -0.00000000000E+00 -0.00000000000E+00 -0.21392078720E+03  0.21392078720E+03  0.00000000000E+00 0.  1.
         21    1    1    2  503  505  0.27404562428E+02  0.31084140090E+02  0.91384686060E+02  0.10034139053E+03  0.00000000000E+00 0. -1.
         21    1    1    2  504  501 -0.11562776097E+03 -0.52727014239E+02  0.18016946232E+03  0.22047891575E+03  0.00000000000E+00 0. -1.
         21    1    1    2  505  502  0.12444586526E+03  0.20436878430E+02 -0.10323255963E+03  0.16297668775E+03  0.00000000000E+00 0.  1.
         21    1    1    2  506  504 -0.36222666718E+02  0.12059957186E+01 -0.50338193611E+02  0.62027975510E+02  0.00000000000E+00 0.  1.
<scales pt_clust_3="40.79283" pt_clust_4="99.67526" pt_clust_5="14000.00000" pt_clust_6="36.24274"></scales>
<clustering>
<clus scale="   36.243">  2  6  1 -1</clus>
<clus scale="   40.793">  1  3  2 -1</clus>
<clus scale="   99.675">  1  4  2 -1</clus>
<clus scale="   40.793">  1  3  2 -1</clus>
</clustering>
</event>
<event>
 6    0  0.4227619E+002  0.1232016E+03  0.7546771E-02  0.1237907E+00
         21   -1    0    0  506  501  0.00000000000E+00  0.00000000000E+00  0.86710075437E+03  0.86710075437E+03  0.00000000000E+00 0.  1.
         21   -1    0    0  505  502 -0.00000000000E+00 -0.00000000000E+00 -0.13263812154E+03  0.13263812154E+03  0.00000000000E+00 0.  1.
         21    1    1    2  503  504 -0.54140041707E+02  0.62080470557E+02  0.27857276875E+03  0.29049598350E+03  0.00000000000E+00 0.  1.
         21    1    1    2  504  501 -0.48727145566E+02  0.24213484810E+02  0.49613983682E+03  0.49911458127E+03  0.00000000000E+00 0.  1.
         21    1    1    2  505  503 -0.28673917013E+02 -0.29026162665E+02 -0.52097962986E+02  0.66173328337E+02  0.00000000000E+00 0.  1.
         21    1    1    2  506  502  0.13154110429E+03 -0.57267792701E+02  0.11847990246E+02  0.14395498279E+03  0.00000000000E+00 0.  1.
<scales pt_clust_3="14000.00000" pt_clust_4="54.67551" pt_clust_5="40.80088" pt_clust_6="123.20158"></scales>
<clustering>
<clus scale="   40.801">  2  5  1 -1</clus>
<clus scale="   54.676">  1  4  2 -1</clus>
<clus scale="  123.202">  2  6  1 -1</clus>
<clus scale="   54.676">  1  3  2 -1</clus>
</clustering>
</event>
<event>
 6    0  0.4227619E+002  0.1074313E+03  0.7546771E-02  0.1265402E+00
         21   -1    0    0  505  501  0.00000000000E+00  0.00000000000E+00  0.17790130690E+03  0.17790130690E+03  0.00000000000E+00 0.  1.
         21   -1    0    0  506  502 -0.00000000000E+00 -0.00000000000E+00 -0.10554476967E+04  0.10554476967E+04  0.00000000000E+00 0.  1.
         21    1    1    2  503  502  0.10376121821E+03 -0.45197922508E+02 -0.82570997461E+03  0.83343038388E+03  0.00000000000E+00 0.  1.
         21    1    1    2  504  501 -0.17355761822E+03  0.19006735962E+02 -0.78591806867E+02  0.19146846989E+03  0.00000000000E+00 0.  1.
         21    1    1    2  505  503  0.96873198329E+02  0.12188858106E+02  0.93430084644E+02  0.13513758002E+03  0.00000000000E+00 0.  1.
         21    1    1    2  506  504 -0.27076798317E+02  0.14002328440E+02 -0.66674692961E+02  0.73312569797E+02  0.00000000000E+00 0.  1.
<scales pt_clust_3="87.59001" pt_clust_4="107.43129" pt_clust_5="14000.00000" pt_clust_6="30.48308"></scales>
<clustering>
<clus scale="   30.483">  2  6  1 -1</clus>
<clus scale="   87.590">  2  3  1 -1</clus>
<clus scale="  107.431">  2  4  1 -1</clus>
<clus scale="  107.431">  1  3  2 -1</clus>
</clustering>
</event>
<event>
 6    0  0.4227619E+002  0.1190600E+03  0.7546771E-02  0.1244656E+00
         21   -1    0    0  505  501  0.00000000000E+00  0.00000000000E+00  0.43523321865E+03  0.43523321865E+03  0.00000000000E+00 0.  1.
         21   -1    0    0  504  502 -0.00000000000E+00 -0.00000000000E+00 -0.24507906810E+03  0.24507906810E+03  0.00000000000E+00 0.  1.
         21    1    1    2  503  501  0.55402614829E+02 -0.50632786096E+02  0.86958871546E+02  0.11486937842E+03  0.00000000000E+00 0.  1.
         21    1    1    2  504  503 -0.12303810080E+03  0.32151723770E+02 -0.16988582731E+03  0.21221051319E+03  0.00000000000E+00 0.  1.
         21    1    1    2  505  506  0.67804251024E+02  0.84700699286E+02  0.26521186979E+03  0.28654661191E+03  0.00000000000E+00 0.  1.
         21    1    1    2  506  502 -0.16876505682E+00 -0.66219636959E+02  0.78692365209E+01  0.66685783223E+02  0.00000000000E+00 0.  1.
<scales pt_clust_3="78.00118" pt_clust_4="14000.00000" pt_clust_5="119.06003" pt_clust_6="66.21985"></scales>
<clustering>
<clus scale="   66.220">  2  6  1 -1</clus>
<clus scale="   78.001">  1  3  2 -1</clus>
<clus scale="  119.060">  1  5  2 -1</clus>
<clus scale="   78.001">  1  3  2 -1</clus>
</clustering>
</event>
<event>
 6    0  0.4227619E+002  0.1307190E+03  0.7546771E-02  0.1226393E+00
         21   -1    0    0  506  501  0.00000000000E+00  0.00000000000E+00  0.24450992531E+03  0.24450992531E+03  0.00000000000E+00 0. -1.
         21   -1    0    0  503  502 -0.00000000000E+00 -0.00000000000E+00 -0.11127594579E+04  0.11127594579E+04  0.00000000000E+00 0.  1.
         21    1    1    2  503  505 -0.15970474824E+03 -0.36336452441E+02 -0.77322506242E+03  0.79038151644E+03  0.00000000000E+00 0.  1.
         21    1    1    2  504  501  0.34113916266E+02  0.28068269572E+02  0.10550006579E+03  0.11437591933E+03  0.00000000000E+00 0. -1.
         21    1    1    2  505  504  0.80326539522E+02  0.66641967996E+02 -0.30624509735E+03  0.32354221441E+03  0.00000000000E+00 0.  1.
         21    1    1    2  506  502  0.45264292456E+02 -0.58373785128E+02  0.10572056134E+03  0.12896973308E+03  0.00000000000E+00 0. -1.
<scales pt_clust_3="130.71896" pt_clust_4="44.17677" pt_clust_5="14000.00000" pt_clust_6="82.31524"></scales>
<clustering>
<clus scale="   44.177">  1  4  2 -1</clus>
<clus scale="   82.315">  1  6  2 -1</clus>
<clus scale="  130.719">  2  3  1 -1</clus>
<clus scale="   44.177">  1  3  2 -1</clus>
</clustering>
</event>
<event>
 6    0  0.4227619E+002  0.9083165E+02  0.7546771E-02  0.1300850E+00
         21   -1    0    0  506  501  0.00000000000E+00  0.00000000000E+00  0.14634375999E+04  0.14634375999E+04  0.00000000000E+00 0.  1.
         21   -1    0    0  503  502 -0.00000000000E+00 -0.00000000000E+00 -0.29366064336E+03  0.29366064336E+03  0.00000000000E+00 0. -1.
         21    1    1    2  503  505  0.46257134374E+02 -0.25512105941E+02 -0.21964496094E+03  0.22590816474E+03  0.00000000000E+00 0. -1.
         21    1    1    2  504  501  0.25564145882E+02  0.29768161183E+02  0.12330203665E+04  0.12336445571E+04  0.00000000000E+00 0.  1.
         21    1    1    2  505  504  0.14362582512E+02  0.60965169121E+02  0.17679102490E+03  0.18755826324E+03  0.00000000000E+00 0. -1.
         21    1    1    2  506  502 -0.86183862769E+02 -0.65221224363E+02 -0.20389473984E+02  0.10998725816E+03  0.00000000000E+00 0. -1.
<scales pt_clust_3="52.93761" pt_clust_4="39.23862" pt_clust_5="14000.00000" pt_clust_6="90.83165"></scales>
<clustering>
<clus scale="   39.239">  1  4  2 -1</clus>
<clus scale="   52.938">  2  3  1 -1</clus>
<clus scale="   90.832">  2  6  1 -1</clus>
<clus scale="   39.239">  1  3  2 -1</clus>
</clustering>
</event>
<event>
 6    0  0.4227619E+002  0.1006472E+03  0.7546771E-02  0.1278941E+00
         21   -1    0    0  506  501  0.00000000000E+00  0.00000000000E+00  0.14605658297E+03  0.14605658297E+03  0.00000000000E+00 0. -1.
         21   -1    0    0  503  502 -0.00000000000E+00 -0.00000000000E+00 -0.30173852238E+03  0.30173852238E+03  0.00000000000E+00 0. -1.
         21    1    1    2  503  501 -0.56426928730E+02 -0.36396688063E+02 -0.32053550072E+02  0.74405290539E+02  0.00000000000E+00 0. -1.
         21    1    1    2  504  502 -0.50019457719E+02 -0.62990421496E+01 -0.14744012985E+03  0.15582110246E+03  0.00000000000E+00 0. -1.
         21    1    1    2  505  504  0.13980877553E+03  0.55026867409E+02 -0.29854880662E+02  0.15318539013E+03  0.00000000000E+00 0. -1.
         21    1    1    2  506  505 -0.33362389078E+02 -0.12331137196E+02  0.53666621176E+02  0.64383322204E+02  0.00000000000E+00 0. -1.
<scales pt_clust_3="100.64720" pt_clust_4="52.08393" pt_clust_5="14000.00000" pt_clust_6="35.56833"></scales>
<clustering>
<clus scale="   35.568">  1  6  2 -1</clus>
<clus scale="   52.084">  2  4  1 -1</clus>
<clus scale="  100.647">  2  3  1 -1</clus>
<clus scale="   35.568">  1  3  2 -1</clus>
</clustering>
</event>
<event>
 6    0  0.4227619E+002  0.6075807E+02  0.7546771E-02  0.1394678E+00
         21   -1    0    0  506  501  0.00000000000E+00  0.00000000000E+00  0.88247985817E+02  0.88247985817E+02  0.00000000000E+00 0.  1.
         21   -1    0    0  505  502 -0.00000000000E+00 -0.00000000000E+00 -0.38030390605E+03  0.38030390605E+03  0.00000000000E+00 0.  1.
         21    1    1    2  503  501 -0.36446310479E+02  0.45050765106E+02  0.38003536553E+02  0.69297718395E+02  0.00000000000E+00 0.  1.
         21    1    1    2  504  502 -0.19825596145E+02 -0.91291383611E+02 -0.14228542061E+03  0.17021254919E+03  0.00000000000E+00 0.  1.
         21    1    1    2  505  503 -0.86583297219E+01  0.46912370156E+02 -0.14144959343E+03  0.14927734131E+03  0.00000000000E+00 0.  1.
         21    1    1    2  506  504  0.64930236346E+02 -0.67175165113E+00 -0.46324442748E+02  0.79764282973E+02  0.00000000000E+00 0.  1.
<scales pt_clust_3="60.75807" pt_clust_4="14000.00000" pt_clust_5="47.70469" pt_clust_6="57.67138"></scales>
<clustering>
<clus scale="   47.705">  2  5  1 -1</clus>
<clus scale="   60.758">  1  3  2 -1</clus>
<clus scale="   57.671">  1  6  2 -1</clus>
<clus scale="   60.758">  1  3  2 -1</clus>
</clustering>
</event>
<event>
 6    0  0.4227619E+002  0.1201745E+03  0.7546771E-02  0.1242810E+00
         21   -1    0    0  505  501  0.00000000000E+00  0.00000000000E+00  0.46609111259E+03  0.46609111259E+03  0.00000000000E+00 0.  1.
         21   -1    0    0  503  502 -0.00000000000E+00 -0.00000000000E+00 -0.43227120297E+03  0.43227120297E+03  0.00000000000E+00 0.  1.
         21    1    1    2  503  504 -0.46013607883E+02  0.36290351578E+02 -0.23644300615E+02  0.63192520757E+02  0.00000000000E+00 0.  1.
         21    1    1    2  504  501 -0.11270986246E+03 -0.45189333726E+02  0.41481259846E+03  0.43222110177E+03  0.00000000000E+00 0.  1.
         21    1    1    2  505  506  0.77464503564E+02  0.52790295779E+02 -0.18664250955E+03  0.20886117641E+03  0.00000000000E+00 0.  1.
         21    1    1    2  506  502  0.81258966775E+02 -0.43891313632E+02 -0.17070587868E+03  0.19408751662E+03  0.00000000000E+00 0.  1.
<scales pt_clust_3="58.60240" pt_clust_4="120.17445" pt_clust_5="14000.00000" pt_clust_6="65.44554"></scales>
<clustering>
<clus scale="   58.602">  2  3  1 -1</clus>
<clus scale="   65.446">  2  6  1 -1</clus>
<clus scale="  120.174">  1  4  2 -1</clus>
<clus scale="  120.174">  1  3  2 -1</clus>
</clustering>
</event>
<event>
 6    0  0.4227619E+002  0.2098020E+03  0.7546771E-02  0.1141723E+00
         21   -1    0    0  506  501  0.00000000000E+00  0.00000000000E+00  0.71011607034E+03  0.71011607034E+03  0.00000000000E+00 0. -1.
         21   -1    0    0  503  502 -0.00000000000E+00 -0.00000000000E+00 -0.80113284130E+03  0.80113284130E+03  0.00000000000E+00 0. -1.
         21    1    1    2  503  505 -0.39808192914E+02  0.60887668262E+01 -0.23802763741E+03  0.24141027624E+03  0.00000000000E+00 0. -1.
         21    1    1    2  504  502 -0.10319491247E+03  0.14815280948E+03 -0.48004372000E+03  0.51287466112E+03  0.00000000000E+00 0. -1.
         21    1    1    2  505  501  0.19583580192E+03 -0.15130636439E+03  0.17809890145E+03  0.30490079684E+03  0.00000000000E+00 0. -1.
         21    1    1    2  506  504 -0.52832696535E+02 -0.29352119125E+01  0.44895568500E+03  0.45206317743E+03  0.00000000000E+00 0. -1.
<scales pt_clust_3="40.27115" pt_clust_4="14000.00000" pt_clust_5="209.80204" pt_clust_6="53.02324"></scales>
<clustering>
<clus scale="   40.271">  2  3  1 -1</clus>
<clus scale="   53.023">  1  6  2 -1</clus>
<clus scale="  209.802">  1  5  2 -1</clus>
<clus scale="   53.023">  1  3  2 -1</clus>
</clustering>
</event>
<event>
 6    0  0.4227619E+002  0.8689553E+02  0.7546771E-02  0.1310549E+00
         21   -1    0    0  504  501  0.00000000000E+00  0.00000000000E+00  0.13685541823E+03  0.13685541823E+03  0.00000000000E+00 0. -1.
         21   -1    0    0  506  502 -0.00000000000E+00 -0.00000000000E+00 -0.53755262836E+03  0.53755262836E+03  0.00000000000E+00 0. -1.
         21    1    1    2  503  502  0.65087593239E+02  0.90081047308E+01 -0.10713290306E+03  0.12567815905E+03  0.00000000000E+00 0. -1.
         21    1    1    2  504  503 -0.11366556248E+02  0.83905457278E+02  0.43179065707E+02  0.95046073444E+02  0.00000000000E+00 0. -1.
         21    1    1    2  505  501 -0.60270468257E+00 -0.90513811374E+02  0.20249136422E+02  0.92753117620E+02  0.00000000000E+00 0. -1.
         21    1    1    2  506  505 -0.53118332309E+02 -0.23997506339E+01 -0.35699250920E+03  0.36093069647E+03  0.00000000000E+00 0. -1.
<scales pt_clust_3="31.36135" pt_clust_4="86.89553" pt_clust_5="14000.00000" pt_clust_6="53.17251"></scales>
<clustering>
<clus scale="   53.173">  2  6  1 -1</clus>
<clus scale="   31.361">  2  3  1 -1</clus>
<clus scale="   86.896">  1  4  2 -1</clus>
<clus scale="   86.896">  1  3  2 -1</clus>
</clustering>
</event>
<event>
 6    0  0.4227619E+002  0.1192946E+03  0.7546771E-02  0.1244265E+00
         21   -1    0    0  504  501  0.00000000000E+00  0.00000000000E+00  0.56593529066E+03  0.56593529066E+03  0.00000000000E+00 0. -1.
         21   -1    0    0  503  502 -0.00000000000E+00 -0.00000000000E+00 -0.16349655399E+04  0.16349655399E+04  0.00000000000E+00 0. -1.
         21    1    1    2  503  506 -0.28641217021E+02 -0.48684336503E+02 -0.29276164016E+03  0.29816079870E+03  0.00000000000E+00 0. -1.
         21    1    1    2  504  505  0.79916071485E+01  0.58440310273E+02  0.54357229236E+03  0.54676317786E+03  0.00000000000E+00 0. -1.
         21    1    1    2  505  502  0.70325989063E+02  0.57141529444E+02 -0.10673071055E+03  0.14000837011E+03  0.00000000000E+00 0.  1.
         21    1    1    2  506  501 -0.49676379191E+02 -0.66897503214E+02 -0.12131101909E+04  0.12159684839E+04  0.00000000000E+00 0. -1.
<scales pt_clust_3="56.48437" pt_clust_4="58.92213" pt_clust_5="119.29457" pt_clust_6="14000.00000"></scales>
<clustering>
<clus scale="   56.484">  2  3  1 -1</clus>
<clus scale="   58.922">  1  4  2 -1</clus>
<clus scale="  119.295">  1  5  2 -1</clus>
<clus scale="   58.922">  1  3  2 -1</clus>
</clustering>
</event>
<event>
 6    0  0.4227619E+002  0.7746120E+02  0.7546771E-02  0.1336415E+00
         21   -1    0    0  503  501  0.00000000000E+00  0.00000000000E+00  0.10973286391E+03  0.10973286391E+03  0.00000000000E+00 0.  1.
         21   -1    0    0  506  502 -0.00000000000E+00 -0.00000000000E+00 -0.72142531187E+03  0.72142531187E+03  0.00000000000E+00 0.  1.
         21    1    1    2  503  504 -0.16969543904E+02  0.29584968844E+02  0.39594710076E+02  0.52258749199E+02  0.00000000000E+00 0.  1.
         21    1    1    2  504  505 -0.12691554767E+03 -0.19300358876E+02 -0.13089134316E+03  0.18333740428E+03  0.00000000000E+00 0.  1.
         21    1    1    2  505  502  0.69386467835E+02 -0.24787373986E+02 -0.51415624698E+03  0.51940883910E+03  0.00000000000E+00 0.  1.
         21    1    1    2  506  501  0.74498623740E+02  0.14502764019E+02 -0.62395678909E+01  0.76153183195E+02  0.00000000000E+00 0.  1.
<scales pt_clust_3="34.10624" pt_clust_4="77.46120" pt_clust_5="14000.00000" pt_clust_6="72.07244"></scales>
<clustering>
<clus scale="   34.106">  1  3  2 -1</clus>
<clus scale="   72.072">  1  6  2 -1</clus>
<clus scale="   77.461">  1  4  2 -1</clus>
<clus scale="   34.106">  1  3  2 -1</clus>
</clustering>
</event>
<event>
 6    0  0.4227619E+002  0.8120190E+02  0.7546771E-02  0.1325675E+00
         21   -1    0    0  503  501  0.00000000000E+00  0.00000000000E+00  0.11678979797E+04  0.11678979797E+04  0.00000000000E+00 0.  1.
         21   -1    0    0  506  502 -0.00000000000E+00 -0.00000000000E+00 -0.10610086723E+03  0.10610086723E+03  0.00000000000E+00 0.  1.
         21    1    1    2  503  502 -0.32838764816E+02  0.15996507384E+03  0.45361384025E+03  0.48211277248E+03  0.00000000000E+00 0.  1.
         21    1    1    2  504  505 -0.17847046711E+01 -0.59754124191E+02  0.10490807146E+03  0.12074536838E+03  0.00000000000E+00 0.  1.
         21    1    1    2  505  501  0.29589060700E+02 -0.22322690079E+02  0.56832755730E+03  0.56953492201E+03  0.00000000000E+00 0.  1.
         21    1    1    2  506  504  0.50344087873E+01 -0.77888259574E+02 -0.65052356564E+02  0.10160578402E+03  0.00000000000E+00 0.  1.
<scales pt_clust_3="14000.00000" pt_clust_4="64.07116" pt_clust_5="37.06501" pt_clust_6="81.20190"></scales>
<clustering>
<clus scale="   37.065">  1  5  2 -1</clus>
<clus scale="   64.071">  1  4  2 -1</clus>
<clus scale="   81.202">  2  6  1 -1</clus>
<clus scale="   37.065">  1  3  2 -1</clus>
</clustering>
</event>
<event>
 6    0  0.4227619E+002  0.8650548E+02  0.7546771E-02  0.1311542E+00
         21   -1    0    0  506  501  0.00000000000E+00  0.00000000000E+00  0.82310164633E+03  0.82310164633E+03  0.00000000000E+00 0.  1.
         21   -1    0    0  505  502 -0.00000000000E+00 -0.00000000000E+00 -0.48451165669E+03  0.48451165669E+03  0.00000000000E+00 0.  1.
         21    1    1    2  503  502  0.41828235706E+02 -0.15596451810E+02 -0.31963413113E+03  0.32273646896E+03  0.00000000000E+00 0.  1.
         21    1    1    2  504  501  0.74055433424E+02  0.26069132680E+02  0.53548380702E+02  0.95032815249E+02  0.00000000000E+00 0.  1.
         21    1    1    2  505  504 -0.81211503320E+02 -0.66274246651E+02 -0.12163407594E+03  0.16056908940E+03  0.00000000000E+00 0.  1.
         21    1    1    2  506  503 -0.34672165809E+02  0.55801565780E+02  0.72630981601E+03  0.72927492940E+03  0.00000000000E+00 0.  1.
<scales pt_clust_3="44.64136" pt_clust_4="14000.00000" pt_clust_5="86.50548" pt_clust_6="65.37590"></scales>
<clustering>
<clus scale="   44.641">  2  3  1 -1</clus>
<clus scale="   65.376">  1  6  2 -1</clus>
<clus scale="   86.505">  2  5  1 -1</clus>
<clus scale="   65.376">  1  3  2 -1</clus>
</clustering>
</event>
<event>
 6    0  0.4227619E+002  0.9578878E+02  0.7546771E-02  0.1289409E+00
         21   -1    0    0  503  501  0.00000000000E+00  0.00000000000E+00  0.18486737315E+04  0.18486737315E+04  0.00000000000E+00 0.  1.
         21   -1    0    0  506  502 -0.00000000000E+00 -0.00000000000E+00 -0.40550984516E+02  0.40550984516E+02  0.00000000000E+00 0.  1.
         21    1    1    2  503  505  0.20477575075E+01  0.54168672353E+02  0.12003660315E+04  0.12015893841E+04  0.00000000000E+00 0.  1.
         21    1    1    2  504  502 -0.40308135712E+02 -0.10268100470E+03  0.53286286370E+02  0.12250535843E+03  0.00000000000E+00 0.  1.
         21    1    1    2  505  504  0.13808770940E+01  0.56936973144E+02  0.45767144511E+03  0.46120155833E+03  0.00000000000E+00 0.  1.
         21    1    1    2  506  501  0.36879501111E+02 -0.84246408024E+01  0.96798983966E+02  0.10392841513E+03  0.00000000000E+00 0.  1.
<scales pt_clust_3="54.09467" pt_clust_4="14000.00000" pt_clust_5="95.78878" pt_clust_6="37.82951"></scales>
<clustering>
<clus scale="   37.830">  2  6  1 -1</clus>
<clus scale="   54.095">  1  3  2 -1</clus>
<clus scale="   95.789">  1  5  2 -1</clus>
<clus scale="   54.095">  1  3  2 -1</clus>
</clustering>
</event>
<event>
 6    0  0.4227619E+002  0.6389277E+02  0.7546771E-02  0.1382185E+00
         21   -1    0    0  506  501  0.00000000000E+00  0.00000000000E+00  0.20217667586E+03  0.20217667586E+03  0.00000000000E+00 0. -1.
         21   -1    0    0  503  502 -0.00000000000E+00 -0.00000000000E+00 -0.17462471848E+03  0.17462471848E+03  0.00000000000E+00 0. -1.
         21    1    1    2  503  505 -0.39850220490E+01  0.35365908270E+02 -0.91228519629E+02  0.97924821481E+02  0.00000000000E+00 0. -1.
         21    1    1    2  504  502 -0.32687435348E+02 -0.70595935880E+02 -0.22614216988E+02  0.81016402058E+02  0.00000000000E+00 0. -1.
         21    1    1    2  505  501  0.20819901292E+02  0.83904391021E+02  0.78555285062E+02  0.11680902334E+03  0.00000000000E+00 0. -1.
         21    1    1    2  506  504  0.15852556105E+02 -0.48674363411E+02  0.62839408943E+02  0.81051147461E+02  0.00000000000E+00 0. -1.
<scales pt_clust_3="35.58972" pt_clust_4="14000.00000" pt_clust_5="63.89277" pt_clust_6="47.23215"></scales>
<clustering>
<clus scale="   35.590">  2  3  1 -1</clus>
<clus scale="   47.232">  1  6  2 -1</clus>
<clus scale="   63.893">  1  5  2 -1</clus>
<clus scale="   47.232">  1  3  2 -1</clus>
</clustering>
</event>
<event>
 6    0  0.4227619E+002  0.1269414E+03  0.7546771E-02  0.1232066E+00
         21   -1    0    0  506  501  0.00000000000E+00  0.00000000000E+00  0.41187291058E+03  0.41187291058E+03  0.00000000000E+00 0. -1.
         21   -1    0    0  505  502 -0.00000000000E+00 -0.00000000000E+00 -0.15182436149E+04  0.15182436149E+04  0.00000000000E+00 0. -1.
         21    1    1    2  503  504 -0.25532172703E+02 -0.76403405636E+02 -0.10397505444E+04  0.10428665144E+04  0.00000000000E+00 0. -1.
         21    1    1    2  504  501 -0.24595549441E+02  0.13391905801E+03  0.68422741909E+02  0.15238414209E+03  0.00000000000E+00 0. -1.
         21    1    1    2  505  503  0.21222281415E+02 -0.39463147714E+02 -0.43282593358E+03  0.43513907436E+03  0.00000000000E+00 0. -1.
         21    1    1    2  506  502  0.28905440729E+02 -0.18052504656E+02  0.29778303175E+03  0.29972679465E+03  0.00000000000E+00 0. -1.
<scales pt_clust_3="37.95002" pt_clust_4="116.35598" pt_clust_5="37.95002" pt_clust_6="34.07957"></scales>
<clustering>
<clus scale="   34.080">  1  6  2 -1</clus>
<clus scale="   37.950">  3  5 -1 -1</clus>
<clus scale="  116.356">  1  4  2 -1</clus>
<clus scale="   34.080">  1  3  2 -1</clus>
</clustering>
</event>
<event>
 6    0  0.4227619E+002  0.1424597E+03  0.7546771E-02  0.1210057E+00
         21   -1    0    0  503  501  0.00000000000E+00  0.00000000000E+00  0.14403172712E+04  0.14403172712E+04  0.00000000000E+00 0. -1.
         21   -1    0    0  506  502 -0.00000000000E+00 -0.00000000000E+00 -0.41461597009E+02  0.41461597009E+02  0.00000000000E+00 0. -1.
         21    1    1    2  503  505 -0.17729361252E+03  0.12268802819E+02  0.83677136976E+03  0.85543548781E+03  0.00000000000E+00 0. -1.
         21    1    1    2  504  501  0.60236631770E+02  0.17939132922E+02  0.28766887068E+03  0.29445482414E+03  0.00000000000E+00 0. -1.
         21    1    1    2  505  502 -0.28695288576E+02  0.16662425570E+02  0.41070534765E+02  0.52800045816E+02  0.00000000000E+00 0. -1.
         21    1    1    2  506  504  0.14575226933E+03 -0.46870361311E+02  0.23334489903E+03  0.27908851049E+03  0.00000000000E+00 0. -1.
<scales pt_clust_3="142.45971" pt_clust_4="60.72675" pt_clust_5="33.18216" pt_clust_6="14000.00000"></scales>
<clustering>
<clus scale="   33.182">  2  5  1 -1</clus>
<clus scale="   60.727">  1  4  2 -1</clus>
<clus scale="  142.460">  1  3  2 -1</clus>
<clus scale="   60.727">  1  3  2 -1</clus>
</clustering>
</event>
<event>
 6    0  0.4227619E+002  0.1198873E+03  0.7546771E-02  0.1243283E+00
         21   -1    0    0  505  501  0.00000000000E+00  0.00000000000E+00  0.20545625695E+03  0.20545625695E+03  0.00000000000E+00 0. -1.
         21   -1    0    0  503  502 -0.00000000000E+00 -0.00000000000E+00 -0.96426071782E+03  0.96426071782E+03  0.00000000000E+00 0.  1.
         21    1    1    2  503  504  0.61560371678E+01 -0.99827017508E+02 -0.10098005229E+03  0.14212776358E+03  0.00000000000E+00 0. -1.
         21    1    1    2  504  501  0.18110548038E+02  0.11387720095E+03  0.15165824366E+03  0.19051569940E+03  0.00000000000E+00 0. -1.
         21    1    1    2  505  506  0.32242033351E+02  0.84993027680E+01 -0.93480606075E+01  0.34629078810E+02  0.00000000000E+00 0. -1.
         21    1    1    2  506  502 -0.56508618556E+02 -0.22549486213E+02 -0.80013459164E+03  0.80244443299E+03  0.00000000000E+00 0.  1.
<scales pt_clust_3="119.88733" pt_clust_4="14000.00000" pt_clust_5="33.34347" pt_clust_6="60.64339"></scales>
<clustering>
<clus scale="   33.343">  1  5  2 -1</clus>
<clus scale="   60.643">  2  6  1 -1</clus>
<clus scale="  119.887">  2  3  1 -1</clus>
<clus scale="   33.343">  1  3  2 -1</clus>
</clustering>
</event>
<event>
 6    0  0.4227619E+002  0.8985047E+02  0.7546771E-02  0.1303214E+00
         21   -1    0    0  505  501  0.00000000000E+00  0.00000000000E+00  0.51822730623E+03  0.51822730623E+03  0.00000000000E+00 0.  1.
         21   -1    0    0  506  502 -0.00000000000E+00 -0.00000000000E+00 -0.56408776450E+02  0.56408776450E+02  0.00000000000E+00 0.  1.
         21    1    1    2  503  501 -0.10988876745E+02 -0.46023648691E+02  0.27366860905E+03  0.27772907523E+03  0.00000000000E+00 0.  1.
         21    1    1    2  504  503 -0.25515674827E+02 -0.28083635490E+02  0.10381631728E+03  0.11053310807E+03  0.00000000000E+00 0.  1.
         21    1    1    2  505  502  0.91251665119E+02  0.34740778942E+02  0.60444569073E+02  0.11483611818E+03  0.00000000000E+00 0.  1.
         21    1    1    2  506  504 -0.54747113546E+02  0.39366505238E+02  0.23889034378E+02  0.71537781206E+02  0.00000000000E+00 0.  1.
<scales pt_clust_3="33.84173" pt_clust_4="33.84173" pt_clust_5="81.51641" pt_clust_6="67.43121"></scales>
<clustering>
<clus scale="   33.842">  3  4 -1 -1</clus>
<clus scale="   67.431">  2  6  1 -1</clus>
<clus scale="   81.516">  2  5  1 -1</clus>
<clus scale="   89.850">  1  3  2 -1</clus>
</clustering>
</event>
<event>
 6    0  0.4227619E+002  0.1123988E+03  0.7546771E-02  0.1256191E+00
         21   -1    0    0  505  501  0.00000000000E+00  0.00000000000E+00  0.82043288340E+02  0.82043288340E+02  0.00000000000E+00 0. -1.
         21   -1    0    0  506  502 -0.00000000000E+00 -0.00000000000E+00 -0.40810229066E+03  0.40810229066E+03  0.00000000000E+00 0.  1.
         21    1    1    2  503  501  0.98404139707E+02  0.53973743164E+02 -0.33421548408E+01  0.11228405791E+03  0.00000000000E+00 0. -1.
         21    1    1    2  504  502 -0.26923811412E+02  0.38754289373E+02 -0.92305543697E+02  0.10366822060E+03  0.00000000000E+00 0. -1.
         21    1    1    2  505  504 -0.92422119456E+02 -0.66075172550E+02 -0.19074931378E+03  0.22202044343E+03  0.00000000000E+00 0.  1.
         21    1    1    2  506  503  0.20941791162E+02 -0.26652859987E+02 -0.39661990003E+02  0.52172857057E+02  0.00000000000E+00 0.  1.
<scales pt_clust_3="112.39882" pt_clust_4="38.03817" pt_clust_5="14000.00000" pt_clust_6="33.89592"></scales>
<clustering>
<clus scale="   33.896">  2  6  1 -1</clus>
<clus scale="   38.038">  2  4  1 -1</clus>
<clus scale="  112.399">  1  3  2 -1</clus>
<clus scale="  112.399">  1  3  2 -1</clus>
</clustering>
</event>
<event>
 6    0  0.4227619E+002  0.9501927E+02  0.7546771E-02  0.1291133E+00
         21   -1    0    0  504  501  0.00000000000E+00  0.00000000000E+00  0.24614135037E+03  0.24614135037E+03  0.00000000000E+00 0.  1.
         21   -1    0    0  506  502 -0.00000000000E+00 -0.00000000000E+00 -0.11396374905E+04  0.11396374905E+04  0.00000000000E+00 0.  1.
         21    1    1    2  503  501  0.32539357470E+02 -0.10188400346E+03  0.19295506245E+03  0.22061463250E+03  0.00000000000E+00 0.  1.
         21    1    1    2  504  502 -0.35748885207E+02  0.34361662629E+01  0.25165193921E+02  0.43852902039E+02  0.00000000000E+00 0.  1.
         21    1    1    2  505  503  0.39876807559E+02  0.49995877461E+02 -0.26860822449E+03  0.27611614551E+03  0.00000000000E+00 0.  1.
         21    1    1    2  506  505 -0.36667279822E+02  0.48451959732E+02 -0.84300817203E+03  0.84519516084E+03  0.00000000000E+00 0.  1.
<scales pt_clust_3="14000.00000" pt_clust_4="35.91365" pt_clust_5="95.01927" pt_clust_6="60.88828"></scales>
<clustering>
<clus scale="   35.914">  1  4  2 -1</clus>
<clus scale="   60.888">  2  6  1 -1</clus>
<clus scale="   95.019">  2  5  1 -1</clus>
<clus scale="   35.914">  1  3  2 -1</clus>
</clustering>
</event>
<event>
 6    0  0.4227619E+002  0.1547771E+03  0.7546771E-02  0.1194723E+00
         21   -1    0    0  505  501  0.00000000000E+00  0.00000000000E+00  0.32659662841E+02  0.32659662841E+02  0.00000000000E+00 0.  1.
         21   -1    0    0  504  502 -0.00000000000E+00 -0.00000000000E+00 -0.19158685065E+04  0.19158685065E+04  0.00000000000E+00 0. -1.
         21    1    1    2  503  502  0.11049243530E+03  0.11596309864E+03 -0.69165449957E+03  0.70995912930E+03  0.00000000000E+00 0. -1.
         21    1    1    2  504  506 -0.90532770769E+02 -0.12233860696E+03 -0.11266016056E+04  0.11368351222E+04  0.00000000000E+00 0.  1.
         21    1    1    2  505  503 -0.13416314802E+02 -0.33233217000E+02 -0.18482641288E+02  0.40324338110E+02  0.00000000000E+00 0.  1.
         21    1    1    2  506  501 -0.65433497304E+01  0.39608725321E+02 -0.46470097172E+02  0.61409579696E+02  0.00000000000E+00 0. -1.
<scales pt_clust_3="154.77707" pt_clust_4="14000.00000" pt_clust_5="35.83914" pt_clust_6="30.31563"></scales>
<clustering>
<clus scale="   35.839">  1  5  2 -1</clus>
<clus scale="   30.316">  1  6  2 -1</clus>
<clus scale="  154.777">  1  3  2 -1</clus>
<clus scale="   35.839">  1  3  2 -1</clus>
</clustering>
</event>
<event>
 6    0  0.4227619E+002  0.8189936E+02  0.7546771E-02  0.1323746E+00
         21   -1    0    0  504  501  0.00000000000E+00  0.00000000000E+00  0.52035215315E+03  0.52035215315E+03  0.00000000000E+00 0. -1.
         21   -1    0    0  506  502 -0.00000000000E+00 -0.00000000000E+00 -0.34784107468E+02  0.34784107468E+02  0.00000000000E+00 0. -1.
         21    1    1    2  503  505 -0.28377041553E+02 -0.66206197625E+02  0.15307800620E+03  0.16917858338E+03  0.00000000000E+00 0. -1.
         21    1    1    2  504  502  0.45089383874E+02  0.80084965035E+02  0.14177817608E+03  0.16896066221E+03  0.00000000000E+00 0. -1.
         21    1    1    2  505  501 -0.57227181152E+02 -0.85428660610E+01  0.14248363012E+03  0.15378399031E+03  0.00000000000E+00 0. -1.
         21    1    1    2  506  503  0.40514838831E+02 -0.53359013494E+01  0.48228233282E+02  0.63213024720E+02  0.00000000000E+00 0.  1.
<scales pt_clust_3="81.89936" pt_clust_4="14000.00000" pt_clust_5="49.78318" pt_clust_6="40.86470"></scales>
<clustering>
<clus scale="   40.865">  2  6  1 -1</clus>
<clus scale="   49.783">  1  5  2 -1</clus>
<clus scale="   81.899">  2  3  1 -1</clus>
<clus scale="   49.783">  1  3  2 -1</clus>
</clustering>
</event>
<event>
 6    0  0.4227619E+002  0.7993472E+02  0.7546771E-02  0.1329237E+00
         21   -1    0    0  506  501  0.00000000000E+00  0.00000000000E+00  0.74256854965E+03  0.74256854965E+03  0.00000000000E+00 0. -1.
         21   -1    0    0  504  502 -0.00000000000E+00 -0.00000000000E+00 -0.40446887090E+02  0.40446887090E+02  0.00000000000E+00 0. -1.
         21    1    1    2  503  501  0.39476648043E+02 -0.26901976467E+02  0.26461682633E+03  0.26889437862E+03  0.00000000000E+00 0. -1.
         21    1    1    2  504  503 -0.18663350882E+02  0.10483963530E+03  0.89713056077E+02  0.13924116570E+03  0.00000000000E+00 0. -1.
         21    1    1    2  505  502  0.42300654421E+02 -0.43898928448E+02  0.10188151647E+03  0.11872785975E+03  0.00000000000E+00 0. -1.
         21    1    1    2  506  505 -0.63113951582E+02 -0.34038730385E+02  0.24591026369E+03  0.25615203267E+03  0.00000000000E+00 0. -1.
<scales pt_clust_3="47.77156" pt_clust_4="79.93472" pt_clust_5="14000.00000" pt_clust_6="64.14414"></scales>
<clustering>
<clus scale="   47.772">  1  3  2 -1</clus>
<clus scale="   64.144">  1  6  2 -1</clus>
<clus scale="   79.935">  1  4  2 -1</clus>
<clus scale="   47.772">  1  3  2 -1</clus>
</clustering>
</event>
<event>
 6    0  0.4227619E+002  0.1173412E+03  0.7546771E-02  0.1247549E+00
         21   -1    0    0  504  501  0.00000000000E+00  0.00000000000E+00  0.64599986939E+03  0.64599986939E+03  0.00000000000E+00 0.  1.
         21   -1    0    0  506  502 -0.00000000000E+00 -0.00000000000E+00 -0.93385846903E+02  0.93385846903E+02  0.00000000000E+00 0.  1.
         21    1    1    2  503  505 -0.39432381670E+02 -0.82757448619E+02  0.23895994619E+02  0.94735033567E+02  0.00000000000E+00 0.  1.
         21    1    1    2  504  502  0.69171693795E+02  0.14101841293E+03  0.17289614503E+03  0.23358936828E+03  0.00000000000E+00 0.  1.
         21    1    1    2  505  501 -0.19249853573E+01 -0.46717502045E+02  0.37331694068E+03  0.37623366245E+03  0.00000000000E+00 0.  1.
         21    1    1    2  506  503 -0.27814326768E+02 -0.11543462267E+02 -0.17495057838E+02  0.34827651994E+02  0.00000000000E+00 0. -1.
<scales pt_clust_3="117.34123" pt_clust_4="14000.00000" pt_clust_5="47.03593" pt_clust_6="30.11459"></scales>
<clustering>
<clus scale="   30.115">  2  6  1 -1</clus>
<clus scale="   47.036">  1  5  2 -1</clus>
<clus scale="  117.341">  2  3  1 -1</clus>
<clus scale="   47.036">  1  3  2 -1</clus>
</clustering>
</event>
<event>
 6    0  0.4227619E+002  0.1044752E+03  0.7546771E-02  0.1271157E+00
         21   -1    0    0  504  501  0.00000000000E+00  0.00000000000E+00  0.80077312609E+03  0.80077312609E+03  0.00000000000E+00 0. -1.
         21   -1    0    0  505  502 -0.00000000000E+00 -0.00000000000E+00 -0.89025017141E+03  0.89025017141E+03  0.00000000000E+00 0. -1.
         21    1    1    2  503  501  0.30883794443E+02  0.32548818611E+02  0.71676487765E+03  0.71816789415E+03  0.00000000000E+00 0. -1.
         21    1    1    2  504  502 -0.84274273635E+02  0.95240744747E+01 -0.56314305569E+02  0.10180452938E+03  0.00000000000E+00 0.  1.
         21    1    1    2  505  506  0.31848939203E+02 -0.10303050778E+03 -0.78845102454E+03  0.79579184373E+03  0.00000000000E+00 0. -1.
         21    1    1    2  506  503  0.21541539988E+02  0.60957614697E+02  0.38523407132E+02  0.75259030233E+02  0.00000000000E+00 0.  1.
<scales pt_clust_3="44.86908" pt_clust_4="78.04477" pt_clust_5="104.47521" pt_clust_6="14000.00000"></scales>
<clustering>
<clus scale="   44.869">  1  3  2 -1</clus>
<clus scale="   78.045">  1  4  2 -1</clus>
<clus scale="  104.475">  2  5  1 -1</clus>
<clus scale="   44.869">  1  3  2 -1</clus>
</clustering>
</event>
<event>
 6    0  0.4227619E+002  0.1946674E+03  0.7546771E-02  0.1154318E+00
         21   -1    0    0  504  501  0.00000000000E+00  0.00000000000E+00  0.15462124648E+04  0.15462124648E+04  0.00000000000E+00 0.  1.
         21   -1    0    0  501  502 -0.00000000000E+00 -0.00000000000E+00 -0.22536580107E+03  0.22536580107E+03  0.00000000000E+00 0.  1.
         21    1    1    2  503  505 -0.16662462331E+03  0.26701381167E+03  0.39858295058E+03  0.50786662541E+03  0.00000000000E+00 0.  1.
         21    1    1    2  504  506  0.31020132412E+02 -0.91441101791E+01  0.13575421420E+03  0.13955310831E+03  0.00000000000E+00 0. -1.
         21    1    1    2  505  502  0.94993248814E+02 -0.10072725224E+03 -0.13207426063E+03  0.19134603990E+03  0.00000000000E+00 0.  1.
         21    1    1    2  506  503  0.40611242082E+02 -0.15714244926E+03  0.91858375957E+03  0.93281249225E+03  0.00000000000E+00 0.  1.
<scales pt_clust_3="14000.00000" pt_clust_4="32.33981" pt_clust_5="139.04285" pt_clust_6="194.66735"></scales>
<clustering>
<clus scale="   32.340">  1  4  2 -1</clus>
<clus scale="  139.043">  2  5  1 -1</clus>
<clus scale="  194.667">  1  6  2 -1</clus>
<clus scale="   32.340">  1  3  2 -1</clus>
</clustering>
</event>
<event>
 6    0  0.4227619E+002  0.2578002E+03  0.7546771E-02  0.1108472E+00
         21   -1    0    0  505  501  0.00000000000E+00  0.00000000000E+00  0.18039757597E+04  0.18039757597E+04  0.00000000000E+00 0.  1.
         21   -1    0    0  506  502 -0.00000000000E+00 -0.00000000000E+00 -0.34076395614E+03  0.34076395614E+03  0.00000000000E+00 0.  1.
         21    1    1    2  503  501  0.13373608660E+03 -0.17490517235E+03  0.12548401718E+03  0.25342335871E+03  0.00000000000E+00 0.  1.
         21    1    1    2  504  502 -0.15384521914E+03  0.21504843052E+03  0.45243663000E+03  0.52403538343E+03  0.00000000000E+00 0.  1.
         21    1    1    2  505  504 -0.49074163694E+02  0.28152853614E+02  0.11157362488E+04  0.11171697425E+04  0.00000000000E+00 0.  1.
         21    1    1    2  506  503  0.69183296239E+02 -0.68296111777E+02 -0.23044509239E+03  0.25011123120E+03  0.00000000000E+00 0.  1.
<scales pt_clust_3="257.80023" pt_clust_4="14000.00000" pt_clust_5="56.57611" pt_clust_6="96.43251"></scales>
<clustering>
<clus scale="   56.576">  1  5  2 -1</clus>
<clus scale="   96.433">  2  6  1 -1</clus>
<clus scale="  257.800">  2  3  1 -1</clus>
<clus scale="   56.576">  1  3  2 -1</clus>
</clustering>
</event>
<event>
 6    0  0.4227619E+002  0.1569508E+03  0.7546771E-02  0.1192183E+00
         21   -1    0    0  503  501  0.00000000000E+00  0.00000000000E+00  0.28391448373E+03  0.28391448373E+03  0.00000000000E+00 0.  1.
         21   -1    0    0  504  502 -0.00000000000E+00 -0.00000000000E+00 -0.73703740326E+03  0.73703740326E+03  0.00000000000E+00 0.  1.
         21    1    1    2  503  505  0.10977194292E+03  0.11447872996E+03  0.23506763607E+03  0.28357018989E+03  0.00000000000E+00 0.  1.
         21    1    1    2  504  501 -0.30948859623E+02 -0.13254376223E+03 -0.56755205274E+03  0.58364459510E+03  0.00000000000E+00 0.  1.
         21    1    1    2  505  506 -0.50182841546E+02  0.35396113548E+01 -0.32403677383E+02  0.59840159944E+02  0.00000000000E+00 0.  1.
         21    1    1    2  506  502 -0.28640241751E+02  0.14525420910E+02 -0.88234825478E+02  0.93896942055E+02  0.00000000000E+00 0. -1.
<scales pt_clust_3="14000.00000" pt_clust_4="156.95075" pt_clust_5="52.42788" pt_clust_6="32.11310"></scales>
<clustering>
<clus scale="   32.113">  2  6  1 -1</clus>
<clus scale="   52.428">  2  5  1 -1</clus>
<clus scale="  156.951">  2  4  1 -1</clus>
<clus scale="  156.951">  1  3  2 -1</clus>
</clustering>
</event>
<event>
 6    0  0.4227619E+002  0.1525107E+03  0.7546771E-02  0.1197421E+00
         21   -1    0    0  505  501  0.00000000000E+00  0.00000000000E+00  0.11874856091E+03  0.11874856091E+03  0.00000000000E+00 0. -1.
         21   -1    0    0  506  502 -0.00000000000E+00 -0.00000000000E+00 -0.11922947458E+04  0.11922947458E+04  0.00000000000E+00 0. -1.
         21    1    1    2  503  502  0.72084003157E+02  0.31558499650E+02 -0.64762248219E+03  0.65238556227E+03  0.00000000000E+00 0. -1.
         21    1    1    2  504  501  0.39367894033E+02 -0.47354771089E+02  0.51702077837E+02  0.80407774986E+02  0.00000000000E+00 0.  1.
         21    1    1    2  505  503 -0.14482668585E+03 -0.10973459946E+03 -0.19131207772E+03  0.26384988599E+03  0.00000000000E+00 0. -1.
         21    1    1    2  506  504  0.33374788656E+02  0.12553087090E+03 -0.28631370283E+03  0.31440008348E+03  0.00000000000E+00 0. -1.
<scales pt_clust_3="79.50608" pt_clust_4="61.58170" pt_clust_5="152.51069" pt_clust_6="14000.00000"></scales>
<clustering>
<clus scale="   61.582">  1  4  2 -1</clus>
<clus scale="   79.506">  2  3  1 -1</clus>
<clus scale="  152.511">  1  5  2 -1</clus>
<clus scale="   61.582">  1  3  2 -1</clus>
</clustering>
</event>
<event>
 6    0  0.4227619E+002  0.1912299E+03  0.7546771E-02  0.1157357E+00
         21   -1    0    0  502  501  0.00000000000E+00  0.00000000000E+00  0.43528909662E+03  0.43528909662E+03  0.00000000000E+00 0.  1.
         21   -1    0    0  506  502 -0.00000000000E+00 -0.00000000000E+00 -0.23239890593E+04  0.23239890593E+04  0.00000000000E+00 0.  1.
         21    1    1    2  503  505 -0.12174050016E+03  0.96634536577E+02 -0.34162827423E+03  0.37532500688E+03  0.00000000000E+00 0.  1.
         21    1    1    2  504  503  0.10788066763E+03 -0.20649336393E+03 -0.95756487130E+03  0.98549897541E+03  0.00000000000E+00 0.  1.
         21    1    1    2  505  501  0.77055829522E+02  0.13051983309E+03  0.38910662939E+03  0.41758471803E+03  0.00000000000E+00 0.  1.
         21    1    1    2  506  504 -0.63195996990E+02 -0.20661005737E+02 -0.97861344656E+03  0.98086945562E+03  0.00000000000E+00 0.  1.
<scales pt_clust_3="14000.00000" pt_clust_4="191.22986" pt_clust_5="151.04049" pt_clust_6="66.48768"></scales>
<clustering>
<clus scale="   66.488">  2  6  1 -1</clus>
<clus scale="  151.040">  1  5  2 -1</clus>
<clus scale="  191.230">  2  4  1 -1</clus>
<clus scale="  151.040">  1  3  2 -1</clus>
</clustering>
</event>
<event>
 6    0  0.4227619E+002  0.1620918E+03  0.7546771E-02  0.1186355E+00
         21   -1    0    0  505  501  0.00000000000E+00  0.00000000000E+00  0.16551964878E+03  0.16551964878E+03  0.00000000000E+00 0. -1.
         21   -1    0    0  504  502 -0.00000000000E+00 -0.00000000000E+00 -0.24088166133E+04  0.24088166133E+04  0.00000000000E+00 0.  1.
         21    1    1    2  503  501 -0.11564225979E+03  0.84785043967E+02 -0.26881864006E+03  0.30467211421E+03  0.00000000000E+00 0.  1.
         21    1    1    2  504  506 -0.19019521738E+02 -0.24471954185E+02 -0.15553895270E+04  0.15556982996E+04  0.00000000000E+00 0.  1.
         21    1    1    2  505  502  0.10857985862E+03 -0.12515755434E+03  0.97780119980E+02  0.19239269989E+03  0.00000000000E+00 0. -1.
         21    1    1    2  506  503  0.26081922902E+02  0.64844464561E+02 -0.51686891742E+03  0.52157314835E+03  0.00000000000E+00 0.  1.
<scales pt_clust_3="162.09179" pt_clust_4="30.99385" pt_clust_5="14000.00000" pt_clust_6="52.01742"></scales>
<clustering>
<clus scale="   30.994">  2  4  1 -1</clus>
<clus scale="   52.017">  2  6  1 -1</clus>
<clus scale="  162.092">  2  3  1 -1</clus>
<clus scale="  162.092">  1  3  2 -1</clus>
</clustering>
</event>
<event>
 6    0  0.4227619E+002  0.8384421E+02  0.7546771E-02  0.1318483E+00
         21   -1    0    0  505  501  0.00000000000E+00  0.00000000000E+00  0.19316123645E+03  0.19316123645E+03  0.00000000000E+00 0. -1.
         21   -1    0    0  504  502 -0.00000000000E+00 -0.00000000000E+00 -0.80413086376E+03  0.80413086376E+03  0.00000000000E+00 0.  1.
         21    1    1    2  503  502 -0.29740549087E+02  0.13220174669E+03  0.12386496459E+03  0.18358739483E+03  0.00000000000E+00 0. -1.
         21    1    1    2  504  506  0.33958604478E+02 -0.61078885735E+01 -0.20449904606E+03  0.20738937523E+03  0.00000000000E+00 0.  1.
         21    1    1    2  505  503  0.10960419275E+02 -0.51067963924E+02  0.16013158490E+02  0.54630476612E+02  0.00000000000E+00 0. -1.
         21    1    1    2  506  501 -0.15178474666E+02 -0.75025894193E+02 -0.54634870433E+03  0.55168485353E+03  0.00000000000E+00 0.  1.
<scales pt_clust_3="83.84421" pt_clust_4="34.50352" pt_clust_5="52.66377" pt_clust_6="14000.00000"></scales>
<clustering>
<clus scale="   34.504">  2  4  1 -1</clus>
<clus scale="   52.664">  1  5  2 -1</clus>
<clus scale="   83.844">  1  3  2 -1</clus>
<clus scale="   52.664">  1  3  2 -1</clus>
</clustering>
</event>
<event>
 6    0  0.4227619E+002  0.9696465E+02  0.7546771E-02  0.1286812E+00
         21   -1    0    0  506  501  0.00000000000E+00  0.00000000000E+00  0.94746979279E+02  0.94746979279E+02  0.00000000000E+00 0. -1.
         21   -1    0    0  504  502 -0.00000000000E+00 -0.00000000000E+00 -0.54402392283E+03  0.54402392283E+03  0.00000000000E+00 0. -1.
         21    1    1    2  503  505 -0.12233407747E+02  0.80491456208E+02 -0.27994308626E+03  0.29154187063E+03  0.00000000000E+00 0. -1.
         21    1    1    2  504  503 -0.53910524315E+02  0.25433798191E+01 -0.15570583002E+03  0.16479417137E+03  0.00000000000E+00 0. -1.
         21    1    1    2  505  501  0.57689154316E+02  0.23583223063E+02 -0.37656248036E+02  0.72816206657E+02  0.00000000000E+00 0. -1.
         21    1    1    2  506  502  0.84547777460E+01 -0.10661805909E+03  0.24028220771E+02  0.10961865345E+03  0.00000000000E+00 0. -1.
<scales pt_clust_3="14000.00000" pt_clust_4="53.97049" pt_clust_5="55.37653" pt_clust_6="96.96465"></scales>
<clustering>
<clus scale="   53.970">  2  4  1 -1</clus>
<clus scale="   55.377">  1  5  2 -1</clus>
<clus scale="   96.965">  1  6  2 -1</clus>
<clus scale="   55.377">  1  3  2 -1</clus>
</clustering>
</event>
<event>
 6    0  0.4227619E+002  0.1555903E+03  0.7546771E-02  0.1193767E+00
         21   -1    0    0  503  501  0.00000000000E+00  0.00000000000E+00  0.86766944781E+02  0.86766944781E+02  0.00000000000E+00 0.  1.
         21   -1    0    0  504  502 -0.00000000000E+00 -0.00000000000E+00 -0.33297591387E+04  0.33297591387E+04  0.00000000000E+00 0.  1.
         21    1    1    2  503  505  0.76341744005E+02 -0.75971240621E+02 -0.60202238663E+02  0.12338557784E+03  0.00000000000E+00 0. -1.
         21    1    1    2  504  506 -0.74086034804E+02  0.11381592228E+03 -0.11175146953E+04  0.11257361587E+04  0.00000000000E+00 0.  1.
         21    1    1    2  505  502 -0.37885119855E+02  0.14055832265E+02 -0.20966683779E+04  0.20970577330E+04  0.00000000000E+00 0.  1.
         21    1    1    2  506  501  0.35629410654E+02 -0.51900513926E+02  0.31393117901E+02  0.70346613997E+02  0.00000000000E+00 0.  1.
<scales pt_clust_3="155.59032" pt_clust_4="14000.00000" pt_clust_5="40.40852" pt_clust_6="62.43260"></scales>
<clustering>
<clus scale="   40.409">  2  5  1 -1</clus>
<clus scale="   62.433">  1  6  2 -1</clus>
<clus scale="  155.590">  1  3  2 -1</clus>
<clus scale="   62.433">  1  3  2 -1</clus>
</clustering>
</event>
<event>
 6    0  0.4227619E+002  0.8748954E+02  0.7546771E-02  0.1309048E+00
         21   -1    0    0  503  501  0.00000000000E+00  0.00000000000E+00  0.19014514719E+04  0.19014514719E+04  0.00000000000E+00 0.  1.
         21   -1    0    0  504  502 -0.00000000000E+00 -0.00000000000E+00 -0.46804987824E+02  0.46804987824E+02  0.00000000000E+00 0.  1.
         21    1    1    2  503  506 -0.12396685450E+02 -0.87484826216E+02  0.15819338874E+04  0.15843996013E+04  0.00000000000E+00 0.  1.
         21    1    1    2  504  501 -0.64390973122E+02  0.69752794404E+02  0.22435814120E+02  0.97544940935E+02  0.00000000000E+00 0.  1.
         21    1    1    2  505  502  0.19143451113E+02  0.26167029465E+02  0.10067498712E+03  0.10576690495E+03  0.00000000000E+00 0.  1.
         21    1    1    2  506  505  0.57644207459E+02 -0.84349976527E+01  0.14960179541E+03  0.16054501247E+03  0.00000000000E+00 0.  1.
<scales pt_clust_3="87.48954" pt_clust_4="14000.00000" pt_clust_5="32.42199" pt_clust_6="60.23573"></scales>
<clustering>
<clus scale="   32.422">  2  5  1 -1</clus>
<clus scale="   60.236">  2  6  1 -1</clus>
<clus scale="   87.490">  1  3  2 -1</clus>
<clus scale="   87.490">  1  3  2 -1</clus>
</clustering>
</event>
<event>
 6    0  0.4227619E+002  0.1495499E+03  0.7546771E-02  0.1201027E+00
         21   -1    0    0  504  501  0.00000000000E+00  0.00000000000E+00  0.51690195561E+03  0.51690195561E+03  0.00000000000E+00 0. -1.
         21   -1    0    0  503  502 -0.00000000000E+00 -0.00000000000E+00 -0.38139782513E+03  0.38139782513E+03  0.00000000000E+00 0. -1.
         21    1    1    2  503  506 -0.83377759337E+02 -0.10465236828E+03 -0.20874368818E+03  0.24794736597E+03  0.00000000000E+00 0. -1.
         21    1    1    2  504  502  0.12079743561E+03  0.16946323865E+03 -0.76392179118E+02  0.22168801216E+03  0.00000000000E+00 0. -1.
         21    1    1    2  505  501 -0.40441808796E+01 -0.37932542362E+02  0.15723940332E+03  0.16180068951E+03  0.00000000000E+00 0. -1.
         21    1    1    2  506  505 -0.33375495389E+02 -0.26878328006E+02  0.26340059446E+03  0.26686371310E+03  0.00000000000E+00 0. -1.
<scales pt_clust_3="14000.00000" pt_clust_4="149.54991" pt_clust_5="32.88051" pt_clust_6="82.55400"></scales>
<clustering>
<clus scale="   32.881">  5  6 -1 -1</clus>
<clus scale="   82.554">  1  5  2 -1</clus>
<clus scale="  149.550">  1  4  2 -1</clus>
<clus scale="   82.554">  1  3  2 -1</clus>
</clustering>
</event>
<event>
 6    0  0.4227619E+002  0.1400204E+03  0.7546771E-02  0.1213302E+00
         21   -1    0    0  503  501  0.00000000000E+00  0.00000000000E+00  0.21707387856E+03  0.21707387856E+03  0.00000000000E+00 0.  1.
         21   -1    0    0  506  502 -0.00000000000E+00 -0.00000000000E+00 -0.13840286895E+04  0.13840286895E+04  0.00000000000E+00 0. -1.
         21    1    1    2  503  505  0.37177069250E+02 -0.58688145620E+02 -0.24104239758E+02  0.73535347206E+02  0.00000000000E+00 0.  1.
         21    1    1    2  504  502  0.61950217979E+02  0.26473196739E+02 -0.75591171657E+03  0.75890788828E+03  0.00000000000E+00 0. -1.
         21    1    1    2  505  504  0.39993295365E+02 -0.12234686546E+03 -0.51069647392E+03  0.52666792919E+03  0.00000000000E+00 0. -1.
         21    1    1    2  506  501 -0.13912058259E+03  0.15456181434E+03  0.12375761933E+03  0.24199140335E+03  0.00000000000E+00 0.  1.
<scales pt_clust_3="70.50364" pt_clust_4="67.36958" pt_clust_5="14000.00000" pt_clust_6="140.02038"></scales>
<clustering>
<clus scale="   67.370">  2  4  1 -1</clus>
<clus scale="   70.504">  1  3  2 -1</clus>
<clus scale="  140.020">  1  6  2 -1</clus>
<clus scale="   70.504">  1  3  2 -1</clus>
</clustering>
</event>
<event>
 6    0  0.4227619E+002  0.1153483E+03  0.7546771E-02  0.1250974E+00
         21   -1    0    0  504  501  0.00000000000E+00  0.00000000000E+00  0.15271593563E+03  0.15271593563E+03  0.00000000000E+00 0. -1.
         21   -1    0    0  503  502 -0.00000000000E+00 -0.00000000000E+00 -0.82949540761E+03  0.82949540761E+03  0.00000000000E+00 0.  1.
         21    1    1    2  503  505  0.41932359936E+02  0.66280785383E+02 -0.58265650268E+03  0.58791161363E+03  0.00000000000E+00 0.  1.
         21    1    1    2  504  502  0.39913604200E+02  0.31385056399E+02 -0.92122496598E+02  0.10518874438E+03  0.00000000000E+00 0. -1.
         21    1    1    2  505  506 -0.14228204713E+03 -0.23042126461E+02 -0.80490329773E+02  0.16508729120E+03  0.00000000000E+00 0. -1.
         21    1    1    2  506  501  0.60436082999E+02 -0.74623715322E+02  0.78489857077E+02  0.12402369403E+03  0.00000000000E+00 0. -1.
<scales pt_clust_3="14000.00000" pt_clust_4="50.77517" pt_clust_5="115.34832" pt_clust_6="96.06296"></scales>
<clustering>
<clus scale="   50.775">  2  4  1 -1</clus>
<clus scale="   96.063">  1  6  2 -1</clus>
<clus scale="  115.348">  1  5  2 -1</clus>
<clus scale="   96.063">  1  3  2 -1</clus>
</clustering>
</event>
<event>
 6    0  0.4227619E+002  0.1020640E+03  0.7546771E-02  0.1276014E+00
         21   -1    0    0  503  501  0.00000000000E+00  0.00000000000E+00  0.67878171570E+03  0.67878171570E+03  0.00000000000E+00 0. -1.
         21   -1    0    0  505  502 -0.00000000000E+00 -0.00000000000E+00 -0.40432990122E+03  0.40432990122E+03  0.00000000000E+00 0. -1.
         21    1    1    2  503  504  0.37156464834E+02 -0.27483822641E+02  0.44037929042E+03  0.44279778998E+03  0.00000000000E+00 0. -1.
         21    1    1    2  504  506  0.47031473342E+02  0.53117807002E+02  0.17981956296E+01  0.70969672487E+02  0.00000000000E+00 0. -1.
         21    1    1    2  505  501 -0.10737031118E+03 -0.67979580601E+02  0.17886166004E+03  0.21941080313E+03  0.00000000000E+00 0. -1.
         21    1    1    2  506  502  0.23182373000E+02  0.42345596240E+02 -0.34658733160E+03  0.34993335132E+03  0.00000000000E+00 0. -1.
<scales pt_clust_3="46.21648" pt_clust_4="14000.00000" pt_clust_5="102.06404" pt_clust_6="48.23289"></scales>
<clustering>
<clus scale="   46.216">  1  3  2 -1</clus>
<clus scale="   48.233">  2  6  1 -1</clus>
<clus scale="  102.064">  1  5  2 -1</clus>
<clus scale="   46.216">  1  3  2 -1</clus>
</clustering>
</event>
<event>
 6    0  0.4227619E+002  0.9110640E+02  0.7546771E-02  0.1300194E+00
         21   -1    0    0  503  501  0.00000000000E+00  0.00000000000E+00  0.38616559288E+03  0.38616559288E+03  0.00000000000E+00 0. -1.
         21   -1    0    0  506  502 -0.00000000000E+00 -0.00000000000E+00 -0.71453251381E+02  0.71453251381E+02  0.00000000000E+00 0.  1.
         21    1    1    2  503  505 -0.51553970651E+02 -0.61528587210E+01  0.12814878939E+03  0.13826706688E+03  0.00000000000E+00 0. -1.
         21    1    1    2  504  502 -0.16736673844E+02 -0.10727810857E+03  0.99067971439E+02  0.14698017484E+03  0.00000000000E+00 0. -1.
         21    1    1    2  505  504  0.56642232501E+02  0.32207968385E+02  0.50124782777E+02  0.82208208705E+02  0.00000000000E+00 0.  1.
         21    1    1    2  506  501  0.11648411994E+02  0.81222998908E+02  0.37370797889E+02  0.90163393838E+02  0.00000000000E+00 0.  1.
<scales pt_clust_3="51.91984" pt_clust_4="14000.00000" pt_clust_5="52.90382" pt_clust_6="91.10640"></scales>
<clustering>
<clus scale="   51.920">  1  3  2 -1</clus>
<clus scale="   52.904">  1  5  2 -1</clus>
<clus scale="   91.106">  2  6  1 -1</clus>
<clus scale="   51.920">  1  3  2 -1</clus>
</clustering>
</event>
<event>
 6    0  0.4227619E+002  0.1413191E+03  0.7546771E-02  0.1211565E+00
         21   -1    0    0  503  501  0.00000000000E+00  0.00000000000E+00  0.15686698029E+04  0.15686698029E+04  0.00000000000E+00 0.  1.
         21   -1    0    0  504  502 -0.00000000000E+00 -0.00000000000E+00 -0.35739401556E+02  0.35739401556E+02  0.00000000000E+00 0.  1.
         21    1    1    2  503  502  0.11265327007E+03 -0.12876134857E+03  0.46577087570E+03  0.49619829987E+03  0.00000000000E+00 0.  1.
         21    1    1    2  504  505 -0.41170635955E+02 -0.20845544419E+01  0.38611718388E+02  0.56482133716E+02  0.00000000000E+00 0.  1.
         21    1    1    2  505  506 -0.47627072649E+02  0.10990925552E+03  0.30786189446E+03  0.33034425764E+03  0.00000000000E+00 0.  1.
         21    1    1    2  506  501 -0.23855561465E+02  0.20936647496E+02  0.72068591277E+03  0.72138451320E+03  0.00000000000E+00 0.  1.
<scales pt_clust_3="14000.00000" pt_clust_4="42.51852" pt_clust_5="141.31913" pt_clust_6="31.74005"></scales>
<clustering>
<clus scale="   31.740">  1  6  2 -1</clus>
<clus scale="   42.519">  2  4  1 -1</clus>
<clus scale="  141.319">  2  5  1 -1</clus>
<clus scale="   31.740">  1  3  2 -1</clus>
</clustering>
</event>
<event>
 6    0  0.4227619E+002  0.6942026E+02  0.7546771E-02  0.1362076E+00
         21   -1    0    0  506  501  0.00000000000E+00  0.00000000000E+00  0.51309408941E+03  0.51309408941E+03  0.00000000000E+00 0.  1.
         21   -1    0    0  505  502 -0.00000000000E+00 -0.00000000000E+00 -0.75288790331E+02  0.75288790331E+02  0.00000000000E+00 0.  1.
         21    1    1    2  503  502  0.91600714112E+02 -0.75911730380E+02  0.26500323336E+03  0.29048234942E+03  0.00000000000E+00 0.  1.
         21    1    1    2  504  501 -0.29750432890E+02 -0.23299011991E+02  0.13357943253E+03  0.13882145732E+03  0.00000000000E+00 0.  1.
         21    1    1    2  505  504 -0.47555282990E+02  0.45173359552E+02 -0.28288791483E+02  0.71431037211E+02  0.00000000000E+00 0.  1.
         21    1    1    2  506  503 -0.14294998233E+02  0.54037382819E+02  0.67511424670E+02  0.87648035787E+02  0.00000000000E+00 0. -1.
<scales pt_clust_3="69.42026" pt_clust_4="37.78799" pt_clust_5="14000.00000" pt_clust_6="53.30718"></scales>
<clustering>
<clus scale="   37.788">  1  4  2 -1</clus>
<clus scale="   53.307">  1  6  2 -1</clus>
<clus scale="   69.420">  1  3  2 -1</clus>
<clus scale="   37.788">  1  3  2 -1</clus>
</clustering>
</event>
<event>
 6    0  0.4227619E+002  0.1320591E+03  0.7546771E-02  0.1224432E+00
         21   -1    0    0  504  501  0.00000000000E+00  0.00000000000E+00  0.46940936318E+03  0.46940936318E+03  0.00000000000E+00 0.  1.
         21   -1    0    0  503  502 -0.00000000000E+00 -0.00000000000E+00 -0.18108157028E+03  0.18108157028E+03  0.00000000000E+00 0. -1.
         21    1    1    2  503  505 -0.14481637338E+03  0.62137415303E+02 -0.89193857017E+02  0.18107563201E+03  0.00000000000E+00 0. -1.
         21    1    1    2  504  506  0.13083829691E+02 -0.27776791696E+02  0.15904828727E+03  0.16198485868E+03  0.00000000000E+00 0.  1.
         21    1    1    2  505  501  0.11412667650E+03 -0.94951940160E+01  0.24279342457E+03  0.26844683648E+03  0.00000000000E+00 0.  1.
         21    1    1    2  506  502  0.17605867188E+02 -0.24865429591E+02 -0.24320061926E+02  0.38983606301E+02  0.00000000000E+00 0. -1.
<scales pt_clust_3="14000.00000" pt_clust_4="30.99881" pt_clust_5="132.05915" pt_clust_6="30.46730"></scales>
<clustering>
<clus scale="   30.467">  2  6  1 -1</clus>
<clus scale="   30.999">  1  4  2 -1</clus>
<clus scale="  132.059">  1  5  2 -1</clus>
<clus scale="   30.999">  1  3  2 -1</clus>
</clustering>
</event>
<event>
 6    0  0.4227619E+002  0.6878223E+02  0.7546771E-02  0.1364284E+00
         21   -1    0    0  503  501  0.00000000000E+00  0.00000000000E+00  0.12966473863E+03  0.12966473863E+03  0.00000000000E+00 0.  1.
         21   -1    0    0  506  502 -0.00000000000E+00 -0.00000000000E+00 -0.24865204508E+03  0.24865204508E+03  0.00000000000E+00 0.  1.
         21    1    1    2  503  504 -0.63392270059E+02  0.46788297277E+02  0.47687784035E+02  0.92096956581E+02  0.00000000000E+00 0.  1.
         21    1    1    2  504  505  0.63233164761E+02 -0.54845405170E+01  0.18388335089E+02  0.66080588509E+02  0.00000000000E+00 0.  1.
         21    1    1    2  505  502 -0.42038813919E+02  0.17679097129E+02 -0.57368535760E+02  0.73286842245E+02  0.00000000000E+00 0.  1.
         21    1    1    2  506  501  0.42197919217E+02 -0.58982853889E+02 -0.12769488980E+03  0.14685239638E+03  0.00000000000E+00 0.  1.
<scales pt_clust_3="68.78223" pt_clust_4="14000.00000" pt_clust_5="45.60496" pt_clust_6="46.98382"></scales>
<clustering>
<clus scale="   45.605">  2  5  1 -1</clus>
<clus scale="   46.984">  2  6  1 -1</clus>
<clus scale="   68.782">  1  3  2 -1</clus>
<clus scale="   68.782">  1  3  2 -1</clus>
</clustering>
</event>
<event>
 6    0  0.4227619E+002  0.2070604E+03  0.7546771E-02  0.1143915E+00
         21   -1    0    0  505  501  0.00000000000E+00  0.00000000000E+00  0.40518688337E+03  0.40518688337E+03  0.00000000000E+00 0. -1.
         21   -1    0    0  503  502 -0.00000000000E+00 -0.00000000000E+00 -0.55208943517E+03  0.55208943517E+03  0.00000000000E+00 0. -1.
         21    1    1    2  503  506  0.41166101648E+02 -0.14904613478E+02 -0.30228947038E+03  0.30544347977E+03  0.00000000000E+00 0. -1.
         21    1    1    2  504  501  0.17991919714E+03 -0.19212354356E+02  0.93683970311E+02  0.20375651733E+03  0.00000000000E+00 0. -1.
         21    1    1    2  505  502 -0.21461794059E+03  0.12062666816E+03  0.17741240076E+03  0.30345809173E+03  0.00000000000E+00 0. -1.
         21    1    1    2  506  504 -0.64673582020E+01 -0.86509700321E+02 -0.11570945249E+03  0.14461822972E+03  0.00000000000E+00 0. -1.
<scales pt_clust_3="43.78122" pt_clust_4="14000.00000" pt_clust_5="207.06045" pt_clust_6="95.52949"></scales>
<clustering>
<clus scale="   43.781">  2  3  1 -1</clus>
<clus scale="   95.529">  2  6  1 -1</clus>
<clus scale="  207.060">  2  5  1 -1</clus>
<clus scale="  207.060">  1  3  2 -1</clus>
</clustering>
</event>
<event>
 6    0  0.4227619E+002  0.7724755E+02  0.7546771E-02  0.1337049E+00
         21   -1    0    0  506  501  0.00000000000E+00  0.00000000000E+00  0.65190609019E+03  0.65190609019E+03  0.00000000000E+00 0. -1.
         21   -1    0    0  504  502 -0.00000000000E+00 -0.00000000000E+00 -0.14207169231E+04  0.14207169231E+04  0.00000000000E+00 0. -1.
         21    1    1    2  503  501  0.13636710605E+02  0.75448649111E+02  0.36461139303E+03  0.37258546195E+03  0.00000000000E+00 0. -1.
         21    1    1    2  504  505  0.37805729881E+02  0.13066049635E+02 -0.13639129106E+04  0.13644993304E+04  0.00000000000E+00 0. -1.
         21    1    1    2  505  503 -0.72099082682E+02 -0.82329362798E+01 -0.17000993808E+02  0.74532494617E+02  0.00000000000E+00 0.  1.
         21    1    1    2  506  502  0.20656642196E+02 -0.80281762467E+02  0.24749167850E+03  0.26100572633E+03  0.00000000000E+00 0. -1.
<scales pt_clust_3="77.24755" pt_clust_4="39.99994" pt_clust_5="41.54758" pt_clust_6="14000.00000"></scales>
<clustering>
<clus scale="   40.000">  2  4  1 -1</clus>
<clus scale="   41.548">  2  5  1 -1</clus>
<clus scale="   77.248">  1  3  2 -1</clus>
<clus scale="   77.248">  1  3  2 -1</clus>
</clustering>
</event>
<event>
 6    0  0.4227619E+002  0.9383026E+02  0.7546771E-02  0.1293833E+00
         21   -1    0    0  505  501  0.00000000000E+00  0.00000000000E+00  0.55657112235E+03  0.55657112235E+03  0.00000000000E+00 0.  1.
         21   -1    0    0  503  502 -0.00000000000E+00 -0.00000000000E+00 -0.40650197958E+03  0.40650197958E+03  0.00000000000E+00 0.  1.
         21    1    1    2  503  504 -0.33531923266E+02 -0.44233520020E+02 -0.29206172655E+03  0.29728949912E+03  0.00000000000E+00 0.  1.
         21    1    1    2  504  501 -0.48920162063E+02  0.10085637697E+03  0.46021413699E+03  0.47366891698E+03  0.00000000000E+00 0.  1.
         21    1    1    2  505  506  0.66849946896E+02 -0.53714729834E+01  0.64909271445E+02  0.93332639744E+02  0.00000000000E+00 0. -1.
         21    1    1    2  506  502  0.15602138432E+02 -0.51251383967E+02 -0.82992539103E+02  0.98782046086E+02  0.00000000000E+00 0. -1.
<scales pt_clust_3="93.83026" pt_clust_4="14000.00000" pt_clust_5="67.98757" pt_clust_6="53.57360"></scales>
<clustering>
<clus scale="   53.574">  2  6  1 -1</clus>
<clus scale="   67.988">  1  5  2 -1</clus>
<clus scale="   93.830">  2  3  1 -1</clus>
<clus scale="   67.988">  1  3  2 -1</clus>
</clustering>
</event>
<event>
 6    0  0.4227619E+002  0.1095823E+03  0.7546771E-02  0.1261345E+00
         21   -1    0    0  503  501  0.00000000000E+00  0.00000000000E+00  0.46528657598E+02  0.46528657598E+02  0.00000000000E+00 0. -1.
         21   -1    0    0  501  502 -0.00000000000E+00 -0.00000000000E+00 -0.17055861445E+04  0.17055861445E+04  0.00000000000E+00 0.  1.
         21    1    1    2  503  506 -0.20658289657E+02  0.21994609055E+02  0.29247666381E+02  0.42023252465E+02  0.00000000000E+00 0. -1.
         21    1    1    2  504  505 -0.84537873937E+02 -0.55912788566E+02 -0.49234257208E+03  0.50266698751E+03  0.00000000000E+00 0. -1.
         21    1    1    2  505  502  0.85706628017E+02  0.77997924876E+02 -0.92210018713E+03  0.92935356968E+03  0.00000000000E+00 0.  1.
         21    1    1    2  506  504  0.19489535577E+02 -0.44079745365E+02 -0.27386239413E+03  0.27807099249E+03  0.00000000000E+00 0.  1.
<scales pt_clust_3="30.17495" pt_clust_4="109.58230" pt_clust_5="14000.00000" pt_clust_6="42.74011"></scales>
<clustering>
<clus scale="   30.175">  1  3  2 -1</clus>
<clus scale="   42.740">  1  6  2 -1</clus>
<clus scale="  109.582">  1  4  2 -1</clus>
<clus scale="   30.175">  1  3  2 -1</clus>
</clustering>
</event>
<event>
 6    0  0.4227619E+002  0.9456388E+02  0.7546771E-02  0.1292161E+00
         21   -1    0    0  506  501  0.00000000000E+00  0.00000000000E+00  0.18075876712E+04  0.18075876712E+04  0.00000000000E+00 0. -1.
         21   -1    0    0  504  502 -0.00000000000E+00 -0.00000000000E+00 -0.56160289660E+02  0.56160289660E+02  0.00000000000E+00 0.  1.
         21    1    1    2  503  501  0.55068870411E+02 -0.38955498384E+02  0.83713223042E+03  0.83984551112E+03  0.00000000000E+00 0. -1.
         21    1    1    2  504  503  0.30378281843E+02 -0.64566965034E+02  0.26160685990E+03  0.27116393958E+03  0.00000000000E+00 0. -1.
         21    1    1    2  505  502  0.32465598536E+02  0.11701240517E+02 -0.34909127300E+02  0.49087486051E+02  0.00000000000E+00 0.  1.
         21    1    1    2  506  505 -0.11791275079E+03  0.91821222901E+02  0.68759741850E+03  0.70365102409E+03  0.00000000000E+00 0. -1.
<scales pt_clust_3="69.39913" pt_clust_4="14000.00000" pt_clust_5="34.50991" pt_clust_6="94.56388"></scales>
<clustering>
<clus scale="   34.510">  2  5  1 -1</clus>
<clus scale="   69.399">  1  3  2 -1</clus>
<clus scale="   94.564">  1  6  2 -1</clus>
<clus scale="   69.399">  1  3  2 -1</clus>
</clustering>
</event>
<event>
 6    0  0.4227619E+002  0.2672577E+03  0.7546771E-02  0.1102859E+00
         21   -1    0    0  505  501  0.00000000000E+00  0.00000000000E+00  0.69438844097E+03  0.69438844097E+03  0.00000000000E+00 0.  1.
         21   -1    0    0  506  502 -0.00000000000E+00 -0.00000000000E+00 -0.42400210999E+03  0.42400210999E+03  0.00000000000E+00 0.  1.
         21    1    1    2  503  501  0.31004709673E+01 -0.29899828528E+02  0.16109659515E+03  0.16387716631E+03  0.00000000000E+00 0.  1.
         21    1    1    2  504  503 -0.11258635753E+03  0.24797445931E+03  0.72749531068E+01  0.27243337776E+03  0.00000000000E+00 0.  1.
         21    1    1    2  505  502 -0.18524825414E+03 -0.13407427659E+03  0.25249715762E+03  0.34065766087E+03  0.00000000000E+00 0.  1.
         21    1    1    2  506  504  0.29473414071E+03 -0.84000354196E+02 -0.15048237491E+03  0.34142234602E+03  0.00000000000E+00 0.  1.
<scales pt_clust_3="30.06015" pt_clust_4="14000.00000" pt_clust_5="237.49464" pt_clust_6="267.25772"></scales>
<clustering>
<clus scale="   30.060">  1  3  2 -1</clus>
<clus scale="  237.495">  1  5  2 -1</clus>
<clus scale="  267.258">  2  6  1 -1</clus>
<clus scale="   30.060">  1  3  2 -1</clus>
</clustering>
</event>
<event>
 6    0  0.4227619E+002  0.8335855E+02  0.7546771E-02  0.1319782E+00
         21   -1    0    0  504  501  0.00000000000E+00  0.00000000000E+00  0.93664554468E+02  0.93664554468E+02  0.00000000000E+00 0.  1.
         21   -1    0    0  503  502 -0.00000000000E+00 -0.00000000000E+00 -0.78549984346E+03  0.78549984346E+03  0.00000000000E+00 0.  1.
         21    1    1    2  503  506  0.71221212583E+02  0.36858282035E+02 -0.38467276442E+03  0.39294290904E+03  0.00000000000E+00 0.  1.
         21    1    1    2  504  505 -0.59327716411E+02 -0.49204430587E+02 -0.35299634163E+02  0.84775692837E+02  0.00000000000E+00 0. -1.
         21    1    1    2  505  502  0.22746335664E+02 -0.45019681625E+02 -0.31678078113E+03  0.32077130610E+03  0.00000000000E+00 0.  1.
         21    1    1    2  506  501 -0.34639831836E+02  0.57365830177E+02  0.44917890729E+02  0.80674489953E+02  0.00000000000E+00 0.  1.
<scales pt_clust_3="83.35855" pt_clust_4="14000.00000" pt_clust_5="50.43974" pt_clust_6="65.08662"></scales>
<clustering>
<clus scale="   50.440">  2  5  1 -1</clus>
<clus scale="   65.087">  1  6  2 -1</clus>
<clus scale="   83.359">  2  3  1 -1</clus>
<clus scale="   65.087">  1  3  2 -1</clus>
</clustering>
</event>
<event>
 6    0  0.4227619E+002  0.9767215E+02  0.7546771E-02  0.1285269E+00
         21   -1    0    0  506  501  0.00000000000E+00  0.00000000000E+00  0.12239170621E+03  0.12239170621E+03  0.00000000000E+00 0.  1.
         21   -1    0    0  505  502 -0.00000000000E+00 -0.00000000000E+00 -0.12978629271E+04  0.12978629271E+04  0.00000000000E+00 0. -1.
         21    1    1    2  503  502  0.57292475429E+02  0.23441170010E+01 -0.14254672616E+03  0.15364729664E+03  0.00000000000E+00 0. -1.
         21    1    1    2  504  501  0.99206203943E+02  0.35765024462E+02 -0.83484778924E+03  0.84148193034E+03  0.00000000000E+00 0. -1.
         21    1    1    2  505  504 -0.60193006383E+02 -0.55307752853E+02 -0.28362343376E+03  0.29516842264E+03  0.00000000000E+00 0. -1.
         21    1    1    2  506  503 -0.96305672988E+02  0.17198611390E+02  0.85546728298E+02  0.12995698368E+03  0.00000000000E+00 0.  1.
<scales pt_clust_3="57.34041" pt_clust_4="14000.00000" pt_clust_5="71.33830" pt_clust_6="97.67215"></scales>
<clustering>
<clus scale="   57.340">  2  3  1 -1</clus>
<clus scale="   71.338">  2  5  1 -1</clus>
<clus scale="   97.672">  1  6  2 -1</clus>
<clus scale="   97.672">  1  3  2 -1</clus>
</clustering>
</event>
<event>
 6    0  0.4227619E+002  0.8584473E+02  0.7546771E-02  0.1313238E+00
         21   -1    0    0  505  501  0.00000000000E+00  0.00000000000E+00  0.69945131042E+03  0.69945131042E+03  0.00000000000E+00 0.  1.
         21   -1    0    0  504  502 -0.00000000000E+00 -0.00000000000E+00 -0.41290760389E+02  0.41290760389E+02  0.00000000000E+00 0. -1.
         21    1    1    2  503  502  0.66958671255E+02 -0.56637529545E+02  0.56306145411E+02  0.10421926607E+03  0.00000000000E+00 0. -1.
         21    1    1    2  504  501 -0.28293815865E+02  0.85970062159E+02  0.22179677181E+03  0.23955208116E+03  0.00000000000E+00 0.  1.
         21    1    1    2  505  506 -0.23163779073E+02  0.28136429003E+02  0.26435282578E+03  0.26685321020E+03  0.00000000000E+00 0.  1.
         21    1    1    2  506  503 -0.15501076317E+02 -0.57468961617E+02  0.11570480703E+03  0.13011751337E+03  0.00000000000E+00 0.  1.
<scales pt_clust_3="85.84473" pt_clust_4="14000.00000" pt_clust_5="36.44474" pt_clust_6="54.19251"></scales>
<clustering>
<clus scale="   36.445">  1  5  2 -1</clus>
<clus scale="   54.193">  1  6  2 -1</clus>
<clus scale="   85.845">  2  3  1 -1</clus>
<clus scale="   36.445">  1  3  2 -1</clus>
</clustering>
</event>
<event>
 6    0  0.4227619E+002  0.1223057E+03  0.7546771E-02  0.1239341E+00
         21   -1    0    0  505  501  0.00000000000E+00  0.00000000000E+00  0.31763526928E+03  0.31763526928E+03  0.00000000000E+00 0.  1.
         21   -1    0    0  501  502 -0.00000000000E+00 -0.00000000000E+00 -0.18732956346E+03  0.18732956346E+03  0.00000000000E+00 0.  1.
         21    1    1    2  503  506 -0.84295279736E+02  0.10881283328E+03  0.70806471090E+02  0.15478851127E+03  0.00000000000E+00 0.  1.
         21    1    1    2  504  502  0.55404284161E+02  0.59272109366E+01 -0.31651736639E+02  0.64082750918E+02  0.00000000000E+00 0.  1.
         21    1    1    2  505  503 -0.17111386894E+02 -0.25435286288E+02  0.16090166570E+03  0.16379590769E+03  0.00000000000E+00 0. -1.
         21    1    1    2  506  504  0.46002382469E+02 -0.89304757932E+02 -0.69750694336E+02  0.12229766287E+03  0.00000000000E+00 0.  1.
<scales pt_clust_3="14000.00000" pt_clust_4="53.71715" pt_clust_5="30.65540" pt_clust_6="122.30567"></scales>
<clustering>
<clus scale="   30.655">  1  5  2 -1</clus>
<clus scale="   53.717">  2  4  1 -1</clus>
<clus scale="  122.306">  2  6  1 -1</clus>
<clus scale="   30.655">  1  3  2 -1</clus>
</clustering>
</event>
<event>
 6    0  0.4227619E+002  0.1013613E+03  0.7546771E-02  0.1277459E+00
         21   -1    0    0  504  501  0.00000000000E+00  0.00000000000E+00  0.43297764413E+03  0.43297764413E+03  0.00000000000E+00 0. -1.
         21   -1    0    0  503  502 -0.00000000000E+00 -0.00000000000E+00 -0.87435705167E+02  0.87435705167E+02  0.00000000000E+00 0. -1.
         21    1    1    2  503  506 -0.19246573417E+01 -0.50356627173E+02 -0.17393106661E+02  0.53310546475E+02  0.00000000000E+00 0. -1.
         21    1    1    2  504  502  0.82179282338E+02  0.77624460592E+02  0.80681286774E+02  0.13888290522E+03  0.00000000000E+00 0. -1.
         21    1    1    2  505  501  0.31982823835E+02 -0.20288837712E+02  0.14957443701E+03  0.15429533423E+03  0.00000000000E+00 0. -1.
         21    1    1    2  506  505 -0.11223744883E+03 -0.69789957064E+01  0.13267932184E+03  0.17392456338E+03  0.00000000000E+00 0. -1.
<scales pt_clust_3="51.65323" pt_clust_4="101.36127" pt_clust_5="37.87529" pt_clust_6="14000.00000"></scales>
<clustering>
<clus scale="   37.875">  1  5  2 -1</clus>
<clus scale="   51.653">  2  3  1 -1</clus>
<clus scale="  101.361">  2  4  1 -1</clus>
<clus scale="   37.875">  1  3  2 -1</clus>
</clustering>
</event>
<event>
 6    0  0.4227619E+002  0.1083279E+03  0.7546771E-02  0.1263698E+00
         21   -1    0    0  506  501  0.00000000000E+00  0.00000000000E+00  0.70060725390E+03  0.70060725390E+03  0.00000000000E+00 0. -1.
         21   -1    0    0  504  502 -0.00000000000E+00 -0.00000000000E+00 -0.12227741441E+03  0.12227741441E+03  0.00000000000E+00 0. -1.
         21    1    1    2  503  501  0.21563143088E+02  0.35472946247E+02  0.13552782139E+03  0.14174304013E+03  0.00000000000E+00 0. -1.
         21    1    1    2  504  503 -0.11099195633E+03  0.56918817399E+02  0.17145817512E+03  0.21203035623E+03  0.00000000000E+00 0. -1.
         21    1    1    2  505  502  0.10787039233E+03  0.77630933550E+01 -0.59160346926E+02  0.12327300519E+03  0.00000000000E+00 0. -1.
         21    1    1    2  506  505 -0.18441579085E+02 -0.10015485700E+03  0.33050418990E+03  0.34583826677E+03  0.00000000000E+00 0. -1.
<scales pt_clust_3="41.51264" pt_clust_4="14000.00000" pt_clust_5="108.32792" pt_clust_6="78.99803"></scales>
<clustering>
<clus scale="   41.513">  1  3  2 -1</clus>
<clus scale="   78.998">  1  6  2 -1</clus>
<clus scale="  108.328">  2  5  1 -1</clus>
<clus scale="   41.513">  1  3  2 -1</clus>
</clustering>
</event>
<event>
 6    0  0.4227619E+002  0.9472849E+02  0.7546771E-02  0.1291789E+00
         21   -1    0    0  504  501  0.00000000000E+00  0.00000000000E+00  0.25040262703E+03  0.25040262703E+03  0.00000000000E+00 0.  1.
         21   -1    0    0  505  502 -0.00000000000E+00 -0.00000000000E+00 -0.50075211326E+03  0.50075211326E+03  0.00000000000E+00 0.  1.
         21    1    1    2  503  502 -0.16316419714E+02  0.78666289969E+02 -0.19754971106E+02  0.82733727180E+02  0.00000000000E+00 0.  1.
         21    1    1    2  504  503 -0.19254003148E+02  0.67059914454E+02  0.10898898269E+03  0.12940767795E+03  0.00000000000E+00 0.  1.
         21    1    1    2  505  506  0.29373658858E+02 -0.92757033195E+02 -0.42627143000E+03  0.43723450353E+03  0.00000000000E+00 0.  1.
         21    1    1    2  506  501  0.61967640037E+01 -0.52969171227E+02  0.86687932174E+02  0.10177883164E+03  0.00000000000E+00 0.  1.
<scales pt_clust_3="14000.00000" pt_clust_4="30.33373" pt_clust_5="94.72849" pt_clust_6="53.33041"></scales>
<clustering>
<clus scale="   53.330">  1  6  2 -1</clus>
<clus scale="   30.334">  1  4  2 -1</clus>
<clus scale="   94.728">  2  5  1 -1</clus>
<clus scale="   53.330">  1  3  2 -1</clus>
</clustering>
</event>
<event>
 6    0  0.4227619E+002  0.1505582E+03  0.7546771E-02  0.1199789E+00
         21   -1    0    0  504  501  0.00000000000E+00  0.00000000000E+00  0.20578794641E+04  0.20578794641E+04  0.00000000000E+00 0.  1.
         21   -1    0    0  506  502 -0.00000000000E+00 -0.00000000000E+00 -0.27111723874E+03  0.27111723874E+03  0.00000000000E+00 0.  1.
         21    1    1    2  503  502  0.29358466854E+02 -0.14218969228E+02 -0.23856019312E+03  0.24078011630E+03  0.00000000000E+00 0.  1.
         21    1    1    2  504  505 -0.51766118939E+02 -0.24262997768E+02  0.12135686357E+04  0.12149145064E+04  0.00000000000E+00 0.  1.
         21    1    1    2  505  503  0.13373296134E+03 -0.40784022643E+02  0.18537858210E+03  0.23219186066E+03  0.00000000000E+00 0.  1.
         21    1    1    2  506  501 -0.11132530926E+03  0.79265989639E+02  0.62637520066E+03  0.64111021954E+03  0.00000000000E+00 0.  1.
<scales pt_clust_3="32.62053" pt_clust_4="56.73300" pt_clust_5="150.55822" pt_clust_6="14000.00000"></scales>
<clustering>
<clus scale="   32.621">  2  3  1 -1</clus>
<clus scale="   56.733">  1  4  2 -1</clus>
<clus scale="  150.558">  2  5  1 -1</clus>
<clus scale="   56.733">  1  3  2 -1</clus>
</clustering>
</event>
<event>
 6    0  0.4227619E+002  0.1070755E+03  0.7546771E-02  0.1266083E+00
         21   -1    0    0  505  501  0.00000000000E+00  0.00000000000E+00  0.23218511730E+03  0.23218511730E+03  0.00000000000E+00 0.  1.
         21   -1    0    0  504  502 -0.00000000000E+00 -0.00000000000E+00 -0.10390273077E+03  0.10390273077E+03  0.00000000000E+00 0.  1.
         21    1    1    2  503  501  0.38459164283E+02 -0.35797889358E+02  0.62185098422E+02  0.81409966623E+02  0.00000000000E+00 0.  1.
         21    1    1    2  504  503  0.84586441980E+02  0.38738743583E+02 -0.24203052007E+02  0.96131910143E+02  0.00000000000E+00 0.  1.
         21    1    1    2  505  506 -0.73083291416E+02 -0.16233681388E+02  0.71530580136E+02  0.10354382546E+03  0.00000000000E+00 0.  1.
         21    1    1    2  506  502 -0.49962314847E+02  0.13292827163E+02  0.18769759979E+02  0.55002145854E+02  0.00000000000E+00 0.  1.
<scales pt_clust_3="52.54138" pt_clust_4="98.13952" pt_clust_5="35.58650" pt_clust_6="35.58650"></scales>
<clustering>
<clus scale="   35.587">  5  6 -1 -1</clus>
<clus scale="   52.541">  1  3  2 -1</clus>
<clus scale="   98.140">  2  4  1 -1</clus>
<clus scale="   52.541">  1  3  2 -1</clus>
</clustering>
</event>
<event>
 6    0  0.4227619E+002  0.7433000E+02  0.7546771E-02  0.1345958E+00
         21   -1    0    0  504  501  0.00000000000E+00  0.00000000000E+00  0.66367062809E+03  0.66367062809E+03  0.00000000000E+00 0. -1.
         21   -1    0    0  506  502 -0.00000000000E+00 -0.00000000000E+00 -0.21233363755E+03  0.21233363755E+03  0.00000000000E+00 0. -1.
         21    1    1    2  503  505 -0.87250172168E+02  0.15449560319E+02  0.11311327645E+03  0.14368679399E+03  0.00000000000E+00 0. -1.
         21    1    1    2  504  503  0.23454278889E+02 -0.20754227847E+02  0.47177160966E+03  0.47280999656E+03  0.00000000000E+00 0. -1.
         21    1    1    2  505  502 -0.15940496660E+02 -0.69253237407E+02 -0.13248205049E+03  0.15033829860E+03  0.00000000000E+00 0. -1.
         21    1    1    2  506  501  0.79736389940E+02  0.74557904936E+02 -0.10658450868E+01  0.10916917649E+03  0.00000000000E+00 0. -1.
<scales pt_clust_3="71.53055" pt_clust_4="31.31838" pt_clust_5="74.33000" pt_clust_6="14000.00000"></scales>
<clustering>
<clus scale="   31.318">  1  4  2 -1</clus>
<clus scale="   71.531">  1  3  2 -1</clus>
<clus scale="   74.330">  2  5  1 -1</clus>
<clus scale="   31.318">  1  3  2 -1</clus>
</clustering>
</event>
<event>
 6    0  0.4227619E+002  0.1086218E+03  0.7546771E-02  0.1263144E+00
         21   -1    0    0  503  501  0.00000000000E+00  0.00000000000E+00  0.14610129322E+04  0.14610129322E+04  0.00000000000E+00 0.  1.
         21   -1    0    0  505  502 -0.00000000000E+00 -0.00000000000E+00 -0.17993855907E+02  0.17993855907E+02  0.00000000000E+00 0.  1.
         21    1    1    2  503  506 -0.29519856433E+02 -0.49335192792E+02  0.27806160905E+03  0.28394302527E+03  0.00000000000E+00 0. -1.
         21    1    1    2  504  501  0.51195869137E+01  0.63821678639E+02  0.53358653519E+03  0.53741418605E+03  0.00000000000E+00 0.  1.
         21    1    1    2  505  504 -0.25502499091E+02  0.67221093458E+02  0.41301717085E+03  0.41922814348E+03  0.00000000000E+00 0.  1.
         21    1    1    2  506  502  0.49902768610E+02 -0.81707579305E+02  0.21835376123E+03  0.23842143334E+03  0.00000000000E+00 0.  1.
<scales pt_clust_3="57.49246" pt_clust_4="36.77109" pt_clust_5="36.77109" pt_clust_6="101.39230"></scales>
<clustering>
<clus scale="   36.771">  4  5 -1 -1</clus>
<clus scale="   57.492">  1  3  2 -1</clus>
<clus scale="  101.392">  2  6  1 -1</clus>
<clus scale="   57.492">  1  3  2 -1</clus>
</clustering>
</event>
<event>
 6    0  0.4227619E+002  0.1025531E+03  0.7546771E-02  0.1275017E+00
         21   -1    0    0  503  501  0.00000000000E+00  0.00000000000E+00  0.22709277507E+03  0.22709277507E+03  0.00000000000E+00 0. -1.
         21   -1    0    0  506  502 -0.00000000000E+00 -0.00000000000E+00 -0.10511199844E+04  0.10511199844E+04  0.00000000000E+00 0.  1.
         21    1    1    2  503  504 -0.27310229673E+02  0.35425541462E+02  0.14376348072E+03  0.15056146924E+03  0.00000000000E+00 0. -1.
         21    1    1    2  504  502 -0.67962070195E+02  0.19365234757E+02  0.56614439289E+02  0.90548605944E+02  0.00000000000E+00 0. -1.
         21    1    1    2  505  501  0.49020358516E+02 -0.70660219600E+02 -0.33147380831E+03  0.34244816802E+03  0.00000000000E+00 0.  1.
         21    1    1    2  506  505  0.46251941353E+02  0.15869443381E+02 -0.69293132103E+03  0.69465451627E+03  0.00000000000E+00 0.  1.
<scales pt_clust_3="44.73050" pt_clust_4="14000.00000" pt_clust_5="102.55306" pt_clust_6="48.74630"></scales>
<clustering>
<clus scale="   44.731">  1  3  2 -1</clus>
<clus scale="   48.746">  2  6  1 -1</clus>
<clus scale="  102.553">  2  5  1 -1</clus>
<clus scale="   44.731">  1  3  2 -1</clus>
</clustering>
</event>
<event>
 6    0  0.4227619E+002  0.1485545E+03  0.7546771E-02  0.1202261E+00
         21   -1    0    0  505  501  0.00000000000E+00  0.00000000000E+00  0.55283404119E+02  0.55283404119E+02  0.00000000000E+00 0.  1.
         21   -1    0    0  503  502 -0.00000000000E+00 -0.00000000000E+00 -0.15378508127E+04  0.15378508127E+04  0.00000000000E+00 0.  1.
         21    1    1    2  503  506  0.26860213330E+02 -0.49618828255E+02 -0.58895636912E+03  0.59165285760E+03  0.00000000000E+00 0.  1.
         21    1    1    2  504  501 -0.42740294143E+02  0.11242157424E+03 -0.73714917094E+02  0.14106463802E+03  0.00000000000E+00 0.  1.
         21    1    1    2  505  502  0.18147055549E+02  0.31592408251E+02 -0.13665653626E+01  0.36459064512E+02  0.00000000000E+00 0.  1.
         21    1    1    2  506  504 -0.22669747366E+01 -0.94395154238E+02 -0.81852955698E+03  0.82395765665E+03  0.00000000000E+00 0.  1.
<scales pt_clust_3="30.83979" pt_clust_4="143.09712" pt_clust_5="36.43344" pt_clust_6="30.83979"></scales>
<clustering>
<clus scale="   30.840">  3  6 -1 -1</clus>
<clus scale="   36.433">  1  5  2 -1</clus>
<clus scale="  143.097">  1  4  2 -1</clus>
<clus scale="   36.433">  1  3  2 -1</clus>
</clustering>
</event>
<event>
 6    0  0.4227619E+002  0.6097139E+02  0.7546771E-02  0.1393800E+00
         21   -1    0    0  504  501  0.00000000000E+00  0.00000000000E+00  0.14386785989E+03  0.14386785989E+03  0.00000000000E+00 0. -1.
         21   -1    0    0  505  502 -0.00000000000E+00 -0.00000000000E+00 -0.27577663237E+03  0.27577663237E+03  0.00000000000E+00 0.  1.
         21    1    1    2  503  501 -0.42809511520E+02 -0.13040095860E+02  0.62239248033E+02  0.76657826556E+02  0.00000000000E+00 0. -1.
         21    1    1    2  504  502  0.80626300277E+02 -0.52287178537E+02 -0.11726390555E+03  0.15160927703E+03  0.00000000000E+00 0.  1.
         21    1    1    2  505  506 -0.51156871098E+02  0.12852960961E+01 -0.10756961664E+03  0.11912136613E+03  0.00000000000E+00 0.  1.
         21    1    1    2  506  503  0.13340082341E+02  0.64041978301E+02  0.30685501674E+02  0.72256022549E+02  0.00000000000E+00 0. -1.
<scales pt_clust_3="44.75152" pt_clust_4="60.97139" pt_clust_5="54.48011" pt_clust_6="14000.00000"></scales>
<clustering>
<clus scale="   44.752">  1  3  2 -1</clus>
<clus scale="   54.480">  2  5  1 -1</clus>
<clus scale="   60.971">  2  4  1 -1</clus>
<clus scale="   44.752">  1  3  2 -1</clus>
</clustering>
</event>
<event>
 6    0  0.4227619E+002  0.1013314E+03  0.7546771E-02  0.1277521E+00
         21   -1    0    0  504  501  0.00000000000E+00  0.00000000000E+00  0.14709793622E+04  0.14709793622E+04  0.00000000000E+00 0.  1.
         21   -1    0    0  503  502 -0.00000000000E+00 -0.00000000000E+00 -0.71220166109E+02  0.71220166109E+02  0.00000000000E+00 0.  1.
         21    1    1    2  503  506 -0.72860976206E+02 -0.91772522581E+02  0.10949063926E+02  0.11768942075E+03  0.00000000000E+00 0.  1.
         21    1    1    2  504  505  0.29436405612E+02  0.35544941963E+02  0.11826553521E+04  0.11835555021E+04  0.00000000000E+00 0.  1.
         21    1    1    2  505  502  0.20061935028E+02  0.77717558188E+02  0.90237927586E+02  0.12076996176E+03  0.00000000000E+00 0.  1.
         21    1    1    2  506  501  0.23362635566E+02 -0.21489977571E+02  0.11591685250E+03  0.12018464365E+03  0.00000000000E+00 0.  1.
<scales pt_clust_3="101.33143" pt_clust_4="52.60525" pt_clust_5="14000.00000" pt_clust_6="31.74322"></scales>
<clustering>
<clus scale="   31.743">  1  6  2 -1</clus>
<clus scale="   52.605">  1  4  2 -1</clus>
<clus scale="  101.331">  2  3  1 -1</clus>
<clus scale="   31.743">  1  3  2 -1</clus>
</clustering>
</event>
<event>
 6    0  0.4227619E+002  0.1662617E+03  0.7546771E-02  0.1181803E+00
         21   -1    0    0  503  501  0.00000000000E+00  0.00000000000E+00  0.55833429500E+03  0.55833429500E+03  0.00000000000E+00 0. -1.
         21   -1    0    0  506  502 -0.00000000000E+00 -0.00000000000E+00 -0.17274615880E+03  0.17274615880E+03  0.00000000000E+00 0.  1.
         21    1    1    2  503  502  0.69909880765E+02 -0.79146304041E+02 -0.32222692398E+02  0.11040756667E+03  0.00000000000E+00 0.  1.
         21    1    1    2  504  505 -0.16255401725E+02  0.38315282074E+02 -0.53555093546E+01  0.41964037056E+02  0.00000000000E+00 0. -1.
         21    1    1    2  505  501 -0.11957144027E+03 -0.92814125209E+02  0.40028107512E+03  0.42794477479E+03  0.00000000000E+00 0. -1.
         21    1    1    2  506  504  0.65916961228E+02  0.13364514718E+03  0.22885262833E+02  0.15076407528E+03  0.00000000000E+00 0.  1.
<scales pt_clust_3="105.60080" pt_clust_4="36.61561" pt_clust_5="151.13833" pt_clust_6="36.61561"></scales>
<clustering>
<clus scale="   36.616">  4  6 -1 -1</clus>
<clus scale="  105.601">  2  3  1 -1</clus>
<clus scale="  151.138">  1  5  2 -1</clus>
<clus scale="  151.138">  1  3  2 -1</clus>
</clustering>
</event>
<event>
 6    0  0.4227619E+002  0.1032588E+03  0.7546771E-02  0.1273589E+00
         21   -1    0    0  504  501  0.00000000000E+00  0.00000000000E+00  0.79862996354E+03  0.79862996354E+03  0.00000000000E+00 0.  1.
         21   -1    0    0  503  502 -0.00000000000E+00 -0.00000000000E+00 -0.22951517397E+03  0.22951517397E+03  0.00000000000E+00 0. -1.
         21    1    1    2  503  506 -0.41940544457E+02  0.11956552777E+03  0.31195037697E+03  0.33670159250E+03  0.00000000000E+00 0.  1.
         21    1    1    2  504  505  0.21428364635E+02 -0.30362065901E+02  0.20414522553E+03  0.20750012762E+03  0.00000000000E+00 0.  1.
         21    1    1    2  505  502  0.52172067927E+02 -0.88184981516E+02 -0.20224618868E+03  0.22672017218E+03  0.00000000000E+00 0. -1.
         21    1    1    2  506  501 -0.31659888105E+02 -0.10184803537E+01  0.25526537575E+03  0.25722324520E+03  0.00000000000E+00 0.  1.
<scales pt_clust_3="14000.00000" pt_clust_4="32.15743" pt_clust_5="103.25875" pt_clust_6="31.67627"></scales>
<clustering>
<clus scale="   31.676">  1  6  2 -1</clus>
<clus scale="   32.157">  1  4  2 -1</clus>
<clus scale="  103.259">  2  5  1 -1</clus>
<clus scale="   31.676">  1  3  2 -1</clus>
</clustering>
</event>
<event>
 6    0  0.4227619E+002  0.1414929E+03  0.7546771E-02  0.1211334E+00
         21   -1    0    0  505  501  0.00000000000E+00  0.00000000000E+00  0.15370784370E+04  0.15370784370E+04  0.00000000000E+00 0.  1.
         21   -1    0    0  506  502 -0.00000000000E+00 -0.00000000000E+00 -0.32226141840E+03  0.32226141840E+03  0.00000000000E+00 0.  1.
         21    1    1    2  503  502  0.27030865848E+02 -0.25496651492E+02 -0.22811985348E+03  0.23112640372E+03  0.00000000000E+00 0.  1.
         21    1    1    2  504  503  0.11946472061E+03 -0.18657604020E+02  0.74698296671E+03  0.75670567476E+03  0.00000000000E+00 0.  1.
         21    1    1    2  505  504  0.10085865331E+02 -0.37782866823E+02  0.69366735138E+03  0.69476878461E+03  0.00000000000E+00 0.  1.
         21    1    1    2  506  501 -0.15658145179E+03  0.81937122334E+02  0.22865539751E+01  0.17673899228E+03  0.00000000000E+00 0.  1.
<scales pt_clust_3="37.15840" pt_clust_4="14000.00000" pt_clust_5="39.29394" pt_clust_6="141.49286"></scales>
<clustering>
<clus scale="   37.158">  2  3  1 -1</clus>
<clus scale="   39.294">  1  5  2 -1</clus>
<clus scale="  141.493">  2  6  1 -1</clus>
<clus scale="   39.294">  1  3  2 -1</clus>
</clustering>
</event>
<event>
 6    0  0.4227619E+002  0.9226776E+02  0.7546771E-02  0.1297451E+00
         21   -1    0    0  503  501  0.00000000000E+00  0.00000000000E+00  0.10950501103E+03  0.10950501103E+03  0.00000000000E+00 0.  1.
         21   -1    0    0  504  502 -0.00000000000E+00 -0.00000000000E+00 -0.28915256096E+03  0.28915256096E+03  0.00000000000E+00 0. -1.
         21    1    1    2  503  506 -0.16035435342E+02  0.83466602597E+02  0.45917208914E+02  0.96603307449E+02  0.00000000000E+00 0.  1.
         21    1    1    2  504  505  0.28219637681E+02 -0.13483410982E+02 -0.46953108643E+02  0.56415819890E+02  0.00000000000E+00 0. -1.
         21    1    1    2  505  501  0.39618234288E+02  0.10840919297E+02  0.19732932909E+01  0.41122061058E+02  0.00000000000E+00 0. -1.
         21    1    1    2  506  502 -0.51802436627E+02 -0.80824110911E+02 -0.18058494349E+03  0.20451638360E+03  0.00000000000E+00 0. -1.
<scales pt_clust_3="14000.00000" pt_clust_4="31.27539" pt_clust_5="43.05802" pt_clust_6="92.26776"></scales>
<clustering>
<clus scale="   31.275">  2  4  1 -1</clus>
<clus scale="   43.058">  1  5  2 -1</clus>
<clus scale="   92.268">  2  6  1 -1</clus>
<clus scale="   43.058">  1  3  2 -1</clus>
</clustering>
</event>
<event>
 6    0  0.4227619E+002  0.8315253E+02  0.7546771E-02  0.1320336E+00
         21   -1    0    0  506  501  0.00000000000E+00  0.00000000000E+00  0.38004075130E+03  0.38004075130E+03  0.00000000000E+00 0.  1.
         21   -1    0    0  503  502 -0.00000000000E+00 -0.00000000000E+00 -0.16943872127E+03  0.16943872127E+03  0.00000000000E+00 0. -1.
         21    1    1    2  503  504 -0.58215658664E+02 -0.35872031549E+02 -0.29253178209E+02  0.74374820985E+02  0.00000000000E+00 0.  1.
         21    1    1    2  504  501  0.22567245289E+02  0.12864680020E+03  0.18803377585E+03  0.22894536602E+03  0.00000000000E+00 0.  1.
         21    1    1    2  505  502  0.20801523700E+02 -0.39891047172E+02 -0.86406818769E+02  0.97417336047E+02  0.00000000000E+00 0. -1.
         21    1    1    2  506  505  0.14846889675E+02 -0.52883721480E+02  0.13822825116E+03  0.14874194953E+03  0.00000000000E+00 0.  1.
<scales pt_clust_3="14000.00000" pt_clust_4="83.15253" pt_clust_5="44.98888" pt_clust_6="57.91715"></scales>
<clustering>
<clus scale="   44.989">  2  5  1 -1</clus>
<clus scale="   57.917">  1  6  2 -1</clus>
<clus scale="   83.153">  1  4  2 -1</clus>
<clus scale="   57.917">  1  3  2 -1</clus>
</clustering>
</event>
<event>
 6    0  0.4227619E+002  0.6873686E+02  0.7546771E-02  0.1364442E+00
         21   -1    0    0  506  501  0.00000000000E+00  0.00000000000E+00  0.35573465135E+03  0.35573465135E+03  0.00000000000E+00 0. -1.
         21   -1    0    0  505  502 -0.00000000000E+00 -0.00000000000E+00 -0.11944378460E+03  0.11944378460E+03  0.00000000000E+00 0.  1.
         21    1    1    2  503  501 -0.37663933295E+02  0.93343390940E+02  0.36179525554E+02  0.10696035982E+03  0.00000000000E+00 0.  1.
         21    1    1    2  504  502  0.62884856218E+02 -0.42915617639E+02 -0.32937353654E+02  0.82952544534E+02  0.00000000000E+00 0.  1.
         21    1    1    2  505  503 -0.28903179472E+02  0.85051420528E+01 -0.12572379562E+02  0.32646530486E+02  0.00000000000E+00 0.  1.
         21    1    1    2  506  504  0.36822565494E+01 -0.58932915353E+02  0.24562107441E+03  0.25261900111E+03  0.00000000000E+00 0. -1.
<scales pt_clust_3="68.73686" pt_clust_4="14000.00000" pt_clust_5="30.12858" pt_clust_6="58.68491"></scales>
<clustering>
<clus scale="   30.129">  2  5  1 -1</clus>
<clus scale="   58.685">  1  6  2 -1</clus>
<clus scale="   68.737">  1  3  2 -1</clus>
<clus scale="   58.685">  1  3  2 -1</clus>
</clustering>
</event>
<event>
 6    0  0.4227619E+002  0.8582263E+02  0.7546771E-02  0.1313295E+00
         21   -1    0    0  503  501  0.00000000000E+00  0.00000000000E+00  0.10851819446E+03  0.10851819446E+03  0.00000000000E+00 0. -1.
         21   -1    0    0  505  502 -0.00000000000E+00 -0.00000000000E+00 -0.21839166952E+03  0.21839166952E+03  0.00000000000E+00 0.  1.
         21    1    1    2  503  504  0.80350404343E+02 -0.30790902837E+01  0.40977946271E+01  0.80513726754E+02  0.00000000000E+00 0.  1.
         21    1    1    2  504  502  0.20317503997E+02 -0.40248550402E+02 -0.63435964302E+01  0.45530077902E+02  0.00000000000E+00 0.  1.
         21    1    1    2  505  506 -0.83547900688E+01  0.32608685127E+02 -0.10239422797E+03  0.10778546648E+03  0.00000000000E+00 0.  1.
         21    1    1    2  506  501 -0.92313118272E+02  0.10718955558E+02 -0.52334452859E+01  0.93080592837E+02  0.00000000000E+00 0. -1.
<scales pt_clust_3="85.82263" pt_clust_4="37.59683" pt_clust_5="33.66198" pt_clust_6="14000.00000"></scales>
<clustering>
<clus scale="   33.662">  2  5  1 -1</clus>
<clus scale="   37.597">  2  4  1 -1</clus>
<clus scale="   85.823">  1  3  2 -1</clus>
<clus scale="   85.823">  1  3  2 -1</clus>
</clustering>
</event>
<event>
 6    0  0.4227619E+002  0.1228745E+03  0.7546771E-02  0.1238429E+00
         21   -1    0    0  506  501  0.00000000000E+00  0.00000000000E+00  0.18007502215E+03  0.18007502215E+03  0.00000000000E+00 0.  1.
         21   -1    0    0  504  502 -0.00000000000E+00 -0.00000000000E+00 -0.14144342127E+04  0.14144342127E+04  0.00000000000E+00 0. -1.
         21    1    1    2  503  501  0.16841266683E+02 -0.30645226051E+02  0.11152145000E+02  0.36703248920E+02  0.00000000000E+00 0.  1.
         21    1    1    2  504  505  0.19582080838E+02  0.16398434024E+03 -0.99289490337E+03  0.10065359461E+04  0.00000000000E+00 0. -1.
         21    1    1    2  505  503 -0.76497163876E+02 -0.76801802516E+02  0.12608733894E+03  0.16627792996E+03  0.00000000000E+00 0.  1.
         21    1    1    2  506  502  0.40073816354E+02 -0.56537311672E+02 -0.37870377111E+03  0.38499210982E+03  0.00000000000E+00 0. -1.
<scales pt_clust_3="34.96796" pt_clust_4="122.87455" pt_clust_5="14000.00000" pt_clust_6="69.99877"></scales>
<clustering>
<clus scale="   34.968">  1  3  2 -1</clus>
<clus scale="   69.999">  2  6  1 -1</clus>
<clus scale="  122.875">  2  4  1 -1</clus>
<clus scale="   34.968">  1  3  2 -1</clus>
</clustering>
</event>
<event>
 6    0  0.4227619E+002  0.1132752E+03  0.7546771E-02  0.1254622E+00
         21   -1    0    0  503  501  0.00000000000E+00  0.00000000000E+00  0.11873298241E+04  0.11873298241E+04  0.00000000000E+00 0. -1.
         21   -1    0    0  504  502 -0.00000000000E+00 -0.00000000000E+00 -0.23731018030E+03  0.23731018030E+03  0.00000000000E+00 0. -1.
         21    1    1    2  503  505 -0.11855601933E+03  0.77565853345E+02  0.29402567540E+03  0.32637875102E+03  0.00000000000E+00 0. -1.
         21    1    1    2  504  501 -0.49214736073E+01 -0.73030638263E+02  0.82001241044E+03  0.82327276665E+03  0.00000000000E+00 0. -1.
         21    1    1    2  505  506  0.89481948735E+02  0.45650273772E+01  0.16471331153E+02  0.91099744096E+02  0.00000000000E+00 0. -1.
         21    1    1    2  506  502  0.33995544202E+02 -0.91002424597E+01 -0.18048977320E+03  0.18388874263E+03  0.00000000000E+00 0. -1.
<scales pt_clust_3="14000.00000" pt_clust_4="73.40431" pt_clust_5="113.27520" pt_clust_6="35.19249"></scales>
<clustering>
<clus scale="   35.192">  2  6  1 -1</clus>
<clus scale="   73.404">  1  4  2 -1</clus>
<clus scale="  113.275">  2  5  1 -1</clus>
<clus scale="   73.404">  1  3  2 -1</clus>
</clustering>
</event>
<event>
 6    0  0.4227619E+002  0.1149692E+03  0.7546771E-02  0.1251635E+00
         21   -1    0    0  506  501  0.00000000000E+00  0.00000000000E+00  0.41396226048E+03  0.41396226048E+03  0.00000000000E+00 0.  1.
         21   -1    0    0  505  502 -0.00000000000E+00 -0.00000000000E+00 -0.30127415389E+03  0.30127415389E+03  0.00000000000E+00 0.  1.
         21    1    1    2  503  501  0.29956869577E+02 -0.63650768453E+01  0.33472955184E+03  0.33612765598E+03  0.00000000000E+00 0.  1.
         21    1    1    2  504  502  0.32332180527E+02 -0.97596784653E+02 -0.47919308180E+00  0.10281406469E+03  0.00000000000E+00 0.  1.
         21    1    1    2  505  503 -0.90437456546E+02  0.82665564619E+02 -0.20112662330E+03  0.23550891219E+03  0.00000000000E+00 0.  1.
         21    1    1    2  506  504  0.28148406442E+02  0.21296296879E+02 -0.20435628879E+02  0.40785781513E+02  0.00000000000E+00 0. -1.
<scales pt_clust_3="30.62561" pt_clust_4="114.96921" pt_clust_5="14000.00000" pt_clust_6="38.01302"></scales>
<clustering>
<clus scale="   30.626">  1  3  2 -1</clus>
<clus scale="   38.013">  1  6  2 -1</clus>
<clus scale="  114.969">  1  4  2 -1</clus>
<clus scale="   30.626">  1  3  2 -1</clus>
</clustering>
</event>
<event>
 6    0  0.4227619E+002  0.2423255E+03  0.7546771E-02  0.1118253E+00
         21   -1    0    0  503  501  0.00000000000E+00  0.00000000000E+00  0.89727135752E+03  0.89727135752E+03  0.00000000000E+00 0. -1.
         21   -1    0    0  506  502 -0.00000000000E+00 -0.00000000000E+00 -0.61120429068E+03  0.61120429068E+03  0.00000000000E+00 0. -1.
         21    1    1    2  503  505  0.68648960859E+01  0.37383893032E+02  0.23476277068E+03  0.23781976527E+03  0.00000000000E+00 0. -1.
         21    1    1    2  504  501  0.72172154463E+02 -0.12237015826E+02  0.49878634622E+03  0.50412933223E+03  0.00000000000E+00 0. -1.
         21    1    1    2  505  502  0.12745249594E+03  0.19118256497E+03 -0.40338298350E+03  0.46423350078E+03  0.00000000000E+00 0. -1.
         21    1    1    2  506  504 -0.20648954649E+03 -0.21632944217E+03 -0.44099066556E+02  0.30229304992E+03  0.00000000000E+00 0. -1.
<scales pt_clust_3="38.00898" pt_clust_4="79.04244" pt_clust_5="242.32546" pt_clust_6="14000.00000"></scales>
<clustering>
<clus scale="   38.009">  1  3  2 -1</clus>
<clus scale="   79.042">  1  4  2 -1</clus>
<clus scale="  242.325">  2  5  1 -1</clus>
<clus scale="   38.009">  1  3  2 -1</clus>
</clustering>
</event>
<event>
 6    0  0.4227619E+002  0.7905797E+02  0.7546771E-02  0.1331746E+00
         21   -1    0    0  506  501  0.00000000000E+00  0.00000000000E+00  0.46337563808E+03  0.46337563808E+03  0.00000000000E+00 0.  1.
         21   -1    0    0  504  502 -0.00000000000E+00 -0.00000000000E+00 -0.13238996386E+04  0.13238996386E+04  0.00000000000E+00 0.  1.
         21    1    1    2  503  502 -0.79555141609E+01  0.79554956932E+02 -0.11386962979E+03  0.13913509250E+03  0.00000000000E+00 0.  1.
         21    1    1    2  504  501  0.59706199698E+02 -0.54713719336E+02 -0.11899045676E+04  0.11926572438E+04  0.00000000000E+00 0.  1.
         21    1    1    2  505  503 -0.36672917190E+02 -0.52777287083E+02  0.19756526657E+03  0.20775557620E+03  0.00000000000E+00 0. -1.
         21    1    1    2  506  505 -0.15077768347E+02  0.27936049486E+02  0.24568493029E+03  0.24772736411E+03  0.00000000000E+00 0.  1.
<scales pt_clust_3="14000.00000" pt_clust_4="79.05797" pt_clust_5="57.34345" pt_clust_6="31.74527"></scales>
<clustering>
<clus scale="   31.745">  1  6  2 -1</clus>
<clus scale="   57.343">  1  5  2 -1</clus>
<clus scale="   79.058">  2  4  1 -1</clus>
<clus scale="   31.745">  1  3  2 -1</clus>
</clustering>
</event>
<event>
 6    0  0.4227619E+002  0.9364306E+02  0.7546771E-02  0.1294262E+00
         21   -1    0    0  504  501  0.00000000000E+00  0.00000000000E+00  0.61302077129E+03  0.61302077129E+03  0.00000000000E+00 0.  1.
         21   -1    0    0  506  502 -0.00000000000E+00 -0.00000000000E+00 -0.64582572321E+03  0.64582572321E+03  0.00000000000E+00 0.  1.
         21    1    1    2  503  502 -0.98651720006E+02 -0.70216941563E+01 -0.55774020955E+03  0.56644117735E+03  0.00000000000E+00 0.  1.
         21    1    1    2  504  503  0.51605822205E+02  0.73663972882E+02 -0.45588584739E+02  0.10083581132E+03  0.00000000000E+00 0. -1.
         21    1    1    2  505  501  0.35425900959E+02 -0.12062084596E+02  0.50111267544E+03  0.50250811121E+03  0.00000000000E+00 0.  1.
         21    1    1    2  506  505  0.11619996842E+02 -0.54580194130E+02  0.69411166933E+02  0.89061394627E+02  0.00000000000E+00 0.  1.
<scales pt_clust_3="93.64306" pt_clust_4="14000.00000" pt_clust_5="37.42310" pt_clust_6="73.14162"></scales>
<clustering>
<clus scale="   37.423">  1  5  2 -1</clus>
<clus scale="   73.142">  1  6  2 -1</clus>
<clus scale="   93.643">  2  3  1 -1</clus>
<clus scale="   37.423">  1  3  2 -1</clus>
</clustering>
</event>
<event>
 6    0  0.4227619E+002  0.7910373E+02  0.7546771E-02  0.1331614E+00
         21   -1    0    0  502  501  0.00000000000E+00  0.00000000000E+00  0.42655426672E+02  0.42655426672E+02  0.00000000000E+00 0.  1.
         21   -1    0    0  503  502 -0.00000000000E+00 -0.00000000000E+00 -0.70537647906E+03  0.70537647906E+03  0.00000000000E+00 0. -1.
         21    1    1    2  503  504 -0.22043474843E+02  0.28360940023E+02 -0.15571343571E+03  0.15980279022E+03  0.00000000000E+00 0.  1.
         21    1    1    2  504  505 -0.34679806819E+02 -0.50622129024E+02 -0.16092753108E+03  0.17222937963E+03  0.00000000000E+00 0. -1.
         21    1    1    2  505  506  0.92778171748E+02  0.54040510358E+02 -0.35159444859E+03  0.36762320682E+03  0.00000000000E+00 0. -1.
         21    1    1    2  506  501 -0.36054890087E+02 -0.31779321357E+02  0.55143629904E+01  0.48376529064E+02  0.00000000000E+00 0.  1.
<scales pt_clust_3="35.92016" pt_clust_4="79.10373" pt_clust_5="14000.00000" pt_clust_6="47.99499"></scales>
<clustering>
<clus scale="   35.920">  2  3  1 -1</clus>
<clus scale="   47.995">  1  6  2 -1</clus>
<clus scale="   79.104">  2  4  1 -1</clus>
<clus scale="   47.995">  1  3  2 -1</clus>
</clustering>
</event>
<event>
 6    0  0.4227619E+002  0.1563242E+03  0.7546771E-02  0.1192910E+00
         21   -1    0    0  506  501  0.00000000000E+00  0.00000000000E+00  0.17492735565E+04  0.17492735565E+04  0.00000000000E+00 0.  1.
         21   -1    0    0  503  502 -0.00000000000E+00 -0.00000000000E+00 -0.60678546497E+02  0.60678546497E+02  0.00000000000E+00 0.  1.
         21    1    1    2  503  504  0.12733938199E+03  0.48742407011E+02  0.16727526594E+03  0.21580582717E+03  0.00000000000E+00 0.  1.
         21    1    1    2  504  501  0.83763231032E+02  0.65363585610E+01  0.44961462746E+03  0.45739732846E+03  0.00000000000E+00 0.  1.
         21    1    1    2  505  502 -0.17577438883E+03 -0.54304519491E+02  0.23102929894E+03  0.29533058354E+03  0.00000000000E+00 0.  1.
         21    1    1    2  506  505 -0.35328224196E+02 -0.97424608174E+00  0.84067581771E+03  0.84141836387E+03  0.00000000000E+00 0.  1.
<scales pt_clust_3="156.32423" pt_clust_4="66.39893" pt_clust_5="14000.00000" pt_clust_6="35.34166"></scales>
<clustering>
<clus scale="   35.342">  1  6  2 -1</clus>
<clus scale="   66.399">  1  4  2 -1</clus>
<clus scale="  156.324">  2  3  1 -1</clus>
<clus scale="   35.342">  1  3  2 -1</clus>
</clustering>
</event>
<event>
 6    0  0.4227619E+002  0.9437561E+02  0.7546771E-02  0.1292589E+00
         21   -1    0    0  505  501  0.00000000000E+00  0.00000000000E+00  0.52874481372E+03  0.52874481372E+03  0.00000000000E+00 0.  1.
         21   -1    0    0  503  502 -0.00000000000E+00 -0.00000000000E+00 -0.14666100437E+04  0.14666100437E+04  0.00000000000E+00 0.  1.
         21    1    1    2  503  501  0.32132540032E+02  0.37064777152E+02 -0.72277754723E+03  0.72444025331E+03  0.00000000000E+00 0.  1.
         21    1    1    2  504  506 -0.62430999762E+02 -0.33519773872E+02 -0.38105572022E+03  0.38758826980E+03  0.00000000000E+00 0.  1.
         21    1    1    2  505  504  0.53683288654E+02  0.59845944468E+02  0.51833860585E+03  0.52453631225E+03  0.00000000000E+00 0.  1.
         21    1    1    2  506  502 -0.23384828924E+02 -0.63390947748E+02 -0.35237056842E+03  0.35879002212E+03  0.00000000000E+00 0.  1.
<scales pt_clust_3="49.05403" pt_clust_4="47.94111" pt_clust_5="80.60004" pt_clust_6="47.94111"></scales>
<clustering>
<clus scale="   47.941">  4  6 -1 -1</clus>
<clus scale="   49.054">  2  3  1 -1</clus>
<clus scale="   80.600">  1  5  2 -1</clus>
<clus scale="   80.600">  1  3  2 -1</clus>
</clustering>
</event>
<event>
 6    0  0.4227619E+002  0.1108048E+03  0.7546771E-02  0.1259087E+00
         21   -1    0    0  504  501  0.00000000000E+00  0.00000000000E+00  0.36172061796E+03  0.36172061796E+03  0.00000000000E+00 0. -1.
         21   -1    0    0  506  502 -0.00000000000E+00 -0.00000000000E+00 -0.50270654143E+03  0.50270654143E+03  0.00000000000E+00 0.  1.
         21    1    1    2  503  505  0.16907417283E+02  0.10469886265E+03 -0.22239225275E+03  0.24638593037E+03  0.00000000000E+00 0.  1.
         21    1    1    2  504  503 -0.48574144085E+02 -0.29174462163E+02  0.50100857141E+02  0.75635260311E+02  0.00000000000E+00 0. -1.
         21    1    1    2  505  502  0.34104512770E+02 -0.26398312606E+01 -0.24973060386E+03  0.25206241490E+03  0.00000000000E+00 0.  1.
         21    1    1    2  506  501 -0.24377859682E+01 -0.72884569230E+02  0.28103607600E+03  0.29034355382E+03  0.00000000000E+00 0. -1.
<scales pt_clust_3="14000.00000" pt_clust_4="55.25785" pt_clust_5="34.20653" pt_clust_6="110.80476"></scales>
<clustering>
<clus scale="   34.207">  2  5  1 -1</clus>
<clus scale="   55.258">  1  4  2 -1</clus>
<clus scale="  110.805">  1  6  2 -1</clus>
<clus scale="   55.258">  1  3  2 -1</clus>
</clustering>
</event>
<event>
 6    0  0.4227619E+002  0.8472205E+02  0.7546771E-02  0.1316161E+00
         21   -1    0    0  503  501  0.00000000000E+00  0.00000000000E+00  0.11525510713E+04  0.11525510713E+04  0.00000000000E+00 0. -1.
         21   -1    0    0  506  502 -0.00000000000E+00 -0.00000000000E+00 -0.98247431157E+03  0.98247431157E+03  0.00000000000E+00 0. -1.
         21    1    1    2  503  505  0.66388562930E+02  0.50852461468E+02  0.99638836117E+03  0.99989158432E+03  0.00000000000E+00 0. -1.
         21    1    1    2  504  502  0.84137584296E+02 -0.19236587716E+02  0.75472651870E+02  0.11465295713E+03  0.00000000000E+00 0.  1.
         21    1    1    2  505  504 -0.98697536947E+02 -0.90329735282E+02 -0.20064190932E+02  0.13528945500E+03  0.00000000000E+00 0.  1.
         21    1    1    2  506  501 -0.51828610279E+02  0.58713861530E+02 -0.88172006232E+03  0.88519138647E+03  0.00000000000E+00 0. -1.
<scales pt_clust_3="14000.00000" pt_clust_4="74.27560" pt_clust_5="84.72205" pt_clust_6="78.31681"></scales>
<clustering>
<clus scale="   78.317">  2  6  1 -1</clus>
<clus scale="   74.276">  2  4  1 -1</clus>
<clus scale="   84.722">  2  5  1 -1</clus>
<clus scale="   84.722">  1  3  2 -1</clus>
</clustering>
</event>
<event>
 6    0  0.4227619E+002  0.1239077E+03  0.7546771E-02  0.1236786E+00
         21   -1    0    0  503  501  0.00000000000E+00  0.00000000000E+00  0.68799703048E+02  0.68799703048E+02  0.00000000000E+00 0.  1.
         21   -1    0    0  506  502 -0.00000000000E+00 -0.00000000000E+00 -0.14667182583E+04  0.14667182583E+04  0.00000000000E+00 0.  1.
         21    1    1    2  503  504 -0.10699525339E+03 -0.48016501093E+02 -0.16503559130E+01  0.11728722138E+03  0.00000000000E+00 0.  1.
         21    1    1    2  504  502  0.32365576109E+02 -0.37243617613E+02 -0.10493497915E+04  0.10505092110E+04  0.00000000000E+00 0.  1.
         21    1    1    2  505  501  0.52110141074E+02  0.35136020344E+02 -0.23166174400E+03  0.24003576892E+03  0.00000000000E+00 0.  1.
         21    1    1    2  506  505  0.22519536205E+02  0.50124098362E+02 -0.11525666384E+03  0.12768576000E+03  0.00000000000E+00 0.  1.
<scales pt_clust_3="115.43502" pt_clust_4="49.34184" pt_clust_5="42.10714" pt_clust_6="42.10714"></scales>
<clustering>
<clus scale="   42.107">  5  6 -1 -1</clus>
<clus scale="   49.342">  2  4  1 -1</clus>
<clus scale="  115.435">  1  3  2 -1</clus>
<clus scale="  115.435">  1  3  2 -1</clus>
</clustering>
</event>
<event>
 6    0  0.4227619E+002  0.1341388E+03  0.7546771E-02  0.1221441E+00
         21   -1    0    0  504  501  0.00000000000E+00  0.00000000000E+00  0.18095859165E+04  0.18095859165E+04  0.00000000000E+00 0.  1.
         21   -1    0    0  503  502 -0.00000000000E+00 -0.00000000000E+00 -0.14017812359E+03  0.14017812359E+03  0.00000000000E+00 0. -1.
         21    1    1    2  503  506  0.22788958496E+02  0.18370098767E+03  0.84659396105E+02  0.20355000085E+03  0.00000000000E+00 0. -1.
         21    1    1    2  504  502 -0.66429570029E+02 -0.10168124463E+03 -0.29562039151E+02  0.12500350972E+03  0.00000000000E+00 0. -1.
         21    1    1    2  505  501  0.34459801639E+02  0.19485249395E+02  0.72478601523E+03  0.72586632429E+03  0.00000000000E+00 0. -1.
         21    1    1    2  506  505  0.91808098936E+01 -0.10150499243E+03  0.88952442072E+03  0.89534420522E+03  0.00000000000E+00 0.  1.
<scales pt_clust_3="14000.00000" pt_clust_4="134.13879" pt_clust_5="39.58728" pt_clust_6="93.34972"></scales>
<clustering>
<clus scale="   39.587">  1  5  2 -1</clus>
<clus scale="   93.350">  1  6  2 -1</clus>
<clus scale="  134.139">  2  4  1 -1</clus>
<clus scale="   39.587">  1  3  2 -1</clus>
</clustering>
</event>
<event>
 6    0  0.4227619E+002  0.9448626E+02  0.7546771E-02  0.1292337E+00
         21   -1    0    0  503  501  0.00000000000E+00  0.00000000000E+00  0.18086687198E+04  0.18086687198E+04  0.00000000000E+00 0.  1.
         21   -1    0    0  504  502 -0.00000000000E+00 -0.00000000000E+00 -0.58013216958E+02  0.58013216958E+02  0.00000000000E+00 0.  1.
         21    1    1    2  503  506 -0.15731218576E+02  0.39594517613E+02  0.13172384908E+04  0.13179273268E+04  0.00000000000E+00 0.  1.
         21    1    1    2  504  505  0.36698390286E+02 -0.24051958697E+02 -0.29745726544E+01  0.43978593080E+02  0.00000000000E+00 0. -1.
         21    1    1    2  505  501  0.86161416474E+02  0.23202434509E+02  0.35164905256E+03  0.36279360361E+03  0.00000000000E+00 0.  1.
         21    1    1    2  506  502 -0.10712858818E+03 -0.38744993424E+02  0.84742532104E+02  0.14198241324E+03  0.00000000000E+00 0.  1.
<scales pt_clust_3="42.60513" pt_clust_4="42.43481" pt_clust_5="94.48626" pt_clust_6="14000.00000"></scales>
<clustering>
<clus scale="   42.605">  1  3  2 -1</clus>
<clus scale="   42.435">  2  4  1 -1</clus>
<clus scale="   94.486">  1  5  2 -1</clus>
<clus scale="   42.605">  1  3  2 -1</clus>
</clustering>
</event>
<event>
 6    0  0.4227619E+002  0.2775182E+03  0.7546771E-02  0.1097052E+00
         21   -1    0    0  506  501  0.00000000000E+00  0.00000000000E+00  0.29179856666E+03  0.29179856666E+03  0.00000000000E+00 0.  1.
         21   -1    0    0  505  502 -0.00000000000E+00 -0.00000000000E+00 -0.30592662757E+03  0.30592662757E+03  0.00000000000E+00 0.  1.
         21    1    1    2  503  504 -0.10292978600E+03 -0.85525116077E+01  0.12044046843E+02  0.10398435154E+03  0.00000000000E+00 0.  1.
         21    1    1    2  504  501 -0.10544595575E+03 -0.13526257477E+03  0.31463402621E+02  0.17436960578E+03  0.00000000000E+00 0.  1.
         21    1    1    2  505  503 -0.32560855167E+02  0.39638719864E+02 -0.14928818648E+02  0.53425715043E+02  0.00000000000E+00 0. -1.
         21    1    1    2  506  502  0.24093659692E+03  0.10417636651E+03 -0.42706691727E+02  0.26594552185E+03  0.00000000000E+00 0.  1.
<scales pt_clust_3="85.83369" pt_clust_4="85.83369" pt_clust_5="51.29754" pt_clust_6="255.99132"></scales>
<clustering>
<clus scale="   51.298">  2  5  1 -1</clus>
<clus scale="   85.834">  3  4 -1 -1</clus>
<clus scale="  255.991">  2  6  1 -1</clus>
<clus scale="  277.518">  1  3  2 -1</clus>
</clustering>
</event>
<event>
 6    0  0.4227619E+002  0.9338351E+02  0.7546771E-02  0.1294859E+00
         21   -1    0    0  502  501  0.00000000000E+00  0.00000000000E+00  0.11376871785E+03  0.11376871785E+03  0.00000000000E+00 0.  1.
         21   -1    0    0  504  502 -0.00000000000E+00 -0.00000000000E+00 -0.35032673096E+03  0.35032673096E+03  0.00000000000E+00 0. -1.
         21    1    1    2  503  505 -0.33910278464E+02 -0.36999192691E+02  0.18487223495E+02  0.53484807916E+02  0.00000000000E+00 0.  1.
         21    1    1    2  504  506 -0.31166916021E+02  0.10805807675E+03 -0.26747663850E+03  0.29015802031E+03  0.00000000000E+00 0. -1.
         21    1    1    2  505  501  0.22725118034E+02 -0.24078026232E+02  0.39595459178E+02  0.51613784248E+02  0.00000000000E+00 0.  1.
         21    1    1    2  506  503  0.42352076451E+02 -0.46980857826E+02 -0.27164057282E+02  0.68838836348E+02  0.00000000000E+00 0.  1.
<scales pt_clust_3="54.32621" pt_clust_4="93.38351" pt_clust_5="33.10864" pt_clust_6="14000.00000"></scales>
<clustering>
<clus scale="   33.109">  1  5  2 -1</clus>
<clus scale="   54.326">  1  3  2 -1</clus>
<clus scale="   93.384">  2  4  1 -1</clus>
<clus scale="   33.109">  1  3  2 -1</clus>
</clustering>
</event>
<event>
 6    0  0.4227619E+002  0.7366692E+02  0.7546771E-02  0.1348050E+00
         21   -1    0    0  505  501  0.00000000000E+00  0.00000000000E+00  0.82157176855E+02  0.82157176855E+02  0.00000000000E+00 0. -1.
         21   -1    0    0  504  502 -0.00000000000E+00 -0.00000000000E+00 -0.14078728335E+04  0.14078728335E+04  0.00000000000E+00 0. -1.
         21    1    1    2  503  506  0.88353226280E+02 -0.27635201852E+02 -0.11257305496E+03  0.14574872102E+03  0.00000000000E+00 0. -1.
         21    1    1    2  504  503 -0.41677652566E+02  0.60702781840E+02 -0.12301550136E+04  0.12323567714E+04  0.00000000000E+00 0. -1.
         21    1    1    2  505  502 -0.75598687894E+02 -0.18807671191E+02  0.72900820910E+01  0.78243436810E+02  0.00000000000E+00 0. -1.
         21    1    1    2  506  501  0.28923114179E+02 -0.14259908797E+02  0.97223298039E+01  0.33681081181E+02  0.00000000000E+00 0. -1.
<scales pt_clust_3="73.66692" pt_clust_4="14000.00000" pt_clust_5="62.25077" pt_clust_6="32.24735"></scales>
<clustering>
<clus scale="   32.247">  1  6  2 -1</clus>
<clus scale="   62.251">  1  5  2 -1</clus>
<clus scale="   73.667">  1  3  2 -1</clus>
<clus scale="   32.247">  1  3  2 -1</clus>
</clustering>
</event>
<event>
 6    0  0.4227619E+002  0.6181676E+02  0.7546771E-02  0.1390362E+00
         21   -1    0    0  506  501  0.00000000000E+00  0.00000000000E+00  0.56558731392E+02  0.56558731392E+02  0.00000000000E+00 0.  1.
         21   -1    0    0  504  502 -0.00000000000E+00 -0.00000000000E+00 -0.71797628667E+03  0.71797628667E+03  0.00000000000E+00 0.  1.
         21    1    1    2  503  502 -0.69701375889E+02  0.54998630582E+02 -0.35815000279E+03  0.36899126774E+03  0.00000000000E+00 0.  1.
         21    1    1    2  504  505  0.25158890186E+02 -0.41007994440E+02 -0.22646687428E+03  0.23152077770E+03  0.00000000000E+00 0.  1.
         21    1    1    2  505  501  0.77860173783E+02 -0.58990885824E+02 -0.33594761453E+02  0.10329927042E+03  0.00000000000E+00 0.  1.
         21    1    1    2  506  503 -0.33317688081E+02  0.45000249682E+02 -0.43205916757E+02  0.70723702203E+02  0.00000000000E+00 0.  1.
<scales pt_clust_3="61.81676" pt_clust_4="48.11055" pt_clust_5="14000.00000" pt_clust_6="50.41073"></scales>
<clustering>
<clus scale="   48.111">  2  4  1 -1</clus>
<clus scale="   50.411">  1  6  2 -1</clus>
<clus scale="   61.817">  2  3  1 -1</clus>
<clus scale="   50.411">  1  3  2 -1</clus>
</clustering>
</event>
<event>
 6    0  0.4227619E+002  0.1336721E+03  0.7546771E-02  0.1222106E+00
         21   -1    0    0  503  501  0.00000000000E+00  0.00000000000E+00  0.74176167240E+03  0.74176167240E+03  0.00000000000E+00 0.  1.
         21   -1    0    0  506  502 -0.00000000000E+00 -0.00000000000E+00 -0.24006198485E+03  0.24006198485E+03  0.00000000000E+00 0.  1.
         21    1    1    2  503  504  0.12069857212E+02 -0.13054397660E+03  0.51731211389E+03  0.53366584531E+03  0.00000000000E+00 0.  1.
         21    1    1    2  504  505  0.83032322096E+02  0.16873013603E+03 -0.10311131963E+00  0.18805381132E+03  0.00000000000E+00 0.  1.
         21    1    1    2  505  502 -0.13994508371E+01  0.31257323072E+02 -0.10724704716E+03  0.11171798348E+03  0.00000000000E+00 0.  1.
         21    1    1    2  506  501 -0.93702728471E+02 -0.69443482507E+02  0.91737732139E+02  0.14838601714E+03  0.00000000000E+00 0.  1.
<scales pt_clust_3="133.67213" pt_clust_4="14000.00000" pt_clust_5="31.28864" pt_clust_6="112.97737"></scales>
<clustering>
<clus scale="   31.289">  2  5  1 -1</clus>
<clus scale="  112.977">  2  6  1 -1</clus>
<clus scale="  133.672">  1  3  2 -1</clus>
<clus scale="  133.672">  1  3  2 -1</clus>
</clustering>
</event>
<event>
 6    0  0.4227619E+002  0.1093154E+03  0.7546771E-02  0.1261843E+00
         21   -1    0    0  504  501  0.00000000000E+00  0.00000000000E+00  0.26704740776E+03  0.26704740776E+03  0.00000000000E+00 0. -1.
         21   -1    0    0  501  502 -0.00000000000E+00 -0.00000000000E+00 -0.15616812874E+03  0.15616812874E+03  0.00000000000E+00 0. -1.
         21    1    1    2  503  502  0.10034708387E+02  0.11156768087E+03 -0.13962650243E+01  0.11202674834E+03  0.00000000000E+00 0. -1.
         21    1    1    2  504  506  0.24558052293E+02 -0.18251044773E+02  0.66523189684E+02  0.73222491991E+02  0.00000000000E+00 0. -1.
         21    1    1    2  505  503 -0.12047142788E+03 -0.67616552802E+02  0.18757756892E+01  0.13816251909E+03  0.00000000000E+00 0. -1.
         21    1    1    2  506  505  0.85878667200E+02 -0.25700083299E+02  0.43876578676E+02  0.99803777073E+02  0.00000000000E+00 0. -1.
<scales pt_clust_3="14000.00000" pt_clust_4="30.59736" pt_clust_5="109.31538" pt_clust_6="100.19255"></scales>
<clustering>
<clus scale="   30.597">  1  4  2 -1</clus>
<clus scale="  100.193">  1  6  2 -1</clus>
<clus scale="  109.315">  1  5  2 -1</clus>
<clus scale="   30.597">  1  3  2 -1</clus>
</clustering>
</event>
<event>
 6    0  0.4227619E+002  0.1987999E+03  0.7546771E-02  0.1150755E+00
         21   -1    0    0  504  501  0.00000000000E+00  0.00000000000E+00  0.73792501309E+02  0.73792501309E+02  0.00000000000E+00 0.  1.
         21   -1    0    0  506  502 -0.00000000000E+00 -0.00000000000E+00 -0.14192428155E+04  0.14192428155E+04  0.00000000000E+00 0.  1.
         21    1    1    2  503  502  0.19538503539E+03 -0.91513915813E+02 -0.86731885666E+03  0.89375170376E+03  0.00000000000E+00 0.  1.
         21    1    1    2  504  503  0.39510407357E+02 -0.39843623979E+02 -0.29032367789E+02  0.63178042394E+02  0.00000000000E+00 0.  1.
         21    1    1    2  505  501 -0.19386892458E+03  0.12432126099E+03 -0.28299829354E+03  0.36486842834E+03  0.00000000000E+00 0.  1.
         21    1    1    2  506  505 -0.41026518164E+02  0.70362788029E+01 -0.16610079616E+03  0.17123714228E+03  0.00000000000E+00 0.  1.
<scales pt_clust_3="14000.00000" pt_clust_4="54.87029" pt_clust_5="198.79994" pt_clust_6="41.62553"></scales>
<clustering>
<clus scale="   41.626">  2  6  1 -1</clus>
<clus scale="   54.870">  1  4  2 -1</clus>
<clus scale="  198.800">  1  5  2 -1</clus>
<clus scale="   54.870">  1  3  2 -1</clus>
</clustering>
</event>
<event>
 6    0  0.4227619E+002  0.1229857E+03  0.7546771E-02  0.1238251E+00
         21   -1    0    0  503  501  0.00000000000E+00  0.00000000000E+00  0.79818818823E+02  0.79818818823E+02  0.00000000000E+00 0.  1.
         21   -1    0    0  504  502 -0.00000000000E+00 -0.00000000000E+00 -0.10653051283E+04  0.10653051283E+04  0.00000000000E+00 0.  1.
         21    1    1    2  503  502 -0.12075564351E+03 -0.80069896530E+02 -0.73573053871E+03  0.74986168015E+03  0.00000000000E+00 0.  1.
         21    1    1    2  504  506  0.20863765745E+02  0.42283506254E+02 -0.20200288451E+03  0.20743277700E+03  0.00000000000E+00 0. -1.
         21    1    1    2  505  501  0.70806604769E+02  0.24817147214E+01  0.45332929162E+02  0.84111881761E+02  0.00000000000E+00 0.  1.
         21    1    1    2  506  505  0.29085272996E+02  0.35304675555E+02 -0.93085815423E+02  0.10371760822E+03  0.00000000000E+00 0. -1.
<scales pt_clust_3="117.91142" pt_clust_4="34.43660" pt_clust_5="70.85008" pt_clust_6="34.43660"></scales>
<clustering>
<clus scale="   34.437">  4  6 -1 -1</clus>
<clus scale="   70.850">  1  5  2 -1</clus>
<clus scale="  117.911">  2  3  1 -1</clus>
<clus scale="   70.850">  1  3  2 -1</clus>
</clustering>
</event>
<event>
 6    0  0.4227619E+002  0.1403199E+03  0.7546771E-02  0.1212899E+00
         21   -1    0    0  506  501  0.00000000000E+00  0.00000000000E+00  0.45153978206E+03  0.45153978206E+03  0.00000000000E+00 0. -1.
         21   -1    0    0  503  502 -0.00000000000E+00 -0.00000000000E+00 -0.66121316437E+02  0.66121316437E+02  0.00000000000E+00 0. -1.
         21    1    1    2  503  501 -0.30746242685E+02  0.16301600597E+02  0.38405428976E+01  0.35011760752E+02  0.00000000000E+00 0. -1.
         21    1    1    2  504  505 -0.17056368302E+02  0.68392486219E+02  0.17254663068E+03  0.18638881841E+03  0.00000000000E+00 0. -1.
         21    1    1    2  505  502  0.69174272162E+01 -0.13529602071E+03  0.96676446625E+02  0.16643076444E+03  0.00000000000E+00 0. -1.
         21    1    1    2  506  504  0.40885183770E+02  0.50601933895E+02  0.11235484542E+03  0.12982975490E+03  0.00000000000E+00 0. -1.
<scales pt_clust_3="34.80048" pt_clust_4="59.71317" pt_clust_5="124.86726" pt_clust_6="59.71317"></scales>
<clustering>
<clus scale="   34.800">  2  3  1 -1</clus>
<clus scale="   59.713">  4  6 -1 -1</clus>
<clus scale="  124.867">  2  5  1 -1</clus>
<clus scale="  140.320">  1  3  2 -1</clus>
</clustering>
</event>
<event>
 6    0  0.4227619E+002  0.7910275E+02  0.7546771E-02  0.1331617E+00
         21   -1    0    0  502  501  0.00000000000E+00  0.00000000000E+00  0.86848023198E+03  0.86848023198E+03  0.00000000000E+00 0.  1.
         21   -1    0    0  506  502 -0.00000000000E+00 -0.00000000000E+00 -0.24837881713E+03  0.24837881713E+03  0.00000000000E+00 0.  1.
         21    1    1    2  503  501  0.15000105792E+02  0.52936333915E+02  0.66597886910E+03  0.66824779289E+03  0.00000000000E+00 0.  1.
         21    1    1    2  504  505  0.89240992925E+02 -0.79087822941E+02 -0.11162852259E+03  0.16333941843E+03  0.00000000000E+00 0.  1.
         21    1    1    2  505  503 -0.54650176572E+02 -0.14280768414E+02  0.16094688744E+03  0.17057104890E+03  0.00000000000E+00 0.  1.
         21    1    1    2  506  504 -0.49590922145E+02  0.40432257441E+02 -0.95195819091E+02  0.11470078890E+03  0.00000000000E+00 0.  1.
<scales pt_clust_3="55.02053" pt_clust_4="14000.00000" pt_clust_5="51.45571" pt_clust_6="79.10275"></scales>
<clustering>
<clus scale="   55.021">  1  3  2 -1</clus>
<clus scale="   51.456">  1  5  2 -1</clus>
<clus scale="   79.103">  2  6  1 -1</clus>
<clus scale="   55.021">  1  3  2 -1</clus>
</clustering>
</event>
<event>
 6    0  0.4227619E+002  0.9079620E+02  0.7546771E-02  0.1300935E+00
         21   -1    0    0  505  501  0.00000000000E+00  0.00000000000E+00  0.22245935159E+03  0.22245935159E+03  0.00000000000E+00 0. -1.
         21   -1    0    0  504  502 -0.00000000000E+00 -0.00000000000E+00 -0.16638080022E+04  0.16638080022E+04  0.00000000000E+00 0. -1.
         21    1    1    2  503  506 -0.46090162228E+02 -0.39362155768E+02  0.13661207401E+03  0.14945414389E+03  0.00000000000E+00 0. -1.
         21    1    1    2  504  503  0.12241503475E+03  0.23674043496E+02 -0.11762496982E+04  0.11828394876E+04  0.00000000000E+00 0. -1.
         21    1    1    2  505  502 -0.32168529049E+02 -0.11327261428E+02 -0.46835077294E+03  0.46959085131E+03  0.00000000000E+00 0. -1.
         21    1    1    2  506  501 -0.44156343476E+02  0.27015373700E+02  0.66639746544E+02  0.84382870920E+02  0.00000000000E+00 0. -1.
<scales pt_clust_3="14000.00000" pt_clust_4="90.79620" pt_clust_5="34.10456" pt_clust_6="51.92520"></scales>
<clustering>
<clus scale="   34.105">  2  5  1 -1</clus>
<clus scale="   51.925">  1  6  2 -1</clus>
<clus scale="   90.796">  2  4  1 -1</clus>
<clus scale="   51.925">  1  3  2 -1</clus>
</clustering>
</event>
<event>
 6    0  0.4227619E+002  0.1040150E+03  0.7546771E-02  0.1272072E+00
         21   -1    0    0  505  501  0.00000000000E+00  0.00000000000E+00  0.37433068753E+03  0.37433068753E+03  0.00000000000E+00 0. -1.
         21   -1    0    0  503  502 -0.00000000000E+00 -0.00000000000E+00 -0.48626506671E+03  0.48626506671E+03  0.00000000000E+00 0.  1.
         21    1    1    2  503  501  0.65012087436E+02 -0.44302619122E+02 -0.29235865353E+03  0.30275877505E+03  0.00000000000E+00 0.  1.
         21    1    1    2  504  502 -0.13484612184E+03 -0.21999171947E+02 -0.13199240798E+03  0.18997219772E+03  0.00000000000E+00 0. -1.
         21    1    1    2  505  506 -0.33052663877E+02 -0.35881148305E+02  0.89558157641E+02  0.10198332703E+03  0.00000000000E+00 0. -1.
         21    1    1    2  506  504  0.10288669828E+03  0.10218293937E+03  0.22285852469E+03  0.26588145443E+03  0.00000000000E+00 0. -1.
<scales pt_clust_3="78.54454" pt_clust_4="14000.00000" pt_clust_5="48.78458" pt_clust_6="104.01505"></scales>
<clustering>
<clus scale="   48.785">  1  5  2 -1</clus>
<clus scale="   78.545">  2  3  1 -1</clus>
<clus scale="  104.015">  1  6  2 -1</clus>
<clus scale="   48.785">  1  3  2 -1</clus>
</clustering>
</event>
<event>
 6    0  0.4227619E+002  0.6998878E+02  0.7546771E-02  0.1360131E+00
         21   -1    0    0  504  501  0.00000000000E+00  0.00000000000E+00  0.47320381612E+03  0.47320381612E+03  0.00000000000E+00 0. -1.
         21   -1    0    0  503  502 -0.00000000000E+00 -0.00000000000E+00 -0.11798123932E+04  0.11798123932E+04  0.00000000000E+00 0.  1.
         21    1    1    2  503  506  0.12398279259E+02 -0.34990794214E+02 -0.13254279070E+03  0.13764325038E+03  0.00000000000E+00 0. -1.
         21    1    1    2  504  505 -0.65111942643E+02  0.19735397188E+02  0.11802191175E+03  0.13622856760E+03  0.00000000000E+00 0. -1.
         21    1    1    2  505  502  0.12942747246E+02  0.81112530672E+02 -0.10296524988E+04  0.10329235333E+04  0.00000000000E+00 0.  1.
         21    1    1    2  506  501  0.39770916138E+02 -0.65857133646E+02  0.33756480073E+03  0.34622085800E+03  0.00000000000E+00 0. -1.
<scales pt_clust_3="37.12241" pt_clust_4="14000.00000" pt_clust_5="52.94363" pt_clust_6="69.98878"></scales>
<clustering>
<clus scale="   37.122">  2  3  1 -1</clus>
<clus scale="   52.944">  2  5  1 -1</clus>
<clus scale="   69.989">  1  6  2 -1</clus>
<clus scale="   69.989">  1  3  2 -1</clus>
</clustering>
</event>
<event>
 6    0  0.4227619E+002  0.9512376E+02  0.7546771E-02  0.1290898E+00
         21   -1    0    0  505  501  0.00000000000E+00  0.00000000000E+00  0.11089337049E+04  0.11089337049E+04  0.00000000000E+00 0. -1.
         21   -1    0    0  506  502 -0.00000000000E+00 -0.00000000000E+00 -0.41003864342E+03  0.41003864342E+03  0.00000000000E+00 0. -1.
         21    1    1    2  503  502 -0.23138752546E+02 -0.10184308401E+03 -0.76151916987E+01  0.10471583822E+03  0.00000000000E+00 0.  1.
         21    1    1    2  504  501 -0.15379016599E+02  0.70360374900E+02 -0.99055328898E+02  0.12247062787E+03  0.00000000000E+00 0. -1.
         21    1    1    2  505  503  0.32271940088E+02 -0.16008170004E+02  0.10460032265E+04  0.10466233752E+04  0.00000000000E+00 0. -1.
         21    1    1    2  506  504  0.62458290572E+01  0.47490879114E+02 -0.24043764445E+03  0.24516250702E+03  0.00000000000E+00 0. -1.
<scales pt_clust_3="95.12376" pt_clust_4="14000.00000" pt_clust_5="36.02415" pt_clust_6="47.47723"></scales>
<clustering>
<clus scale="   36.024">  1  5  2 -1</clus>
<clus scale="   47.477">  2  6  1 -1</clus>
<clus scale="   95.124">  1  3  2 -1</clus>
<clus scale="   36.024">  1  3  2 -1</clus>
</clustering>
</event>
<event>
 6    0  0.4227619E+002  0.1427908E+03  0.7546771E-02  0.1209622E+00
         21   -1    0    0  506  501  0.00000000000E+00  0.00000000000E+00  0.22334334653E+03  0.22334334653E+03  0.00000000000E+00 0.  1.
         21   -1    0    0  503  502 -0.00000000000E+00 -0.00000000000E+00 -0.45877762799E+03  0.45877762799E+03  0.00000000000E+00 0.  1.
         21    1    1    2  503  505  0.41534274684E+02  0.15864275525E+03 -0.15329027469E+03  0.22447834658E+03  0.00000000000E+00 0.  1.
         21    1    1    2  504  502 -0.12104440297E+03 -0.75149803293E+02 -0.95041224967E+02  0.17126609375E+03  0.00000000000E+00 0.  1.
         21    1    1    2  505  501  0.16513555347E+03 -0.91481193099E+02 -0.28522574797E+02  0.19092432266E+03  0.00000000000E+00 0.  1.
         21    1    1    2  506  504 -0.85625425185E+02  0.79882411431E+01  0.41419793003E+02  0.95452211536E+02  0.00000000000E+00 0.  1.
<scales pt_clust_3="142.79082" pt_clust_4="14000.00000" pt_clust_5="148.59560" pt_clust_6="85.99724"></scales>
<clustering>
<clus scale="   85.997">  1  6  2 -1</clus>
<clus scale="  148.596">  1  5  2 -1</clus>
<clus scale="  142.791">  2  3  1 -1</clus>
<clus scale="   85.997">  1  3  2 -1</clus>
</clustering>
</event>
<event>
 6    0  0.4227619E+002  0.1053405E+03  0.7546771E-02  0.1269450E+00
         21   -1    0    0  506  501  0.00000000000E+00  0.00000000000E+00  0.19525242753E+04  0.19525242753E+04  0.00000000000E+00 0. -1.
         21   -1    0    0  504  502 -0.00000000000E+00 -0.00000000000E+00 -0.13332388502E+03  0.13332388502E+03  0.00000000000E+00 0. -1.
         21    1    1    2  503  502 -0.21513798024E+02 -0.13280212788E+03  0.40636744365E+03  0.42805811280E+03  0.00000000000E+00 0. -1.
         21    1    1    2  504  505  0.25269878192E+02  0.30733257811E+02 -0.11564853356E+03  0.12230160749E+03  0.00000000000E+00 0. -1.
         21    1    1    2  505  501  0.42597332457E+02  0.19471175517E+02  0.33557932150E+03  0.33883202391E+03  0.00000000000E+00 0.  1.
         21    1    1    2  506  503 -0.46353412625E+02  0.82597694552E+02  0.11929021586E+04  0.11966564161E+04  0.00000000000E+00 0. -1.
<scales pt_clust_3="14000.00000" pt_clust_4="39.78819" pt_clust_5="50.92802" pt_clust_6="105.34046"></scales>
<clustering>
<clus scale="   39.788">  2  4  1 -1</clus>
<clus scale="   50.928">  1  5  2 -1</clus>
<clus scale="  105.340">  1  6  2 -1</clus>
<clus scale="   50.928">  1  3  2 -1</clus>
</clustering>
</event>
<event>
 6    0  0.4227619E+002  0.1407066E+03  0.7546771E-02  0.1212381E+00
         21   -1    0    0  506  501  0.00000000000E+00  0.00000000000E+00  0.43347562470E+03  0.43347562470E+03  0.00000000000E+00 0.  1.
         21   -1    0    0  504  502 -0.00000000000E+00 -0.00000000000E+00 -0.18048073110E+03  0.18048073110E+03  0.00000000000E+00 0.  1.
         21    1    1    2  503  501  0.24109210652E+02  0.39226838895E+02  0.21132787719E+03  0.21628562275E+03  0.00000000000E+00 0.  1.
         21    1    1    2  504  505 -0.38798038349E+02 -0.20840603166E+02  0.13326245843E+02  0.46013121480E+02  0.00000000000E+00 0.  1.
         21    1    1    2  505  503  0.71804958488E+02  0.49558429052E+02  0.16619197716E+03  0.18770126059E+03  0.00000000000E+00 0.  1.
         21    1    1    2  506  502 -0.57116130791E+02 -0.67944664781E+02 -0.13785120660E+03  0.16395635099E+03  0.00000000000E+00 0.  1.
<scales pt_clust_3="43.59832" pt_clust_4="44.04110" pt_clust_5="43.59832" pt_clust_6="127.26563"></scales>
<clustering>
<clus scale="   43.598">  3  5 -1 -1</clus>
<clus scale="   44.041">  2  4  1 -1</clus>
<clus scale="  127.266">  2  6  1 -1</clus>
<clus scale="  140.707">  1  3  2 -1</clus>
</clustering>
</event>
<event>
 6    0  0.4227619E+002  0.1163559E+03  0.7546771E-02  0.1249233E+00
         21   -1    0    0  505  501  0.00000000000E+00  0.00000000000E+00  0.23415172817E+03  0.23415172817E+03  0.00000000000E+00 0.  1.
         21   -1    0    0  506  502 -0.00000000000E+00 -0.00000000000E+00 -0.61865416787E+03  0.61865416787E+03  0.00000000000E+00 0.  1.
         21    1    1    2  503  502 -0.47409040762E+02  0.20993002531E+01 -0.32069399270E+03  0.32418615202E+03  0.00000000000E+00 0.  1.
         21    1    1    2  504  501 -0.63183611945E+02  0.56499051475E+02  0.15998600660E+03  0.18105201999E+03  0.00000000000E+00 0.  1.
         21    1    1    2  505  503  0.14962966484E+03  0.43868582145E+02 -0.14014833365E+03  0.20965458384E+03  0.00000000000E+00 0.  1.
         21    1    1    2  506  504 -0.39037012136E+02 -0.10246693387E+03 -0.83646119942E+02  0.13791314018E+03  0.00000000000E+00 0.  1.
<scales pt_clust_3="47.45550" pt_clust_4="86.07337" pt_clust_5="14000.00000" pt_clust_6="116.35594"></scales>
<clustering>
<clus scale="   47.455">  2  3  1 -1</clus>
<clus scale="   86.073">  1  4  2 -1</clus>
<clus scale="  116.356">  1  6  2 -1</clus>
<clus scale="   86.073">  1  3  2 -1</clus>
</clustering>
</event>
<event>
 6    0  0.4227619E+002  0.1661656E+03  0.7546771E-02  0.1181907E+00
         21   -1    0    0  505  501  0.00000000000E+00  0.00000000000E+00  0.27299995119E+04  0.27299995119E+04  0.00000000000E+00 0. -1.
         21   -1    0    0  506  502 -0.00000000000E+00 -0.00000000000E+00 -0.29588592699E+02  0.29588592699E+02  0.00000000000E+00 0. -1.
         21    1    1    2  503  502  0.28142472480E+02  0.30022325039E+02  0.15194054799E+03  0.15741432235E+03  0.00000000000E+00 0. -1.
         21    1    1    2  504  501  0.61938970600E+02 -0.16812050403E+03  0.21354820984E+04  0.21429850052E+04  0.00000000000E+00 0. -1.
         21    1    1    2  505  503 -0.12967372749E+02  0.11210691444E+03  0.18056641576E+03  0.21293272065E+03  0.00000000000E+00 0. -1.
         21    1    1    2  506  504 -0.77114070332E+02  0.25991264552E+02  0.23242185707E+03  0.24625605642E+03  0.00000000000E+00 0. -1.
<scales pt_clust_3="41.15020" pt_clust_4="166.16558" pt_clust_5="14000.00000" pt_clust_6="77.57853"></scales>
<clustering>
<clus scale="   41.150">  2  3  1 -1</clus>
<clus scale="   77.579">  2  6  1 -1</clus>
<clus scale="  166.166">  1  4  2 -1</clus>
<clus scale="  166.166">  1  3  2 -1</clus>
</clustering>
</event>
<event>
 6    0  0.4227619E+002  0.1072584E+03  0.7546771E-02  0.1265733E+00
         21   -1    0    0  504  501  0.00000000000E+00  0.00000000000E+00  0.40458138373E+03  0.40458138373E+03  0.00000000000E+00 0. -1.
         21   -1    0    0  506  502 -0.00000000000E+00 -0.00000000000E+00 -0.10004701009E+03  0.10004701009E+03  0.00000000000E+00 0. -1.
         21    1    1    2  503  502  0.47000300062E+02  0.62453621171E+01 -0.20630186146E+02  0.51707227099E+02  0.00000000000E+00 0. -1.
         21    1    1    2  504  505 -0.51161262231E+02 -0.45807715955E+02  0.27745301399E+03  0.28582511536E+03  0.00000000000E+00 0. -1.
         21    1    1    2  505  503  0.77451817856E+02  0.35368867741E+02  0.13897961817E+02  0.86272210110E+02  0.00000000000E+00 0. -1.
         21    1    1    2  506  501 -0.73290855687E+02  0.41934860965E+01  0.33813583982E+02  0.80823841252E+02  0.00000000000E+00 0. -1.
<scales pt_clust_3="31.42068" pt_clust_4="68.67184" pt_clust_5="31.42068" pt_clust_6="98.64802"></scales>
<clustering>
<clus scale="   31.421">  3  5 -1 -1</clus>
<clus scale="   68.672">  1  4  2 -1</clus>
<clus scale="   98.648">  2  6  1 -1</clus>
<clus scale="   68.672">  1  3  2 -1</clus>
</clustering>
</event>
<event>
 6    0  0.4227619E+002  0.9040351E+02  0.7546771E-02  0.1301877E+00
         21   -1    0    0  504  501  0.00000000000E+00  0.00000000000E+00  0.32213579211E+03  0.32213579211E+03  0.00000000000E+00 0.  1.
         21   -1    0    0  505  502 -0.00000000000E+00 -0.00000000000E+00 -0.57266063113E+03  0.57266063113E+03  0.00000000000E+00 0.  1.
         21    1    1    2  503  502 -0.48353982932E+02  0.27248280550E+02 -0.53074868612E+03  0.53364289958E+03  0.00000000000E+00 0.  1.
         21    1    1    2  504  503 -0.58107455024E+02 -0.47987480154E+02  0.77852657184E+02  0.10835271483E+03  0.00000000000E+00 0.  1.
         21    1    1    2  505  506  0.97252704980E+02  0.51657573704E+02  0.11299164269E+03  0.15777739022E+03  0.00000000000E+00 0.  1.
         21    1    1    2  506  501  0.92087329754E+01 -0.30918374100E+02  0.89379547236E+02  0.95023418609E+02  0.00000000000E+00 0.  1.
<scales pt_clust_3="55.35710" pt_clust_4="14000.00000" pt_clust_5="90.40351" pt_clust_6="32.26060"></scales>
<clustering>
<clus scale="   32.261">  1  6  2 -1</clus>
<clus scale="   55.357">  2  3  1 -1</clus>
<clus scale="   90.404">  2  5  1 -1</clus>
<clus scale="   32.261">  1  3  2 -1</clus>
</clustering>
</event>
<event>
 6    0  0.4227619E+002  0.1095924E+03  0.7546771E-02  0.1261326E+00
         21   -1    0    0  504  501  0.00000000000E+00  0.00000000000E+00  0.22120230192E+02  0.22120230192E+02  0.00000000000E+00 0.  1.
         21   -1    0    0  506  502 -0.00000000000E+00 -0.00000000000E+00 -0.10238858877E+04  0.10238858877E+04  0.00000000000E+00 0.  1.
         21    1    1    2  503  501  0.40454837893E+02  0.97328497378E+02 -0.19270730142E+03  0.21964866112E+03  0.00000000000E+00 0.  1.
         21    1    1    2  504  502  0.30656119388E+02 -0.42216128791E+02 -0.44041001856E+03  0.44348955301E+03  0.00000000000E+00 0.  1.
         21    1    1    2  505  503 -0.27417483482E+02 -0.52618977792E+02 -0.22583323848E+03  0.23349759491E+03  0.00000000000E+00 0.  1.
         21    1    1    2  506  505 -0.43693473800E+02 -0.24933907955E+01 -0.14281509904E+03  0.14937030885E+03  0.00000000000E+00 0.  1.
<scales pt_clust_3="97.04850" pt_clust_4="52.17278" pt_clust_5="43.72565" pt_clust_6="43.72565"></scales>
<clustering>
<clus scale="   43.726">  5  6 -1 -1</clus>
<clus scale="   52.173">  2  4  1 -1</clus>
<clus scale="   97.048">  1  3  2 -1</clus>
<clus scale="   97.048">  1  3  2 -1</clus>
</clustering>
</event>
<event>
 6    0  0.4227619E+002  0.1151015E+03  0.7546771E-02  0.1251404E+00
         21   -1    0    0  505  501  0.00000000000E+00  0.00000000000E+00  0.13066431217E+03  0.13066431217E+03  0.00000000000E+00 0.  1.
         21   -1    0    0  503  502 -0.00000000000E+00 -0.00000000000E+00 -0.16735434391E+04  0.16735434391E+04  0.00000000000E+00 0.  1.
         21    1    1    2  503  506  0.25034575905E+01  0.31330594919E+02 -0.12653603924E+03  0.13038114398E+03  0.00000000000E+00 0. -1.
         21    1    1    2  504  502 -0.10385249602E+03  0.26395140712E+02 -0.14656642328E+04  0.14695760231E+04  0.00000000000E+00 0.  1.
         21    1    1    2  505  504  0.11129435963E+02 -0.34362941807E+02 -0.54089752051E+02  0.65041351397E+02  0.00000000000E+00 0. -1.
         21    1    1    2  506  501  0.90219602466E+02 -0.23362793824E+02  0.10341089724E+03  0.13920923271E+03  0.00000000000E+00 0.  1.
<scales pt_clust_3="31.43045" pt_clust_4="115.10154" pt_clust_5="35.00403" pt_clust_6="14000.00000"></scales>
<clustering>
<clus scale="   31.430">  2  3  1 -1</clus>
<clus scale="   35.004">  1  5  2 -1</clus>
<clus scale="  115.102">  2  4  1 -1</clus>
<clus scale="   35.004">  1  3  2 -1</clus>
</clustering>
</event>
<event>
 6    0  0.4227619E+002  0.2317480E+03  0.7546771E-02  0.1125415E+00
         21   -1    0    0  502  501  0.00000000000E+00  0.00000000000E+00  0.42869479928E+03  0.42869479928E+03  0.00000000000E+00 0.  1.
         21   -1    0    0  503  502 -0.00000000000E+00 -0.00000000000E+00 -0.41717884833E+03  0.41717884833E+03  0.00000000000E+00 0.  1.
         21    1    1    2  503  506 -0.42546597834E+02  0.11124441094E+02 -0.11857942126E+03  0.12647151981E+03  0.00000000000E+00 0.  1.
         21    1    1    2  504  505  0.22374328298E+03  0.15848541214E+03 -0.12951179855E+03  0.30323586283E+03  0.00000000000E+00 0.  1.
         21    1    1    2  505  501 -0.14627752023E+03 -0.17153293082E+03  0.29172821482E+03  0.36868144868E+03  0.00000000000E+00 0.  1.
         21    1    1    2  506  504 -0.34919164921E+02  0.19230775801E+01 -0.32121044066E+02  0.47484816290E+02  0.00000000000E+00 0.  1.
<scales pt_clust_3="86.89175" pt_clust_4="231.74798" pt_clust_5="14000.00000" pt_clust_6="33.11538"></scales>
<clustering>
<clus scale="   33.115">  3  6 -1 -1</clus>
<clus scale="   86.892">  2  3  1 -1</clus>
<clus scale="  231.748">  2  4  1 -1</clus>
<clus scale="  231.748">  1  3  2 -1</clus>
</clustering>
</event>
<event>
 6    0  0.4227619E+002  0.8003307E+02  0.7546771E-02  0.1328958E+00
         21   -1    0    0  504  501  0.00000000000E+00  0.00000000000E+00  0.50402179334E+03  0.50402179334E+03  0.00000000000E+00 0.  1.
         21   -1    0    0  503  502 -0.00000000000E+00 -0.00000000000E+00 -0.73256023862E+03  0.73256023862E+03  0.00000000000E+00 0.  1.
         21    1    1    2  503  506 -0.12150337125E+02 -0.10868311849E+03 -0.15112304644E+02  0.11039942341E+03  0.00000000000E+00 0.  1.
         21    1    1    2  504  505  0.27894371432E+02  0.64139209083E+02  0.20976919349E+03  0.22112224817E+03  0.00000000000E+00 0.  1.
         21    1    1    2  505  502  0.26531778677E+02  0.30435694181E+02 -0.66144592529E+03  0.66267713017E+03  0.00000000000E+00 0.  1.
         21    1    1    2  506  501 -0.42275812984E+02  0.14108215225E+02  0.23825059116E+03  0.24238323021E+03  0.00000000000E+00 0.  1.
<scales pt_clust_3="14000.00000" pt_clust_4="80.03307" pt_clust_5="40.37656" pt_clust_6="44.12603"></scales>
<clustering>
<clus scale="   40.377">  2  5  1 -1</clus>
<clus scale="   44.126">  1  6  2 -1</clus>
<clus scale="   80.033">  1  4  2 -1</clus>
<clus scale="   44.126">  1  3  2 -1</clus>
</clustering>
</event>
<event>
 6    0  0.4227619E+002  0.7022694E+02  0.7546771E-02  0.1359323E+00
         21   -1    0    0  503  501  0.00000000000E+00  0.00000000000E+00  0.49409634678E+03  0.49409634678E+03  0.00000000000E+00 0. -1.
         21   -1    0    0  505  502 -0.00000000000E+00 -0.00000000000E+00 -0.21424565734E+04  0.21424565734E+04  0.00000000000E+00 0.  1.
         21    1    1    2  503  506 -0.33853039868E+02  0.21074222094E+02  0.29188109329E+03  0.29459247066E+03  0.00000000000E+00 0. -1.
         21    1    1    2  504  501  0.10368340695E+03 -0.25710464757E+02  0.18499454970E+03  0.21362176925E+03  0.00000000000E+00 0. -1.
         21    1    1    2  505  504 -0.19015473280E+01  0.38581317883E+02 -0.64381109266E+03  0.64496888065E+03  0.00000000000E+00 0.  1.
         21    1    1    2  506  502 -0.67928819757E+02 -0.33945075220E+02 -0.14814247770E+04  0.14833697997E+04  0.00000000000E+00 0.  1.
<scales pt_clust_3="39.89662" pt_clust_4="14000.00000" pt_clust_5="38.62815" pt_clust_6="70.22694"></scales>
<clustering>
<clus scale="   38.628">  2  5  1 -1</clus>
<clus scale="   39.897">  1  3  2 -1</clus>
<clus scale="   70.227">  2  6  1 -1</clus>
<clus scale="   39.897">  1  3  2 -1</clus>
</clustering>
</event>
<event>
 6    0  0.4227619E+002  0.1791242E+03  0.7546771E-02  0.1168653E+00
         21   -1    0    0  504  501  0.00000000000E+00  0.00000000000E+00  0.75634856035E+03  0.75634856035E+03  0.00000000000E+00 0. -1.
         21   -1    0    0  505  502 -0.00000000000E+00 -0.00000000000E+00 -0.38343900490E+03  0.38343900490E+03  0.00000000000E+00 0. -1.
         21    1    1    2  503  502 -0.15116852055E+02 -0.19301084586E+03  0.70549455536E+02  0.20605565149E+03  0.00000000000E+00 0. -1.
         21    1    1    2  504  503 -0.53733055702E+02  0.40673610745E+02  0.18953896465E+03  0.20116312537E+03  0.00000000000E+00 0. -1.
         21    1    1    2  505  506  0.48618789570E+02  0.53802797719E+01 -0.29478091798E+03  0.29881185338E+03  0.00000000000E+00 0. -1.
         21    1    1    2  506  501  0.20231118187E+02  0.14695695534E+03  0.40760205324E+03  0.43375693502E+03  0.00000000000E+00 0. -1.
<scales pt_clust_3="14000.00000" pt_clust_4="65.04783" pt_clust_5="48.91558" pt_clust_6="179.12417"></scales>
<clustering>
<clus scale="   48.916">  2  5  1 -1</clus>
<clus scale="   65.048">  1  4  2 -1</clus>
<clus scale="  179.124">  1  6  2 -1</clus>
<clus scale="   65.048">  1  3  2 -1</clus>
</clustering>
</event>
<event>
 6    0  0.4227619E+002  0.1812635E+03  0.7546771E-02  0.1166586E+00
         21   -1    0    0  504  501  0.00000000000E+00  0.00000000000E+00  0.30434173544E+03  0.30434173544E+03  0.00000000000E+00 0.  1.
         21   -1    0    0  505  502 -0.00000000000E+00 -0.00000000000E+00 -0.12989099540E+04  0.12989099540E+04  0.00000000000E+00 0.  1.
         21    1    1    2  503  506 -0.13300656725E+03 -0.14550515652E+03 -0.22786290442E+03  0.30130383455E+03  0.00000000000E+00 0. -1.
         21    1    1    2  504  503 -0.28554225449E+02  0.16079957801E+02  0.24694200210E+03  0.24910692732E+03  0.00000000000E+00 0.  1.
         21    1    1    2  505  501  0.12959432792E+03  0.94551338672E+02 -0.32366877789E+03  0.36124247155E+03  0.00000000000E+00 0.  1.
         21    1    1    2  506  502  0.31966464776E+02  0.34873860044E+02 -0.68997853838E+03  0.69159845605E+03  0.00000000000E+00 0.  1.
<scales pt_clust_3="181.26351" pt_clust_4="32.77055" pt_clust_5="14000.00000" pt_clust_6="47.20316"></scales>
<clustering>
<clus scale="   32.771">  1  4  2 -1</clus>
<clus scale="   47.203">  2  6  1 -1</clus>
<clus scale="  181.264">  1  3  2 -1</clus>
<clus scale="   32.771">  1  3  2 -1</clus>
</clustering>
</event>
<event>
 6    0  0.4227619E+002  0.8580349E+02  0.7546771E-02  0.1313345E+00
         21   -1    0    0  505  501  0.00000000000E+00  0.00000000000E+00  0.35840434325E+03  0.35840434325E+03  0.00000000000E+00 0.  1.
         21   -1    0    0  503  502 -0.00000000000E+00 -0.00000000000E+00 -0.94086896045E+03  0.94086896045E+03  0.00000000000E+00 0. -1.
         21    1    1    2  503  504  0.27783640508E+02 -0.15749655487E+02 -0.73686203772E+03  0.73755382513E+03  0.00000000000E+00 0. -1.
         21    1    1    2  504  501  0.36939230265E+02  0.34286547994E+01  0.13040066149E+03  0.13557505273E+03  0.00000000000E+00 0.  1.
         21    1    1    2  505  506 -0.10509056718E+03 -0.54858559524E+02  0.20055537726E+03  0.23297199019E+03  0.00000000000E+00 0.  1.
         21    1    1    2  506  502  0.40367696407E+02  0.67179560212E+02 -0.17655861823E+03  0.19317243565E+03  0.00000000000E+00 0. -1.
<scales pt_clust_3="31.93716" pt_clust_4="37.43167" pt_clust_5="85.80349" pt_clust_6="14000.00000"></scales>
<clustering>
<clus scale="   31.937">  2  3  1 -1</clus>
<clus scale="   37.432">  1  4  2 -1</clus>
<clus scale="   85.803">  1  5  2 -1</clus>
<clus scale="   37.432">  1  3  2 -1</clus>
</clustering>
</event>
<event>
 6    0  0.4227619E+002  0.1048113E+03  0.7546771E-02  0.1270492E+00
         21   -1    0    0  503  501  0.00000000000E+00  0.00000000000E+00  0.46902049332E+03  0.46902049332E+03  0.00000000000E+00 0.  1.
         21   -1    0    0  505  502 -0.00000000000E+00 -0.00000000000E+00 -0.52835793025E+03  0.52835793025E+03  0.00000000000E+00 0.  1.
         21    1    1    2  503  504  0.13260496550E+03  0.36726463896E+02  0.17375791768E+03  0.22164097993E+03  0.00000000000E+00 0.  1.
         21    1    1    2  504  502 -0.70985318949E+02 -0.23899908820E+02 -0.44423478331E+03  0.45050489881E+03  0.00000000000E+00 0.  1.
         21    1    1    2  505  506 -0.25409960973E+02 -0.17172863525E+02 -0.51571893359E+02  0.60001946160E+02  0.00000000000E+00 0.  1.
         21    1    1    2  506  501 -0.36209685578E+02  0.43463084488E+01  0.26271132207E+03  0.26523059867E+03  0.00000000000E+00 0.  1.
<scales pt_clust_3="104.81125" pt_clust_4="14000.00000" pt_clust_5="30.66877" pt_clust_6="36.53143"></scales>
<clustering>
<clus scale="   30.669">  2  5  1 -1</clus>
<clus scale="   36.531">  1  6  2 -1</clus>
<clus scale="  104.811">  1  3  2 -1</clus>
<clus scale="   36.531">  1  3  2 -1</clus>
</clustering>
</event>
<event>
 6    0  0.4227619E+002  0.8477270E+02  0.7546771E-02  0.1316028E+00
         21   -1    0    0  504  501  0.00000000000E+00  0.00000000000E+00  0.59920423047E+03  0.59920423047E+03  0.00000000000E+00 0.  1.
         21   -1    0    0  506  502 -0.00000000000E+00 -0.00000000000E+00 -0.55650564153E+03  0.55650564153E+03  0.00000000000E+00 0. -1.
         21    1    1    2  503  501  0.93396925870E+01 -0.50374979404E+02  0.50916656809E+02  0.72231394477E+02  0.00000000000E+00 0.  1.
         21    1    1    2  504  505 -0.80228234516E+02  0.35722468715E+01  0.52077172601E+03  0.52692743445E+03  0.00000000000E+00 0.  1.
         21    1    1    2  505  502 -0.25923724225E+02  0.19816912185E+02 -0.21203884127E+02  0.38914704012E+02  0.00000000000E+00 0.  1.
         21    1    1    2  506  503  0.96812266155E+02  0.26985820347E+02 -0.50778590975E+03  0.51763633906E+03  0.00000000000E+00 0. -1.
<scales pt_clust_3="50.74528" pt_clust_4="84.77270" pt_clust_5="32.63050" pt_clust_6="14000.00000"></scales>
<clustering>
<clus scale="   32.630">  2  5  1 -1</clus>
<clus scale="   50.745">  1  3  2 -1</clus>
<clus scale="   84.773">  1  4  2 -1</clus>
<clus scale="   50.745">  1  3  2 -1</clus>
</clustering>
</event>
<event>
 6    0  0.4227619E+002  0.2703456E+03  0.7546771E-02  0.1101082E+00
         21   -1    0    0  505  501  0.00000000000E+00  0.00000000000E+00  0.10222123269E+04  0.10222123269E+04  0.00000000000E+00 0.  1.
         21   -1    0    0  503  502 -0.00000000000E+00 -0.00000000000E+00 -0.72759792531E+03  0.72759792531E+03  0.00000000000E+00 0. -1.
         21    1    1    2  503  501  0.22571736155E+02  0.28736492839E+02 -0.25474386188E+03  0.25735132497E+03  0.00000000000E+00 0.  1.
         21    1    1    2  504  502  0.25307613480E+02  0.31092089326E+02 -0.57782509850E+02  0.70327887521E+02  0.00000000000E+00 0. -1.
         21    1    1    2  505  506 -0.26535373577E+03  0.59274371183E+02  0.95612338893E+03  0.99403118211E+03  0.00000000000E+00 0.  1.
         21    1    1    2  506  504  0.21747438613E+03 -0.11910295335E+03 -0.34898261558E+03  0.42809985762E+03  0.00000000000E+00 0. -1.
<scales pt_clust_3="36.54134" pt_clust_4="45.05291" pt_clust_5="270.34564" pt_clust_6="14000.00000"></scales>
<clustering>
<clus scale="   36.541">  2  3  1 -1</clus>
<clus scale="   45.053">  2  4  1 -1</clus>
<clus scale="  270.346">  1  5  2 -1</clus>
<clus scale="  270.346">  1  3  2 -1</clus>
</clustering>
</event>
<event>
 6    0  0.4227619E+002  0.1367048E+03  0.7546771E-02  0.1217833E+00
         21   -1    0    0  503  501  0.00000000000E+00  0.00000000000E+00  0.42071796188E+03  0.42071796188E+03  0.00000000000E+00 0. -1.
         21   -1    0    0  505  502 -0.00000000000E+00 -0.00000000000E+00 -0.24834909016E+03  0.24834909016E+03  0.00000000000E+00 0. -1.
         21    1    1    2  503  504  0.10708345652E+03 -0.89243101031E+02 -0.67904311033E+02  0.15505545201E+03  0.00000000000E+00 0. -1.
         21    1    1    2  504  502  0.45054150567E+02  0.13598080985E+02 -0.69038995510E+02  0.83553379290E+02  0.00000000000E+00 0. -1.
         21    1    1    2  505  506 -0.13882512163E+03 -0.37624394313E+02  0.59142222281E+02  0.15551788289E+03  0.00000000000E+00 0. -1.
         21    1    1    2  506  501 -0.13312485459E+02  0.11326941436E+03  0.25016995598E+03  0.27494033784E+03  0.00000000000E+00 0. -1.
<scales pt_clust_3="14000.00000" pt_clust_4="47.06149" pt_clust_5="136.70484" pt_clust_6="114.69114"></scales>
<clustering>
<clus scale="   47.061">  2  4  1 -1</clus>
<clus scale="  114.691">  1  6  2 -1</clus>
<clus scale="  136.705">  1  5  2 -1</clus>
<clus scale="  114.691">  1  3  2 -1</clus>
</clustering>
</event>
<event>
 6    0  0.4227619E+002  0.1139966E+03  0.7546771E-02  0.1253343E+00
         21   -1    0    0  503  501  0.00000000000E+00  0.00000000000E+00  0.34032823042E+03  0.34032823042E+03  0.00000000000E+00 0.  1.
         21   -1    0    0  506  502 -0.00000000000E+00 -0.00000000000E+00 -0.24661394288E+03  0.24661394288E+03  0.00000000000E+00 0. -1.
         21    1    1    2  503  502  0.16064132867E+01  0.52331622798E+02  0.19238944938E+02  0.55779174525E+02  0.00000000000E+00 0. -1.
         21    1    1    2  504  501  0.41890487114E+02 -0.60671036014E+02  0.23150122105E+03  0.24295802697E+03  0.00000000000E+00 0.  1.
         21    1    1    2  505  504  0.77774260989E+02 -0.37504451639E+02 -0.23444660755E+01  0.86376594552E+02  0.00000000000E+00 0. -1.
         21    1    1    2  506  505 -0.12127116139E+03  0.45843864855E+02 -0.15468141237E+03  0.20182837725E+03  0.00000000000E+00 0. -1.
<scales pt_clust_3="52.35627" pt_clust_4="47.42266" pt_clust_5="113.99655" pt_clust_6="14000.00000"></scales>
<clustering>
<clus scale="   52.356">  1  3  2 -1</clus>
<clus scale="   47.423">  1  4  2 -1</clus>
<clus scale="  113.997">  1  5  2 -1</clus>
<clus scale="   52.356">  1  3  2 -1</clus>
</clustering>
</event>
<event>
 6    0  0.4227619E+002  0.6840031E+02  0.7546771E-02  0.1365619E+00
         21   -1    0    0  504  501  0.00000000000E+00  0.00000000000E+00  0.52132655494E+03  0.52132655494E+03  0.00000000000E+00 0. -1.
         21   -1    0    0  505  502 -0.00000000000E+00 -0.00000000000E+00 -0.32765521635E+03  0.32765521635E+03  0.00000000000E+00 0.  1.
         21    1    1    2  503  506 -0.93108307145E+00 -0.99201596233E+02  0.26032197345E+02  0.10256460846E+03  0.00000000000E+00 0.  1.
         21    1    1    2  504  503 -0.31967051245E+01  0.44507072397E+02  0.42980965438E+03  0.43211970264E+03  0.00000000000E+00 0. -1.
         21    1    1    2  505  501 -0.38854482422E+02 -0.17554025154E+02 -0.40451177808E+01  0.42827299486E+02  0.00000000000E+00 0.  1.
         21    1    1    2  506  502  0.42982270618E+02  0.72248548990E+02 -0.25812539535E+03  0.27147016069E+03  0.00000000000E+00 0.  1.
<scales pt_clust_3="68.40031" pt_clust_4="44.56608" pt_clust_5="42.63584" pt_clust_6="14000.00000"></scales>
<clustering>
<clus scale="   42.636">  2  5  1 -1</clus>
<clus scale="   44.566">  1  4  2 -1</clus>
<clus scale="   68.400">  1  3  2 -1</clus>
<clus scale="   44.566">  1  3  2 -1</clus>
</clustering>
</event>
<event>
 6    0  0.4227619E+002  0.1222210E+03  0.7546771E-02  0.1239477E+00
         21   -1    0    0  503  501  0.00000000000E+00  0.00000000000E+00  0.72245642780E+03  0.72245642780E+03  0.00000000000E+00 0. -1.
         21   -1    0    0  505  502 -0.00000000000E+00 -0.00000000000E+00 -0.54540720699E+03  0.54540720699E+03  0.00000000000E+00 0. -1.
         21    1    1    2  503  506 -0.16150411682E+03  0.44532605162E+02  0.11519249770E+03  0.20331267594E+03  0.00000000000E+00 0. -1.
         21    1    1    2  504  502  0.30613444455E+02 -0.79281956702E+02 -0.25273379974E+03  0.26664055425E+03  0.00000000000E+00 0. -1.
         21    1    1    2  505  501  0.50093256618E+02  0.13924859590E+02  0.54778048658E+03  0.55024239891E+03  0.00000000000E+00 0. -1.
         21    1    1    2  506  504  0.80797415751E+02  0.20824491950E+02 -0.23318996373E+03  0.24766800569E+03  0.00000000000E+00 0. -1.
<scales pt_clust_3="122.22104" pt_clust_4="85.21500" pt_clust_5="51.99265" pt_clust_6="14000.00000"></scales>
<clustering>
<clus scale="   51.993">  1  5  2 -1</clus>
<clus scale="   85.215">  2  4  1 -1</clus>
<clus scale="  122.221">  1  3  2 -1</clus>
<clus scale="   51.993">  1  3  2 -1</clus>
</clustering>
</event>
<event>
 6    0  0.4227619E+002  0.8709955E+02  0.7546771E-02  0.1310032E+00
         21   -1    0    0  505  501  0.00000000000E+00  0.00000000000E+00  0.94274029021E+02  0.94274029021E+02  0.00000000000E+00 0.  1.
         21   -1    0    0  506  502 -0.00000000000E+00 -0.00000000000E+00 -0.24944487305E+04  0.24944487305E+04  0.00000000000E+00 0.  1.
         21    1    1    2  503  502 -0.65440564758E+02 -0.11356941831E+03 -0.20929371635E+01  0.13109103965E+03  0.00000000000E+00 0.  1.
         21    1    1    2  504  501  0.32859734104E+02  0.84317533029E+02 -0.96120683942E+02  0.13201664434E+03  0.00000000000E+00 0.  1.
         21    1    1    2  505  503  0.21553645069E+02 -0.56698609330E+02 -0.72747793907E+02  0.94718179005E+02  0.00000000000E+00 0.  1.
         21    1    1    2  506  504  0.11027185585E+02  0.85950494614E+02 -0.22292132864E+04  0.22308968965E+04  0.00000000000E+00 0.  1.
<scales pt_clust_3="87.09955" pt_clust_4="81.27062" pt_clust_5="60.65717" pt_clust_6="14000.00000"></scales>
<clustering>
<clus scale="   60.657">  1  5  2 -1</clus>
<clus scale="   81.271">  1  4  2 -1</clus>
<clus scale="   87.100">  1  3  2 -1</clus>
<clus scale="   60.657">  1  3  2 -1</clus>
</clustering>
</event>
<event>
 6    0  0.4227619E+002  0.8444576E+02  0.7546771E-02  0.1316888E+00
         21   -1    0    0  506  501  0.00000000000E+00  0.00000000000E+00  0.35865332330E+02  0.35865332330E+02  0.00000000000E+00 0.  1.
         21   -1    0    0  504  502 -0.00000000000E+00 -0.00000000000E+00 -0.23808747739E+04  0.23808747739E+04  0.00000000000E+00 0.  1.
         21    1    1    2  503  502  0.75249365814E+01 -0.29795691999E+02 -0.49620376947E+03  0.49715449185E+03  0.00000000000E+00 0.  1.
         21    1    1    2  504  505  0.57931939856E+02 -0.24341857716E+02 -0.16714769026E+04  0.16726576672E+04  0.00000000000E+00 0.  1.
         21    1    1    2  505  501 -0.79542774929E+02  0.97642818340E+02 -0.12519994154E+03  0.17758434159E+03  0.00000000000E+00 0.  1.
         21    1    1    2  506  503  0.14085898491E+02 -0.43505268624E+02 -0.52128828020E+02  0.69343605654E+02  0.00000000000E+00 0.  1.
<scales pt_clust_3="30.73122" pt_clust_4="84.44576" pt_clust_5="14000.00000" pt_clust_6="46.71729"></scales>
<clustering>
<clus scale="   30.731">  2  3  1 -1</clus>
<clus scale="   46.717">  1  6  2 -1</clus>
<clus scale="   84.446">  2  4  1 -1</clus>
<clus scale="   46.717">  1  3  2 -1</clus>
</clustering>
</event>
<event>
 6    0  0.4227619E+002  0.1613647E+03  0.7546771E-02  0.1187165E+00
         21   -1    0    0  503  501  0.00000000000E+00  0.00000000000E+00  0.32417724048E+03  0.32417724048E+03  0.00000000000E+00 0. -1.
         21   -1    0    0  506  502 -0.00000000000E+00 -0.00000000000E+00 -0.51351883204E+03  0.51351883204E+03  0.00000000000E+00 0. -1.
         21    1    1    2  503  502 -0.15045719244E+02 -0.26283402760E+02 -0.14513378327E+02  0.33583166597E+02  0.00000000000E+00 0. -1.
         21    1    1    2  504  505 -0.30948247102E+02  0.17604421764E+03 -0.48956775693E+02  0.18532707965E+03  0.00000000000E+00 0. -1.
         21    1    1    2  505  501 -0.18014853407E+01 -0.15810266273E+03  0.21922534093E+03  0.27029511172E+03  0.00000000000E+00 0. -1.
         21    1    1    2  506  504  0.47795451687E+02  0.83418478452E+01 -0.34509677847E+03  0.34849071456E+03  0.00000000000E+00 0. -1.
<scales pt_clust_3="30.28516" pt_clust_4="161.36474" pt_clust_5="14000.00000" pt_clust_6="38.53210"></scales>
<clustering>
<clus scale="   30.285">  2  3  1 -1</clus>
<clus scale="   38.532">  2  6  1 -1</clus>
<clus scale="  161.365">  2  4  1 -1</clus>
<clus scale="  161.365">  1  3  2 -1</clus>
</clustering>
</event>
<event>
 6    0  0.4227619E+002  0.1137888E+03  0.7546771E-02  0.1253710E+00
         21   -1    0    0  504  501  0.00000000000E+00  0.00000000000E+00  0.40988141723E+03  0.40988141723E+03  0.00000000000E+00 0.  1.
         21   -1    0    0  501  502 -0.00000000000E+00 -0.00000000000E+00 -0.10724286804E+03  0.10724286804E+03  0.00000000000E+00 0. -1.
         21    1    1    2  503  506  0.27582432049E+02 -0.22372264080E+02  0.82212756131E+01  0.36454055063E+02  0.00000000000E+00 0. -1.
         21    1    1    2  504  505  0.93554961172E+01  0.62834417532E+02  0.27090490355E+03  0.27825376206E+03  0.00000000000E+00 0.  1.
         21    1    1    2  505  503 -0.10801489720E+03 -0.51909909587E+02  0.43841165862E+02  0.12760840315E+03  0.00000000000E+00 0. -1.
         21    1    1    2  506  502  0.71076969034E+02  0.11447756135E+02 -0.20328795838E+02  0.74808064992E+02  0.00000000000E+00 0. -1.
<scales pt_clust_3="34.26229" pt_clust_4="63.52708" pt_clust_5="102.80193" pt_clust_6="34.26229"></scales>
<clustering>
<clus scale="   34.262">  3  6 -1 -1</clus>
<clus scale="   63.527">  1  4  2 -1</clus>
<clus scale="  102.802">  1  5  2 -1</clus>
<clus scale="   63.527">  1  3  2 -1</clus>
</clustering>
</event>
<event>
 6    0  0.7673932E+002  0.8356811E+02  0.7546771E-02  0.1319220E+00
         21   -1    0    0  506  501  0.00000000000E+00  0.00000000000E+00  0.13686212627E+04  0.13686212627E+04  0.00000000000E+00 0. -1.
         21   -1    0    0  503  502 -0.00000000000E+00 -0.00000000000E+00 -0.23961766308E+03  0.23961766308E+03  0.00000000000E+00 0. -1.
         21    1    1    2  503  504 -0.17085585228E+02 -0.58542456858E+02 -0.20590507351E+03  0.21474644531E+03  0.00000000000E+00 0. -1.
         21    1    1    2  504  501  0.20525903555E+02  0.13104282414E+03  0.12778545590E+04  0.12847201285E+04  0.00000000000E+00 0. -1.
         21    1    1    2  505  502  0.16014677794E+02 -0.25637315320E+02 -0.27381957896E+01  0.30351928404E+02  0.00000000000E+00 0. -1.
         21    1    1    2  506  505 -0.19454996121E+02 -0.46863051964E+02  0.59792309868E+02  0.78420423570E+02  0.00000000000E+00 0.  1.
<scales pt_clust_3="14000.00000" pt_clust_4="83.56811" pt_clust_5="30.22816" pt_clust_6="51.48346"></scales>
<clustering>
<clus scale="   30.228">  2  5  1 -1</clus>
<clus scale="   51.483">  1  6  2 -1</clus>
<clus scale="   83.568">  1  4  2 -1</clus>
<clus scale="   51.483">  1  3  2 -1</clus>
</clustering>
</event>
<event>
 6    0  0.4227619E+002  0.1875369E+03  0.7546771E-02  0.1160702E+00
         21   -1    0    0  506  501  0.00000000000E+00  0.00000000000E+00  0.15071202071E+04  0.15071202071E+04  0.00000000000E+00 0. -1.
         21   -1    0    0  505  502 -0.00000000000E+00 -0.00000000000E+00 -0.98969759600E+02  0.98969759600E+02  0.00000000000E+00 0. -1.
         21    1    1    2  503  502 -0.18351980943E+02 -0.33144818859E+02 -0.10366767720E+02  0.39279054147E+02  0.00000000000E+00 0.  1.
         21    1    1    2  504  503  0.28154733882E+02 -0.14893281712E+03  0.42649723293E+02  0.15745688919E+03  0.00000000000E+00 0. -1.
         21    1    1    2  505  501 -0.59682234694E+02  0.13733070977E+02  0.75634307428E+02  0.97319652880E+02  0.00000000000E+00 0.  1.
         21    1    1    2  506  504  0.49879481755E+02  0.16834456500E+03  0.13002331845E+04  0.13120343705E+04  0.00000000000E+00 0. -1.
<scales pt_clust_3="33.21801" pt_clust_4="33.21801" pt_clust_5="61.24187" pt_clust_6="175.37279"></scales>
<clustering>
<clus scale="   33.218">  3  4 -1 -1</clus>
<clus scale="   61.242">  2  5  1 -1</clus>
<clus scale="  175.373">  1  6  2 -1</clus>
<clus scale="  175.373">  1  3  2 -1</clus>
</clustering>
</event>
<event>
 6    0  0.4227619E+002  0.1144069E+03  0.7546771E-02  0.1252620E+00
         21   -1    0    0  503  501  0.00000000000E+00  0.00000000000E+00  0.64200785718E+03  0.64200785718E+03  0.00000000000E+00 0. -1.
         21   -1    0    0  504  502 -0.00000000000E+00 -0.00000000000E+00 -0.86701043667E+02  0.86701043667E+02  0.00000000000E+00 0.  1.
         21    1    1    2  503  502 -0.13455476581E+02  0.42323211283E+02 -0.59394914701E+02  0.74162389091E+02  0.00000000000E+00 0.  1.
         21    1    1    2  504  506 -0.68542542655E+02  0.54763165585E+01  0.13437364713E+03  0.15094484834E+03  0.00000000000E+00 0. -1.
         21    1    1    2  505  501  0.11188770590E+03 -0.31267143528E+02  0.34525542222E+03  0.36427709174E+03  0.00000000000E+00 0. -1.
         21    1    1    2  506  505 -0.29889686666E+02 -0.16532384313E+02  0.13507265887E+03  0.13932457168E+03  0.00000000000E+00 0. -1.
<scales pt_clust_3="44.41063" pt_clust_4="30.26473" pt_clust_5="106.04272" pt_clust_6="30.26473"></scales>
<clustering>
<clus scale="   30.265">  4  6 -1 -1</clus>
<clus scale="   44.411">  2  3  1 -1</clus>
<clus scale="  106.043">  1  5  2 -1</clus>
<clus scale="  106.043">  1  3  2 -1</clus>
</clustering>
</event>
<event>
 6    0  0.4227619E+002  0.7731001E+02  0.7546771E-02  0.1336863E+00
         21   -1    0    0  506  501  0.00000000000E+00  0.00000000000E+00  0.96423384193E+03  0.96423384193E+03  0.00000000000E+00 0. -1.
         21   -1    0    0  503  502 -0.00000000000E+00 -0.00000000000E+00 -0.15304844140E+03  0.15304844140E+03  0.00000000000E+00 0. -1.
         21    1    1    2  503  504  0.71807797824E+02  0.29361413762E+01 -0.67481460060E+02  0.98583610232E+02  0.00000000000E+00 0. -1.
         21    1    1    2  504  501 -0.84122717474E+01 -0.39540524447E+02  0.81114799778E+02  0.90630183342E+02  0.00000000000E+00 0. -1.
         21    1    1    2  505  502 -0.75259757464E+02  0.76524578260E+02 -0.20234548366E+02  0.10922215489E+03  0.00000000000E+00 0. -1.
         21    1    1    2  506  505  0.11864231388E+02 -0.39920195189E+02  0.81778660918E+03  0.81884633487E+03  0.00000000000E+00 0. -1.
<scales pt_clust_3="71.69374" pt_clust_4="40.42548" pt_clust_5="14000.00000" pt_clust_6="77.31001"></scales>
<clustering>
<clus scale="   40.425">  1  4  2 -1</clus>
<clus scale="   71.694">  2  3  1 -1</clus>
<clus scale="   77.310">  1  6  2 -1</clus>
<clus scale="   40.425">  1  3  2 -1</clus>
</clustering>
</event>
<event>
 6    0  0.4227619E+002  0.6283698E+02  0.7546771E-02  0.1386298E+00
         21   -1    0    0  505  501  0.00000000000E+00  0.00000000000E+00  0.22124785428E+04  0.22124785428E+04  0.00000000000E+00 0.  1.
         21   -1    0    0  506  502 -0.00000000000E+00 -0.00000000000E+00 -0.59519257377E+02  0.59519257377E+02  0.00000000000E+00 0. -1.
         21    1    1    2  503  504  0.78577868416E+02  0.49151504489E+02  0.92516001860E+03  0.92979105815E+03  0.00000000000E+00 0.  1.
         21    1    1    2  504  501 -0.23193957063E+02 -0.25816266734E+02  0.12087446243E+04  0.12092427407E+04  0.00000000000E+00 0.  1.
         21    1    1    2  505  502 -0.80293598341E+02  0.15741665058E+02  0.26547388560E+02  0.86021077607E+02  0.00000000000E+00 0. -1.
         21    1    1    2  506  503  0.24909686988E+02 -0.39076902814E+02 -0.74927460423E+01  0.46942923669E+02  0.00000000000E+00 0. -1.
<scales pt_clust_3="62.83698" pt_clust_4="34.70503" pt_clust_5="14000.00000" pt_clust_6="46.52858"></scales>
<clustering>
<clus scale="   34.705">  1  4  2 -1</clus>
<clus scale="   46.529">  2  6  1 -1</clus>
<clus scale="   62.837">  1  3  2 -1</clus>
<clus scale="   34.705">  1  3  2 -1</clus>
</clustering>
</event>
<event>
 6    0  0.4738962E+002  0.2356870E+03  0.7546771E-02  0.1122700E+00
         21   -1    0    0  503  501  0.00000000000E+00  0.00000000000E+00  0.46672186540E+03  0.46672186540E+03  0.00000000000E+00 0.  1.
         21   -1    0    0  505  502 -0.00000000000E+00 -0.00000000000E+00 -0.20579655478E+04  0.20579655478E+04  0.00000000000E+00 0. -1.
         21    1    1    2  503  504  0.43676418536E+02  0.26405098719E+02  0.38405586718E+03  0.38743227523E+03  0.00000000000E+00 0.  1.
         21    1    1    2  504  502  0.13333605202E+03  0.10356127450E+03 -0.23137259156E+02  0.17040766739E+03  0.00000000000E+00 0.  1.
         21    1    1    2  505  506 -0.13634482285E+03 -0.75948668347E+02 -0.16420122159E+04  0.16494126919E+04  0.00000000000E+00 0. -1.
         21    1    1    2  506  501 -0.40667647701E+02 -0.54017704870E+02 -0.31015007452E+03  0.31743477871E+03  0.00000000000E+00 0. -1.
<scales pt_clust_3="51.03782" pt_clust_4="214.99230" pt_clust_5="63.03149" pt_clust_6="63.03149"></scales>
<clustering>
<clus scale="   51.038">  1  3  2 -1</clus>
<clus scale="   63.031">  5  6 -1 -1</clus>
<clus scale="  214.992">  1  4  2 -1</clus>
<clus scale="   51.038">  1  3  2 -1</clus>
</clustering>
</event>
<event>
 6    0  0.4227619E+002  0.8556691E+02  0.7546771E-02  0.1313957E+00
         21   -1    0    0  505  501  0.00000000000E+00  0.00000000000E+00  0.97972315697E+03  0.97972315697E+03  0.00000000000E+00 0.  1.
         21   -1    0    0  504  502 -0.00000000000E+00 -0.00000000000E+00 -0.20147096164E+03  0.20147096164E+03  0.00000000000E+00 0.  1.
         21    1    1    2  503  502  0.96933854651E+02 -0.51673519000E+02  0.70006273988E+02  0.13025821717E+03  0.00000000000E+00 0.  1.
         21    1    1    2  504  506 -0.31014739197E+02  0.79658603977E+02 -0.15318857969E+03  0.17542562008E+03  0.00000000000E+00 0.  1.
         21    1    1    2  505  503 -0.30321974050E+02 -0.33939057587E+02  0.71525822574E+02  0.84777503119E+02  0.00000000000E+00 0.  1.
         21    1    1    2  506  501 -0.35597141404E+02  0.59539726094E+01  0.78990867846E+03  0.79073277823E+03  0.00000000000E+00 0.  1.
<scales pt_clust_3="14000.00000" pt_clust_4="85.56691" pt_clust_5="54.92768" pt_clust_6="36.09164"></scales>
<clustering>
<clus scale="   36.092">  1  6  2 -1</clus>
<clus scale="   54.928">  1  5  2 -1</clus>
<clus scale="   85.567">  2  4  1 -1</clus>
<clus scale="   36.092">  1  3  2 -1</clus>
</clustering>
</event>
<event>
 6    0  0.4227619E+002  0.1063510E+03  0.7546771E-02  0.1267480E+00
         21   -1    0    0  506  501  0.00000000000E+00  0.00000000000E+00  0.15644605951E+03  0.15644605951E+03  0.00000000000E+00 0.  1.
         21   -1    0    0  503  502 -0.00000000000E+00 -0.00000000000E+00 -0.22653802833E+03  0.22653802833E+03  0.00000000000E+00 0.  1.
         21    1    1    2  503  505  0.31344727432E+02  0.90122013507E+01 -0.67136146980E+02  0.74638957269E+02  0.00000000000E+00 0.  1.
         21    1    1    2  504  501  0.38758771532E+01  0.35046207079E+02  0.59517984371E+02  0.69178389096E+02  0.00000000000E+00 0. -1.
         21    1    1    2  505  504  0.48306892301E+02  0.41193985861E+02  0.45591603433E+02  0.78160697403E+02  0.00000000000E+00 0.  1.
         21    1    1    2  506  502 -0.83527496887E+02 -0.85252394291E+02 -0.10806540964E+03  0.16100604408E+03  0.00000000000E+00 0.  1.
<scales pt_clust_3="32.61459" pt_clust_4="33.72919" pt_clust_5="33.72919" pt_clust_6="95.84032"></scales>
<clustering>
<clus scale="   32.615">  2  3  1 -1</clus>
<clus scale="   33.729">  4  5 -1 -1</clus>
<clus scale="   95.840">  2  6  1 -1</clus>
<clus scale="  106.351">  1  3  2 -1</clus>
</clustering>
</event>
<event>
 6    0  0.4227619E+002  0.7729647E+02  0.7546771E-02  0.1336904E+00
         21   -1    0    0  502  501  0.00000000000E+00  0.00000000000E+00  0.55039819825E+02  0.55039819825E+02  0.00000000000E+00 0. -1.
         21   -1    0    0  503  502 -0.00000000000E+00 -0.00000000000E+00 -0.20513315671E+04  0.20513315671E+04  0.00000000000E+00 0.  1.
         21    1    1    2  503  506  0.76582820579E+02 -0.40465371872E+01 -0.18512231283E+04  0.18528109385E+04  0.00000000000E+00 0.  1.
         21    1    1    2  504  501  0.65141212944E+01 -0.37519906379E+02  0.12463399990E+02  0.40068859358E+02  0.00000000000E+00 0. -1.
         21    1    1    2  505  504  0.11850345331E+02  0.39903739423E+02 -0.82711442903E+02  0.92595474465E+02  0.00000000000E+00 0. -1.
         21    1    1    2  506  505 -0.94947287205E+02  0.16627041440E+01 -0.74820576017E+02  0.12089611461E+03  0.00000000000E+00 0.  1.
<scales pt_clust_3="77.29647" pt_clust_4="38.08119" pt_clust_5="35.88508" pt_clust_6="14000.00000"></scales>
<clustering>
<clus scale="   38.081">  1  4  2 -1</clus>
<clus scale="   35.885">  1  5  2 -1</clus>
<clus scale="   77.296">  2  3  1 -1</clus>
<clus scale="   38.081">  1  3  2 -1</clus>
</clustering>
</event>
<event>
 6    0  0.4227619E+002  0.6889946E+02  0.7546771E-02  0.1363876E+00
         21   -1    0    0  504  501  0.00000000000E+00  0.00000000000E+00  0.98972065108E+03  0.98972065108E+03  0.00000000000E+00 0.  1.
         21   -1    0    0  506  502 -0.00000000000E+00 -0.00000000000E+00 -0.22042026509E+03  0.22042026509E+03  0.00000000000E+00 0.  1.
         21    1    1    2  503  505  0.25043430333E+01 -0.82070102265E+02  0.70365070855E+03  0.70842507936E+03  0.00000000000E+00 0.  1.
         21    1    1    2  504  503 -0.17751124891E+02  0.30490198863E+02  0.24987019764E+03  0.25234870780E+03  0.00000000000E+00 0. -1.
         21    1    1    2  505  502  0.79025179777E+02  0.52121258480E+02 -0.67195298709E+02  0.11608967565E+03  0.00000000000E+00 0.  1.
         21    1    1    2  506  501 -0.63778397920E+02 -0.54135507678E+00 -0.11702522149E+03  0.13327745335E+03  0.00000000000E+00 0.  1.
<scales pt_clust_3="54.86541" pt_clust_4="35.28108" pt_clust_5="14000.00000" pt_clust_6="68.89946"></scales>
<clustering>
<clus scale="   35.281">  1  4  2 -1</clus>
<clus scale="   54.865">  1  3  2 -1</clus>
<clus scale="   68.899">  2  6  1 -1</clus>
<clus scale="   35.281">  1  3  2 -1</clus>
</clustering>
</event>
<event>
 6    0  0.4227619E+002  0.1963116E+03  0.7546771E-02  0.1152889E+00
         21   -1    0    0  506  501  0.00000000000E+00  0.00000000000E+00  0.12377135170E+04  0.12377135170E+04  0.00000000000E+00 0. -1.
         21   -1    0    0  503  502 -0.00000000000E+00 -0.00000000000E+00 -0.17248069894E+03  0.17248069894E+03  0.00000000000E+00 0.  1.
         21    1    1    2  503  501  0.78181590634E+02 -0.16435015001E+03  0.56969119351E+02  0.19070609188E+03  0.00000000000E+00 0.  1.
         21    1    1    2  504  502 -0.11377882610E+03  0.17569102888E+03  0.25004742351E+01  0.20933038783E+03  0.00000000000E+00 0.  1.
         21    1    1    2  505  504  0.31697910228E+02 -0.42610112099E+02  0.39134743751E+03  0.39493441989E+03  0.00000000000E+00 0. -1.
         21    1    1    2  506  505  0.38993252368E+01  0.31269233225E+02  0.61441578700E+03  0.61522331637E+03  0.00000000000E+00 0. -1.
<scales pt_clust_3="14000.00000" pt_clust_4="196.31162" pt_clust_5="41.11055" pt_clust_6="31.51142"></scales>
<clustering>
<clus scale="   31.511">  1  6  2 -1</clus>
<clus scale="   41.111">  1  5  2 -1</clus>
<clus scale="  196.312">  2  4  1 -1</clus>
<clus scale="   31.511">  1  3  2 -1</clus>
</clustering>
</event>
<event>
 6    0  0.4227619E+002  0.1650329E+03  0.7546771E-02  0.1183129E+00
         21   -1    0    0  504  501  0.00000000000E+00  0.00000000000E+00  0.16649338384E+03  0.16649338384E+03  0.00000000000E+00 0. -1.
         21   -1    0    0  506  502 -0.00000000000E+00 -0.00000000000E+00 -0.10456768580E+04  0.10456768580E+04  0.00000000000E+00 0.  1.
         21    1    1    2  503  502 -0.84101567706E+02  0.11248353746E+03 -0.86755714525E+03  0.87885210369E+03  0.00000000000E+00 0.  1.
         21    1    1    2  504  505  0.65274218541E+02 -0.27617934856E+02  0.77386892205E+02  0.10493905382E+03  0.00000000000E+00 0. -1.
         21    1    1    2  505  503  0.87172612439E+02 -0.81683308866E+02 -0.43712231255E+01  0.11954218878E+03  0.00000000000E+00 0. -1.
         21    1    1    2  506  501 -0.68345263274E+02 -0.31822937423E+01 -0.84641997962E+02  0.10883689551E+03  0.00000000000E+00 0. -1.
<scales pt_clust_3="14000.00000" pt_clust_4="69.98202" pt_clust_5="165.03287" pt_clust_6="68.41931"></scales>
<clustering>
<clus scale="   68.419">  2  6  1 -1</clus>
<clus scale="   69.982">  1  4  2 -1</clus>
<clus scale="  165.033">  1  5  2 -1</clus>
<clus scale="   69.982">  1  3  2 -1</clus>
</clustering>
</event>
<event>
 6    0  0.4227619E+002  0.8301318E+02  0.7546771E-02  0.1320712E+00
         21   -1    0    0  505  501  0.00000000000E+00  0.00000000000E+00  0.14705416803E+04  0.14705416803E+04  0.00000000000E+00 0. -1.
         21   -1    0    0  503  502 -0.00000000000E+00 -0.00000000000E+00 -0.31532151197E+02  0.31532151197E+02  0.00000000000E+00 0. -1.
         21    1    1    2  503  504 -0.20852661838E+02 -0.23634735900E+02  0.28891871327E+01  0.31650934411E+02  0.00000000000E+00 0. -1.
         21    1    1    2  504  501  0.32413055271E+02 -0.84884023000E+02  0.16538117106E+03  0.18869773516E+03  0.00000000000E+00 0. -1.
         21    1    1    2  505  506 -0.49379192145E+02  0.65914429738E+02  0.10669253814E+04  0.10700994281E+04  0.00000000000E+00 0. -1.
         21    1    1    2  506  502  0.37818798712E+02  0.42604329163E+02  0.20381378952E+03  0.21162573378E+03  0.00000000000E+00 0. -1.
<scales pt_clust_3="31.51879" pt_clust_4="14000.00000" pt_clust_5="83.01318" pt_clust_6="49.79039"></scales>
<clustering>
<clus scale="   31.519">  2  3  1 -1</clus>
<clus scale="   49.790">  2  6  1 -1</clus>
<clus scale="   83.013">  1  5  2 -1</clus>
<clus scale="   83.013">  1  3  2 -1</clus>
</clustering>
</event>
<event>
 6    0  0.4227619E+002  0.6392950E+02  0.7546771E-02  0.1382044E+00
         21   -1    0    0  503  501  0.00000000000E+00  0.00000000000E+00  0.83970511346E+02  0.83970511346E+02  0.00000000000E+00 0.  1.
         21   -1    0    0  505  502 -0.00000000000E+00 -0.00000000000E+00 -0.15545437123E+04  0.15545437123E+04  0.00000000000E+00 0. -1.
         21    1    1    2  503  504 -0.62946952640E+01  0.66191160404E+02  0.28640404362E+02  0.72395895368E+02  0.00000000000E+00 0.  1.
         21    1    1    2  504  506 -0.52452864021E+02  0.30296798054E+02 -0.22163863787E+02  0.64501440095E+02  0.00000000000E+00 0. -1.
         21    1    1    2  505  501  0.54742940134E+02 -0.43342862812E+02 -0.91774235924E+02  0.11531653667E+03  0.00000000000E+00 0. -1.
         21    1    1    2  506  502  0.40046191508E+01 -0.53145095646E+02 -0.13852755056E+04  0.13863003515E+04  0.00000000000E+00 0. -1.
<scales pt_clust_3="63.92950" pt_clust_4="54.05294" pt_clust_5="14000.00000" pt_clust_6="53.29576"></scales>
<clustering>
<clus scale="   53.296">  2  6  1 -1</clus>
<clus scale="   54.053">  2  4  1 -1</clus>
<clus scale="   63.930">  1  3  2 -1</clus>
<clus scale="   63.930">  1  3  2 -1</clus>
</clustering>
</event>
<event>
 6    0  0.4227619E+002  0.1033373E+03  0.7546771E-02  0.1273430E+00
         21   -1    0    0  505  501  0.00000000000E+00  0.00000000000E+00  0.16691793587E+03  0.16691793587E+03  0.00000000000E+00 0.  1.
         21   -1    0    0  504  502 -0.00000000000E+00 -0.00000000000E+00 -0.49535283423E+03  0.49535283423E+03  0.00000000000E+00 0. -1.
         21    1    1    2  503  501  0.35212428330E+01  0.62240015288E+02  0.41681618526E+02  0.74990505913E+02  0.00000000000E+00 0.  1.
         21    1    1    2  504  506  0.30987342263E+02  0.61447170309E+02 -0.32053892247E+02  0.75917205742E+02  0.00000000000E+00 0.  1.
         21    1    1    2  505  502 -0.10565464627E+03 -0.61174689053E+02 -0.38626106745E+03  0.40509611093E+03  0.00000000000E+00 0. -1.
         21    1    1    2  506  503  0.71146061173E+02 -0.62512496544E+02  0.48198442819E+02  0.10626694752E+03  0.00000000000E+00 0. -1.
<scales pt_clust_3="62.33954" pt_clust_4="103.33734" pt_clust_5="14000.00000" pt_clust_6="75.87618"></scales>
<clustering>
<clus scale="   62.340">  1  3  2 -1</clus>
<clus scale="   75.876">  1  6  2 -1</clus>
<clus scale="  103.337">  1  4  2 -1</clus>
<clus scale="   62.340">  1  3  2 -1</clus>
</clustering>
</event>
<event>
 6    0  0.4227619E+002  0.1490907E+03  0.7546771E-02  0.1201595E+00
         21   -1    0    0  504  501  0.00000000000E+00  0.00000000000E+00  0.24912811042E+03  0.24912811042E+03  0.00000000000E+00 0.  1.
         21   -1    0    0  506  502 -0.00000000000E+00 -0.00000000000E+00 -0.30205265379E+03  0.30205265379E+03  0.00000000000E+00 0. -1.
         21    1    1    2  503  502  0.71192888059E+01  0.34731587852E+02 -0.45328813939E+02  0.57547101064E+02  0.00000000000E+00 0. -1.
         21    1    1    2  504  505  0.19782578104E+02 -0.25339252902E+02  0.14827519017E+03  0.15172000578E+03  0.00000000000E+00 0.  1.
         21    1    1    2  505  503 -0.11016738363E+03  0.11198324550E+03 -0.77799103987E+02  0.17529917361E+03  0.00000000000E+00 0. -1.
         21    1    1    2  506  501  0.83265516716E+02 -0.12137558045E+03 -0.78071815616E+02  0.16661448376E+03  0.00000000000E+00 0. -1.
<scales pt_clust_3="34.20202" pt_clust_4="32.14698" pt_clust_5="14000.00000" pt_clust_6="149.09065"></scales>
<clustering>
<clus scale="   32.147">  1  4  2 -1</clus>
<clus scale="   34.202">  2  3  1 -1</clus>
<clus scale="  149.091">  2  6  1 -1</clus>
<clus scale="   32.147">  1  3  2 -1</clus>
</clustering>
</event>
<event>
 6    0  0.4227619E+002  0.6930519E+02  0.7546771E-02  0.1362472E+00
         21   -1    0    0  506  501  0.00000000000E+00  0.00000000000E+00  0.57494409598E+02  0.57494409598E+02  0.00000000000E+00 0. -1.
         21   -1    0    0  503  502 -0.00000000000E+00 -0.00000000000E+00 -0.20595158650E+04  0.20595158650E+04  0.00000000000E+00 0.  1.
         21    1    1    2  503  504  0.21473979610E+02  0.58395328732E+02 -0.12777600291E+04  0.12792739496E+04  0.00000000000E+00 0.  1.
         21    1    1    2  504  505  0.40388730570E+02  0.26574708697E+02 -0.10791066635E+03  0.11824625411E+03  0.00000000000E+00 0.  1.
         21    1    1    2  505  501  0.18568384606E+01  0.31436464796E+02  0.39404271369E+02  0.50442004025E+02  0.00000000000E+00 0. -1.
         21    1    1    2  506  502 -0.63719548641E+02 -0.11640650223E+03 -0.65575503134E+03  0.66904806686E+03  0.00000000000E+00 0.  1.
<scales pt_clust_3="14000.00000" pt_clust_4="57.03990" pt_clust_5="31.49126" pt_clust_6="69.30519"></scales>
<clustering>
<clus scale="   31.491">  1  5  2 -1</clus>
<clus scale="   57.040">  1  4  2 -1</clus>
<clus scale="   69.305">  1  6  2 -1</clus>
<clus scale="   31.491">  1  3  2 -1</clus>
</clustering>
</event>
<event>
 6    0  0.4227619E+002  0.6886754E+02  0.7546771E-02  0.1363987E+00
         21   -1    0    0  503  501  0.00000000000E+00  0.00000000000E+00  0.25531094572E+03  0.25531094572E+03  0.00000000000E+00 0. -1.
         21   -1    0    0  506  502 -0.00000000000E+00 -0.00000000000E+00 -0.24287379545E+03  0.24287379545E+03  0.00000000000E+00 0.  1.
         21    1    1    2  503  505 -0.71010100899E-01  0.67520744685E+02  0.17642459918E+03  0.18890393114E+03  0.00000000000E+00 0. -1.
         21    1    1    2  504  501 -0.47459808336E+00 -0.79620885829E+02 -0.18006674469E+02  0.81633026582E+02  0.00000000000E+00 0.  1.
         21    1    1    2  505  502  0.34882241911E+02  0.48670561942E+02  0.12712804293E+02  0.61214457390E+02  0.00000000000E+00 0. -1.
         21    1    1    2  506  504 -0.34336633727E+02 -0.36570420799E+02 -0.15869357873E+03  0.16643332606E+03  0.00000000000E+00 0.  1.
<scales pt_clust_3="14000.00000" pt_clust_4="68.86754" pt_clust_5="44.90840" pt_clust_6="50.16373"></scales>
<clustering>
<clus scale="   50.164">  2  6  1 -1</clus>
<clus scale="   44.908">  2  5  1 -1</clus>
<clus scale="   68.868">  2  4  1 -1</clus>
<clus scale="   68.868">  1  3  2 -1</clus>
</clustering>
</event>
<event>
 6    0  0.4227619E+002  0.1434401E+03  0.7546771E-02  0.1208774E+00
         21   -1    0    0  503  501  0.00000000000E+00  0.00000000000E+00  0.13577752535E+04  0.13577752535E+04  0.00000000000E+00 0. -1.
         21   -1    0    0  506  502 -0.00000000000E+00 -0.00000000000E+00 -0.33237923832E+03  0.33237923832E+03  0.00000000000E+00 0.  1.
         21    1    1    2  503  502 -0.23214876218E+02 -0.11589047511E+03 -0.22066484416E+03  0.25032480130E+03  0.00000000000E+00 0.  1.
         21    1    1    2  504  505  0.80069569573E+02  0.99226307455E+02  0.68378535998E+02  0.14468109845E+03  0.00000000000E+00 0.  1.
         21    1    1    2  505  501 -0.11077973092E+02  0.44209394023E+02  0.12237536476E+04  0.12246020505E+04  0.00000000000E+00 0. -1.
         21    1    1    2  506  504 -0.45776720262E+02 -0.27545226369E+02 -0.46071324262E+02  0.70546541609E+02  0.00000000000E+00 0.  1.
<scales pt_clust_3="14000.00000" pt_clust_4="143.44012" pt_clust_5="45.57622" pt_clust_6="52.35920"></scales>
<clustering>
<clus scale="   45.576">  1  5  2 -1</clus>
<clus scale="   52.359">  2  6  1 -1</clus>
<clus scale="  143.440">  1  4  2 -1</clus>
<clus scale="   45.576">  1  3  2 -1</clus>
</clustering>
</event>
<event>
 6    0  0.4227619E+002  0.1324711E+03  0.7546771E-02  0.1223835E+00
         21   -1    0    0  503  501  0.00000000000E+00  0.00000000000E+00  0.12279448289E+04  0.12279448289E+04  0.00000000000E+00 0. -1.
         21   -1    0    0  505  502 -0.00000000000E+00 -0.00000000000E+00 -0.25498733601E+03  0.25498733601E+03  0.00000000000E+00 0.  1.
         21    1    1    2  503  504 -0.39956222951E+02  0.23151853889E+02  0.52944550470E+03  0.53145559602E+03  0.00000000000E+00 0. -1.
         21    1    1    2  504  506 -0.88570807574E+02 -0.34171969947E+02 -0.16145709789E+02  0.96297432100E+02  0.00000000000E+00 0.  1.
         21    1    1    2  505  501  0.14884262590E+03  0.60546286551E+02  0.64372950755E+03  0.66348146846E+03  0.00000000000E+00 0. -1.
         21    1    1    2  506  502 -0.20315595379E+02 -0.49526170493E+02 -0.18407180955E+03  0.19169766835E+03  0.00000000000E+00 0.  1.
<scales pt_clust_3="46.17909" pt_clust_4="132.47105" pt_clust_5="14000.00000" pt_clust_6="53.49736"></scales>
<clustering>
<clus scale="   46.179">  1  3  2 -1</clus>
<clus scale="   53.497">  2  6  1 -1</clus>
<clus scale="  132.471">  2  4  1 -1</clus>
<clus scale="   46.179">  1  3  2 -1</clus>
</clustering>
</event>
<event>
 6    0  0.4227619E+002  0.1269233E+03  0.7546771E-02  0.1232094E+00
         21   -1    0    0  503  501  0.00000000000E+00  0.00000000000E+00  0.60835553039E+03  0.60835553039E+03  0.00000000000E+00 0. -1.
         21   -1    0    0  504  502 -0.00000000000E+00 -0.00000000000E+00 -0.16912837905E+03  0.16912837905E+03  0.00000000000E+00 0. -1.
         21    1    1    2  503  502 -0.55392796449E+02 -0.32359654424E+02  0.48974434407E+03  0.49392816450E+03  0.00000000000E+00 0. -1.
         21    1    1    2  504  506  0.69492541663E+02  0.35579628794E+02 -0.65015659512E+02  0.10159802810E+03  0.00000000000E+00 0. -1.
         21    1    1    2  505  501 -0.61948148232E+02  0.12127193316E+02  0.78407482610E+02  0.10065970006E+03  0.00000000000E+00 0. -1.
         21    1    1    2  506  505  0.47848403018E+02 -0.15347167686E+02 -0.63909015832E+02  0.81298016777E+02  0.00000000000E+00 0. -1.
<scales pt_clust_3="116.01025" pt_clust_4="41.30821" pt_clust_5="63.12402" pt_clust_6="41.30821"></scales>
<clustering>
<clus scale="   41.308">  4  6 -1 -1</clus>
<clus scale="   63.124">  1  5  2 -1</clus>
<clus scale="  116.010">  1  3  2 -1</clus>
<clus scale="   63.124">  1  3  2 -1</clus>
</clustering>
</event>
<event>
 6    0  0.4227619E+002  0.1451129E+03  0.7546771E-02  0.1206610E+00
         21   -1    0    0  505  501  0.00000000000E+00  0.00000000000E+00  0.91547868947E+03  0.91547868947E+03  0.00000000000E+00 0.  1.
         21   -1    0    0  506  502 -0.00000000000E+00 -0.00000000000E+00 -0.18424124547E+04  0.18424124547E+04  0.00000000000E+00 0. -1.
         21    1    1    2  503  504  0.17490227749E+03  0.69301157820E+01 -0.14163703621E+03  0.22516634562E+03  0.00000000000E+00 0.  1.
         21    1    1    2  504  501 -0.27461172900E+02  0.12929201787E+03  0.23534520207E+03  0.26992203697E+03  0.00000000000E+00 0.  1.
         21    1    1    2  505  502 -0.11086548512E+03 -0.82755595705E+02  0.61272622234E+03  0.62815051377E+03  0.00000000000E+00 0.  1.
         21    1    1    2  506  503 -0.36575619463E+02 -0.53466537949E+02 -0.16333681534E+04  0.16346522478E+04  0.00000000000E+00 0. -1.
<scales pt_clust_3="14000.00000" pt_clust_4="128.52680" pt_clust_5="145.11290" pt_clust_6="64.77999"></scales>
<clustering>
<clus scale="   64.780">  2  6  1 -1</clus>
<clus scale="  128.527">  1  4  2 -1</clus>
<clus scale="  145.113">  1  5  2 -1</clus>
<clus scale="  128.527">  1  3  2 -1</clus>
</clustering>
</event>
<event>
 6    0  0.4227619E+002  0.1149308E+03  0.7546771E-02  0.1251702E+00
         21   -1    0    0  506  501  0.00000000000E+00  0.00000000000E+00  0.93971977993E+03  0.93971977993E+03  0.00000000000E+00 0. -1.
         21   -1    0    0  505  502 -0.00000000000E+00 -0.00000000000E+00 -0.87133431260E+03  0.87133431260E+03  0.00000000000E+00 0.  1.
         21    1    1    2  503  502  0.11262782502E+03 -0.31951474828E+02 -0.82550095688E+03  0.83376120893E+03  0.00000000000E+00 0.  1.
         21    1    1    2  504  501 -0.47203213487E+02 -0.11965088105E+02  0.61179933760E+03  0.61373425534E+03  0.00000000000E+00 0. -1.
         21    1    1    2  505  504  0.17105277912E+02  0.10801024650E+03  0.20950710453E+03  0.23633034239E+03  0.00000000000E+00 0. -1.
         21    1    1    2  506  503 -0.82529889446E+02 -0.64093683570E+02  0.72579982077E+02  0.12722828586E+03  0.00000000000E+00 0.  1.
<scales pt_clust_3="14000.00000" pt_clust_4="48.69606" pt_clust_5="100.98439" pt_clust_6="114.93075"></scales>
<clustering>
<clus scale="   48.696">  1  4  2 -1</clus>
<clus scale="  100.984">  1  5  2 -1</clus>
<clus scale="  114.931">  1  6  2 -1</clus>
<clus scale="   48.696">  1  3  2 -1</clus>
</clustering>
</event>
<event>
 6    0  0.4227619E+002  0.7170897E+02  0.7546771E-02  0.1354376E+00
         21   -1    0    0  504  501  0.00000000000E+00  0.00000000000E+00  0.28711249920E+03  0.28711249920E+03  0.00000000000E+00 0. -1.
         21   -1    0    0  503  502 -0.00000000000E+00 -0.00000000000E+00 -0.10882307390E+03  0.10882307390E+03  0.00000000000E+00 0. -1.
         21    1    1    2  503  506  0.80367277767E+01 -0.49285614645E+02 -0.23646292711E+02  0.55252221342E+02  0.00000000000E+00 0. -1.
         21    1    1    2  504  505  0.64536082882E+02  0.46654752531E+02  0.55197893912E+01  0.79825058737E+02  0.00000000000E+00 0. -1.
         21    1    1    2  505  502 -0.32465630132E+02  0.61159281988E+02  0.22144587489E+02  0.72697026543E+02  0.00000000000E+00 0. -1.
         21    1    1    2  506  501 -0.40107180526E+02 -0.58528419874E+02  0.17427134113E+03  0.18816126648E+03  0.00000000000E+00 0. -1.
<scales pt_clust_3="49.93657" pt_clust_4="71.70897" pt_clust_5="52.33439" pt_clust_6="14000.00000"></scales>
<clustering>
<clus scale="   49.937">  2  3  1 -1</clus>
<clus scale="   52.334">  2  5  1 -1</clus>
<clus scale="   71.709">  2  4  1 -1</clus>
<clus scale="   71.709">  1  3  2 -1</clus>
</clustering>
</event>
<event>
 6    0  0.4227619E+002  0.1847229E+03  0.7546771E-02  0.1163309E+00
         21   -1    0    0  504  501  0.00000000000E+00  0.00000000000E+00  0.66504358124E+03  0.66504358124E+03  0.00000000000E+00 0. -1.
         21   -1    0    0  506  502 -0.00000000000E+00 -0.00000000000E+00 -0.38770905055E+03  0.38770905055E+03  0.00000000000E+00 0. -1.
         21    1    1    2  503  501  0.91402533663E+02 -0.96458920134E+02  0.11973822577E+03  0.17887422716E+03  0.00000000000E+00 0. -1.
         21    1    1    2  504  505 -0.31225500972E+02 -0.99076290912E+02  0.47486990286E+03  0.48609933962E+03  0.00000000000E+00 0. -1.
         21    1    1    2  505  502 -0.30342988548E+02  0.18725582694E+03 -0.25091936257E+03  0.31455678054E+03  0.00000000000E+00 0. -1.
         21    1    1    2  506  503 -0.29834044143E+02  0.82793841095E+01 -0.66354235369E+02  0.73222284467E+02  0.00000000000E+00 0. -1.
<scales pt_clust_3="14000.00000" pt_clust_4="103.90079" pt_clust_5="184.72294" pt_clust_6="30.96156"></scales>
<clustering>
<clus scale="   30.962">  2  6  1 -1</clus>
<clus scale="  103.901">  1  4  2 -1</clus>
<clus scale="  184.723">  2  5  1 -1</clus>
<clus scale="  103.901">  1  3  2 -1</clus>
</clustering>
</event>
<event>
 6    0  0.4227619E+002  0.8860059E+02  0.7546771E-02  0.1306276E+00
         21   -1    0    0  504  501  0.00000000000E+00  0.00000000000E+00  0.53169547395E+03  0.53169547395E+03  0.00000000000E+00 0.  1.
         21   -1    0    0  506  502 -0.00000000000E+00 -0.00000000000E+00 -0.37012382188E+03  0.37012382188E+03  0.00000000000E+00 0. -1.
         21    1    1    2  503  505 -0.91674931833E+01  0.60674322603E+02 -0.16284682478E+02  0.63487063548E+02  0.00000000000E+00 0.  1.
         21    1    1    2  504  503 -0.60778449650E+02 -0.24956328808E+02  0.97801934224E+02  0.11782213980E+03  0.00000000000E+00 0. -1.
         21    1    1    2  505  502 -0.92075454442E+01  0.38885170795E+02 -0.31153892835E+03  0.31409129132E+03  0.00000000000E+00 0. -1.
         21    1    1    2  506  501  0.79153488278E+02 -0.74603164590E+02  0.39159332867E+03  0.40641880116E+03  0.00000000000E+00 0.  1.
<scales pt_clust_3="14000.00000" pt_clust_4="64.97726" pt_clust_5="39.96042" pt_clust_6="88.60059"></scales>
<clustering>
<clus scale="   39.960">  2  5  1 -1</clus>
<clus scale="   64.977">  1  4  2 -1</clus>
<clus scale="   88.601">  1  6  2 -1</clus>
<clus scale="   64.977">  1  3  2 -1</clus>
</clustering>
</event>
<event>
 6    0  0.4227619E+002  0.8100412E+02  0.7546771E-02  0.1326226E+00
         21   -1    0    0  504  501  0.00000000000E+00  0.00000000000E+00  0.32455201220E+02  0.32455201220E+02  0.00000000000E+00 0. -1.
         21   -1    0    0  506  502 -0.00000000000E+00 -0.00000000000E+00 -0.81383050462E+03  0.81383050462E+03  0.00000000000E+00 0. -1.
         21    1    1    2  503  501 -0.80933496245E+02  0.45775331830E+02 -0.92335863520E+02  0.13104015991E+03  0.00000000000E+00 0. -1.
         21    1    1    2  504  505  0.67323729149E+02 -0.13800702239E+02 -0.12500055180E+03  0.14264670286E+03  0.00000000000E+00 0. -1.
         21    1    1    2  505  502  0.48143857860E+02 -0.18602815647E+01 -0.37518912332E+03  0.37826996967E+03  0.00000000000E+00 0. -1.
         21    1    1    2  506  503 -0.34534090764E+02 -0.30114348026E+02 -0.18884976477E+03  0.19432887339E+03  0.00000000000E+00 0. -1.
<scales pt_clust_3="81.00412" pt_clust_4="14000.00000" pt_clust_5="33.84511" pt_clust_6="45.82005"></scales>
<clustering>
<clus scale="   45.820">  2  6  1 -1</clus>
<clus scale="   33.845">  2  5  1 -1</clus>
<clus scale="   81.004">  1  3  2 -1</clus>
<clus scale="   81.004">  1  3  2 -1</clus>
</clustering>
</event>
<event>
 6    0  0.4227619E+002  0.8947848E+02  0.7546771E-02  0.1304120E+00
         21   -1    0    0  503  501  0.00000000000E+00  0.00000000000E+00  0.73876868911E+02  0.73876868911E+02  0.00000000000E+00 0.  1.
         21   -1    0    0  504  502 -0.00000000000E+00 -0.00000000000E+00 -0.13780854799E+04  0.13780854799E+04  0.00000000000E+00 0.  1.
         21    1    1    2  503  502  0.91981866868E+02  0.27812539642E+02 -0.12299543907E+04  0.12337025591E+04  0.00000000000E+00 0.  1.
         21    1    1    2  504  506 -0.59696180288E+02 -0.38018646444E+01 -0.92897184894E+02  0.11048970575E+03  0.00000000000E+00 0. -1.
         21    1    1    2  505  501  0.25472632108E+02 -0.33191271260E+02  0.25324121016E+02  0.48906304089E+02  0.00000000000E+00 0.  1.
         21    1    1    2  506  505 -0.57758318688E+02  0.91805962630E+01 -0.66811563995E+01  0.58863779833E+02  0.00000000000E+00 0.  1.
<scales pt_clust_3="14000.00000" pt_clust_4="89.47848" pt_clust_5="41.83916" pt_clust_6="42.20351"></scales>
<clustering>
<clus scale="   41.839">  1  5  2 -1</clus>
<clus scale="   42.204">  1  6  2 -1</clus>
<clus scale="   89.478">  1  4  2 -1</clus>
<clus scale="   41.839">  1  3  2 -1</clus>
</clustering>
</event>
<event>
 6    0  0.4227619E+002  0.1640069E+03  0.7546771E-02  0.1184246E+00
         21   -1    0    0  503  501  0.00000000000E+00  0.00000000000E+00  0.86759204626E+03  0.86759204626E+03  0.00000000000E+00 0.  1.
         21   -1    0    0  501  502 -0.00000000000E+00 -0.00000000000E+00 -0.34478503539E+03  0.34478503539E+03  0.00000000000E+00 0.  1.
         21    1    1    2  503  505 -0.34907012449E+02 -0.45198339303E+02  0.44310655043E+03  0.44677153494E+03  0.00000000000E+00 0.  1.
         21    1    1    2  504  506  0.15312033987E+03 -0.78667704087E+02 -0.98822176364E+02  0.19849500923E+03  0.00000000000E+00 0.  1.
         21    1    1    2  505  504 -0.12652331086E+03  0.85046183600E+02  0.35493318753E+03  0.38628819442E+03  0.00000000000E+00 0.  1.
         21    1    1    2  506  502  0.83099834375E+01  0.38819859790E+02 -0.17641055074E+03  0.18082234306E+03  0.00000000000E+00 0.  1.
<scales pt_clust_3="56.71406" pt_clust_4="164.00691" pt_clust_5="14000.00000" pt_clust_6="39.69934"></scales>
<clustering>
<clus scale="   39.699">  2  6  1 -1</clus>
<clus scale="   56.714">  1  3  2 -1</clus>
<clus scale="  164.007">  2  4  1 -1</clus>
<clus scale="   56.714">  1  3  2 -1</clus>
</clustering>
</event>
<event>
 6    0  0.4227619E+002  0.1071028E+03  0.7546771E-02  0.1266031E+00
         21   -1    0    0  506  501  0.00000000000E+00  0.00000000000E+00  0.55064221044E+03  0.55064221044E+03  0.00000000000E+00 0.  1.
         21   -1    0    0  505  502 -0.00000000000E+00 -0.00000000000E+00 -0.29142359388E+03  0.29142359388E+03  0.00000000000E+00 0. -1.
         21    1    1    2  503  504 -0.82631769478E+02  0.66585733244E+02 -0.17155079492E+03  0.20172095686E+03  0.00000000000E+00 0. -1.
         21    1    1    2  504  501  0.16193556354E+03 -0.11379246649E+03  0.38560741054E+03  0.43343387873E+03  0.00000000000E+00 0.  1.
         21    1    1    2  505  503 -0.13667951988E+02 -0.29176408739E+02 -0.55719682984E+02  0.64364266564E+02  0.00000000000E+00 0. -1.
         21    1    1    2  506  502 -0.65635842075E+02  0.76383141986E+02  0.10088168393E+03  0.14254670216E+03  0.00000000000E+00 0.  1.
<scales pt_clust_3="107.10280" pt_clust_4="14000.00000" pt_clust_5="32.21918" pt_clust_6="99.55452"></scales>
<clustering>
<clus scale="   32.219">  2  5  1 -1</clus>
<clus scale="   99.555">  1  6  2 -1</clus>
<clus scale="  107.103">  2  3  1 -1</clus>
<clus scale="   99.555">  1  3  2 -1</clus>
</clustering>
</event>
<event>
 6    0  0.4227619E+002  0.6859729E+02  0.7546771E-02  0.1364929E+00
         21   -1    0    0  502  501  0.00000000000E+00  0.00000000000E+00  0.30117342880E+03  0.30117342880E+03  0.00000000000E+00 0.  1.
         21   -1    0    0  506  502 -0.00000000000E+00 -0.00000000000E+00 -0.56654223468E+03  0.56654223468E+03  0.00000000000E+00 0.  1.
         21    1    1    2  503  505 -0.43842814937E+02  0.75778116709E+02  0.12667431812E+03  0.15398343503E+03  0.00000000000E+00 0.  1.
         21    1    1    2  504  503  0.76084818471E+02 -0.29762551391E+02 -0.81344239014E+02  0.11528917680E+03  0.00000000000E+00 0.  1.
         21    1    1    2  505  501 -0.17885569575E+01 -0.62921330507E+02  0.13627686609E+03  0.15011221470E+03  0.00000000000E+00 0.  1.
         21    1    1    2  506  504 -0.30453446576E+02  0.16905765189E+02 -0.44697575108E+03  0.44833083695E+03  0.00000000000E+00 0.  1.
<scales pt_clust_3="14000.00000" pt_clust_4="53.29149" pt_clust_5="68.59729" pt_clust_6="34.83127"></scales>
<clustering>
<clus scale="   34.831">  2  6  1 -1</clus>
<clus scale="   53.291">  2  4  1 -1</clus>
<clus scale="   68.597">  1  5  2 -1</clus>
<clus scale="   68.597">  1  3  2 -1</clus>
</clustering>
</event>
<event>
 6    0  0.4227619E+002  0.8897490E+02  0.7546771E-02  0.1305353E+00
         21   -1    0    0  505  501  0.00000000000E+00  0.00000000000E+00  0.28353692463E+02  0.28353692463E+02  0.00000000000E+00 0.  1.
         21   -1    0    0  504  502 -0.00000000000E+00 -0.00000000000E+00 -0.73539895707E+03  0.73539895707E+03  0.00000000000E+00 0.  1.
         21    1    1    2  503  501  0.64991098739E+01  0.86405118336E+02 -0.13176373940E+03  0.15770150895E+03  0.00000000000E+00 0.  1.
         21    1    1    2  504  503  0.64438976290E+02 -0.75526373267E+02 -0.31864665736E+03  0.33375486059E+03  0.00000000000E+00 0.  1.
         21    1    1    2  505  506 -0.39447631208E+02  0.79986369356E+01 -0.59915698549E+02  0.72180223977E+02  0.00000000000E+00 0.  1.
         21    1    1    2  506  502 -0.31490454956E+02 -0.18877382005E+02 -0.19671916931E+03  0.20011605602E+03  0.00000000000E+00 0.  1.
<scales pt_clust_3="88.97490" pt_clust_4="14000.00000" pt_clust_5="43.69127" pt_clust_6="36.71518"></scales>
<clustering>
<clus scale="   36.715">  2  6  1 -1</clus>
<clus scale="   43.691">  1  5  2 -1</clus>
<clus scale="   88.975">  1  3  2 -1</clus>
<clus scale="   43.691">  1  3  2 -1</clus>
</clustering>
</event>
<event>
 6    0  0.4227619E+002  0.1261475E+03  0.7546771E-02  0.1233287E+00
         21   -1    0    0  503  501  0.00000000000E+00  0.00000000000E+00  0.39415481827E+03  0.39415481827E+03  0.00000000000E+00 0.  1.
         21   -1    0    0  504  502 -0.00000000000E+00 -0.00000000000E+00 -0.35773519929E+03  0.35773519929E+03  0.00000000000E+00 0.  1.
         21    1    1    2  503  505 -0.36371994810E+02 -0.15424989024E+02  0.18879525090E+03  0.19288467813E+03  0.00000000000E+00 0.  1.
         21    1    1    2  504  501  0.33689669453E+02  0.14522716827E+03  0.12440702014E+03  0.19417268317E+03  0.00000000000E+00 0.  1.
         21    1    1    2  505  506 -0.23447996317E+02 -0.10384882754E+03 -0.23680315709E+02  0.10906486540E+03  0.00000000000E+00 0.  1.
         21    1    1    2  506  502  0.26130321674E+02 -0.25953351706E+02 -0.25310233636E+03  0.25576779087E+03  0.00000000000E+00 0.  1.
<scales pt_clust_3="39.23783" pt_clust_4="14000.00000" pt_clust_5="126.14754" pt_clust_6="36.82893"></scales>
<clustering>
<clus scale="   36.829">  2  6  1 -1</clus>
<clus scale="   39.238">  1  3  2 -1</clus>
<clus scale="  126.148">  2  5  1 -1</clus>
<clus scale="   39.238">  1  3  2 -1</clus>
</clustering>
</event>
<event>
 6    0  0.4227619E+002  0.1607436E+03  0.7546771E-02  0.1187860E+00
         21   -1    0    0  506  501  0.00000000000E+00  0.00000000000E+00  0.49198305135E+03  0.49198305135E+03  0.00000000000E+00 0. -1.
         21   -1    0    0  503  502 -0.00000000000E+00 -0.00000000000E+00 -0.17486960637E+03  0.17486960637E+03  0.00000000000E+00 0. -1.
         21    1    1    2  503  505  0.15628001795E+03  0.13211425561E+02 -0.39169366192E+02  0.16165464739E+03  0.00000000000E+00 0. -1.
         21    1    1    2  504  501 -0.14061337595E+02 -0.32343961939E+02  0.84635977784E+02  0.91690249342E+02  0.00000000000E+00 0. -1.
         21    1    1    2  505  504 -0.16428353432E+03 -0.37581935666E+02  0.38929669162E+02  0.17296531640E+03  0.00000000000E+00 0. -1.
         21    1    1    2  506  502  0.22064853965E+02  0.56714472045E+02  0.23271716423E+03  0.24054244459E+03  0.00000000000E+00 0. -1.
<scales pt_clust_3="160.74356" pt_clust_4="35.26830" pt_clust_5="14000.00000" pt_clust_6="40.21288"></scales>
<clustering>
<clus scale="   35.268">  1  4  2 -1</clus>
<clus scale="   40.213">  1  6  2 -1</clus>
<clus scale="  160.744">  2  3  1 -1</clus>
<clus scale="   35.268">  1  3  2 -1</clus>
</clustering>
</event>
<event>
 6    0  0.4227619E+002  0.6180165E+02  0.7546771E-02  0.1390423E+00
         21   -1    0    0  504  501  0.00000000000E+00  0.00000000000E+00  0.63017171598E+03  0.63017171598E+03  0.00000000000E+00 0.  1.
         21   -1    0    0  506  502 -0.00000000000E+00 -0.00000000000E+00 -0.24835294789E+03  0.24835294789E+03  0.00000000000E+00 0.  1.
         21    1    1    2  503  501  0.22914360774E+02 -0.42922436162E+02  0.71267252441E+02  0.86292669018E+02  0.00000000000E+00 0. -1.
         21    1    1    2  504  505 -0.35657294642E+02 -0.10778005002E+02  0.15996102215E+03  0.16424109310E+03  0.00000000000E+00 0. -1.
         21    1    1    2  505  502 -0.18130633636E+02  0.10675242814E+03  0.37760545185E+03  0.39282397846E+03  0.00000000000E+00 0.  1.
         21    1    1    2  506  503  0.30873567504E+02 -0.53051986981E+02 -0.22701495835E+03  0.23516692329E+03  0.00000000000E+00 0.  1.
<scales pt_clust_3="47.82676" pt_clust_4="37.25061" pt_clust_5="14000.00000" pt_clust_6="61.80165"></scales>
<clustering>
<clus scale="   37.251">  1  4  2 -1</clus>
<clus scale="   47.827">  1  3  2 -1</clus>
<clus scale="   61.802">  2  6  1 -1</clus>
<clus scale="   37.251">  1  3  2 -1</clus>
</clustering>
</event>
<event>
 6    0  0.4227619E+002  0.1198807E+03  0.7546771E-02  0.1243294E+00
         21   -1    0    0  506  501  0.00000000000E+00  0.00000000000E+00  0.43616711318E+03  0.43616711318E+03  0.00000000000E+00 0. -1.
         21   -1    0    0  501  502 -0.00000000000E+00 -0.00000000000E+00 -0.23763732895E+03  0.23763732895E+03  0.00000000000E+00 0.  1.
         21    1    1    2  503  502 -0.65374088111E+02 -0.42072279005E+02 -0.15651550299E+03  0.17475969424E+03  0.00000000000E+00 0.  1.
         21    1    1    2  504  505  0.70383676544E+02  0.71522090679E+01  0.65768554662E+02  0.96594610620E+02  0.00000000000E+00 0. -1.
         21    1    1    2  505  503 -0.44445894509E+02 -0.14828872517E+02 -0.43342315946E+02  0.63827026802E+02  0.00000000000E+00 0. -1.
         21    1    1    2  506  504  0.39436306076E+02  0.49748942454E+02  0.33261904850E+03  0.33862311046E+03  0.00000000000E+00 0. -1.
<scales pt_clust_3="31.84192" pt_clust_4="112.64584" pt_clust_5="31.84192" pt_clust_6="63.48369"></scales>
<clustering>
<clus scale="   31.842">  3  5 -1 -1</clus>
<clus scale="   63.484">  1  6  2 -1</clus>
<clus scale="  112.646">  1  4  2 -1</clus>
<clus scale="   63.484">  1  3  2 -1</clus>
</clustering>
</event>
<event>
 6    0  0.4227619E+002  0.7901727E+02  0.7546771E-02  0.1331864E+00
         21   -1    0    0  506  501  0.00000000000E+00  0.00000000000E+00  0.59295549636E+02  0.59295549636E+02  0.00000000000E+00 0. -1.
         21   -1    0    0  504  502 -0.00000000000E+00 -0.00000000000E+00 -0.25278216371E+04  0.25278216371E+04  0.00000000000E+00 0. -1.
         21    1    1    2  503  501 -0.67417856530E+02 -0.43251980439E+02  0.21107250295E+02  0.82833671934E+02  0.00000000000E+00 0. -1.
         21    1    1    2  504  505  0.33938577546E+02  0.70236016638E+02 -0.10687675473E+04  0.10716104680E+04  0.00000000000E+00 0. -1.
         21    1    1    2  505  503  0.75298638098E+02  0.98273006681E+01 -0.27044003699E+03  0.28089904653E+03  0.00000000000E+00 0. -1.
         21    1    1    2  506  502 -0.41819359114E+02 -0.36811336867E+02 -0.11504257535E+04  0.11517740002E+04  0.00000000000E+00 0. -1.
<scales pt_clust_3="79.01727" pt_clust_4="41.64545" pt_clust_5="14000.00000" pt_clust_6="55.71295"></scales>
<clustering>
<clus scale="   55.713">  2  6  1 -1</clus>
<clus scale="   41.645">  2  4  1 -1</clus>
<clus scale="   79.017">  1  3  2 -1</clus>
<clus scale="   79.017">  1  3  2 -1</clus>
</clustering>
</event>
<event>
 6    0  0.4227619E+002  0.1402237E+03  0.7546771E-02  0.1213028E+00
         21   -1    0    0  506  501  0.00000000000E+00  0.00000000000E+00  0.57649721228E+03  0.57649721228E+03  0.00000000000E+00 0.  1.
         21   -1    0    0  503  502 -0.00000000000E+00 -0.00000000000E+00 -0.89739830256E+02  0.89739830256E+02  0.00000000000E+00 0.  1.
         21    1    1    2  503  501  0.10774629997E+03  0.41925195018E+02  0.28005467145E+03  0.30298119766E+03  0.00000000000E+00 0.  1.
         21    1    1    2  504  502 -0.60494767154E+02  0.13234666872E+01 -0.35547820847E+02  0.70178458120E+02  0.00000000000E+00 0.  1.
         21    1    1    2  505  504 -0.66373410734E+02 -0.17949154654E+02  0.24442656365E+02  0.72972907680E+02  0.00000000000E+00 0.  1.
         21    1    1    2  506  505  0.19121877914E+02 -0.25299507051E+02  0.21780787505E+03  0.22010447907E+03  0.00000000000E+00 0.  1.
<scales pt_clust_3="125.16244" pt_clust_4="59.49678" pt_clust_5="59.49678" pt_clust_6="31.71295"></scales>
<clustering>
<clus scale="   31.713">  1  6  2 -1</clus>
<clus scale="   59.497">  4  5 -1 -1</clus>
<clus scale="  125.162">  1  3  2 -1</clus>
<clus scale="   31.713">  1  3  2 -1</clus>
</clustering>
</event>
<event>
 6    0  0.4227619E+002  0.1797598E+03  0.7546771E-02  0.1168036E+00
         21   -1    0    0  505  501  0.00000000000E+00  0.00000000000E+00  0.13276624380E+03  0.13276624380E+03  0.00000000000E+00 0.  1.
         21   -1    0    0  503  502 -0.00000000000E+00 -0.00000000000E+00 -0.13737685024E+04  0.13737685024E+04  0.00000000000E+00 0. -1.
         21    1    1    2  503  506  0.36931834507E+02 -0.27558558748E+01 -0.53517491509E+03  0.53645479295E+03  0.00000000000E+00 0. -1.
         21    1    1    2  504  502 -0.89289814006E+02  0.18158167648E+03 -0.23185609011E+02  0.20367166858E+03  0.00000000000E+00 0.  1.
         21    1    1    2  505  504  0.27008440827E+02 -0.13401883161E+02  0.25049121457E+02  0.39198531018E+02  0.00000000000E+00 0.  1.
         21    1    1    2  506  501  0.25349538672E+02 -0.16542393744E+03 -0.70769085596E+03  0.72720975365E+03  0.00000000000E+00 0. -1.
<scales pt_clust_3="37.21218" pt_clust_4="14000.00000" pt_clust_5="30.15073" pt_clust_6="179.75976"></scales>
<clustering>
<clus scale="   30.151">  1  5  2 -1</clus>
<clus scale="   37.212">  2  3  1 -1</clus>
<clus scale="  179.760">  2  6  1 -1</clus>
<clus scale="   30.151">  1  3  2 -1</clus>
</clustering>
</event>
<event>
 6    0  0.4227619E+002  0.9731380E+02  0.7546771E-02  0.1286048E+00
         21   -1    0    0  503  501  0.00000000000E+00  0.00000000000E+00  0.20132446151E+03  0.20132446151E+03  0.00000000000E+00 0. -1.
         21   -1    0    0  505  502 -0.00000000000E+00 -0.00000000000E+00 -0.20141898239E+03  0.20141898239E+03  0.00000000000E+00 0. -1.
         21    1    1    2  503  506 -0.75116060473E+02 -0.62299733097E+02  0.13080839360E+03  0.16320084289E+03  0.00000000000E+00 0. -1.
         21    1    1    2  504  501  0.29797643827E+02 -0.45097463176E+02 -0.12991604100E+02  0.55591928728E+02  0.00000000000E+00 0. -1.
         21    1    1    2  505  504 -0.13098025842E+02  0.28316316695E+02 -0.65465885193E+02  0.72520026174E+02  0.00000000000E+00 0. -1.
         21    1    1    2  506  502  0.58416442487E+02  0.79080879578E+02 -0.52445425193E+02  0.11143064611E+03  0.00000000000E+00 0. -1.
<scales pt_clust_3="14000.00000" pt_clust_4="46.08105" pt_clust_5="31.19891" pt_clust_6="97.31380"></scales>
<clustering>
<clus scale="   31.199">  2  5  1 -1</clus>
<clus scale="   46.081">  2  4  1 -1</clus>
<clus scale="   97.314">  2  6  1 -1</clus>
<clus scale="   97.314">  1  3  2 -1</clus>
</clustering>
</event>
<event>
 6    0  0.4227619E+002  0.8164052E+02  0.7546771E-02  0.1324459E+00
         21   -1    0    0  506  501  0.00000000000E+00  0.00000000000E+00  0.39745961567E+03  0.39745961567E+03  0.00000000000E+00 0. -1.
         21   -1    0    0  505  502 -0.00000000000E+00 -0.00000000000E+00 -0.16433563484E+03  0.16433563484E+03  0.00000000000E+00 0. -1.
         21    1    1    2  503  501  0.60921613544E+02  0.13729746250E+02  0.28725104868E+03  0.29396107548E+03  0.00000000000E+00 0. -1.
         21    1    1    2  504  502  0.46471661953E+02 -0.19345630947E+02 -0.15387201597E+02  0.52636819570E+02  0.00000000000E+00 0. -1.
         21    1    1    2  505  503 -0.13163753400E+02  0.70809118721E+02  0.33824327640E+02  0.79569471771E+02  0.00000000000E+00 0. -1.
         21    1    1    2  506  504 -0.94229522097E+02 -0.65193234024E+02 -0.72564193893E+02  0.13562788368E+03  0.00000000000E+00 0. -1.
<scales pt_clust_3="63.51157" pt_clust_4="50.33755" pt_clust_5="81.64052" pt_clust_6="14000.00000"></scales>
<clustering>
<clus scale="   50.338">  2  4  1 -1</clus>
<clus scale="   63.512">  1  3  2 -1</clus>
<clus scale="   81.641">  1  5  2 -1</clus>
<clus scale="   63.512">  1  3  2 -1</clus>
</clustering>
</event>
<event>
 6    0  0.4227619E+002  0.1977604E+03  0.7546771E-02  0.1151642E+00
         21   -1    0    0  504  501  0.00000000000E+00  0.00000000000E+00  0.13906029137E+04  0.13906029137E+04  0.00000000000E+00 0.  1.
         21   -1    0    0  503  502 -0.00000000000E+00 -0.00000000000E+00 -0.11027324869E+03  0.11027324869E+03  0.00000000000E+00 0.  1.
         21    1    1    2  503  505  0.53740619627E+02  0.12558297342E+02  0.46578302618E+01  0.55384658641E+02  0.00000000000E+00 0.  1.
         21    1    1    2  504  506 -0.15461130024E+03  0.19801102013E+03  0.11072004690E+04  0.11353439553E+04  0.00000000000E+00 0.  1.
         21    1    1    2  505  501  0.20942243013E+02 -0.54121372781E+02  0.11108435464E+03  0.12532930375E+03  0.00000000000E+00 0.  1.
         21    1    1    2  506  502  0.79928437604E+02 -0.15644794469E+03  0.57387011130E+02  0.18481824472E+03  0.00000000000E+00 0.  1.
<scales pt_clust_3="55.18845" pt_clust_4="197.76042" pt_clust_5="58.85506" pt_clust_6="14000.00000"></scales>
<clustering>
<clus scale="   55.188">  2  3  1 -1</clus>
<clus scale="   58.855">  1  5  2 -1</clus>
<clus scale="  197.760">  1  4  2 -1</clus>
<clus scale="   58.855">  1  3  2 -1</clus>
</clustering>
</event>
<event>
 6    0  0.4227619E+002  0.7556786E+02  0.7546771E-02  0.1342122E+00
         21   -1    0    0  503  501  0.00000000000E+00  0.00000000000E+00  0.62895112768E+03  0.62895112768E+03  0.00000000000E+00 0. -1.
         21   -1    0    0  504  502 -0.00000000000E+00 -0.00000000000E+00 -0.64951802809E+02  0.64951802809E+02  0.00000000000E+00 0.  1.
         21    1    1    2  503  505 -0.47969318153E+02  0.61611306639E+02  0.43527759747E+03  0.44222572907E+03  0.00000000000E+00 0. -1.
         21    1    1    2  504  506  0.40795347136E+02 -0.36894863897E+02 -0.16488880652E+02  0.57422770006E+02  0.00000000000E+00 0.  1.
         21    1    1    2  505  502  0.64022304152E+02 -0.30532535999E+02  0.68580528023E+02  0.98662961680E+02  0.00000000000E+00 0. -1.
         21    1    1    2  506  501 -0.56848333136E+02  0.58160932576E+01  0.76630080030E+02  0.95591469737E+02  0.00000000000E+00 0.  1.
<scales pt_clust_3="14000.00000" pt_clust_4="55.00447" pt_clust_5="75.56786" pt_clust_6="43.54829"></scales>
<clustering>
<clus scale="   55.004">  2  4  1 -1</clus>
<clus scale="   43.548">  2  6  1 -1</clus>
<clus scale="   75.568">  2  5  1 -1</clus>
<clus scale="   75.568">  1  3  2 -1</clus>
</clustering>
</event>
<event>
 6    0  0.4227619E+002  0.9043280E+02  0.7546771E-02  0.1301807E+00
         21   -1    0    0  506  501  0.00000000000E+00  0.00000000000E+00  0.28438645133E+04  0.28438645133E+04  0.00000000000E+00 0.  1.
         21   -1    0    0  504  502 -0.00000000000E+00 -0.00000000000E+00 -0.10962195495E+03  0.10962195495E+03  0.00000000000E+00 0.  1.
         21    1    1    2  503  502  0.92712449095E+02 -0.26506086969E+02 -0.72223336401E+02  0.12047564561E+03  0.00000000000E+00 0.  1.
         21    1    1    2  504  505 -0.36767631539E+02 -0.21518993776E+02  0.55029899134E+02  0.69593215336E+02  0.00000000000E+00 0.  1.
         21    1    1    2  505  501 -0.78927142469E+01  0.12186932520E+03  0.73651001359E+03  0.74656642536E+03  0.00000000000E+00 0.  1.
         21    1    1    2  506  503 -0.48052103308E+02 -0.73844244458E+02  0.20149259820E+04  0.20168511819E+04  0.00000000000E+00 0.  1.
<scales pt_clust_3="74.58068" pt_clust_4="42.60195" pt_clust_5="14000.00000" pt_clust_6="90.43280"></scales>
<clustering>
<clus scale="   42.602">  2  4  1 -1</clus>
<clus scale="   74.581">  2  3  1 -1</clus>
<clus scale="   90.433">  1  6  2 -1</clus>
<clus scale="   90.433">  1  3  2 -1</clus>
</clustering>
</event>
<event>
 6    0  0.4227619E+002  0.1264126E+03  0.7546771E-02  0.1232878E+00
         21   -1    0    0  504  501  0.00000000000E+00  0.00000000000E+00  0.98025158717E+02  0.98025158717E+02  0.00000000000E+00 0.  1.
         21   -1    0    0  505  502 -0.00000000000E+00 -0.00000000000E+00 -0.17411046815E+04  0.17411046815E+04  0.00000000000E+00 0. -1.
         21    1    1    2  503  502  0.74935185254E+02 -0.91028636828E+02 -0.12183984506E+04  0.12240899800E+04  0.00000000000E+00 0. -1.
         21    1    1    2  504  503 -0.17713654153E+03  0.68543199425E+02 -0.32422915726E+02  0.19268308176E+03  0.00000000000E+00 0.  1.
         21    1    1    2  505  506  0.25823079700E+02  0.16671411763E+02 -0.30376552447E+03  0.30531665738E+03  0.00000000000E+00 0. -1.
         21    1    1    2  506  501  0.76378276580E+02  0.58140256400E+01 -0.88492632022E+02  0.11704012111E+03  0.00000000000E+00 0. -1.
<scales pt_clust_3="126.41265" pt_clust_4="14000.00000" pt_clust_5="30.73707" pt_clust_6="78.53873"></scales>
<clustering>
<clus scale="   30.737">  2  5  1 -1</clus>
<clus scale="   78.539">  1  6  2 -1</clus>
<clus scale="  126.413">  2  3  1 -1</clus>
<clus scale="   78.539">  1  3  2 -1</clus>
</clustering>
</event>
<event>
 6    0  0.4227619E+002  0.8077177E+02  0.7546771E-02  0.1326875E+00
         21   -1    0    0  505  501  0.00000000000E+00  0.00000000000E+00  0.68751757834E+03  0.68751757834E+03  0.00000000000E+00 0. -1.
         21   -1    0    0  506  502 -0.00000000000E+00 -0.00000000000E+00 -0.58748404066E+02  0.58748404066E+02  0.00000000000E+00 0. -1.
         21    1    1    2  503  502  0.19286980743E+02 -0.25785292021E+02 -0.20621177260E+02  0.38237440583E+02  0.00000000000E+00 0. -1.
         21    1    1    2  504  503  0.60786350780E+02 -0.23669847244E+01  0.49481880311E+02  0.78415811779E+02  0.00000000000E+00 0. -1.
         21    1    1    2  505  504  0.41439547829E+02  0.49795525974E+02  0.26129805233E+03  0.26920903158E+03  0.00000000000E+00 0. -1.
         21    1    1    2  506  501 -0.12151287935E+03 -0.21643249229E+02  0.33861041888E+03  0.36040369846E+03  0.00000000000E+00 0. -1.
<scales pt_clust_3="32.20045" pt_clust_4="14000.00000" pt_clust_5="63.91327" pt_clust_6="80.77177"></scales>
<clustering>
<clus scale="   32.200">  2  3  1 -1</clus>
<clus scale="   63.913">  1  5  2 -1</clus>
<clus scale="   80.772">  1  6  2 -1</clus>
<clus scale="   63.913">  1  3  2 -1</clus>
</clustering>
</event>
<event>
 6    0  0.4227619E+002  0.1023824E+03  0.7546771E-02  0.1275364E+00
         21   -1    0    0  506  501  0.00000000000E+00  0.00000000000E+00  0.15872715669E+04  0.15872715669E+04  0.00000000000E+00 0.  1.
         21   -1    0    0  503  502 -0.00000000000E+00 -0.00000000000E+00 -0.29294378319E+02  0.29294378319E+02  0.00000000000E+00 0.  1.
         21    1    1    2  503  504  0.10286770834E+02 -0.75148319828E+02  0.20804202065E+03  0.22143750808E+03  0.00000000000E+00 0.  1.
         21    1    1    2  504  501  0.54984174568E+02 -0.60819798146E+01  0.53120720328E+03  0.53407990296E+03  0.00000000000E+00 0.  1.
         21    1    1    2  505  502  0.77875732561E+02  0.40198900129E+02  0.13258008065E+03  0.15892784237E+03  0.00000000000E+00 0.  1.
         21    1    1    2  506  505 -0.14314667796E+03  0.41031399513E+02  0.68614788398E+03  0.70212069180E+03  0.00000000000E+00 0.  1.
<scales pt_clust_3="79.35002" pt_clust_4="55.31953" pt_clust_5="102.38236" pt_clust_6="14000.00000"></scales>
<clustering>
<clus scale="   55.320">  1  4  2 -1</clus>
<clus scale="   79.350">  2  3  1 -1</clus>
<clus scale="  102.382">  2  5  1 -1</clus>
<clus scale="   55.320">  1  3  2 -1</clus>
</clustering>
</event>
<event>
 6    0  0.4227619E+002  0.7353999E+02  0.7546771E-02  0.1348453E+00
         21   -1    0    0  506  501  0.00000000000E+00  0.00000000000E+00  0.18435222037E+02  0.18435222037E+02  0.00000000000E+00 0. -1.
         21   -1    0    0  503  502 -0.00000000000E+00 -0.00000000000E+00 -0.18987415816E+04  0.18987415816E+04  0.00000000000E+00 0. -1.
         21    1    1    2  503  505  0.15967810196E+01  0.44034538663E+02 -0.57276375615E+03  0.57445618690E+03  0.00000000000E+00 0.  1.
         21    1    1    2  504  502 -0.49263143388E+02 -0.91029682287E+02 -0.10785680013E+04  0.10835230472E+04  0.00000000000E+00 0. -1.
         21    1    1    2  505  501  0.78003793506E+02  0.23454695915E+02 -0.17421245088E+03  0.19231404682E+03  0.00000000000E+00 0. -1.
         21    1    1    2  506  504 -0.30337431138E+02  0.23540447709E+02 -0.54762151246E+02  0.66883522750E+02  0.00000000000E+00 0. -1.
<scales pt_clust_3="45.64682" pt_clust_4="14000.00000" pt_clust_5="73.53999" pt_clust_6="38.39938"></scales>
<clustering>
<clus scale="   38.399">  1  6  2 -1</clus>
<clus scale="   45.647">  2  3  1 -1</clus>
<clus scale="   73.540">  1  5  2 -1</clus>
<clus scale="   38.399">  1  3  2 -1</clus>
</clustering>
</event>
<event>
 6    0  0.4227619E+002  0.1245376E+03  0.7546771E-02  0.1235794E+00
         21   -1    0    0  506  501  0.00000000000E+00  0.00000000000E+00  0.46774610791E+03  0.46774610791E+03  0.00000000000E+00 0.  1.
         21   -1    0    0  505  502 -0.00000000000E+00 -0.00000000000E+00 -0.20603598137E+03  0.20603598137E+03  0.00000000000E+00 0.  1.
         21    1    1    2  503  502  0.96930102274E+01  0.34064881595E+02  0.14629261647E+00  0.35417396952E+02  0.00000000000E+00 0. -1.
         21    1    1    2  504  501  0.35669112541E+02 -0.46493740505E+02  0.23670828315E+03  0.24385398256E+03  0.00000000000E+00 0.  1.
         21    1    1    2  505  504  0.68453069952E+02 -0.11215920410E+03 -0.11555839843E+03  0.17498358008E+03  0.00000000000E+00 0.  1.
         21    1    1    2  506  503 -0.11381519272E+03  0.12458806301E+03  0.14041394921E+03  0.21952712969E+03  0.00000000000E+00 0.  1.
<scales pt_clust_3="35.41709" pt_clust_4="58.20178" pt_clust_5="14000.00000" pt_clust_6="124.53764"></scales>
<clustering>
<clus scale="   35.417">  2  3  1 -1</clus>
<clus scale="   58.202">  1  4  2 -1</clus>
<clus scale="  124.538">  1  6  2 -1</clus>
<clus scale="   58.202">  1  3  2 -1</clus>
</clustering>
</event>
<event>
 6    0  0.4227619E+002  0.1129021E+03  0.7546771E-02  0.1255288E+00
         21   -1    0    0  504  501  0.00000000000E+00  0.00000000000E+00  0.17968824431E+04  0.17968824431E+04  0.00000000000E+00 0.  1.
         21   -1    0    0  506  502 -0.00000000000E+00 -0.00000000000E+00 -0.15072650055E+03  0.15072650055E+03  0.00000000000E+00 0.  1.
         21    1    1    2  503  501 -0.59398986539E+02  0.88737418009E+01  0.12811426993E+04  0.12825496477E+04  0.00000000000E+00 0.  1.
         21    1    1    2  504  502  0.11665619662E+03  0.11522492896E+02 -0.38807875615E-01  0.11722387794E+03  0.00000000000E+00 0.  1.
         21    1    1    2  505  503 -0.57047794291E+02  0.28986572745E+02  0.44732543665E+03  0.45187909722E+03  0.00000000000E+00 0.  1.
         21    1    1    2  506  505 -0.20941579234E+00 -0.49382807442E+02 -0.82273385533E+02  0.95956320755E+02  0.00000000000E+00 0.  1.
<scales pt_clust_3="59.97981" pt_clust_4="14000.00000" pt_clust_5="112.90213" pt_clust_6="49.38325"></scales>
<clustering>
<clus scale="   49.383">  2  6  1 -1</clus>
<clus scale="   59.980">  1  3  2 -1</clus>
<clus scale="  112.902">  1  5  2 -1</clus>
<clus scale="   59.980">  1  3  2 -1</clus>
</clustering>
</event>
<event>
 6    0  0.4227619E+002  0.8727916E+02  0.7546771E-02  0.1309578E+00
         21   -1    0    0  505  501  0.00000000000E+00  0.00000000000E+00  0.65293506669E+02  0.65293506669E+02  0.00000000000E+00 0. -1.
         21   -1    0    0  504  502 -0.00000000000E+00 -0.00000000000E+00 -0.15250585284E+04  0.15250585284E+04  0.00000000000E+00 0.  1.
         21    1    1    2  503  501 -0.40123905728E+02  0.84018500236E+02  0.20104962502E+02  0.95253586337E+02  0.00000000000E+00 0. -1.
         21    1    1    2  504  503 -0.16376303999E+02  0.33867893102E+02 -0.38201676118E+03  0.38386458985E+03  0.00000000000E+00 0. -1.
         21    1    1    2  505  506  0.47798340513E+02 -0.39885916814E+02 -0.18880033288E+03  0.19879922890E+03  0.00000000000E+00 0. -1.
         21    1    1    2  506  502  0.87018692145E+01 -0.78000476524E+02 -0.90905289016E+03  0.91243462998E+03  0.00000000000E+00 0.  1.
<scales pt_clust_3="14000.00000" pt_clust_4="37.61938" pt_clust_5="87.27916" pt_clust_6="51.17944"></scales>
<clustering>
<clus scale="   37.619">  2  4  1 -1</clus>
<clus scale="   51.179">  2  6  1 -1</clus>
<clus scale="   87.279">  2  5  1 -1</clus>
<clus scale="   87.279">  1  3  2 -1</clus>
</clustering>
</event>
<event>
 6    0  0.4227619E+002  0.2293493E+03  0.7546771E-02  0.1127099E+00
         21   -1    0    0  506  501  0.00000000000E+00  0.00000000000E+00  0.13228417870E+03  0.13228417870E+03  0.00000000000E+00 0.  1.
         21   -1    0    0  505  502 -0.00000000000E+00 -0.00000000000E+00 -0.81210886174E+03  0.81210886174E+03  0.00000000000E+00 0.  1.
         21    1    1    2  503  502  0.42126508265E+02 -0.13181685083E+02 -0.16935908362E+03  0.17501685269E+03  0.00000000000E+00 0. -1.
         21    1    1    2  504  503 -0.19870064032E+02 -0.76429502894E+02 -0.24667602331E+03  0.25900839530E+03  0.00000000000E+00 0.  1.
         21    1    1    2  505  501  0.88075659114E+02  0.19227902271E+03 -0.57856074006E+01  0.21157036077E+03  0.00000000000E+00 0.  1.
         21    1    1    2  506  504 -0.11033210335E+03 -0.10266783473E+03 -0.25800396870E+03  0.29879743169E+03  0.00000000000E+00 0.  1.
<scales pt_clust_3="44.14068" pt_clust_4="65.28371" pt_clust_5="212.56552" pt_clust_6="65.28371"></scales>
<clustering>
<clus scale="   44.141">  2  3  1 -1</clus>
<clus scale="   65.284">  4  6 -1 -1</clus>
<clus scale="  212.566">  1  5  2 -1</clus>
<clus scale="  212.566">  1  3  2 -1</clus>
</clustering>
</event>
<event>
 6    0  0.4227619E+002  0.1588026E+03  0.7546771E-02  0.1190055E+00
         21   -1    0    0  506  501  0.00000000000E+00  0.00000000000E+00  0.47645401975E+03  0.47645401975E+03  0.00000000000E+00 0.  1.
         21   -1    0    0  505  502 -0.00000000000E+00 -0.00000000000E+00 -0.47996750729E+03  0.47996750729E+03  0.00000000000E+00 0.  1.
         21    1    1    2  503  501 -0.18781335999E+02  0.62993193904E+02  0.20695618110E+03  0.21714451859E+03  0.00000000000E+00 0.  1.
         21    1    1    2  504  503  0.77280342155E+02 -0.10640375570E+03  0.12276371891E+03  0.17990258806E+03  0.00000000000E+00 0.  1.
         21    1    1    2  505  504  0.47420768679E+00  0.16509072513E+03 -0.38158855488E+03  0.41577036645E+03  0.00000000000E+00 0.  1.
         21    1    1    2  506  502 -0.58973213843E+02 -0.12168016334E+03  0.48355167324E+02  0.14360405394E+03  0.00000000000E+00 0.  1.
<scales pt_clust_3="65.73341" pt_clust_4="96.82637" pt_clust_5="14000.00000" pt_clust_6="158.80263"></scales>
<clustering>
<clus scale="   65.733">  1  3  2 -1</clus>
<clus scale="   96.826">  1  4  2 -1</clus>
<clus scale="  158.803">  1  6  2 -1</clus>
<clus scale="   65.733">  1  3  2 -1</clus>
</clustering>
</event>
<event>
 6    0  0.4227619E+002  0.6374614E+02  0.7546771E-02  0.1382751E+00
         21   -1    0    0  504  501  0.00000000000E+00  0.00000000000E+00  0.50701146809E+03  0.50701146809E+03  0.00000000000E+00 0.  1.
         21   -1    0    0  505  502 -0.00000000000E+00 -0.00000000000E+00 -0.36434002640E+03  0.36434002640E+03  0.00000000000E+00 0. -1.
         21    1    1    2  503  506 -0.63522108472E+02 -0.36186314225E+02  0.40050706982E+03  0.40712457624E+03  0.00000000000E+00 0.  1.
         21    1    1    2  504  503  0.69427043755E+01  0.34527401853E+02  0.82333168689E+02  0.89549390222E+02  0.00000000000E+00 0. -1.
         21    1    1    2  505  501  0.63677885251E+02  0.61266877532E+02 -0.13871275938E+03  0.16446803023E+03  0.00000000000E+00 0. -1.
         21    1    1    2  506  502 -0.70984811542E+01 -0.59607965160E+02 -0.20145603744E+03  0.21020949781E+03  0.00000000000E+00 0. -1.
<scales pt_clust_3="56.94691" pt_clust_4="35.21850" pt_clust_5="14000.00000" pt_clust_6="63.74614"></scales>
<clustering>
<clus scale="   35.218">  1  4  2 -1</clus>
<clus scale="   56.947">  1  3  2 -1</clus>
<clus scale="   63.746">  2  6  1 -1</clus>
<clus scale="   35.218">  1  3  2 -1</clus>
</clustering>
</event>
<event>
 6    0  0.4227619E+002  0.1172034E+03  0.7546771E-02  0.1247783E+00
         21   -1    0    0  506  501  0.00000000000E+00  0.00000000000E+00  0.41044380196E+02  0.41044380196E+02  0.00000000000E+00 0. -1.
         21   -1    0    0  505  502 -0.00000000000E+00 -0.00000000000E+00 -0.19023489833E+04  0.19023489833E+04  0.00000000000E+00 0.  1.
         21    1    1    2  503  501 -0.21710188583E+02  0.43992865502E+02 -0.14174843826E+03  0.14999774749E+03  0.00000000000E+00 0.  1.
         21    1    1    2  504  502  0.28223165229E+02 -0.31401719680E+02 -0.16274532566E+03  0.16813285247E+03  0.00000000000E+00 0.  1.
         21    1    1    2  505  503 -0.27329921132E+02 -0.94828052834E+02 -0.15343343787E+04  0.15375048845E+04  0.00000000000E+00 0.  1.
         21    1    1    2  506  504  0.20816944487E+02  0.82236907013E+02 -0.22476460445E+02  0.87757879002E+02  0.00000000000E+00 0. -1.
<scales pt_clust_3="45.65433" pt_clust_4="42.22103" pt_clust_5="117.20338" pt_clust_6="14000.00000"></scales>
<clustering>
<clus scale="   42.221">  2  4  1 -1</clus>
<clus scale="   45.654">  1  3  2 -1</clus>
<clus scale="  117.203">  2  5  1 -1</clus>
<clus scale="   45.654">  1  3  2 -1</clus>
</clustering>
</event>
<event>
 6    0  0.4227619E+002  0.1187116E+03  0.7546771E-02  0.1245238E+00
         21   -1    0    0  504  501  0.00000000000E+00  0.00000000000E+00  0.34806271090E+03  0.34806271090E+03  0.00000000000E+00 0. -1.
         21   -1    0    0  503  502 -0.00000000000E+00 -0.00000000000E+00 -0.21111112487E+03  0.21111112487E+03  0.00000000000E+00 0. -1.
         21    1    1    2  503  506  0.38877104119E+02  0.51269014541E+02 -0.11564176198E+03  0.13233653384E+03  0.00000000000E+00 0. -1.
         21    1    1    2  504  502  0.47779548392E+02 -0.12351200550E+02  0.14333072511E+02  0.51389438284E+02  0.00000000000E+00 0.  1.
         21    1    1    2  505  501 -0.82570502383E+02 -0.12558711650E+03  0.24606009156E+03  0.28833241294E+03  0.00000000000E+00 0. -1.
         21    1    1    2  506  505 -0.40861501283E+01  0.86669302508E+02 -0.77998160680E+01  0.87115450701E+02  0.00000000000E+00 0.  1.
<scales pt_clust_3="64.85749" pt_clust_4="49.35015" pt_clust_5="14000.00000" pt_clust_6="118.71155"></scales>
<clustering>
<clus scale="   49.350">  1  4  2 -1</clus>
<clus scale="   64.857">  2  3  1 -1</clus>
<clus scale="  118.712">  2  6  1 -1</clus>
<clus scale="   49.350">  1  3  2 -1</clus>
</clustering>
</event>
<event>
 6    0  0.4227619E+002  0.8762269E+02  0.7546771E-02  0.1308713E+00
         21   -1    0    0  503  501  0.00000000000E+00  0.00000000000E+00  0.93827509964E+03  0.93827509964E+03  0.00000000000E+00 0.  1.
         21   -1    0    0  504  502 -0.00000000000E+00 -0.00000000000E+00 -0.13131788629E+03  0.13131788629E+03  0.00000000000E+00 0. -1.
         21    1    1    2  503  502  0.75905062316E+02 -0.61273305243E+01 -0.34886872875E+02  0.83762859093E+02  0.00000000000E+00 0. -1.
         21    1    1    2  504  505 -0.35570241196E+02 -0.21430889570E+02 -0.14652334344E+02  0.44036530156E+02  0.00000000000E+00 0. -1.
         21    1    1    2  505  506 -0.10198506145E+03  0.86119614973E+02  0.70017586623E+02  0.15073156033E+03  0.00000000000E+00 0. -1.
         21    1    1    2  506  501  0.61650240331E+02 -0.58561394879E+02  0.78647883395E+03  0.79106203635E+03  0.00000000000E+00 0.  1.
<scales pt_clust_3="58.25875" pt_clust_4="41.52740" pt_clust_5="87.62269" pt_clust_6="14000.00000"></scales>
<clustering>
<clus scale="   41.527">  2  4  1 -1</clus>
<clus scale="   58.259">  2  3  1 -1</clus>
<clus scale="   87.623">  2  5  1 -1</clus>
<clus scale="   87.623">  1  3  2 -1</clus>
</clustering>
</event>
<event>
 6    0  0.4227619E+002  0.1465702E+03  0.7546771E-02  0.1204752E+00
         21   -1    0    0  503  501  0.00000000000E+00  0.00000000000E+00  0.53411547764E+03  0.53411547764E+03  0.00000000000E+00 0.  1.
         21   -1    0    0  505  502 -0.00000000000E+00 -0.00000000000E+00 -0.44365228480E+03  0.44365228480E+03  0.00000000000E+00 0. -1.
         21    1    1    2  503  506  0.32405991321E+02 -0.57167437731E+02  0.48573545873E+02  0.81716911156E+02  0.00000000000E+00 0.  1.
         21    1    1    2  504  501 -0.13542977867E+02  0.14023387920E+03  0.36906627122E+03  0.39504286562E+03  0.00000000000E+00 0.  1.
         21    1    1    2  505  504  0.24963944986E+02  0.39004084954E+02  0.69584638333E+02  0.83585519585E+02  0.00000000000E+00 0.  1.
         21    1    1    2  506  502 -0.43826958440E+02 -0.12207052642E+03 -0.39676126258E+03  0.41742246608E+03  0.00000000000E+00 0. -1.
<scales pt_clust_3="65.71350" pt_clust_4="38.08952" pt_clust_5="38.08952" pt_clust_6="130.64833"></scales>
<clustering>
<clus scale="   38.090">  4  5 -1 -1</clus>
<clus scale="   65.714">  1  3  2 -1</clus>
<clus scale="  130.648">  2  6  1 -1</clus>
<clus scale="   65.714">  1  3  2 -1</clus>
</clustering>
</event>
<event>
 6    0  0.4227619E+002  0.6253610E+02  0.7546771E-02  0.1387487E+00
         21   -1    0    0  503  501  0.00000000000E+00  0.00000000000E+00  0.46502612708E+03  0.46502612708E+03  0.00000000000E+00 0.  1.
         21   -1    0    0  504  502 -0.00000000000E+00 -0.00000000000E+00 -0.13366198323E+03  0.13366198323E+03  0.00000000000E+00 0.  1.
         21    1    1    2  503  502 -0.30699704094E+02  0.16666805094E+02  0.24342665843E+02  0.42577219306E+02  0.00000000000E+00 0.  1.
         21    1    1    2  504  505 -0.24200773898E+02  0.55265627520E+02 -0.95212577076E+02  0.11271824110E+03  0.00000000000E+00 0.  1.
         21    1    1    2  505  506  0.13583668364E+02 -0.10728254866E+03  0.14735169757E+03  0.18277468115E+03  0.00000000000E+00 0.  1.
         21    1    1    2  506  501  0.41316809627E+02  0.35350116050E+02  0.25488235752E+03  0.26061796875E+03  0.00000000000E+00 0.  1.
<scales pt_clust_3="34.93214" pt_clust_4="14000.00000" pt_clust_5="62.53610" pt_clust_6="50.79990"></scales>
<clustering>
<clus scale="   34.932">  1  3  2 -1</clus>
<clus scale="   50.800">  1  6  2 -1</clus>
<clus scale="   62.536">  1  5  2 -1</clus>
<clus scale="   34.932">  1  3  2 -1</clus>
</clustering>
</event>
<event>
 6    0  0.4227619E+002  0.9848759E+02  0.7546771E-02  0.1283509E+00
         21   -1    0    0  503  501  0.00000000000E+00  0.00000000000E+00  0.59605922119E+03  0.59605922119E+03  0.00000000000E+00 0. -1.
         21   -1    0    0  504  502 -0.00000000000E+00 -0.00000000000E+00 -0.99222594454E+02  0.99222594454E+02  0.00000000000E+00 0.  1.
         21    1    1    2  503  506 -0.51489721867E+02 -0.10870441388E+03  0.36200521131E+03  0.38146508893E+03  0.00000000000E+00 0. -1.
         21    1    1    2  504  505  0.74204901965E+02 -0.95639138189E+01 -0.25683407291E+02  0.79104192893E+02  0.00000000000E+00 0.  1.
         21    1    1    2  505  501 -0.60317788737E+02  0.52854584883E+02  0.33367212688E+02  0.86863189349E+02  0.00000000000E+00 0.  1.
         21    1    1    2  506  502  0.37602608638E+02  0.65413742815E+02  0.12714761003E+03  0.14784934447E+03  0.00000000000E+00 0. -1.
<scales pt_clust_3="14000.00000" pt_clust_4="74.81869" pt_clust_5="50.67122" pt_clust_6="98.48759"></scales>
<clustering>
<clus scale="   74.819">  2  4  1 -1</clus>
<clus scale="   50.671">  2  5  1 -1</clus>
<clus scale="   98.488">  2  6  1 -1</clus>
<clus scale="   98.488">  1  3  2 -1</clus>
</clustering>
</event>
<event>
 6    0  0.4227619E+002  0.1386095E+03  0.7546771E-02  0.1215212E+00
         21   -1    0    0  504  501  0.00000000000E+00  0.00000000000E+00  0.33926706085E+03  0.33926706085E+03  0.00000000000E+00 0.  1.
         21   -1    0    0  503  502 -0.00000000000E+00 -0.00000000000E+00 -0.12066935465E+04  0.12066935465E+04  0.00000000000E+00 0.  1.
         21    1    1    2  503  501 -0.29482154295E+02  0.30384052458E+02 -0.54148851516E+02  0.68734897877E+02  0.00000000000E+00 0. -1.
         21    1    1    2  504  506 -0.87710130208E+02 -0.10681855349E+03  0.30603509267E+03  0.33579867221E+03  0.00000000000E+00 0.  1.
         21    1    1    2  505  502 -0.44428844095E+02 -0.87039224174E+00 -0.22256727206E+03  0.22696006336E+03  0.00000000000E+00 0.  1.
         21    1    1    2  506  505  0.16162112860E+03  0.77304893270E+02 -0.89674545472E+03  0.91446697386E+03  0.00000000000E+00 0.  1.
<scales pt_clust_3="42.33660" pt_clust_4="138.60954" pt_clust_5="50.47251" pt_clust_6="14000.00000"></scales>
<clustering>
<clus scale="   42.337">  2  3  1 -1</clus>
<clus scale="   50.473">  2  5  1 -1</clus>
<clus scale="  138.610">  1  4  2 -1</clus>
<clus scale="  138.610">  1  3  2 -1</clus>
</clustering>
</event>
<event>
 6    0  0.4227619E+002  0.7371513E+02  0.7546771E-02  0.1347897E+00
         21   -1    0    0  506  501  0.00000000000E+00  0.00000000000E+00  0.25019582862E+04  0.25019582862E+04  0.00000000000E+00 0.  1.
         21   -1    0    0  505  502 -0.00000000000E+00 -0.00000000000E+00 -0.31543032822E+03  0.31543032822E+03  0.00000000000E+00 0. -1.
         21    1    1    2  503  504 -0.83745985332E+02  0.11713277081E+02 -0.11377295670E+03  0.14175639878E+03  0.00000000000E+00 0. -1.
         21    1    1    2  504  501  0.28181055013E+02 -0.81448937713E+02  0.53857527150E+03  0.54542774443E+03  0.00000000000E+00 0.  1.
         21    1    1    2  505  503  0.37173133898E+02  0.45473274377E+02 -0.17943606128E+03  0.18880402711E+03  0.00000000000E+00 0. -1.
         21    1    1    2  506  502  0.18391796421E+02  0.24262386256E+02  0.19411617045E+04  0.19414004441E+04  0.00000000000E+00 0.  1.
<scales pt_clust_3="73.71513" pt_clust_4="14000.00000" pt_clust_5="58.98799" pt_clust_6="30.44539"></scales>
<clustering>
<clus scale="   30.445">  1  6  2 -1</clus>
<clus scale="   58.988">  2  5  1 -1</clus>
<clus scale="   73.715">  2  3  1 -1</clus>
<clus scale="   30.445">  1  3  2 -1</clus>
</clustering>
</event>
<event>
 6    0  0.4227619E+002  0.2160721E+03  0.7546771E-02  0.1136846E+00
         21   -1    0    0  505  501  0.00000000000E+00  0.00000000000E+00  0.14314397234E+04  0.14314397234E+04  0.00000000000E+00 0.  1.
         21   -1    0    0  503  502 -0.00000000000E+00 -0.00000000000E+00 -0.70369484007E+02  0.70369484007E+02  0.00000000000E+00 0.  1.
         21    1    1    2  503  506 -0.10120491700E+03  0.41289822031E+02  0.94825571801E+02  0.14470374458E+03  0.00000000000E+00 0.  1.
         21    1    1    2  504  502  0.18612619047E+03 -0.13668514776E+03  0.68135610453E+03  0.71942472127E+03  0.00000000000E+00 0.  1.
         21    1    1    2  505  504 -0.34776187869E+02  0.10137359341E+02  0.51570411611E+03  0.51697474278E+03  0.00000000000E+00 0. -1.
         21    1    1    2  506  501 -0.50145085601E+02  0.85257966386E+02  0.69184446970E+02  0.12070599879E+03  0.00000000000E+00 0.  1.
<scales pt_clust_3="64.20017" pt_clust_4="205.09824" pt_clust_5="36.22360" pt_clust_6="64.20017"></scales>
<clustering>
<clus scale="   36.224">  1  5  2 -1</clus>
<clus scale="   64.200">  3  6 -1 -1</clus>
<clus scale="  205.098">  1  4  2 -1</clus>
<clus scale="   36.224">  1  3  2 -1</clus>
</clustering>
</event>
<event>
 6    0  0.4227619E+002  0.1329378E+03  0.7546771E-02  0.1223161E+00
         21   -1    0    0  506  501  0.00000000000E+00  0.00000000000E+00  0.20958006685E+04  0.20958006685E+04  0.00000000000E+00 0.  1.
         21   -1    0    0  503  502 -0.00000000000E+00 -0.00000000000E+00 -0.99480323006E+02  0.99480323006E+02  0.00000000000E+00 0. -1.
         21    1    1    2  503  505  0.30356186140E+02 -0.52880917484E+02  0.25541397389E+01  0.61027969823E+02  0.00000000000E+00 0. -1.
         21    1    1    2  504  501 -0.42378110040E+02  0.14684034724E+03  0.58572401689E+03  0.60533512681E+03  0.00000000000E+00 0. -1.
         21    1    1    2  505  504  0.24474044873E+02 -0.57452919994E+02 -0.43981575558E+02  0.76381908047E+02  0.00000000000E+00 0. -1.
         21    1    1    2  506  502 -0.12452120972E+02 -0.36506509761E+02  0.14520237644E+04  0.14525359868E+04  0.00000000000E+00 0.  1.
<scales pt_clust_3="44.22941" pt_clust_4="125.24824" pt_clust_5="44.22941" pt_clust_6="38.57176"></scales>
<clustering>
<clus scale="   38.572">  1  6  2 -1</clus>
<clus scale="   44.229">  3  5 -1 -1</clus>
<clus scale="  125.248">  1  4  2 -1</clus>
<clus scale="   38.572">  1  3  2 -1</clus>
</clustering>
</event>
<event>
 6    0  0.4227619E+002  0.4314940E+03  0.7546771E-02  0.1033389E+00
         21   -1    0    0  506  501  0.00000000000E+00  0.00000000000E+00  0.45210655808E+03  0.45210655808E+03  0.00000000000E+00 0.  1.
         21   -1    0    0  503  502 -0.00000000000E+00 -0.00000000000E+00 -0.73877597549E+03  0.73877597549E+03  0.00000000000E+00 0.  1.
         21    1    1    2  503  504 -0.18419650235E+02 -0.24991217366E+02 -0.21408555487E+03  0.21632491596E+03  0.00000000000E+00 0.  1.
         21    1    1    2  504  505 -0.30754380466E+02 -0.27342456453E+02 -0.81390217545E+02  0.91202024949E+02  0.00000000000E+00 0.  1.
         21    1    1    2  505  501  0.13349169562E+03  0.45010663547E+03 -0.51481907938E+02  0.47229906091E+03  0.00000000000E+00 0.  1.
         21    1    1    2  506  502 -0.84317664920E+02 -0.39777296165E+03  0.60288262948E+02  0.41105653174E+03  0.00000000000E+00 0.  1.
<scales pt_clust_3="31.04584" pt_clust_4="46.16945" pt_clust_5="431.49399" pt_clust_6="14000.00000"></scales>
<clustering>
<clus scale="   31.046">  2  3  1 -1</clus>
<clus scale="   46.169">  2  4  1 -1</clus>
<clus scale="  431.494">  2  5  1 -1</clus>
<clus scale="  431.494">  1  3  2 -1</clus>
</clustering>
</event>
<event>
 6    0  0.4227619E+002  0.1738731E+03  0.7546771E-02  0.1173868E+00
         21   -1    0    0  505  501  0.00000000000E+00  0.00000000000E+00  0.76201702924E+03  0.76201702924E+03  0.00000000000E+00 0.  1.
         21   -1    0    0  504  502 -0.00000000000E+00 -0.00000000000E+00 -0.20753514038E+03  0.20753514038E+03  0.00000000000E+00 0. -1.
         21    1    1    2  503  501  0.15751130790E+03 -0.99603522646E+02  0.61447304998E+03  0.64211198634E+03  0.00000000000E+00 0.  1.
         21    1    1    2  504  506 -0.59230274080E+02 -0.11589263975E+02  0.57540030035E+02  0.83386998168E+02  0.00000000000E+00 0.  1.
         21    1    1    2  505  502 -0.34912399031E+02  0.83493290664E+02 -0.14393888702E+03  0.17002472875E+03  0.00000000000E+00 0. -1.
         21    1    1    2  506  503 -0.63368634794E+02  0.27699495957E+02  0.26407695857E+02  0.74028456369E+02  0.00000000000E+00 0. -1.
<scales pt_clust_3="166.70173" pt_clust_4="46.16739" pt_clust_5="90.49865" pt_clust_6="46.16739"></scales>
<clustering>
<clus scale="   46.167">  4  6 -1 -1</clus>
<clus scale="   90.499">  2  5  1 -1</clus>
<clus scale="  166.702">  1  3  2 -1</clus>
<clus scale="  166.702">  1  3  2 -1</clus>
</clustering>
</event>
<event>
 6    0  0.4227619E+002  0.1104067E+03  0.7546771E-02  0.1259819E+00
         21   -1    0    0  503  501  0.00000000000E+00  0.00000000000E+00  0.17605570144E+04  0.17605570144E+04  0.00000000000E+00 0.  1.
         21   -1    0    0  505  502 -0.00000000000E+00 -0.00000000000E+00 -0.97279560782E+02  0.97279560782E+02  0.00000000000E+00 0.  1.
         21    1    1    2  503  506 -0.48480626644E+01  0.31628737769E+02  0.12288256888E+04  0.12292422277E+04  0.00000000000E+00 0.  1.
         21    1    1    2  504  502  0.22112898253E+02 -0.44970686058E+02  0.11234039685E+01  0.50125890617E+02  0.00000000000E+00 0.  1.
         21    1    1    2  505  501  0.24430266864E+02  0.83813267040E+02  0.47751148846E+03  0.48542633147E+03  0.00000000000E+00 0.  1.
         21    1    1    2  506  504 -0.41695102453E+02 -0.70471318751E+02 -0.44183127642E+02  0.93042125423E+02  0.00000000000E+00 0.  1.
<scales pt_clust_3="31.99814" pt_clust_4="48.64403" pt_clust_5="110.40672" pt_clust_6="14000.00000"></scales>
<clustering>
<clus scale="   31.998">  1  3  2 -1</clus>
<clus scale="   48.644">  2  4  1 -1</clus>
<clus scale="  110.407">  1  5  2 -1</clus>
<clus scale="   31.998">  1  3  2 -1</clus>
</clustering>
</event>
<event>
 6    0  0.4227619E+002  0.7754627E+02  0.7546771E-02  0.1336163E+00
         21   -1    0    0  503  501  0.00000000000E+00  0.00000000000E+00  0.54261578502E+02  0.54261578502E+02  0.00000000000E+00 0. -1.
         21   -1    0    0  506  502 -0.00000000000E+00 -0.00000000000E+00 -0.16338084037E+04  0.16338084037E+04  0.00000000000E+00 0.  1.
         21    1    1    2  503  502  0.19685289961E+02  0.53919068380E+02  0.71636855721E+01  0.57845440328E+02  0.00000000000E+00 0. -1.
         21    1    1    2  504  501 -0.26194295893E+02  0.39827742588E+02 -0.56447887142E+02  0.73883382298E+02  0.00000000000E+00 0. -1.
         21    1    1    2  505  504  0.65624197194E+02 -0.72445981261E+02 -0.18177769865E+03  0.20639304055E+03  0.00000000000E+00 0. -1.
         21    1    1    2  506  505 -0.59115191261E+02 -0.21300829707E+02 -0.13484849250E+04  0.13499481190E+04  0.00000000000E+00 0.  1.
<scales pt_clust_3="14000.00000" pt_clust_4="47.66959" pt_clust_5="77.54627" pt_clust_6="63.01913"></scales>
<clustering>
<clus scale="   47.670">  1  4  2 -1</clus>
<clus scale="   63.019">  2  6  1 -1</clus>
<clus scale="   77.546">  2  5  1 -1</clus>
<clus scale="   47.670">  1  3  2 -1</clus>
</clustering>
</event>
<event>
 6    0  0.4227619E+002  0.7198252E+02  0.7546771E-02  0.1353478E+00
         21   -1    0    0  506  501  0.00000000000E+00  0.00000000000E+00  0.46622059039E+03  0.46622059039E+03  0.00000000000E+00 0. -1.
         21   -1    0    0  503  502 -0.00000000000E+00 -0.00000000000E+00 -0.25038256783E+03  0.25038256783E+03  0.00000000000E+00 0.  1.
         21    1    1    2  503  504 -0.11032727299E+03  0.39346525250E+02 -0.16515737184E+03  0.20247768689E+03  0.00000000000E+00 0.  1.
         21    1    1    2  504  505  0.58526748554E+02  0.12834166135E+02  0.89836912462E+02  0.10798503117E+03  0.00000000000E+00 0. -1.
         21    1    1    2  505  501  0.10575158337E+02 -0.35232199636E+02  0.33886233176E+03  0.34085307943E+03  0.00000000000E+00 0. -1.
         21    1    1    2  506  502  0.41225366101E+02 -0.16948491749E+02 -0.47703849837E+02  0.65287360737E+02  0.00000000000E+00 0.  1.
<scales pt_clust_3="14000.00000" pt_clust_4="71.98252" pt_clust_5="36.78508" pt_clust_6="46.22866"></scales>
<clustering>
<clus scale="   36.785">  1  5  2 -1</clus>
<clus scale="   46.229">  2  6  1 -1</clus>
<clus scale="   71.983">  1  4  2 -1</clus>
<clus scale="   36.785">  1  3  2 -1</clus>
</clustering>
</event>
<event>
 6    0  0.4227619E+002  0.1254402E+03  0.7546771E-02  0.1234383E+00
         21   -1    0    0  503  501  0.00000000000E+00  0.00000000000E+00  0.69000297306E+03  0.69000297306E+03  0.00000000000E+00 0. -1.
         21   -1    0    0  506  502 -0.00000000000E+00 -0.00000000000E+00 -0.45475984722E+03  0.45475984722E+03  0.00000000000E+00 0. -1.
         21    1    1    2  503  505  0.32389758164E+02 -0.10024902337E+03  0.45108943657E+03  0.46322849967E+03  0.00000000000E+00 0. -1.
         21    1    1    2  504  501  0.60037732417E+02  0.13441058409E+02  0.16280584235E+03  0.17404290755E+03  0.00000000000E+00 0. -1.
         21    1    1    2  505  502  0.83841927470E+02 -0.18060727395E+02 -0.10960960653E+02  0.86462716441E+02  0.00000000000E+00 0. -1.
         21    1    1    2  506  504 -0.17626941805E+03  0.10486869236E+03 -0.36769119243E+03  0.42102869661E+03  0.00000000000E+00 0. -1.
<scales pt_clust_3="125.44025" pt_clust_4="61.52391" pt_clust_5="89.82763" pt_clust_6="14000.00000"></scales>
<clustering>
<clus scale="   61.524">  1  4  2 -1</clus>
<clus scale="   89.828">  2  5  1 -1</clus>
<clus scale="  125.440">  1  3  2 -1</clus>
<clus scale="   61.524">  1  3  2 -1</clus>
</clustering>
</event>
<event>
 6    0  0.4227619E+002  0.1170699E+03  0.7546771E-02  0.1248011E+00
         21   -1    0    0  505  501  0.00000000000E+00  0.00000000000E+00  0.13336460119E+04  0.13336460119E+04  0.00000000000E+00 0. -1.
         21   -1    0    0  503  502 -0.00000000000E+00 -0.00000000000E+00 -0.93865951401E+02  0.93865951401E+02  0.00000000000E+00 0. -1.
         21    1    1    2  503  501  0.33907151089E+02 -0.98888141860E+01  0.12913378613E+03  0.13387687724E+03  0.00000000000E+00 0.  1.
         21    1    1    2  504  506  0.25048491312E+02 -0.75103135303E+02  0.18694634067E+02  0.81347385897E+02  0.00000000000E+00 0.  1.
         21    1    1    2  505  504 -0.70542149091E+02  0.12694507070E+03  0.11389848049E+04  0.11482062670E+04  0.00000000000E+00 0. -1.
         21    1    1    2  506  502  0.11586506690E+02 -0.41953121210E+02 -0.47033164541E+02  0.64081433218E+02  0.00000000000E+00 0. -1.
<scales pt_clust_3="35.31973" pt_clust_4="14000.00000" pt_clust_5="117.06988" pt_clust_6="43.65580"></scales>
<clustering>
<clus scale="   35.320">  1  3  2 -1</clus>
<clus scale="   43.656">  2  6  1 -1</clus>
<clus scale="  117.070">  1  5  2 -1</clus>
<clus scale="   35.320">  1  3  2 -1</clus>
</clustering>
</event>
<event>
 6    0  0.4227619E+002  0.8678514E+02  0.7546771E-02  0.1310829E+00
         21   -1    0    0  505  501  0.00000000000E+00  0.00000000000E+00  0.31618679969E+03  0.31618679969E+03  0.00000000000E+00 0. -1.
         21   -1    0    0  503  502 -0.00000000000E+00 -0.00000000000E+00 -0.17123551681E+03  0.17123551681E+03  0.00000000000E+00 0. -1.
         21    1    1    2  503  504 -0.34575594242E+02 -0.17642012713E+02 -0.64464570317E+02  0.75248874782E+02  0.00000000000E+00 0. -1.
         21    1    1    2  504  501  0.35475092170E+02 -0.87090908524E+01  0.17425877182E+03  0.17804620183E+03  0.00000000000E+00 0. -1.
         21    1    1    2  505  506 -0.70006852432E+02 -0.59855455671E+02  0.72800686508E+02  0.11740347063E+03  0.00000000000E+00 0. -1.
         21    1    1    2  506  502  0.69107354504E+02  0.86206559237E+02 -0.37643605126E+02  0.11672376925E+03  0.00000000000E+00 0. -1.
<scales pt_clust_3="37.76325" pt_clust_4="36.52849" pt_clust_5="86.78514" pt_clust_6="14000.00000"></scales>
<clustering>
<clus scale="   36.528">  1  4  2 -1</clus>
<clus scale="   37.763">  2  3  1 -1</clus>
<clus scale="   86.785">  1  5  2 -1</clus>
<clus scale="   36.528">  1  3  2 -1</clus>
</clustering>
</event>
<event>
 6    0  0.4227619E+002  0.1072276E+03  0.7546771E-02  0.1265792E+00
         21   -1    0    0  504  501  0.00000000000E+00  0.00000000000E+00  0.11725454204E+04  0.11725454204E+04  0.00000000000E+00 0. -1.
         21   -1    0    0  503  502 -0.00000000000E+00 -0.00000000000E+00 -0.13319956826E+03  0.13319956826E+03  0.00000000000E+00 0.  1.
         21    1    1    2  503  506 -0.14356623122E+03 -0.10071250537E+03  0.27167758349E+02  0.17746086492E+03  0.00000000000E+00 0.  1.
         21    1    1    2  504  505  0.18662013971E+02  0.11592736234E+03  0.22754209329E+03  0.25605239371E+03  0.00000000000E+00 0.  1.
         21    1    1    2  505  502  0.87339925589E+02  0.28665673201E+02  0.67145664374E+01  0.92168697639E+02  0.00000000000E+00 0.  1.
         21    1    1    2  506  501  0.37564291660E+02 -0.43880530167E+02  0.77792143403E+03  0.78006303236E+03  0.00000000000E+00 0. -1.
<scales pt_clust_3="14000.00000" pt_clust_4="107.22758" pt_clust_5="94.92596" pt_clust_6="57.76311"></scales>
<clustering>
<clus scale="   57.763">  1  6  2 -1</clus>
<clus scale="   94.926">  2  5  1 -1</clus>
<clus scale="  107.228">  1  4  2 -1</clus>
<clus scale="   57.763">  1  3  2 -1</clus>
</clustering>
</event>
<event>
 6    0  0.4227619E+002  0.1602266E+03  0.7546771E-02  0.1188441E+00
         21   -1    0    0  505  501  0.00000000000E+00  0.00000000000E+00  0.59016371873E+02  0.59016371873E+02  0.00000000000E+00 0. -1.
         21   -1    0    0  506  502 -0.00000000000E+00 -0.00000000000E+00 -0.72759512599E+03  0.72759512599E+03  0.00000000000E+00 0.  1.
         21    1    1    2  503  501  0.74627656602E+02  0.10347921699E+03 -0.10070565116E+03  0.16253880661E+03  0.00000000000E+00 0. -1.
         21    1    1    2  504  502 -0.13762129221E+02 -0.14487534929E+03 -0.48248435927E+03  0.50395378754E+03  0.00000000000E+00 0.  1.
         21    1    1    2  505  504 -0.46987553577E+02  0.71504895726E+01 -0.47513079613E+02  0.67204556591E+02  0.00000000000E+00 0.  1.
         21    1    1    2  506  503 -0.13877973804E+02  0.34245642726E+02 -0.37875664079E+02  0.52914347128E+02  0.00000000000E+00 0.  1.
<scales pt_clust_3="36.32772" pt_clust_4="145.31331" pt_clust_5="47.52851" pt_clust_6="36.32772"></scales>
<clustering>
<clus scale="   36.328">  3  6 -1 -1</clus>
<clus scale="   47.529">  1  5  2 -1</clus>
<clus scale="  145.313">  2  4  1 -1</clus>
<clus scale="   47.529">  1  3  2 -1</clus>
</clustering>
</event>
<event>
 6    0  0.4227619E+002  0.1102731E+03  0.7546771E-02  0.1260065E+00
         21   -1    0    0  505  501  0.00000000000E+00  0.00000000000E+00  0.12643644647E+04  0.12643644647E+04  0.00000000000E+00 0. -1.
         21   -1    0    0  503  502 -0.00000000000E+00 -0.00000000000E+00 -0.36456312079E+03  0.36456312079E+03  0.00000000000E+00 0.  1.
         21    1    1    2  503  504  0.15803759158E+02  0.97688308337E+02 -0.15262849047E+03  0.18190167809E+03  0.00000000000E+00 0.  1.
         21    1    1    2  504  506 -0.20083068249E+02  0.32440651609E+02 -0.94664865869E+02  0.10206450087E+03  0.00000000000E+00 0.  1.
         21    1    1    2  505  502  0.27652509491E+02 -0.35028844655E+02 -0.91868076656E+02  0.10213434656E+03  0.00000000000E+00 0.  1.
         21    1    1    2  506  501 -0.23373200400E+02 -0.95100115290E+02  0.12389627770E+04  0.12428270600E+04  0.00000000000E+00 0. -1.
<scales pt_clust_3="31.23802" pt_clust_4="31.23802" pt_clust_5="44.62826" pt_clust_6="98.12859"></scales>
<clustering>
<clus scale="   31.238">  3  4 -1 -1</clus>
<clus scale="   44.628">  2  5  1 -1</clus>
<clus scale="   98.129">  1  6  2 -1</clus>
<clus scale="   98.129">  1  3  2 -1</clus>
</clustering>
</event>
<event>
 6    0  0.4227619E+002  0.2059811E+03  0.7546771E-02  0.1144789E+00
         21   -1    0    0  506  501  0.00000000000E+00  0.00000000000E+00  0.10468070326E+03  0.10468070326E+03  0.00000000000E+00 0. -1.
         21   -1    0    0  505  502 -0.00000000000E+00 -0.00000000000E+00 -0.63307430037E+03  0.63307430037E+03  0.00000000000E+00 0. -1.
         21    1    1    2  503  501  0.36736906248E+02  0.86705228981E+02 -0.65288236946E+02  0.11458599782E+03  0.00000000000E+00 0. -1.
         21    1    1    2  504  503  0.55561362320E+00  0.97360063856E+02 -0.47110388065E+02  0.10816043364E+03  0.00000000000E+00 0. -1.
         21    1    1    2  505  504  0.61787628716E+02  0.28506792581E+02 -0.11213944099E+03  0.13117012812E+03  0.00000000000E+00 0. -1.
         21    1    1    2  506  502 -0.99080148588E+02 -0.21257208542E+03 -0.30385553111E+03  0.38383844405E+03  0.00000000000E+00 0. -1.
<scales pt_clust_3="40.68893" pt_clust_4="40.68893" pt_clust_5="68.04666" pt_clust_6="201.78317"></scales>
<clustering>
<clus scale="   40.689">  3  4 -1 -1</clus>
<clus scale="   68.047">  2  5  1 -1</clus>
<clus scale="  201.783">  2  6  1 -1</clus>
<clus scale="  205.981">  1  3  2 -1</clus>
</clustering>
</event>
<event>
 6    0  0.4227619E+002  0.9540404E+02  0.7546771E-02  0.1290269E+00
         21   -1    0    0  506  501  0.00000000000E+00  0.00000000000E+00  0.42183457430E+02  0.42183457430E+02  0.00000000000E+00 0.  1.
         21   -1    0    0  505  502 -0.00000000000E+00 -0.00000000000E+00 -0.14753904527E+04  0.14753904527E+04  0.00000000000E+00 0. -1.
         21    1    1    2  503  504 -0.28861191159E+02 -0.81403267688E+02 -0.29591486781E+03  0.30826136530E+03  0.00000000000E+00 0. -1.
         21    1    1    2  504  502  0.10709665749E+03  0.35170334075E+02 -0.10142500937E+04  0.10204949285E+04  0.00000000000E+00 0. -1.
         21    1    1    2  505  501 -0.26708230809E+02  0.64759044478E+02 -0.11329232982E+03  0.13319990777E+03  0.00000000000E+00 0.  1.
         21    1    1    2  506  503 -0.51527235524E+02 -0.18526110866E+02 -0.97497039615E+01  0.55617708618E+02  0.00000000000E+00 0.  1.
<scales pt_clust_3="95.40404" pt_clust_4="14000.00000" pt_clust_5="76.75457" pt_clust_6="54.75649"></scales>
<clustering>
<clus scale="   54.756">  1  6  2 -1</clus>
<clus scale="   76.755">  1  5  2 -1</clus>
<clus scale="   95.404">  1  3  2 -1</clus>
<clus scale="   54.756">  1  3  2 -1</clus>
</clustering>
</event>
<event>
 6    0  0.4227619E+002  0.1091516E+03  0.7546771E-02  0.1262149E+00
         21   -1    0    0  503  501  0.00000000000E+00  0.00000000000E+00  0.19932852334E+03  0.19932852334E+03  0.00000000000E+00 0.  1.
         21   -1    0    0  504  502 -0.00000000000E+00 -0.00000000000E+00 -0.54938545784E+03  0.54938545784E+03  0.00000000000E+00 0.  1.
         21    1    1    2  503  505 -0.87262224210E+02 -0.16183288250E+02  0.13376167446E+03  0.16052657147E+03  0.00000000000E+00 0.  1.
         21    1    1    2  504  506  0.33741511339E+02  0.68704172130E+02 -0.53761646891E+02  0.93536450285E+02  0.00000000000E+00 0.  1.
         21    1    1    2  505  502 -0.12236694385E+01 -0.99347879956E+02 -0.40708957509E+03  0.41903868648E+03  0.00000000000E+00 0.  1.
         21    1    1    2  506  501  0.54744382309E+02  0.46826996076E+02 -0.22967386980E+02  0.75612272950E+02  0.00000000000E+00 0.  1.
<scales pt_clust_3="88.75018" pt_clust_4="38.15430" pt_clust_5="101.82014" pt_clust_6="38.15430"></scales>
<clustering>
<clus scale="   38.154">  4  6 -1 -1</clus>
<clus scale="   88.750">  1  3  2 -1</clus>
<clus scale="  101.820">  2  5  1 -1</clus>
<clus scale="   88.750">  1  3  2 -1</clus>
</clustering>
</event>
<event>
 6    0  0.4227619E+002  0.1265736E+03  0.7546771E-02  0.1232630E+00
         21   -1    0    0  504  501  0.00000000000E+00  0.00000000000E+00  0.60540592645E+03  0.60540592645E+03  0.00000000000E+00 0. -1.
         21   -1    0    0  503  502 -0.00000000000E+00 -0.00000000000E+00 -0.20190237309E+03  0.20190237309E+03  0.00000000000E+00 0. -1.
         21    1    1    2  503  505 -0.56090566449E+01 -0.50956744780E+02 -0.14855111004E+03  0.15714796737E+03  0.00000000000E+00 0. -1.
         21    1    1    2  504  506  0.10281339072E+03  0.68694393831E+02  0.43903058838E+03  0.45611113842E+03  0.00000000000E+00 0. -1.
         21    1    1    2  505  501 -0.96739586277E+01  0.47547869021E+02  0.36129941335E+02  0.60495933623E+02  0.00000000000E+00 0.  1.
         21    1    1    2  506  502 -0.87530375444E+02 -0.65285518072E+02  0.76894133685E+02  0.13355326013E+03  0.00000000000E+00 0. -1.
<scales pt_clust_3="50.90815" pt_clust_4="14000.00000" pt_clust_5="48.52201" pt_clust_6="126.57365"></scales>
<clustering>
<clus scale="   48.522">  1  5  2 -1</clus>
<clus scale="   50.908">  2  3  1 -1</clus>
<clus scale="  126.574">  2  6  1 -1</clus>
<clus scale="   48.522">  1  3  2 -1</clus>
</clustering>
</event>
<event>
 6    0  0.4227619E+002  0.9582691E+02  0.7546771E-02  0.1289324E+00
         21   -1    0    0  505  501  0.00000000000E+00  0.00000000000E+00  0.19729230442E+04  0.19729230442E+04  0.00000000000E+00 0.  1.
         21   -1    0    0  506  502 -0.00000000000E+00 -0.00000000000E+00 -0.31489169470E+02  0.31489169470E+02  0.00000000000E+00 0. -1.
         21    1    1    2  503  504  0.12158216327E+03 -0.40569535866E+02  0.62500905703E+03  0.63801601158E+03  0.00000000000E+00 0.  1.
         21    1    1    2  504  502 -0.89772405024E+02 -0.27822460790E+02  0.72722243584E+02  0.11883475392E+03  0.00000000000E+00 0. -1.
         21    1    1    2  505  503 -0.10181114332E+01  0.42184625899E+02  0.96698922312E+03  0.96790946728E+03  0.00000000000E+00 0.  1.
         21    1    1    2  506  501 -0.30791646810E+02  0.26207370757E+02  0.27671335100E+03  0.27965198089E+03  0.00000000000E+00 0.  1.
<scales pt_clust_3="95.82691" pt_clust_4="14000.00000" pt_clust_5="60.09470" pt_clust_6="40.43454"></scales>
<clustering>
<clus scale="   40.435">  1  6  2 -1</clus>
<clus scale="   60.095">  1  5  2 -1</clus>
<clus scale="   95.827">  1  3  2 -1</clus>
<clus scale="   40.435">  1  3  2 -1</clus>
</clustering>
</event>
<event>
 6    0  0.4227619E+002  0.1024445E+03  0.7546771E-02  0.1275238E+00
         21   -1    0    0  505  501  0.00000000000E+00  0.00000000000E+00  0.55234727439E+03  0.55234727439E+03  0.00000000000E+00 0. -1.
         21   -1    0    0  506  502 -0.00000000000E+00 -0.00000000000E+00 -0.57775780880E+02  0.57775780880E+02  0.00000000000E+00 0. -1.
         21    1    1    2  503  504 -0.34515818772E+02  0.30290433610E+02  0.59396746702E+02  0.75078796158E+02  0.00000000000E+00 0. -1.
         21    1    1    2  504  501  0.31803274138E+02  0.91935933445E+01  0.60368544494E+02  0.68850065859E+02  0.00000000000E+00 0. -1.
         21    1    1    2  505  502  0.79154208531E+02  0.58972879963E+02  0.35801073099E+02  0.10499955302E+03  0.00000000000E+00 0. -1.
         21    1    1    2  506  503 -0.76441663896E+02 -0.98456906918E+02  0.33900512921E+03  0.36119464023E+03  0.00000000000E+00 0. -1.
<scales pt_clust_3="43.63263" pt_clust_4="33.10544" pt_clust_5="102.44448" pt_clust_6="14000.00000"></scales>
<clustering>
<clus scale="   33.105">  1  4  2 -1</clus>
<clus scale="   43.633">  1  3  2 -1</clus>
<clus scale="  102.444">  2  5  1 -1</clus>
<clus scale="   33.105">  1  3  2 -1</clus>
</clustering>
</event>
<event>
 6    0  0.4227619E+002  0.8651314E+02  0.7546771E-02  0.1311522E+00
         21   -1    0    0  503  501  0.00000000000E+00  0.00000000000E+00  0.84789045297E+03  0.84789045297E+03  0.00000000000E+00 0. -1.
         21   -1    0    0  506  502 -0.00000000000E+00 -0.00000000000E+00 -0.14746795604E+04  0.14746795604E+04  0.00000000000E+00 0.  1.
         21    1    1    2  503  504 -0.34347235065E+02 -0.76679192549E+01  0.82446617138E+03  0.82521693953E+03  0.00000000000E+00 0. -1.
         21    1    1    2  504  502  0.59774702222E+02  0.39879227121E+02 -0.40933751950E+03  0.41559664659E+03  0.00000000000E+00 0.  1.
         21    1    1    2  505  501  0.70656789752E+02 -0.42648576692E+01 -0.54641049201E+02  0.89421558959E+02  0.00000000000E+00 0.  1.
         21    1    1    2  506  505 -0.96084256909E+02 -0.27946450197E+02 -0.98727671008E+03  0.99233486826E+03  0.00000000000E+00 0.  1.
<scales pt_clust_3="35.19275" pt_clust_4="14000.00000" pt_clust_5="45.85690" pt_clust_6="86.51314"></scales>
<clustering>
<clus scale="   35.193">  1  3  2 -1</clus>
<clus scale="   45.857">  1  5  2 -1</clus>
<clus scale="   86.513">  2  6  1 -1</clus>
<clus scale="   35.193">  1  3  2 -1</clus>
</clustering>
</event>
<event>
 6    0  0.4227619E+002  0.7313481E+02  0.7546771E-02  0.1349746E+00
         21   -1    0    0  505  501  0.00000000000E+00  0.00000000000E+00  0.80628299336E+03  0.80628299336E+03  0.00000000000E+00 0.  1.
         21   -1    0    0  506  502 -0.00000000000E+00 -0.00000000000E+00 -0.29570722673E+03  0.29570722673E+03  0.00000000000E+00 0. -1.
         21    1    1    2  503  502 -0.61462097802E+02  0.38040673336E+02 -0.23155367815E+03  0.24257326349E+03  0.00000000000E+00 0. -1.
         21    1    1    2  504  503 -0.47377379005E+02  0.54828495538E+02  0.55734427872E+01  0.72676290693E+02  0.00000000000E+00 0. -1.
         21    1    1    2  505  504  0.66289786009E+02  0.25876337749E+02  0.58610027055E+03  0.59040447806E+03  0.00000000000E+00 0.  1.
         21    1    1    2  506  501  0.42549690798E+02 -0.11874550662E+03  0.15045573145E+03  0.19633618784E+03  0.00000000000E+00 0.  1.
<scales pt_clust_3="73.13481" pt_clust_4="69.25225" pt_clust_5="71.16123" pt_clust_6="14000.00000"></scales>
<clustering>
<clus scale="   71.161">  1  5  2 -1</clus>
<clus scale="   69.252">  1  4  2 -1</clus>
<clus scale="   73.135">  2  3  1 -1</clus>
<clus scale="   71.161">  1  3  2 -1</clus>
</clustering>
</event>
<event>
 6    0  0.4227619E+002  0.1191349E+03  0.7546771E-02  0.1244531E+00
         21   -1    0    0  506  501  0.00000000000E+00  0.00000000000E+00  0.14330394695E+03  0.14330394695E+03  0.00000000000E+00 0.  1.
         21   -1    0    0  504  502 -0.00000000000E+00 -0.00000000000E+00 -0.32417475525E+03  0.32417475525E+03  0.00000000000E+00 0.  1.
         21    1    1    2  503  505 -0.30137926352E+02 -0.11517750124E+03  0.29155301200E+02  0.12257317400E+03  0.00000000000E+00 0.  1.
         21    1    1    2  504  503  0.37804332765E+01  0.91289812222E+02 -0.16264762047E+03  0.18655393305E+03  0.00000000000E+00 0.  1.
         21    1    1    2  505  501 -0.38978526523E+02 -0.50946676031E+01  0.32614236029E+02  0.51078073179E+02  0.00000000000E+00 0.  1.
         21    1    1    2  506  502  0.65336019598E+02  0.28982356624E+02 -0.79992725057E+02  0.10727352196E+03  0.00000000000E+00 0.  1.
<scales pt_clust_3="14000.00000" pt_clust_4="119.13488" pt_clust_5="39.31006" pt_clust_6="66.42457"></scales>
<clustering>
<clus scale="   39.310">  1  5  2 -1</clus>
<clus scale="   66.425">  2  6  1 -1</clus>
<clus scale="  119.135">  2  4  1 -1</clus>
<clus scale="   39.310">  1  3  2 -1</clus>
</clustering>
</event>
<event>
 6    0  0.4227619E+002  0.1419976E+03  0.7546771E-02  0.1210666E+00
         21   -1    0    0  506  501  0.00000000000E+00  0.00000000000E+00  0.14553088893E+04  0.14553088893E+04  0.00000000000E+00 0. -1.
         21   -1    0    0  504  502 -0.00000000000E+00 -0.00000000000E+00 -0.55185159054E+03  0.55185159054E+03  0.00000000000E+00 0. -1.
         21    1    1    2  503  502 -0.28276702608E+02 -0.12593403737E+03 -0.21959021806E+03  0.25471320647E+03  0.00000000000E+00 0. -1.
         21    1    1    2  504  505 -0.30517578656E+02 -0.10828522888E+01 -0.20740428060E+03  0.20964024133E+03  0.00000000000E+00 0. -1.
         21    1    1    2  505  501  0.39088300650E+02 -0.40023293160E+02  0.13690859719E+04  0.13702285056E+04  0.00000000000E+00 0. -1.
         21    1    1    2  506  503  0.19705980614E+02  0.16704018282E+03 -0.38634174443E+02  0.17257852643E+03  0.00000000000E+00 0. -1.
<scales pt_clust_3="141.99757" pt_clust_4="30.53678" pt_clust_5="55.91007" pt_clust_6="14000.00000"></scales>
<clustering>
<clus scale="   30.537">  2  4  1 -1</clus>
<clus scale="   55.910">  1  5  2 -1</clus>
<clus scale="  141.998">  2  3  1 -1</clus>
<clus scale="   55.910">  1  3  2 -1</clus>
</clustering>
</event>
<event>
 6    0  0.4227619E+002  0.8108582E+02  0.7546771E-02  0.1325998E+00
         21   -1    0    0  503  501  0.00000000000E+00  0.00000000000E+00  0.24160059551E+03  0.24160059551E+03  0.00000000000E+00 0.  1.
         21   -1    0    0  506  502 -0.00000000000E+00 -0.00000000000E+00 -0.11732695103E+04  0.11732695103E+04  0.00000000000E+00 0. -1.
         21    1    1    2  503  502 -0.92380840288E+01 -0.41959892378E+02  0.10454869157E+03  0.11303275487E+03  0.00000000000E+00 0.  1.
         21    1    1    2  504  501 -0.40811518172E+01 -0.39030790300E+02 -0.32899697769E+01  0.39381242905E+02  0.00000000000E+00 0.  1.
         21    1    1    2  505  504  0.23248592106E+02  0.12685319376E+03  0.77880517353E+02  0.15065724272E+03  0.00000000000E+00 0.  1.
         21    1    1    2  506  505 -0.99293562601E+01 -0.45862511083E+02 -0.11108081539E+04  0.11117988653E+04  0.00000000000E+00 0. -1.
<scales pt_clust_3="81.08582" pt_clust_4="39.24358" pt_clust_5="14000.00000" pt_clust_6="47.01151"></scales>
<clustering>
<clus scale="   39.244">  1  4  2 -1</clus>
<clus scale="   47.012">  2  6  1 -1</clus>
<clus scale="   81.086">  1  3  2 -1</clus>
<clus scale="   39.244">  1  3  2 -1</clus>
</clustering>
</event>
<event>
 6    0  0.4227619E+002  0.2297253E+03  0.7546771E-02  0.1126833E+00
         21   -1    0    0  503  501  0.00000000000E+00  0.00000000000E+00  0.28802656541E+03  0.28802656541E+03  0.00000000000E+00 0.  1.
         21   -1    0    0  504  502 -0.00000000000E+00 -0.00000000000E+00 -0.11729472690E+04  0.11729472690E+04  0.00000000000E+00 0.  1.
         21    1    1    2  503  502 -0.28577336904E+02  0.19604528354E+02 -0.42954412083E+03  0.43093984900E+03  0.00000000000E+00 0.  1.
         21    1    1    2  504  505 -0.88293079221E+02 -0.22154677179E+03 -0.63761272743E+03  0.68075592551E+03  0.00000000000E+00 0.  1.
         21    1    1    2  505  506  0.92271250331E+02  0.18403072128E+03  0.47669905180E+02  0.21131424436E+03  0.00000000000E+00 0.  1.
         21    1    1    2  506  501  0.24599165794E+02  0.17911522159E+02  0.13456623950E+03  0.13796381553E+03  0.00000000000E+00 0.  1.
<scales pt_clust_3="34.60904" pt_clust_4="14000.00000" pt_clust_5="229.72529" pt_clust_6="30.42929"></scales>
<clustering>
<clus scale="   30.429">  1  6  2 -1</clus>
<clus scale="   34.609">  2  3  1 -1</clus>
<clus scale="  229.725">  1  5  2 -1</clus>
<clus scale="   30.429">  1  3  2 -1</clus>
</clustering>
</event>
<event>
 6    0  0.4227619E+002  0.1137647E+03  0.7546771E-02  0.1253753E+00
         21   -1    0    0  505  501  0.00000000000E+00  0.00000000000E+00  0.23392457005E+03  0.23392457005E+03  0.00000000000E+00 0. -1.
         21   -1    0    0  503  502 -0.00000000000E+00 -0.00000000000E+00 -0.37570156871E+03  0.37570156871E+03  0.00000000000E+00 0.  1.
         21    1    1    2  503  504 -0.11274783688E+02 -0.29202844354E+02 -0.29275201571E+02  0.42859821425E+02  0.00000000000E+00 0. -1.
         21    1    1    2  504  501 -0.42795839934E+01 -0.34579117415E+02  0.14349096038E+03  0.14766071214E+03  0.00000000000E+00 0. -1.
         21    1    1    2  505  506 -0.79503829917E+02  0.10876735194E+03  0.79727726657E+01  0.13496207216E+03  0.00000000000E+00 0. -1.
         21    1    1    2  506  502  0.95058197599E+02 -0.44985390166E+02 -0.26396553013E+03  0.28414353302E+03  0.00000000000E+00 0.  1.
<scales pt_clust_3="31.30378" pt_clust_4="35.02938" pt_clust_5="113.76465" pt_clust_6="14000.00000"></scales>
<clustering>
<clus scale="   31.304">  2  3  1 -1</clus>
<clus scale="   35.029">  1  4  2 -1</clus>
<clus scale="  113.765">  1  5  2 -1</clus>
<clus scale="   35.029">  1  3  2 -1</clus>
</clustering>
</event>
<event>
 6    0  0.4227619E+002  0.1358809E+03  0.7546771E-02  0.1218982E+00
         21   -1    0    0  505  501  0.00000000000E+00  0.00000000000E+00  0.71014463338E+02  0.71014463338E+02  0.00000000000E+00 0. -1.
         21   -1    0    0  506  502 -0.00000000000E+00 -0.00000000000E+00 -0.23401721789E+04  0.23401721789E+04  0.00000000000E+00 0. -1.
         21    1    1    2  503  502  0.93914734944E+01  0.28706286402E+02 -0.86308048083E+02  0.91440307400E+02  0.00000000000E+00 0.  1.
         21    1    1    2  504  501  0.12160912361E+02 -0.40031057695E+02 -0.92292973900E+02  0.10133294825E+03  0.00000000000E+00 0. -1.
         21    1    1    2  505  503 -0.12346500204E+03 -0.42471767504E+02 -0.60314644814E+01  0.13070515035E+03  0.00000000000E+00 0. -1.
         21    1    1    2  506  504  0.10191261619E+03  0.53796538797E+02 -0.20845252291E+04  0.20877082362E+04  0.00000000000E+00 0. -1.
<scales pt_clust_3="30.20349" pt_clust_4="40.78050" pt_clust_5="135.88086" pt_clust_6="14000.00000"></scales>
<clustering>
<clus scale="   30.203">  2  3  1 -1</clus>
<clus scale="   40.781">  1  4  2 -1</clus>
<clus scale="  135.881">  1  5  2 -1</clus>
<clus scale="   40.781">  1  3  2 -1</clus>
</clustering>
</event>
<event>
 6    0  0.4227619E+002  0.1203472E+03  0.7546771E-02  0.1242525E+00
         21   -1    0    0  504  501  0.00000000000E+00  0.00000000000E+00  0.72126821598E+03  0.72126821598E+03  0.00000000000E+00 0.  1.
         21   -1    0    0  503  502 -0.00000000000E+00 -0.00000000000E+00 -0.91686607629E+03  0.91686607629E+03  0.00000000000E+00 0. -1.
         21    1    1    2  503  506  0.42566582324E+02 -0.23811166041E+02 -0.45520923553E+03  0.45781473728E+03  0.00000000000E+00 0. -1.
         21    1    1    2  504  502  0.19378102558E+02  0.28225186319E+02  0.65689214442E+03  0.65778374973E+03  0.00000000000E+00 0.  1.
         21    1    1    2  505  501 -0.12672190077E+03 -0.82928257329E+02 -0.48218523496E+02  0.15893571658E+03  0.00000000000E+00 0.  1.
         21    1    1    2  506  505  0.64777215886E+02  0.78514237051E+02 -0.34906224570E+03  0.36360008868E+03  0.00000000000E+00 0. -1.
<scales pt_clust_3="48.84260" pt_clust_4="34.23700" pt_clust_5="14000.00000" pt_clust_6="120.34716"></scales>
<clustering>
<clus scale="   34.237">  1  4  2 -1</clus>
<clus scale="   48.843">  2  3  1 -1</clus>
<clus scale="  120.347">  2  6  1 -1</clus>
<clus scale="   34.237">  1  3  2 -1</clus>
</clustering>
</event>
<event>
 6    0  0.4227619E+002  0.1285259E+03  0.7546771E-02  0.1229659E+00
         21   -1    0    0  503  501  0.00000000000E+00  0.00000000000E+00  0.41888607778E+03  0.41888607778E+03  0.00000000000E+00 0. -1.
         21   -1    0    0  506  502 -0.00000000000E+00 -0.00000000000E+00 -0.13614464614E+03  0.13614464614E+03  0.00000000000E+00 0. -1.
         21    1    1    2  503  504  0.76683484281E+02  0.15803585040E+03  0.27031655717E+03  0.32237668628E+03  0.00000000000E+00 0. -1.
         21    1    1    2  504  502  0.97010038092E+01 -0.40259134560E+02 -0.60264100922E+01  0.41847640423E+02  0.00000000000E+00 0. -1.
         21    1    1    2  505  501 -0.36333618363E+02 -0.80976209467E+02  0.67620739523E+02  0.11157886331E+03  0.00000000000E+00 0. -1.
         21    1    1    2  506  505 -0.50050869727E+02 -0.36800506372E+02 -0.49169454965E+02  0.79227533921E+02  0.00000000000E+00 0. -1.
<scales pt_clust_3="128.52594" pt_clust_4="41.41144" pt_clust_5="14000.00000" pt_clust_6="74.56843"></scales>
<clustering>
<clus scale="   41.411">  2  4  1 -1</clus>
<clus scale="   74.568">  2  6  1 -1</clus>
<clus scale="  128.526">  2  3  1 -1</clus>
<clus scale="  128.526">  1  3  2 -1</clus>
</clustering>
</event>
<event>
 6    0  0.4227619E+002  0.7434796E+02  0.7546771E-02  0.1345902E+00
         21   -1    0    0  503  501  0.00000000000E+00  0.00000000000E+00  0.42347796536E+03  0.42347796536E+03  0.00000000000E+00 0.  1.
         21   -1    0    0  506  502 -0.00000000000E+00 -0.00000000000E+00 -0.26989278863E+03  0.26989278863E+03  0.00000000000E+00 0.  1.
         21    1    1    2  503  502 -0.46429396563E+02 -0.55966350001E+02  0.34957755061E+03  0.35706075826E+03  0.00000000000E+00 0.  1.
         21    1    1    2  504  501  0.47755204266E+02  0.11325318276E+03 -0.62397672994E+02  0.13784162120E+03  0.00000000000E+00 0.  1.
         21    1    1    2  505  504  0.44934319133E+02 -0.50335550983E+02 -0.13579776717E+03  0.15163704790E+03  0.00000000000E+00 0.  1.
         21    1    1    2  506  505 -0.46260126836E+02 -0.69512817713E+01  0.22030662699E+01  0.46831326632E+02  0.00000000000E+00 0. -1.
<scales pt_clust_3="14000.00000" pt_clust_4="74.34796" pt_clust_5="57.29822" pt_clust_6="46.77948"></scales>
<clustering>
<clus scale="   46.779">  2  6  1 -1</clus>
<clus scale="   57.298">  2  5  1 -1</clus>
<clus scale="   74.348">  2  4  1 -1</clus>
<clus scale="   74.348">  1  3  2 -1</clus>
</clustering>
</event>
<event>
 6    0  0.4227619E+002  0.1331633E+03  0.7546771E-02  0.1222836E+00
         21   -1    0    0  506  501  0.00000000000E+00  0.00000000000E+00  0.13187547295E+04  0.13187547295E+04  0.00000000000E+00 0. -1.
         21   -1    0    0  503  502 -0.00000000000E+00 -0.00000000000E+00 -0.87964476523E+03  0.87964476523E+03  0.00000000000E+00 0.  1.
         21    1    1    2  503  505 -0.43796588582E+02 -0.97459324525E+02  0.17617059014E+03  0.20604013672E+03  0.00000000000E+00 0.  1.
         21    1    1    2  504  502  0.16426077308E+02  0.44250683260E+02 -0.75842282018E+03  0.75989019810E+03  0.00000000000E+00 0.  1.
         21    1    1    2  505  501  0.20471842378E+02 -0.50893250167E+02  0.11002841007E+04  0.11016507257E+04  0.00000000000E+00 0. -1.
         21    1    1    2  506  504  0.68986688959E+01  0.10410189143E+03 -0.78921906344E+02  0.13081843423E+03  0.00000000000E+00 0.  1.
<scales pt_clust_3="14000.00000" pt_clust_4="47.20105" pt_clust_5="54.65859" pt_clust_6="133.16330"></scales>
<clustering>
<clus scale="   47.201">  2  4  1 -1</clus>
<clus scale="   54.659">  1  5  2 -1</clus>
<clus scale="  133.163">  2  6  1 -1</clus>
<clus scale="   54.659">  1  3  2 -1</clus>
</clustering>
</event>
<event>
 6    0  0.4227619E+002  0.1284140E+03  0.7546771E-02  0.1229828E+00
         21   -1    0    0  503  501  0.00000000000E+00  0.00000000000E+00  0.18366313123E+03  0.18366313123E+03  0.00000000000E+00 0. -1.
         21   -1    0    0  505  502 -0.00000000000E+00 -0.00000000000E+00 -0.35801337188E+03  0.35801337188E+03  0.00000000000E+00 0.  1.
         21    1    1    2  503  502  0.13662228008E+03  0.13629247914E+02  0.36092901746E+01  0.13734784595E+03  0.00000000000E+00 0. -1.
         21    1    1    2  504  501 -0.61725565254E+02  0.82341903736E+02  0.22322319533E+02  0.10530204398E+03  0.00000000000E+00 0. -1.
         21    1    1    2  505  506  0.47141218458E+02 -0.29616882408E+02 -0.13401608403E+03  0.14511982973E+03  0.00000000000E+00 0. -1.
         21    1    1    2  506  504 -0.12203793328E+03 -0.66354269243E+02 -0.66265766323E+02  0.15390678345E+03  0.00000000000E+00 0.  1.
<scales pt_clust_3="14000.00000" pt_clust_4="93.11459" pt_clust_5="55.67274" pt_clust_6="128.41399"></scales>
<clustering>
<clus scale="   55.673">  2  5  1 -1</clus>
<clus scale="   93.115">  1  4  2 -1</clus>
<clus scale="  128.414">  2  6  1 -1</clus>
<clus scale="   93.115">  1  3  2 -1</clus>
</clustering>
</event>
<event>
 6    0  0.4227619E+002  0.1319957E+03  0.7546771E-02  0.1224524E+00
         21   -1    0    0  504  501  0.00000000000E+00  0.00000000000E+00  0.32293561687E+03  0.32293561687E+03  0.00000000000E+00 0.  1.
         21   -1    0    0  503  502 -0.00000000000E+00 -0.00000000000E+00 -0.19592840511E+04  0.19592840511E+04  0.00000000000E+00 0.  1.
         21    1    1    2  503  506 -0.19611335478E+02  0.15622302113E+03 -0.89866821281E+03  0.91235672493E+03  0.00000000000E+00 0.  1.
         21    1    1    2  504  505 -0.41107645435E+02 -0.48925892671E+02 -0.37435894139E+02  0.74060972562E+02  0.00000000000E+00 0. -1.
         21    1    1    2  505  502  0.89777628433E+02 -0.91421330251E+02 -0.99297327432E+03  0.10012061754E+04  0.00000000000E+00 0. -1.
         21    1    1    2  506  501 -0.29058647519E+02 -0.15875798213E+02  0.29272894709E+03  0.29459579500E+03  0.00000000000E+00 0.  1.
<scales pt_clust_3="131.99566" pt_clust_4="83.54047" pt_clust_5="14000.00000" pt_clust_6="33.11263"></scales>
<clustering>
<clus scale="   33.113">  1  6  2 -1</clus>
<clus scale="   83.540">  1  4  2 -1</clus>
<clus scale="  131.996">  1  3  2 -1</clus>
<clus scale="   33.113">  1  3  2 -1</clus>
</clustering>
</event>
<event>
 6    0  0.4227619E+002  0.1925645E+03  0.7546771E-02  0.1156168E+00
         21   -1    0    0  505  501  0.00000000000E+00  0.00000000000E+00  0.14135845905E+03  0.14135845905E+03  0.00000000000E+00 0.  1.
         21   -1    0    0  501  502 -0.00000000000E+00 -0.00000000000E+00 -0.19702118090E+04  0.19702118090E+04  0.00000000000E+00 0. -1.
         21    1    1    2  503  506  0.64015919081E+02 -0.82872150679E+02 -0.55651208221E+03  0.56627866718E+03  0.00000000000E+00 0.  1.
         21    1    1    2  504  503 -0.12058485187E+03  0.17463721005E+03 -0.55674394530E+03  0.59582101529E+03  0.00000000000E+00 0.  1.
         21    1    1    2  505  504  0.21330382090E+02 -0.42228466427E+02  0.11098915206E+03  0.12065164919E+03  0.00000000000E+00 0.  1.
         21    1    1    2  506  502  0.35238550695E+02 -0.49536592949E+02 -0.82658647452E+03  0.82881893642E+03  0.00000000000E+00 0. -1.
<scales pt_clust_3="57.37581" pt_clust_4="176.43388" pt_clust_5="47.30992" pt_clust_6="57.37581"></scales>
<clustering>
<clus scale="   47.310">  1  5  2 -1</clus>
<clus scale="   57.376">  3  6 -1 -1</clus>
<clus scale="  176.434">  1  4  2 -1</clus>
<clus scale="   47.310">  1  3  2 -1</clus>
</clustering>
</event>
<event>
 6    0  0.4227619E+002  0.6427741E+02  0.7546771E-02  0.1380710E+00
         21   -1    0    0  506  501  0.00000000000E+00  0.00000000000E+00  0.30521020897E+03  0.30521020897E+03  0.00000000000E+00 0.  1.
         21   -1    0    0  504  502 -0.00000000000E+00 -0.00000000000E+00 -0.25384326026E+03  0.25384326026E+03  0.00000000000E+00 0. -1.
         21    1    1    2  503  501 -0.22868332989E+02 -0.54840894935E+02  0.19638457111E+03  0.20517647083E+03  0.00000000000E+00 0.  1.
         21    1    1    2  504  505  0.11121444889E+02  0.50875414557E+02 -0.19114573260E+03  0.19811280987E+03  0.00000000000E+00 0. -1.
         21    1    1    2  505  503 -0.42168316968E+02  0.54439271241E+02  0.44314642531E+02  0.81887659337E+02  0.00000000000E+00 0.  1.
         21    1    1    2  506  502  0.53915205067E+02 -0.50473790863E+02  0.18134676724E+01  0.73876529199E+02  0.00000000000E+00 0. -1.
<scales pt_clust_3="55.61844" pt_clust_4="52.07681" pt_clust_5="64.27741" pt_clust_6="14000.00000"></scales>
<clustering>
<clus scale="   52.077">  2  4  1 -1</clus>
<clus scale="   55.618">  1  3  2 -1</clus>
<clus scale="   64.277">  1  5  2 -1</clus>
<clus scale="   55.618">  1  3  2 -1</clus>
</clustering>
</event>
<event>
 6    0  0.4227619E+002  0.1167071E+03  0.7546771E-02  0.1248630E+00
         21   -1    0    0  505  501  0.00000000000E+00  0.00000000000E+00  0.10972047734E+04  0.10972047734E+04  0.00000000000E+00 0.  1.
         21   -1    0    0  504  502 -0.00000000000E+00 -0.00000000000E+00 -0.38601450735E+02  0.38601450735E+02  0.00000000000E+00 0.  1.
         21    1    1    2  503  502 -0.10640158111E+03  0.59308486118E+02  0.10548441551E+03  0.16113893044E+03  0.00000000000E+00 0.  1.
         21    1    1    2  504  506 -0.13700227506E+02 -0.29885773444E+02  0.71514024208E+02  0.78709029638E+02  0.00000000000E+00 0. -1.
         21    1    1    2  505  503  0.39460395272E+02  0.26350275643E+02  0.13827668682E+03  0.14619131964E+03  0.00000000000E+00 0.  1.
         21    1    1    2  506  501  0.80641413344E+02 -0.55772988317E+02  0.74332819615E+03  0.74976694444E+03  0.00000000000E+00 0.  1.
<scales pt_clust_3="116.70706" pt_clust_4="32.87637" pt_clust_5="44.32808" pt_clust_6="14000.00000"></scales>
<clustering>
<clus scale="   32.876">  2  4  1 -1</clus>
<clus scale="   44.328">  1  5  2 -1</clus>
<clus scale="  116.707">  2  3  1 -1</clus>
<clus scale="   44.328">  1  3  2 -1</clus>
</clustering>
</event>
<event>
 6    0  0.4227619E+002  0.7849120E+02  0.7546771E-02  0.1333389E+00
         21   -1    0    0  505  501  0.00000000000E+00  0.00000000000E+00  0.56991701472E+03  0.56991701472E+03  0.00000000000E+00 0. -1.
         21   -1    0    0  503  502 -0.00000000000E+00 -0.00000000000E+00 -0.30973483854E+03  0.30973483854E+03  0.00000000000E+00 0. -1.
         21    1    1    2  503  501 -0.48046207721E+02  0.13589982977E+03  0.84398000277E+02  0.16703360218E+03  0.00000000000E+00 0. -1.
         21    1    1    2  504  506  0.43284462059E+02 -0.53670078306E+02  0.23676499086E+02  0.72901293336E+02  0.00000000000E+00 0. -1.
         21    1    1    2  505  504  0.42739405309E+02 -0.59740033734E+02  0.39046171835E+03  0.39731081270E+03  0.00000000000E+00 0. -1.
         21    1    1    2  506  502 -0.37977659647E+02 -0.22489717727E+02 -0.23835404154E+03  0.24240614504E+03  0.00000000000E+00 0. -1.
<scales pt_clust_3="14000.00000" pt_clust_4="68.47866" pt_clust_5="78.49120" pt_clust_6="44.13717"></scales>
<clustering>
<clus scale="   44.137">  2  6  1 -1</clus>
<clus scale="   68.479">  2  4  1 -1</clus>
<clus scale="   78.491">  1  5  2 -1</clus>
<clus scale="   78.491">  1  3  2 -1</clus>
</clustering>
</event>
<event>
 6    0  0.4227619E+002  0.1235031E+03  0.7546771E-02  0.1237427E+00
         21   -1    0    0  504  501  0.00000000000E+00  0.00000000000E+00  0.15001095726E+04  0.15001095726E+04  0.00000000000E+00 0.  1.
         21   -1    0    0  506  502 -0.00000000000E+00 -0.00000000000E+00 -0.20002884665E+03  0.20002884665E+03  0.00000000000E+00 0. -1.
         21    1    1    2  503  502 -0.55616937050E+02  0.39120816235E+02  0.10500684798E+04  0.10522677864E+04  0.00000000000E+00 0.  1.
         21    1    1    2  504  503  0.18652115139E+02  0.52879560736E+02  0.37923711403E+03  0.38336006313E+03  0.00000000000E+00 0.  1.
         21    1    1    2  505  501 -0.32407414409E+02  0.11581898138E+02  0.40992187992E+02  0.53523269234E+02  0.00000000000E+00 0. -1.
         21    1    1    2  506  505  0.69372236320E+02 -0.10358227511E+03 -0.17021705585E+03  0.21098730054E+03  0.00000000000E+00 0. -1.
<scales pt_clust_3="123.50309" pt_clust_4="56.83235" pt_clust_5="34.41484" pt_clust_6="14000.00000"></scales>
<clustering>
<clus scale="   34.415">  1  5  2 -1</clus>
<clus scale="   56.832">  1  4  2 -1</clus>
<clus scale="  123.503">  1  3  2 -1</clus>
<clus scale="   34.415">  1  3  2 -1</clus>
</clustering>
</event>
<event>
 6    0  0.4227619E+002  0.8558463E+02  0.7546771E-02  0.1313911E+00
         21   -1    0    0  504  501  0.00000000000E+00  0.00000000000E+00  0.28509486366E+04  0.28509486366E+04  0.00000000000E+00 0. -1.
         21   -1    0    0  506  502 -0.00000000000E+00 -0.00000000000E+00 -0.15423200101E+04  0.15423200101E+04  0.00000000000E+00 0.  1.
         21    1    1    2  503  502  0.36807560594E+02 -0.92615352478E+02  0.13576881333E+04  0.13613410547E+04  0.00000000000E+00 0. -1.
         21    1    1    2  504  503 -0.62868789793E+02  0.51689745785E+02  0.14829299806E+04  0.14851618235E+04  0.00000000000E+00 0.  1.
         21    1    1    2  505  501 -0.14935949104E+02  0.68599846257E+02 -0.17064541765E+03  0.18452338618E+03  0.00000000000E+00 0.  1.
         21    1    1    2  506  505  0.40997178302E+02 -0.27674239564E+02 -0.13613440697E+04  0.13622423823E+04  0.00000000000E+00 0.  1.
<scales pt_clust_3="14000.00000" pt_clust_4="85.58463" pt_clust_5="48.54723" pt_clust_6="49.46344"></scales>
<clustering>
<clus scale="   49.463">  2  6  1 -1</clus>
<clus scale="   48.547">  2  5  1 -1</clus>
<clus scale="   85.585">  1  4  2 -1</clus>
<clus scale="   85.585">  1  3  2 -1</clus>
</clustering>
</event>
<event>
 6    0  0.4227619E+002  0.6187698E+02  0.7546771E-02  0.1390120E+00
         21   -1    0    0  503  501  0.00000000000E+00  0.00000000000E+00  0.36764366268E+02  0.36764366268E+02  0.00000000000E+00 0. -1.
         21   -1    0    0  505  502 -0.00000000000E+00 -0.00000000000E+00 -0.16021289719E+04  0.16021289719E+04  0.00000000000E+00 0.  1.
         21    1    1    2  503  504 -0.42512922286E+02  0.18670173607E+02  0.81392160003E+01  0.47139906458E+02  0.00000000000E+00 0. -1.
         21    1    1    2  504  506  0.49148887983E+02 -0.63029270874E+02 -0.27522202760E+03  0.28659285869E+03  0.00000000000E+00 0.  1.
         21    1    1    2  505  501  0.47618612844E+02 -0.12671649482E+02 -0.69843987628E+03  0.70017595200E+03  0.00000000000E+00 0.  1.
         21    1    1    2  506  502 -0.54254578541E+02  0.57030746749E+02 -0.59984191776E+03  0.60498462102E+03  0.00000000000E+00 0.  1.
<scales pt_clust_3="46.43193" pt_clust_4="61.87698" pt_clust_5="44.91592" pt_clust_6="14000.00000"></scales>
<clustering>
<clus scale="   46.432">  1  3  2 -1</clus>
<clus scale="   44.916">  2  5  1 -1</clus>
<clus scale="   61.877">  1  4  2 -1</clus>
<clus scale="   46.432">  1  3  2 -1</clus>
</clustering>
</event>
<event>
 6    0  0.4227619E+002  0.1204588E+03  0.7546771E-02  0.1242342E+00
         21   -1    0    0  502  501  0.00000000000E+00  0.00000000000E+00  0.10853749958E+04  0.10853749958E+04  0.00000000000E+00 0. -1.
         21   -1    0    0  505  502 -0.00000000000E+00 -0.00000000000E+00 -0.57956823146E+03  0.57956823146E+03  0.00000000000E+00 0.  1.
         21    1    1    2  503  506 -0.15648401694E+03  0.10252643821E+02  0.75218321434E+03  0.76835665690E+03  0.00000000000E+00 0. -1.
         21    1    1    2  504  503  0.68643498186E+02  0.51160889041E+02 -0.15650742094E+03  0.17839265461E+03  0.00000000000E+00 0.  1.
         21    1    1    2  505  504  0.45823662277E+02 -0.78467378063E+01 -0.39897756700E+03  0.40167708210E+03  0.00000000000E+00 0.  1.
         21    1    1    2  506  501  0.42016856473E+02 -0.53566795055E+02  0.30910853794E+03  0.31651683365E+03  0.00000000000E+00 0. -1.
<scales pt_clust_3="14000.00000" pt_clust_4="120.45884" pt_clust_5="46.49064" pt_clust_6="68.79456"></scales>
<clustering>
<clus scale="   46.491">  2  5  1 -1</clus>
<clus scale="   68.795">  1  6  2 -1</clus>
<clus scale="  120.459">  2  4  1 -1</clus>
<clus scale="   68.795">  1  3  2 -1</clus>
</clustering>
</event>
<event>
 6    0  0.4227619E+002  0.6693441E+02  0.7546771E-02  0.1370839E+00
         21   -1    0    0  504  501  0.00000000000E+00  0.00000000000E+00  0.33822232071E+02  0.33822232071E+02  0.00000000000E+00 0.  1.
         21   -1    0    0  505  502 -0.00000000000E+00 -0.00000000000E+00 -0.28625278175E+04  0.28625278175E+04  0.00000000000E+00 0. -1.
         21    1    1    2  503  501 -0.18761372369E+02 -0.36720881010E+02 -0.55825693147E+02  0.69404035982E+02  0.00000000000E+00 0.  1.
         21    1    1    2  504  502 -0.25796751664E+02 -0.50319303476E+02 -0.16721539729E+04  0.16731098032E+04  0.00000000000E+00 0. -1.
         21    1    1    2  505  506  0.60875599024E+01  0.11393864912E+03 -0.11009972380E+04  0.11068938487E+04  0.00000000000E+00 0. -1.
         21    1    1    2  506  503  0.38470564130E+02 -0.26898464629E+02  0.27131861312E+00  0.46942361655E+02  0.00000000000E+00 0.  1.
<scales pt_clust_3="41.23605" pt_clust_4="57.27549" pt_clust_5="66.93441" pt_clust_6="14000.00000"></scales>
<clustering>
<clus scale="   41.236">  1  3  2 -1</clus>
<clus scale="   57.275">  2  4  1 -1</clus>
<clus scale="   66.934">  2  5  1 -1</clus>
<clus scale="   41.236">  1  3  2 -1</clus>
</clustering>
</event>
<event>
 6    0  0.4227619E+002  0.1041616E+03  0.7546771E-02  0.1271780E+00
         21   -1    0    0  505  501  0.00000000000E+00  0.00000000000E+00  0.23872545207E+03  0.23872545207E+03  0.00000000000E+00 0.  1.
         21   -1    0    0  503  502 -0.00000000000E+00 -0.00000000000E+00 -0.83354380244E+03  0.83354380244E+03  0.00000000000E+00 0.  1.
         21    1    1    2  503  501 -0.10899680861E+02  0.78348052544E+02  0.11113115054E+02  0.79879419793E+02  0.00000000000E+00 0.  1.
         21    1    1    2  504  502  0.58248280855E+02  0.54744409885E+02 -0.74681570078E+03  0.75108155587E+03  0.00000000000E+00 0.  1.
         21    1    1    2  505  506 -0.49065562790E+02  0.16010366372E+01  0.79134294696E+02  0.93124805327E+02  0.00000000000E+00 0.  1.
         21    1    1    2  506  504  0.17169627971E+01 -0.13469349907E+03  0.61749940669E+02  0.14818347352E+03  0.00000000000E+00 0.  1.
<scales pt_clust_3="14000.00000" pt_clust_4="79.45337" pt_clust_5="49.09168" pt_clust_6="104.16157"></scales>
<clustering>
<clus scale="   49.092">  1  5  2 -1</clus>
<clus scale="   79.453">  2  4  1 -1</clus>
<clus scale="  104.162">  2  6  1 -1</clus>
<clus scale="   49.092">  1  3  2 -1</clus>
</clustering>
</event>
<event>
 6    0  0.4227619E+002  0.1572997E+03  0.7546771E-02  0.1191780E+00
         21   -1    0    0  505  501  0.00000000000E+00  0.00000000000E+00  0.26890696291E+03  0.26890696291E+03  0.00000000000E+00 0.  1.
         21   -1    0    0  506  502 -0.00000000000E+00 -0.00000000000E+00 -0.68217713666E+03  0.68217713666E+03  0.00000000000E+00 0.  1.
         21    1    1    2  503  502  0.68535615732E+02  0.38986618598E+02 -0.37167303287E+03  0.37994464125E+03  0.00000000000E+00 0.  1.
         21    1    1    2  504  501 -0.15625296471E+03 -0.34903113330E+02  0.19029007071E+03  0.24868358874E+03  0.00000000000E+00 0.  1.
         21    1    1    2  505  503 -0.12155610717E+02  0.45660110103E+02  0.16589408696E+02  0.50078069126E+02  0.00000000000E+00 0.  1.
         21    1    1    2  506  504  0.99872959699E+02 -0.49743615371E+02 -0.24847662028E+03  0.27237780045E+03  0.00000000000E+00 0.  1.
<scales pt_clust_3="79.06345" pt_clust_4="157.29972" pt_clust_5="47.25044" pt_clust_6="14000.00000"></scales>
<clustering>
<clus scale="   47.250">  1  5  2 -1</clus>
<clus scale="   79.063">  2  3  1 -1</clus>
<clus scale="  157.300">  1  4  2 -1</clus>
<clus scale="   47.250">  1  3  2 -1</clus>
</clustering>
</event>
<event>
 6    0  0.4227619E+002  0.9742796E+02  0.7546771E-02  0.1285799E+00
         21   -1    0    0  505  501  0.00000000000E+00  0.00000000000E+00  0.49071195860E+03  0.49071195860E+03  0.00000000000E+00 0. -1.
         21   -1    0    0  503  502 -0.00000000000E+00 -0.00000000000E+00 -0.44752376346E+03  0.44752376346E+03  0.00000000000E+00 0. -1.
         21    1    1    2  503  504  0.76722924331E+02  0.62716623339E+02  0.15875457840E+03  0.18714378997E+03  0.00000000000E+00 0. -1.
         21    1    1    2  504  501  0.21956892522E+02 -0.30939173879E+02  0.29579488138E+03  0.29821795630E+03  0.00000000000E+00 0. -1.
         21    1    1    2  505  506 -0.60041910904E+02 -0.51409080816E+02 -0.61005552081E+02  0.99847894520E+02  0.00000000000E+00 0. -1.
         21    1    1    2  506  502 -0.38637905949E+02  0.19631631356E+02 -0.35035571257E+03  0.35302608127E+03  0.00000000000E+00 0. -1.
<scales pt_clust_3="97.42796" pt_clust_4="37.93860" pt_clust_5="14000.00000" pt_clust_6="43.10787"></scales>
<clustering>
<clus scale="   37.939">  1  4  2 -1</clus>
<clus scale="   43.108">  2  6  1 -1</clus>
<clus scale="   97.428">  1  3  2 -1</clus>
<clus scale="   37.939">  1  3  2 -1</clus>
</clustering>
</event>
<event>
 6    0  0.4227619E+002  0.8320163E+02  0.7546771E-02  0.1320204E+00
         21   -1    0    0  503  501  0.00000000000E+00  0.00000000000E+00  0.33084009382E+03  0.33084009382E+03  0.00000000000E+00 0.  1.
         21   -1    0    0  505  502 -0.00000000000E+00 -0.00000000000E+00 -0.21208884230E+03  0.21208884230E+03  0.00000000000E+00 0.  1.
         21    1    1    2  503  506 -0.92815184959E+02  0.43126564337E+02 -0.19731849330E+02  0.10423005799E+03  0.00000000000E+00 0.  1.
         21    1    1    2  504  501  0.81178388338E+02  0.18191141187E+02  0.26817910061E+03  0.28078617906E+03  0.00000000000E+00 0.  1.
         21    1    1    2  505  504 -0.43214502456E+01 -0.33579529529E+02 -0.11962650336E+02  0.35907725334E+02  0.00000000000E+00 0.  1.
         21    1    1    2  506  502  0.15958246867E+02 -0.27738175996E+02 -0.11773334942E+03  0.12200497374E+03  0.00000000000E+00 0.  1.
<scales pt_clust_3="83.20163" pt_clust_4="14000.00000" pt_clust_5="40.77924" pt_clust_6="32.00113"></scales>
<clustering>
<clus scale="   32.001">  2  6  1 -1</clus>
<clus scale="   40.779">  2  5  1 -1</clus>
<clus scale="   83.202">  2  3  1 -1</clus>
<clus scale="   83.202">  1  3  2 -1</clus>
</clustering>
</event>
<event>
 6    0  0.4227619E+002  0.1682989E+03  0.7546771E-02  0.1179634E+00
         21   -1    0    0  505  501  0.00000000000E+00  0.00000000000E+00  0.20368572129E+04  0.20368572129E+04  0.00000000000E+00 0.  1.
         21   -1    0    0  504  502 -0.00000000000E+00 -0.00000000000E+00 -0.33129268193E+02  0.33129268193E+02  0.00000000000E+00 0.  1.
         21    1    1    2  503  501  0.51260751013E+01 -0.59949722159E+02  0.70841482749E+03  0.71096540959E+03  0.00000000000E+00 0.  1.
         21    1    1    2  504  506 -0.10130245117E+03  0.19878149497E+03  0.72528849716E+03  0.75882782860E+03  0.00000000000E+00 0.  1.
         21    1    1    2  505  502  0.10106466347E+03 -0.10118105948E+03  0.37159213444E+03  0.39816125801E+03  0.00000000000E+00 0.  1.
         21    1    1    2  506  503 -0.48882874001E+01 -0.37650713333E+02  0.19843248560E+03  0.20203198487E+03  0.00000000000E+00 0.  1.
<scales pt_clust_3="105.79316" pt_clust_4="14000.00000" pt_clust_5="168.29891" pt_clust_6="32.42593"></scales>
<clustering>
<clus scale="   32.426">  3  6 -1 -1</clus>
<clus scale="  105.793">  1  3  2 -1</clus>
<clus scale="  168.299">  2  5  1 -1</clus>
<clus scale="  105.793">  1  3  2 -1</clus>
</clustering>
</event>
<event>
 6    0  0.4227619E+002  0.1772588E+03  0.7546771E-02  0.1170483E+00
         21   -1    0    0  505  501  0.00000000000E+00  0.00000000000E+00  0.86917316822E+03  0.86917316822E+03  0.00000000000E+00 0. -1.
         21   -1    0    0  503  502 -0.00000000000E+00 -0.00000000000E+00 -0.26422054509E+03  0.26422054509E+03  0.00000000000E+00 0.  1.
         21    1    1    2  503  506  0.67141974024E+02  0.17853138178E+03  0.14467238772E+03  0.23939841003E+03  0.00000000000E+00 0. -1.
         21    1    1    2  504  501 -0.30429310454E+02 -0.10023240540E+03  0.48603852940E+03  0.49719807933E+03  0.00000000000E+00 0. -1.
         21    1    1    2  505  502 -0.30439928351E+02 -0.14776759243E+02 -0.20435450945E+03  0.20713692907E+03  0.00000000000E+00 0.  1.
         21    1    1    2  506  504 -0.62727352193E+01 -0.63522217143E+02  0.17859621546E+03  0.18966029488E+03  0.00000000000E+00 0. -1.
<scales pt_clust_3="171.89591" pt_clust_4="33.77903" pt_clust_5="33.83699" pt_clust_6="33.77903"></scales>
<clustering>
<clus scale="   33.779">  4  6 -1 -1</clus>
<clus scale="   33.837">  2  5  1 -1</clus>
<clus scale="  171.896">  2  3  1 -1</clus>
<clus scale="  177.259">  1  3  2 -1</clus>
</clustering>
</event>
<event>
 6    0  0.4227619E+002  0.1047759E+03  0.7546771E-02  0.1270562E+00
         21   -1    0    0  504  501  0.00000000000E+00  0.00000000000E+00  0.10649212087E+04  0.10649212087E+04  0.00000000000E+00 0. -1.
         21   -1    0    0  503  502 -0.00000000000E+00 -0.00000000000E+00 -0.15100859409E+03  0.15100859409E+03  0.00000000000E+00 0. -1.
         21    1    1    2  503  505  0.51585654048E+01 -0.44517876361E+02 -0.55570375617E+02  0.71389906562E+02  0.00000000000E+00 0. -1.
         21    1    1    2  504  506 -0.96216781534E+02 -0.26071168770E+02  0.79641431882E+03  0.80262889439E+03  0.00000000000E+00 0. -1.
         21    1    1    2  505  501 -0.97460760307E+02  0.17717000655E+02  0.56150776285E+02  0.11386571736E+03  0.00000000000E+00 0.  1.
         21    1    1    2  506  502  0.18851897644E+03  0.52872044476E+02  0.11691789510E+03  0.22804528444E+03  0.00000000000E+00 0. -1.
<scales pt_clust_3="44.81576" pt_clust_4="104.77594" pt_clust_5="95.80826" pt_clust_6="14000.00000"></scales>
<clustering>
<clus scale="   44.816">  2  3  1 -1</clus>
<clus scale="   95.808">  2  5  1 -1</clus>
<clus scale="  104.776">  1  4  2 -1</clus>
<clus scale="  104.776">  1  3  2 -1</clus>
</clustering>
</event>
<event>
 6    0  0.4227619E+002  0.1060112E+03  0.7546771E-02  0.1268140E+00
         21   -1    0    0  503  501  0.00000000000E+00  0.00000000000E+00  0.12967197965E+04  0.12967197965E+04  0.00000000000E+00 0.  1.
         21   -1    0    0  506  502 -0.00000000000E+00 -0.00000000000E+00 -0.15583856404E+03  0.15583856404E+03  0.00000000000E+00 0. -1.
         21    1    1    2  503  502 -0.26586914781E+02  0.15860345149E+02  0.49621148133E+03  0.49717627537E+03  0.00000000000E+00 0.  1.
         21    1    1    2  504  501  0.78909639053E+02 -0.32371240203E+02  0.67521385201E+03  0.68057944009E+03  0.00000000000E+00 0.  1.
         21    1    1    2  505  504  0.31804121660E+02 -0.62698016618E+02  0.85735840553E+02  0.11087460393E+03  0.00000000000E+00 0. -1.
         21    1    1    2  506  505 -0.84126845932E+02  0.79208911672E+02 -0.11627994144E+03  0.16392804115E+03  0.00000000000E+00 0. -1.
<scales pt_clust_3="30.95827" pt_clust_4="59.47508" pt_clust_5="106.01120" pt_clust_6="14000.00000"></scales>
<clustering>
<clus scale="   30.958">  1  3  2 -1</clus>
<clus scale="   59.475">  1  4  2 -1</clus>
<clus scale="  106.011">  1  5  2 -1</clus>
<clus scale="   30.958">  1  3  2 -1</clus>
</clustering>
</event>
<event>
 6    0  0.4227619E+002  0.1690626E+03  0.7546771E-02  0.1178829E+00
         21   -1    0    0  505  501  0.00000000000E+00  0.00000000000E+00  0.12313146582E+03  0.12313146582E+03  0.00000000000E+00 0.  1.
         21   -1    0    0  503  502 -0.00000000000E+00 -0.00000000000E+00 -0.81123567864E+03  0.81123567864E+03  0.00000000000E+00 0. -1.
         21    1    1    2  503  506 -0.15658070823E+03  0.49620292597E+02 -0.43552161052E+03  0.46546618014E+03  0.00000000000E+00 0. -1.
         21    1    1    2  504  502 -0.14525177863E+02 -0.53361674529E+02 -0.22170352405E+03  0.22849704960E+03  0.00000000000E+00 0. -1.
         21    1    1    2  505  504  0.17639280124E+03  0.38257733104E+02 -0.64749810390E+02  0.19175664896E+03  0.00000000000E+00 0.  1.
         21    1    1    2  506  501 -0.52869151542E+01 -0.34516351173E+02  0.33870732136E+02  0.48647265757E+02  0.00000000000E+00 0.  1.
<scales pt_clust_3="14000.00000" pt_clust_4="56.74285" pt_clust_5="169.06264" pt_clust_6="34.91891"></scales>
<clustering>
<clus scale="   34.919">  1  6  2 -1</clus>
<clus scale="   56.743">  2  4  1 -1</clus>
<clus scale="  169.063">  1  5  2 -1</clus>
<clus scale="   34.919">  1  3  2 -1</clus>
</clustering>
</event>
<event>
 6    0  0.4227619E+002  0.1544729E+03  0.7546771E-02  0.1195082E+00
         21   -1    0    0  505  501  0.00000000000E+00  0.00000000000E+00  0.15965354475E+04  0.15965354475E+04  0.00000000000E+00 0. -1.
         21   -1    0    0  501  502 -0.00000000000E+00 -0.00000000000E+00 -0.62114932670E+03  0.62114932670E+03  0.00000000000E+00 0. -1.
         21    1    1    2  503  502 -0.12150257283E+01  0.60854338394E+02 -0.48690100077E+03  0.49069064729E+03  0.00000000000E+00 0. -1.
         21    1    1    2  504  503 -0.92812962959E+01  0.11051825294E+03 -0.89842599174E+02  0.14273093330E+03  0.00000000000E+00 0. -1.
         21    1    1    2  505  506  0.44638748244E+02 -0.46316369121E+02  0.12922098241E+04  0.12938098985E+04  0.00000000000E+00 0. -1.
         21    1    1    2  506  504 -0.34142426220E+02 -0.12505622221E+03  0.25991989664E+03  0.29045329513E+03  0.00000000000E+00 0. -1.
<scales pt_clust_3="60.86647" pt_clust_4="154.47286" pt_clust_5="64.05645" pt_clust_6="14000.00000"></scales>
<clustering>
<clus scale="   60.866">  2  3  1 -1</clus>
<clus scale="   64.056">  1  5  2 -1</clus>
<clus scale="  154.473">  2  4  1 -1</clus>
<clus scale="   64.056">  1  3  2 -1</clus>
</clustering>
</event>
<event>
 6    0  0.4227619E+002  0.3334626E+03  0.7546771E-02  0.1069615E+00
         21   -1    0    0  505  501  0.00000000000E+00  0.00000000000E+00  0.92252850917E+03  0.92252850917E+03  0.00000000000E+00 0.  1.
         21   -1    0    0  504  502 -0.00000000000E+00 -0.00000000000E+00 -0.31881721927E+03  0.31881721927E+03  0.00000000000E+00 0. -1.
         21    1    1    2  503  502 -0.66403838052E+02  0.24287259666E+02  0.37233305400E+02  0.79910322994E+02  0.00000000000E+00 0. -1.
         21    1    1    2  504  506  0.30546015630E+02 -0.72826492717E+02  0.19914505645E+02  0.81445347610E+02  0.00000000000E+00 0.  1.
         21    1    1    2  505  503 -0.14362097587E+03  0.32561808098E+03 -0.86297482137E+02  0.36619854559E+03  0.00000000000E+00 0. -1.
         21    1    1    2  506  501  0.17947879829E+03 -0.27707884793E+03  0.63286096099E+03  0.71379151225E+03  0.00000000000E+00 0.  1.
<scales pt_clust_3="70.70602" pt_clust_4="74.19452" pt_clust_5="333.46259" pt_clust_6="14000.00000"></scales>
<clustering>
<clus scale="   70.706">  2  3  1 -1</clus>
<clus scale="   74.195">  2  4  1 -1</clus>
<clus scale="  333.463">  2  5  1 -1</clus>
<clus scale="  333.463">  1  3  2 -1</clus>
</clustering>
</event>
<event>
 6    0  0.4227619E+002  0.8924742E+02  0.7546771E-02  0.1304684E+00
         21   -1    0    0  506  501  0.00000000000E+00  0.00000000000E+00  0.34674344098E+02  0.34674344098E+02  0.00000000000E+00 0. -1.
         21   -1    0    0  503  502 -0.00000000000E+00 -0.00000000000E+00 -0.42057847259E+04  0.42057847259E+04  0.00000000000E+00 0.  1.
         21    1    1    2  503  501  0.67337613512E+02  0.19855406546E+02 -0.86410884044E+03  0.86695598475E+03  0.00000000000E+00 0.  1.
         21    1    1    2  504  502 -0.28726544644E+02  0.28658260644E+02 -0.18430873347E+04  0.18435339524E+04  0.00000000000E+00 0.  1.
         21    1    1    2  505  504 -0.11383754541E+03 -0.91752947861E+02 -0.14289674404E+04  0.14364280476E+04  0.00000000000E+00 0.  1.
         21    1    1    2  506  505  0.75226476545E+02  0.43239280671E+02 -0.34946766303E+02  0.93541085313E+02  0.00000000000E+00 0. -1.
<scales pt_clust_3="64.41391" pt_clust_4="40.57721" pt_clust_5="89.24742" pt_clust_6="14000.00000"></scales>
<clustering>
<clus scale="   40.577">  2  4  1 -1</clus>
<clus scale="   64.414">  2  3  1 -1</clus>
<clus scale="   89.247">  2  5  1 -1</clus>
<clus scale="   89.247">  1  3  2 -1</clus>
</clustering>
</event>
<event>
 6    0  0.4227619E+002  0.1253631E+03  0.7546771E-02  0.1234503E+00
         21   -1    0    0  505  501  0.00000000000E+00  0.00000000000E+00  0.61674116888E+03  0.61674116888E+03  0.00000000000E+00 0.  1.
         21   -1    0    0  503  502 -0.00000000000E+00 -0.00000000000E+00 -0.16123957843E+03  0.16123957843E+03  0.00000000000E+00 0.  1.
         21    1    1    2  503  501  0.15805805206E+03 -0.82835761885E+02  0.27759070884E+02  0.18059534126E+03  0.00000000000E+00 0.  1.
         21    1    1    2  504  506 -0.10128278650E+03 -0.57064717969E+02  0.13981361700E+03  0.18183077951E+03  0.00000000000E+00 0.  1.
         21    1    1    2  505  504 -0.21789500201E+02  0.85615175413E+02  0.32790723220E+03  0.33959960764E+03  0.00000000000E+00 0.  1.
         21    1    1    2  506  502 -0.34985765362E+02  0.54285304441E+02 -0.39978329632E+02  0.75955018901E+02  0.00000000000E+00 0.  1.
<scales pt_clust_3="125.36313" pt_clust_4="14000.00000" pt_clust_5="91.81837" pt_clust_6="64.58249"></scales>
<clustering>
<clus scale="   64.582">  2  6  1 -1</clus>
<clus scale="   91.818">  1  5  2 -1</clus>
<clus scale="  125.363">  2  3  1 -1</clus>
<clus scale="   91.818">  1  3  2 -1</clus>
</clustering>
</event>
<event>
 6    0  0.4227619E+002  0.1636923E+03  0.7546771E-02  0.1184590E+00
         21   -1    0    0  503  501  0.00000000000E+00  0.00000000000E+00  0.48986648673E+03  0.48986648673E+03  0.00000000000E+00 0. -1.
         21   -1    0    0  504  502 -0.00000000000E+00 -0.00000000000E+00 -0.17627010561E+03  0.17627010561E+03  0.00000000000E+00 0. -1.
         21    1    1    2  503  502 -0.17721189811E+02  0.28780000676E+02  0.22753383175E+02  0.40743655373E+02  0.00000000000E+00 0. -1.
         21    1    1    2  504  505 -0.12145798680E+03 -0.10169164769E+03 -0.75926913945E+02  0.17566482297E+03  0.00000000000E+00 0. -1.
         21    1    1    2  505  506  0.13880543468E+03  0.13037756587E+03  0.21376911722E+03  0.28629092521E+03  0.00000000000E+00 0. -1.
         21    1    1    2  506  501  0.37374192729E+00 -0.57465918858E+02  0.15300079467E+03  0.16343718880E+03  0.00000000000E+00 0. -1.
<scales pt_clust_3="33.79836" pt_clust_4="163.69234" pt_clust_5="14000.00000" pt_clust_6="47.87241"></scales>
<clustering>
<clus scale="   33.798">  1  3  2 -1</clus>
<clus scale="   47.872">  1  6  2 -1</clus>
<clus scale="  163.692">  2  4  1 -1</clus>
<clus scale="   33.798">  1  3  2 -1</clus>
</clustering>
</event>
<event>
 6    0  0.4227619E+002  0.1172597E+03  0.7546771E-02  0.1247687E+00
         21   -1    0    0  506  501  0.00000000000E+00  0.00000000000E+00  0.63142704877E+03  0.63142704877E+03  0.00000000000E+00 0.  1.
         21   -1    0    0  504  502 -0.00000000000E+00 -0.00000000000E+00 -0.41160577597E+02  0.41160577597E+02  0.00000000000E+00 0.  1.
         21    1    1    2  503  501  0.65910765687E+01  0.99310199028E+02  0.31845275266E+03  0.33364369258E+03  0.00000000000E+00 0.  1.
         21    1    1    2  504  505  0.14996054094E+02 -0.75076570770E+02  0.15926422825E+03  0.17671012285E+03  0.00000000000E+00 0.  1.
         21    1    1    2  505  503 -0.48783942689E+01 -0.67649732560E+02  0.82719768470E+02  0.10697123511E+03  0.00000000000E+00 0.  1.
         21    1    1    2  506  502 -0.16708736394E+02  0.43416104301E+02  0.29829721792E+02  0.55262575825E+02  0.00000000000E+00 0.  1.
<scales pt_clust_3="110.92408" pt_clust_4="35.78775" pt_clust_5="35.78775" pt_clust_6="46.52032"></scales>
<clustering>
<clus scale="   35.788">  4  5 -1 -1</clus>
<clus scale="   46.520">  2  6  1 -1</clus>
<clus scale="  110.924">  1  3  2 -1</clus>
<clus scale="  110.924">  1  3  2 -1</clus>
</clustering>
</event>
<event>
 6    0  0.4227619E+002  0.9974273E+02  0.7546771E-02  0.1280838E+00
         21   -1    0    0  505  501  0.00000000000E+00  0.00000000000E+00  0.52122153828E+02  0.52122153828E+02  0.00000000000E+00 0. -1.
         21   -1    0    0  503  502 -0.00000000000E+00 -0.00000000000E+00 -0.15304707046E+04  0.15304707046E+04  0.00000000000E+00 0. -1.
         21    1    1    2  503  506  0.11895232126E+02  0.81944049921E+02 -0.14520820524E+03  0.16715784975E+03  0.00000000000E+00 0. -1.
         21    1    1    2  504  502  0.22973012372E+01  0.41001080087E+02 -0.91115124416E+03  0.91207617878E+03  0.00000000000E+00 0. -1.
         21    1    1    2  505  504 -0.44285333683E+02 -0.12520745284E+03 -0.44564555793E+03  0.46501404316E+03  0.00000000000E+00 0. -1.
         21    1    1    2  506  501  0.30092800319E+02  0.22623228345E+01  0.23656456541E+02  0.38344786761E+02  0.00000000000E+00 0. -1.
<scales pt_clust_3="99.74273" pt_clust_4="41.15692" pt_clust_5="14000.00000" pt_clust_6="30.17772"></scales>
<clustering>
<clus scale="   30.178">  1  6  2 -1</clus>
<clus scale="   41.157">  2  4  1 -1</clus>
<clus scale="   99.743">  1  3  2 -1</clus>
<clus scale="   30.178">  1  3  2 -1</clus>
</clustering>
</event>
<event>
 6    0  0.4227619E+002  0.3617787E+03  0.7546771E-02  0.1057882E+00
         21   -1    0    0  502  501  0.00000000000E+00  0.00000000000E+00  0.13319559261E+03  0.13319559261E+03  0.00000000000E+00 0. -1.
         21   -1    0    0  504  502 -0.00000000000E+00 -0.00000000000E+00 -0.17747383137E+04  0.17747383137E+04  0.00000000000E+00 0. -1.
         21    1    1    2  503  505  0.20696756481E+03 -0.13839023945E+03 -0.57701859657E+03  0.62844084212E+03  0.00000000000E+00 0. -1.
         21    1    1    2  504  506 -0.81617136778E+01 -0.36529523357E+02 -0.54636359128E+03  0.54764422167E+03  0.00000000000E+00 0. -1.
         21    1    1    2  505  501 -0.25659348131E+03  0.25436813701E+03 -0.23221218949E+03  0.42949489488E+03  0.00000000000E+00 0. -1.
         21    1    1    2  506  503  0.57787630177E+02 -0.79448374205E+02 -0.28594834378E+03  0.30235394768E+03  0.00000000000E+00 0. -1.
<scales pt_clust_3="40.96292" pt_clust_4="37.43020" pt_clust_5="356.04184" pt_clust_6="40.96292"></scales>
<clustering>
<clus scale="   37.430">  2  4  1 -1</clus>
<clus scale="   40.963">  3  6 -1 -1</clus>
<clus scale="  356.042">  1  5  2 -1</clus>
<clus scale="  356.042">  1  3  2 -1</clus>
</clustering>
</event>
<event>
 6    0  0.4227619E+002  0.1242865E+03  0.7546771E-02  0.1236189E+00
         21   -1    0    0  506  501  0.00000000000E+00  0.00000000000E+00  0.35047712237E+02  0.35047712237E+02  0.00000000000E+00 0. -1.
         21   -1    0    0  504  502 -0.00000000000E+00 -0.00000000000E+00 -0.11852399208E+04  0.11852399208E+04  0.00000000000E+00 0. -1.
         21    1    1    2  503  501  0.45219519668E+02 -0.13099423444E+03 -0.33773457109E+03  0.36506017987E+03  0.00000000000E+00 0. -1.
         21    1    1    2  504  503 -0.42329359521E+02 -0.34005527226E+02 -0.36961752106E+03  0.37358434447E+03  0.00000000000E+00 0. -1.
         21    1    1    2  505  502 -0.88967508076E+01  0.12454188493E+03 -0.41175566135E+03  0.43027033122E+03  0.00000000000E+00 0. -1.
         21    1    1    2  506  505  0.60065906601E+01  0.40457876730E+02 -0.31084455107E+02  0.51372777521E+02  0.00000000000E+00 0. -1.
<scales pt_clust_3="124.28645" pt_clust_4="51.95302" pt_clust_5="14000.00000" pt_clust_6="40.90133"></scales>
<clustering>
<clus scale="   40.901">  1  6  2 -1</clus>
<clus scale="   51.953">  2  4  1 -1</clus>
<clus scale="  124.286">  1  3  2 -1</clus>
<clus scale="   40.901">  1  3  2 -1</clus>
</clustering>
</event>
<event>
 6    0  0.4227619E+002  0.8232440E+02  0.7546771E-02  0.1322582E+00
         21   -1    0    0  502  501  0.00000000000E+00  0.00000000000E+00  0.72715997149E+02  0.72715997149E+02  0.00000000000E+00 0.  1.
         21   -1    0    0  503  502 -0.00000000000E+00 -0.00000000000E+00 -0.23773732280E+04  0.23773732280E+04  0.00000000000E+00 0. -1.
         21    1    1    2  503  506 -0.12799679093E+02 -0.59009531267E+02 -0.20651881497E+04  0.20660706789E+04  0.00000000000E+00 0. -1.
         21    1    1    2  504  505 -0.28072088407E+02  0.35807681715E+02 -0.11873760072E+03  0.12715679314E+03  0.00000000000E+00 0. -1.
         21    1    1    2  505  501  0.43113578241E+02 -0.54651352424E+02  0.38539864969E+02  0.79566777881E+02  0.00000000000E+00 0.  1.
         21    1    1    2  506  504 -0.22418107412E+01  0.77853201976E+02 -0.15927134539E+03  0.17729497521E+03  0.00000000000E+00 0. -1.
<scales pt_clust_3="60.38176" pt_clust_4="30.22869" pt_clust_5="72.20202" pt_clust_6="30.22869"></scales>
<clustering>
<clus scale="   30.229">  4  6 -1 -1</clus>
<clus scale="   60.382">  2  3  1 -1</clus>
<clus scale="   72.202">  1  5  2 -1</clus>
<clus scale="   72.202">  1  3  2 -1</clus>
</clustering>
</event>
<event>
 6    0  0.4227619E+002  0.8910242E+02  0.7546771E-02  0.1305040E+00
         21   -1    0    0  506  501  0.00000000000E+00  0.00000000000E+00  0.32373708827E+03  0.32373708827E+03  0.00000000000E+00 0.  1.
         21   -1    0    0  505  502 -0.00000000000E+00 -0.00000000000E+00 -0.75554229475E+02  0.75554229475E+02  0.00000000000E+00 0.  1.
         21    1    1    2  503  501  0.39915499953E+02 -0.55104314729E+01  0.34810761023E+02  0.53248484246E+02  0.00000000000E+00 0. -1.
         21    1    1    2  504  502  0.22227612485E+02 -0.27010630921E+02  0.23110900337E+01  0.35056840654E+02  0.00000000000E+00 0. -1.
         21    1    1    2  505  503 -0.82105315305E+02  0.93456805839E+02  0.43851356529E+02  0.13190299022E+03  0.00000000000E+00 0.  1.
         21    1    1    2  506  504  0.19962202868E+02 -0.60935743445E+02  0.16720965121E+03  0.17908300263E+03  0.00000000000E+00 0.  1.
<scales pt_clust_3="44.45319" pt_clust_4="34.98058" pt_clust_5="89.10242" pt_clust_6="14000.00000"></scales>
<clustering>
<clus scale="   34.981">  2  4  1 -1</clus>
<clus scale="   44.453">  1  3  2 -1</clus>
<clus scale="   89.102">  2  5  1 -1</clus>
<clus scale="   44.453">  1  3  2 -1</clus>
</clustering>
</event>
<event>
 6    0  0.4227619E+002  0.2532468E+03  0.7546771E-02  0.1111270E+00
         21   -1    0    0  504  501  0.00000000000E+00  0.00000000000E+00  0.52246658870E+03  0.52246658870E+03  0.00000000000E+00 0.  1.
         21   -1    0    0  506  502 -0.00000000000E+00 -0.00000000000E+00 -0.78236411147E+03  0.78236411147E+03  0.00000000000E+00 0.  1.
         21    1    1    2  503  505  0.11941112109E+03  0.27024140691E+03 -0.24576330654E+03  0.38430331340E+03  0.00000000000E+00 0.  1.
         21    1    1    2  504  503  0.29192512438E+02 -0.71805390974E+02  0.18057110589E+03  0.19650481225E+03  0.00000000000E+00 0.  1.
         21    1    1    2  505  502 -0.21026193259E+02 -0.32396932288E+02 -0.41691470348E+03  0.41869981132E+03  0.00000000000E+00 0.  1.
         21    1    1    2  506  501 -0.12757744027E+03 -0.16603908365E+03  0.22220938136E+03  0.30532276320E+03  0.00000000000E+00 0.  1.
<scales pt_clust_3="14000.00000" pt_clust_4="77.99857" pt_clust_5="38.62204" pt_clust_6="253.24677"></scales>
<clustering>
<clus scale="   38.622">  2  5  1 -1</clus>
<clus scale="   77.999">  1  4  2 -1</clus>
<clus scale="  253.247">  1  6  2 -1</clus>
<clus scale="   77.999">  1  3  2 -1</clus>
</clustering>
</event>
<event>
 6    0  0.4227619E+002  0.9100782E+02  0.7546771E-02  0.1300429E+00
         21   -1    0    0  505  501  0.00000000000E+00  0.00000000000E+00  0.44254107672E+03  0.44254107672E+03  0.00000000000E+00 0. -1.
         21   -1    0    0  503  502 -0.00000000000E+00 -0.00000000000E+00 -0.27996939119E+03  0.27996939119E+03  0.00000000000E+00 0. -1.
         21    1    1    2  503  504 -0.34089738221E+02  0.81862899778E+02 -0.72898423153E+02  0.11479470680E+03  0.00000000000E+00 0. -1.
         21    1    1    2  504  501 -0.44109712855E+02  0.20114412049E+02  0.22142308386E+03  0.22666812393E+03  0.00000000000E+00 0. -1.
         21    1    1    2  505  506  0.12677074527E+03 -0.50854631449E+02  0.16514013310E+03  0.21430884013E+03  0.00000000000E+00 0. -1.
         21    1    1    2  506  502 -0.48571294197E+02 -0.51122680378E+02 -0.15109310828E+03  0.16673879704E+03  0.00000000000E+00 0. -1.
<scales pt_clust_3="91.00782" pt_clust_4="48.47944" pt_clust_5="14000.00000" pt_clust_6="71.10199"></scales>
<clustering>
<clus scale="   48.479">  1  4  2 -1</clus>
<clus scale="   71.102">  2  6  1 -1</clus>
<clus scale="   91.008">  2  3  1 -1</clus>
<clus scale="   48.479">  1  3  2 -1</clus>
</clustering>
</event>
<event>
 6    0  0.4227619E+002  0.9104917E+02  0.7546771E-02  0.1300331E+00
         21   -1    0    0  505  501  0.00000000000E+00  0.00000000000E+00  0.19260485876E+03  0.19260485876E+03  0.00000000000E+00 0. -1.
         21   -1    0    0  503  502 -0.00000000000E+00 -0.00000000000E+00 -0.29982937422E+03  0.29982937422E+03  0.00000000000E+00 0. -1.
         21    1    1    2  503  504  0.18104389793E+02  0.42304997502E+02 -0.18812453516E+03  0.19367065465E+03  0.00000000000E+00 0. -1.
         21    1    1    2  504  506 -0.85069481566E+02 -0.48130840815E+02 -0.63221873437E+01  0.97945722644E+02  0.00000000000E+00 0. -1.
         21    1    1    2  505  502 -0.23333765136E+02  0.57555060679E+02 -0.42697102500E+01  0.62251747211E+02  0.00000000000E+00 0. -1.
         21    1    1    2  506  501  0.90298856908E+02 -0.51729217366E+02  0.91491917297E+02  0.13856610848E+03  0.00000000000E+00 0. -1.
<scales pt_clust_3="46.01610" pt_clust_4="91.04917" pt_clust_5="72.68693" pt_clust_6="14000.00000"></scales>
<clustering>
<clus scale="   46.016">  2  3  1 -1</clus>
<clus scale="   72.687">  2  5  1 -1</clus>
<clus scale="   91.049">  2  4  1 -1</clus>
<clus scale="   91.049">  1  3  2 -1</clus>
</clustering>
</event>
<event>
 6    0  0.4227619E+002  0.1220615E+03  0.7546771E-02  0.1239735E+00
         21   -1    0    0  504  501  0.00000000000E+00  0.00000000000E+00  0.15309036135E+04  0.15309036135E+04  0.00000000000E+00 0.  1.
         21   -1    0    0  506  502 -0.00000000000E+00 -0.00000000000E+00 -0.24576008983E+03  0.24576008983E+03  0.00000000000E+00 0.  1.
         21    1    1    2  503  502  0.56088765258E+02  0.11681909309E+02 -0.20719665693E+03  0.21497179172E+03  0.00000000000E+00 0.  1.
         21    1    1    2  504  503 -0.37329665506E+02  0.32781180703E+02  0.84598094910E+02  0.98106816264E+02  0.00000000000E+00 0.  1.
         21    1    1    2  505  501 -0.96839534159E+02  0.21599642313E+01  0.13549976955E+04  0.13584554890E+04  0.00000000000E+00 0.  1.
         21    1    1    2  506  505  0.78080434406E+02 -0.46623054243E+02  0.52744390130E+02  0.10512960627E+03  0.00000000000E+00 0.  1.
<scales pt_clust_3="57.21184" pt_clust_4="49.68007" pt_clust_5="122.06145" pt_clust_6="14000.00000"></scales>
<clustering>
<clus scale="   49.680">  1  4  2 -1</clus>
<clus scale="   57.212">  2  3  1 -1</clus>
<clus scale="  122.061">  1  5  2 -1</clus>
<clus scale="   49.680">  1  3  2 -1</clus>
</clustering>
</event>
<event>
 6    0  0.4227619E+002  0.1428214E+03  0.7546771E-02  0.1209582E+00
         21   -1    0    0  503  501  0.00000000000E+00  0.00000000000E+00  0.14721256286E+03  0.14721256286E+03  0.00000000000E+00 0. -1.
         21   -1    0    0  506  502 -0.00000000000E+00 -0.00000000000E+00 -0.63982470373E+03  0.63982470373E+03  0.00000000000E+00 0. -1.
         21    1    1    2  503  502 -0.35092821385E+02  0.66308839506E+02  0.88219939327E+02  0.11580641608E+03  0.00000000000E+00 0. -1.
         21    1    1    2  504  505  0.15293066196E+02  0.74179021243E+02 -0.22118091918E+03  0.23378923002E+03  0.00000000000E+00 0. -1.
         21    1    1    2  505  501 -0.22465186682E+02 -0.17755318586E+03 -0.20102225817E+03  0.26914636669E+03  0.00000000000E+00 0. -1.
         21    1    1    2  506  504  0.42264941871E+02  0.37065325108E+02 -0.15862890284E+03  0.16829525381E+03  0.00000000000E+00 0. -1.
<scales pt_clust_3="75.02245" pt_clust_4="35.81498" pt_clust_5="136.63726" pt_clust_6="35.81498"></scales>
<clustering>
<clus scale="   35.815">  4  6 -1 -1</clus>
<clus scale="   75.022">  1  3  2 -1</clus>
<clus scale="  136.637">  1  5  2 -1</clus>
<clus scale="   75.022">  1  3  2 -1</clus>
</clustering>
</event>
<event>
 6    0  0.4227619E+002  0.1323450E+03  0.7546771E-02  0.1224017E+00
         21   -1    0    0  506  501  0.00000000000E+00  0.00000000000E+00  0.95821812459E+03  0.95821812459E+03  0.00000000000E+00 0.  1.
         21   -1    0    0  505  502 -0.00000000000E+00 -0.00000000000E+00 -0.21561832586E+03  0.21561832586E+03  0.00000000000E+00 0.  1.
         21    1    1    2  503  501  0.83337581987E+01 -0.38473727559E+02  0.47886938283E+03  0.48048471885E+03  0.00000000000E+00 0.  1.
         21    1    1    2  504  502 -0.13119200061E+03 -0.55693955374E+02 -0.15409324366E+03  0.20989970326E+03  0.00000000000E+00 0.  1.
         21    1    1    2  505  503  0.15578929849E+00  0.38207579749E+02 -0.60118439974E+01  0.38677974208E+02  0.00000000000E+00 0. -1.
         21    1    1    2  506  504  0.12270245311E+03  0.55960103184E+02  0.42383550356E+03  0.44477405413E+03  0.00000000000E+00 0.  1.
<scales pt_clust_3="39.21007" pt_clust_4="14000.00000" pt_clust_5="38.20790" pt_clust_6="132.34501"></scales>
<clustering>
<clus scale="   38.208">  2  5  1 -1</clus>
<clus scale="   39.210">  1  3  2 -1</clus>
<clus scale="  132.345">  1  6  2 -1</clus>
<clus scale="   39.210">  1  3  2 -1</clus>
</clustering>
</event>
<event>
 6    0  0.4227619E+002  0.1197094E+03  0.7546771E-02  0.1243577E+00
         21   -1    0    0  503  501  0.00000000000E+00  0.00000000000E+00  0.17511863408E+03  0.17511863408E+03  0.00000000000E+00 0. -1.
         21   -1    0    0  505  502 -0.00000000000E+00 -0.00000000000E+00 -0.17532998522E+03  0.17532998522E+03  0.00000000000E+00 0. -1.
         21    1    1    2  503  506  0.39825042474E+02 -0.22343256111E+02  0.92991518665E+02  0.10359863728E+03  0.00000000000E+00 0. -1.
         21    1    1    2  504  501 -0.84360187566E+02  0.23801819444E+02 -0.18756067501E+02  0.89637926812E+02  0.00000000000E+00 0. -1.
         21    1    1    2  505  504 -0.34687661225E+02  0.26805085947E+02 -0.55968005963E+02  0.71092644946E+02  0.00000000000E+00 0. -1.
         21    1    1    2  506  502  0.79222806316E+02 -0.28263649281E+02 -0.18478796337E+02  0.86119410271E+02  0.00000000000E+00 0. -1.
<scales pt_clust_3="45.66459" pt_clust_4="41.94076" pt_clust_5="41.94076" pt_clust_6="103.98633"></scales>
<clustering>
<clus scale="   41.941">  4  5 -1 -1</clus>
<clus scale="   45.665">  1  3  2 -1</clus>
<clus scale="  103.986">  2  6  1 -1</clus>
<clus scale="   45.665">  1  3  2 -1</clus>
</clustering>
</event>
<event>
 6    0  0.4227619E+002  0.3498321E+03  0.7546771E-02  0.1062684E+00
         21   -1    0    0  506  501  0.00000000000E+00  0.00000000000E+00  0.53936780413E+03  0.53936780413E+03  0.00000000000E+00 0.  1.
         21   -1    0    0  505  502 -0.00000000000E+00 -0.00000000000E+00 -0.11317824374E+04  0.11317824374E+04  0.00000000000E+00 0.  1.
         21    1    1    2  503  502  0.72616903248E+02  0.29433426809E+02 -0.53361382987E+01  0.78536715127E+02  0.00000000000E+00 0.  1.
         21    1    1    2  504  501 -0.12460489310E+03 -0.32262234495E+03 -0.31358178981E+03  0.46684590150E+03  0.00000000000E+00 0.  1.
         21    1    1    2  505  504 -0.30766656078E+02 -0.47952195557E+02 -0.62582545961E+03  0.62841348337E+03  0.00000000000E+00 0.  1.
         21    1    1    2  506  503  0.82754645929E+02  0.34114111370E+03  0.35232875446E+03  0.49735414153E+03  0.00000000000E+00 0.  1.
<scales pt_clust_3="74.53909" pt_clust_4="349.83206" pt_clust_5="56.97368" pt_clust_6="14000.00000"></scales>
<clustering>
<clus scale="   56.974">  2  5  1 -1</clus>
<clus scale="   74.539">  2  3  1 -1</clus>
<clus scale="  349.832">  2  4  1 -1</clus>
<clus scale="  349.832">  1  3  2 -1</clus>
</clustering>
</event>
<event>
 6    0  0.4227619E+002  0.7486033E+02  0.7546771E-02  0.1344304E+00
         21   -1    0    0  504  501  0.00000000000E+00  0.00000000000E+00  0.26377577164E+03  0.26377577164E+03  0.00000000000E+00 0.  1.
         21   -1    0    0  506  502 -0.00000000000E+00 -0.00000000000E+00 -0.45536395994E+03  0.45536395994E+03  0.00000000000E+00 0.  1.
         21    1    1    2  503  505 -0.60720237968E+02 -0.71387164166E+02  0.64587633192E+02  0.11381843817E+03  0.00000000000E+00 0.  1.
         21    1    1    2  504  502 -0.27344420060E+01  0.83138298829E+02  0.80566982652E+02  0.11580368128E+03  0.00000000000E+00 0.  1.
         21    1    1    2  505  501  0.33394936838E+02 -0.52707809483E+02  0.61757828691E+02  0.87791596360E+02  0.00000000000E+00 0.  1.
         21    1    1    2  506  503  0.30059743136E+02  0.40956674820E+02 -0.39850063283E+03  0.40172601576E+03  0.00000000000E+00 0.  1.
<scales pt_clust_3="74.86033" pt_clust_4="14000.00000" pt_clust_5="59.09669" pt_clust_6="50.80391"></scales>
<clustering>
<clus scale="   50.804">  2  6  1 -1</clus>
<clus scale="   59.097">  1  5  2 -1</clus>
<clus scale="   74.860">  2  3  1 -1</clus>
<clus scale="   59.097">  1  3  2 -1</clus>
</clustering>
</event>
<event>
 6    0  0.4227619E+002  0.6948318E+02  0.7546771E-02  0.1361859E+00
         21   -1    0    0  506  501  0.00000000000E+00  0.00000000000E+00  0.76321450036E+03  0.76321450036E+03  0.00000000000E+00 0.  1.
         21   -1    0    0  504  502 -0.00000000000E+00 -0.00000000000E+00 -0.67812494881E+02  0.67812494881E+02  0.00000000000E+00 0.  1.
         21    1    1    2  503  502 -0.23973961593E+02  0.53195344428E+02  0.18814037084E+01  0.58378379415E+02  0.00000000000E+00 0.  1.
         21    1    1    2  504  505  0.80072119078E+02 -0.75356584581E+02  0.63481231270E+02  0.12696466365E+03  0.00000000000E+00 0.  1.
         21    1    1    2  505  501 -0.54462124055E+02 -0.27829552100E+02  0.53314331366E+03  0.53663991635E+03  0.00000000000E+00 0.  1.
         21    1    1    2  506  503 -0.16360334307E+01  0.49990792252E+02  0.96896056842E+02  0.10904403582E+03  0.00000000000E+00 0.  1.
<scales pt_clust_3="14000.00000" pt_clust_4="69.48318" pt_clust_5="57.20822" pt_clust_6="50.01756"></scales>
<clustering>
<clus scale="   50.018">  1  6  2 -1</clus>
<clus scale="   57.208">  1  5  2 -1</clus>
<clus scale="   69.483">  1  4  2 -1</clus>
<clus scale="   50.018">  1  3  2 -1</clus>
</clustering>
</event>
<event>
 6    0  0.4227619E+002  0.9733633E+02  0.7546771E-02  0.1285999E+00
         21   -1    0    0  506  501  0.00000000000E+00  0.00000000000E+00  0.18476265573E+03  0.18476265573E+03  0.00000000000E+00 0. -1.
         21   -1    0    0  505  502 -0.00000000000E+00 -0.00000000000E+00 -0.20442863046E+03  0.20442863046E+03  0.00000000000E+00 0. -1.
         21    1    1    2  503  502  0.56797423820E+02  0.17107836217E+02 -0.92539486202E+02  0.10991897889E+03  0.00000000000E+00 0. -1.
         21    1    1    2  504  503  0.11556739957E+02  0.97422258241E+02  0.54613920600E+01  0.98257220816E+02  0.00000000000E+00 0. -1.
         21    1    1    2  505  501 -0.92397573054E+02 -0.65360617744E+02  0.42763185462E+02  0.12098765180E+03  0.00000000000E+00 0. -1.
         21    1    1    2  506  504  0.24043409277E+02 -0.49169476714E+02  0.24648933950E+02  0.60027434685E+02  0.00000000000E+00 0. -1.
<scales pt_clust_3="59.94806" pt_clust_4="97.33633" pt_clust_5="14000.00000" pt_clust_6="54.73320"></scales>
<clustering>
<clus scale="   54.733">  1  6  2 -1</clus>
<clus scale="   59.948">  2  3  1 -1</clus>
<clus scale="   97.336">  1  4  2 -1</clus>
<clus scale="   54.733">  1  3  2 -1</clus>
</clustering>
</event>
<event>
 6    0  0.4227619E+002  0.9001643E+02  0.7546771E-02  0.1302812E+00
         21   -1    0    0  505  501  0.00000000000E+00  0.00000000000E+00  0.11702979203E+03  0.11702979203E+03  0.00000000000E+00 0. -1.
         21   -1    0    0  504  502 -0.00000000000E+00 -0.00000000000E+00 -0.65328138805E+03  0.65328138805E+03  0.00000000000E+00 0.  1.
         21    1    1    2  503  502  0.39734379001E+02 -0.65256049161E+01 -0.20376150422E+03  0.20770208231E+03  0.00000000000E+00 0.  1.
         21    1    1    2  504  506 -0.79774672885E+01  0.91601855847E+02 -0.40810253400E+03  0.41833266456E+03  0.00000000000E+00 0.  1.
         21    1    1    2  505  503 -0.29705001973E+02  0.60530043937E+01  0.98416907823E+01  0.31872949061E+02  0.00000000000E+00 0. -1.
         21    1    1    2  506  501 -0.20519097397E+01 -0.91129255324E+02  0.65770751407E+02  0.11240348416E+03  0.00000000000E+00 0. -1.
<scales pt_clust_3="39.64605" pt_clust_4="90.01643" pt_clust_5="30.31544" pt_clust_6="14000.00000"></scales>
<clustering>
<clus scale="   30.315">  1  5  2 -1</clus>
<clus scale="   39.646">  2  3  1 -1</clus>
<clus scale="   90.016">  2  4  1 -1</clus>
<clus scale="   30.315">  1  3  2 -1</clus>
</clustering>
</event>
<event>
 6    0  0.4227619E+002  0.1292738E+03  0.7546771E-02  0.1228537E+00
         21   -1    0    0  504  501  0.00000000000E+00  0.00000000000E+00  0.39348590683E+03  0.39348590683E+03  0.00000000000E+00 0. -1.
         21   -1    0    0  503  502 -0.00000000000E+00 -0.00000000000E+00 -0.39061619751E+03  0.39061619751E+03  0.00000000000E+00 0. -1.
         21    1    1    2  503  505 -0.13957154426E+03  0.13084111722E+02  0.22658038204E+03  0.26643963570E+03  0.00000000000E+00 0. -1.
         21    1    1    2  504  506  0.12811429114E+03 -0.36395934986E+02 -0.22107045310E+03  0.25808928864E+03  0.00000000000E+00 0. -1.
         21    1    1    2  505  501  0.45072675900E+02  0.79950070762E+02  0.10119186191E+03  0.13661388233E+03  0.00000000000E+00 0. -1.
         21    1    1    2  506  502 -0.33615422775E+02 -0.56638247499E+02 -0.10383208154E+03  0.12295929768E+03  0.00000000000E+00 0. -1.
<scales pt_clust_3="129.27381" pt_clust_4="14000.00000" pt_clust_5="87.57323" pt_clust_6="65.86264"></scales>
<clustering>
<clus scale="   65.863">  2  6  1 -1</clus>
<clus scale="   87.573">  1  5  2 -1</clus>
<clus scale="  129.274">  1  3  2 -1</clus>
<clus scale="   87.573">  1  3  2 -1</clus>
</clustering>
</event>
<event>
 6    0  0.4227619E+002  0.1290582E+03  0.7546771E-02  0.1228860E+00
         21   -1    0    0  505  501  0.00000000000E+00  0.00000000000E+00  0.82209030339E+02  0.82209030339E+02  0.00000000000E+00 0. -1.
         21   -1    0    0  506  502 -0.00000000000E+00 -0.00000000000E+00 -0.50491123965E+03  0.50491123965E+03  0.00000000000E+00 0.  1.
         21    1    1    2  503  504 -0.11626064785E+03 -0.56361030929E+02 -0.32845075635E+03  0.35294900962E+03  0.00000000000E+00 0.  1.
         21    1    1    2  504  501  0.55593317835E+02  0.10804158919E+02 -0.46710571516E+02  0.73411336517E+02  0.00000000000E+00 0. -1.
         21    1    1    2  505  502  0.59196809886E+02  0.83741452046E+02 -0.37220160603E+01  0.10261942552E+03  0.00000000000E+00 0. -1.
         21    1    1    2  506  503  0.14705201327E+01 -0.38184580035E+02 -0.43818865386E+02  0.58140498327E+02  0.00000000000E+00 0.  1.
<scales pt_clust_3="129.05821" pt_clust_4="56.08362" pt_clust_5="14000.00000" pt_clust_6="38.21289"></scales>
<clustering>
<clus scale="   38.213">  2  6  1 -1</clus>
<clus scale="   56.084">  1  4  2 -1</clus>
<clus scale="  129.058">  2  3  1 -1</clus>
<clus scale="   56.084">  1  3  2 -1</clus>
</clustering>
</event>
<event>
 6    0  0.4227619E+002  0.1219605E+03  0.7546771E-02  0.1239898E+00
         21   -1    0    0  503  501  0.00000000000E+00  0.00000000000E+00  0.29553736950E+03  0.29553736950E+03  0.00000000000E+00 0.  1.
         21   -1    0    0  504  502 -0.00000000000E+00 -0.00000000000E+00 -0.87745338202E+03  0.87745338202E+03  0.00000000000E+00 0.  1.
         21    1    1    2  503  505 -0.67841776365E+02 -0.21483438643E+02  0.15205571322E+03  0.16788384281E+03  0.00000000000E+00 0.  1.
         21    1    1    2  504  501  0.17546788521E+02  0.35454063157E+02 -0.19903849067E+03  0.20293151838E+03  0.00000000000E+00 0.  1.
         21    1    1    2  505  506 -0.54917745885E+02  0.49466566250E+02  0.11720588131E+03  0.13856449258E+03  0.00000000000E+00 0.  1.
         21    1    1    2  506  502  0.10521273373E+03 -0.63437190765E+02 -0.65213911637E+03  0.66361089775E+03  0.00000000000E+00 0.  1.
<scales pt_clust_3="70.84196" pt_clust_4="39.55857" pt_clust_5="121.96045" pt_clust_6="14000.00000"></scales>
<clustering>
<clus scale="   39.559">  2  4  1 -1</clus>
<clus scale="   70.842">  1  3  2 -1</clus>
<clus scale="  121.960">  1  5  2 -1</clus>
<clus scale="   70.842">  1  3  2 -1</clus>
</clustering>
</event>
<event>
 6    0  0.4227619E+002  0.1220831E+03  0.7546771E-02  0.1239700E+00
         21   -1    0    0  504  501  0.00000000000E+00  0.00000000000E+00  0.65280033620E+02  0.65280033620E+02  0.00000000000E+00 0. -1.
         21   -1    0    0  505  502 -0.00000000000E+00 -0.00000000000E+00 -0.11601785521E+04  0.11601785521E+04  0.00000000000E+00 0.  1.
         21    1    1    2  503  506 -0.67677042742E+02  0.68980722544E+02 -0.74025939830E+02  0.12173069442E+03  0.00000000000E+00 0. -1.
         21    1    1    2  504  502  0.48055771794E+02 -0.15636097877E+03 -0.88006822649E+03  0.89514143919E+03  0.00000000000E+00 0.  1.
         21    1    1    2  505  503 -0.35493064994E+01  0.38949070276E+02 -0.14920403770E+03  0.15424484600E+03  0.00000000000E+00 0.  1.
         21    1    1    2  506  501  0.23170577447E+02  0.48431185948E+02  0.83996855800E+01  0.54341606062E+02  0.00000000000E+00 0. -1.
<scales pt_clust_3="14000.00000" pt_clust_4="122.08307" pt_clust_5="39.11045" pt_clust_6="54.45584"></scales>
<clustering>
<clus scale="   39.110">  2  5  1 -1</clus>
<clus scale="   54.456">  1  6  2 -1</clus>
<clus scale="  122.083">  2  4  1 -1</clus>
<clus scale="   54.456">  1  3  2 -1</clus>
</clustering>
</event>
<event>
 6    0  0.4227619E+002  0.8432357E+02  0.7546771E-02  0.1317211E+00
         21   -1    0    0  505  501  0.00000000000E+00  0.00000000000E+00  0.78704985399E+03  0.78704985399E+03  0.00000000000E+00 0.  1.
         21   -1    0    0  504  502 -0.00000000000E+00 -0.00000000000E+00 -0.11236877580E+04  0.11236877580E+04  0.00000000000E+00 0. -1.
         21    1    1    2  503  506 -0.65949970166E+02 -0.60041524173E+02  0.98980315756E+02  0.13323470305E+03  0.00000000000E+00 0.  1.
         21    1    1    2  504  503  0.53062431234E+02  0.82443602722E+02 -0.83322535461E+03  0.83897381413E+03  0.00000000000E+00 0. -1.
         21    1    1    2  505  502  0.26239842652E+02 -0.53274449603E+02 -0.26677049040E+03  0.27330055044E+03  0.00000000000E+00 0. -1.
         21    1    1    2  506  501 -0.13352303720E+02  0.30872371054E+02  0.66437762525E+03  0.66522854437E+03  0.00000000000E+00 0.  1.
<scales pt_clust_3="84.32357" pt_clust_4="14000.00000" pt_clust_5="58.48874" pt_clust_6="33.63610"></scales>
<clustering>
<clus scale="   33.636">  1  6  2 -1</clus>
<clus scale="   58.489">  2  5  1 -1</clus>
<clus scale="   84.324">  1  3  2 -1</clus>
<clus scale="   33.636">  1  3  2 -1</clus>
</clustering>
</event>
<event>
 6    0  0.4227619E+002  0.7242135E+02  0.7546771E-02  0.1352047E+00
         21   -1    0    0  503  501  0.00000000000E+00  0.00000000000E+00  0.34034061380E+02  0.34034061380E+02  0.00000000000E+00 0. -1.
         21   -1    0    0  505  502 -0.00000000000E+00 -0.00000000000E+00 -0.21976607805E+04  0.21976607805E+04  0.00000000000E+00 0. -1.
         21    1    1    2  503  504 -0.67680315921E+01  0.99243089338E+02 -0.13119842855E+04  0.13157498860E+04  0.00000000000E+00 0. -1.
         21    1    1    2  504  502 -0.29892739958E+02 -0.30218816798E+02 -0.73175662509E+03  0.73299011669E+03  0.00000000000E+00 0. -1.
         21    1    1    2  505  506  0.55567983307E+02 -0.22082984333E+02 -0.11803297109E+03  0.13231493200E+03  0.00000000000E+00 0.  1.
         21    1    1    2  506  501 -0.18907211757E+02 -0.46941288207E+02 -0.18528374134E+01  0.50639907202E+02  0.00000000000E+00 0. -1.
<scales pt_clust_3="14000.00000" pt_clust_4="42.50591" pt_clust_5="72.42135" pt_clust_6="51.30898"></scales>
<clustering>
<clus scale="   42.506">  2  4  1 -1</clus>
<clus scale="   51.309">  1  6  2 -1</clus>
<clus scale="   72.421">  1  5  2 -1</clus>
<clus scale="   51.309">  1  3  2 -1</clus>
</clustering>
</event>
<event>
 6    0  0.4227619E+002  0.8443813E+02  0.7546771E-02  0.1316908E+00
         21   -1    0    0  504  501  0.00000000000E+00  0.00000000000E+00  0.71558265126E+03  0.71558265126E+03  0.00000000000E+00 0.  1.
         21   -1    0    0  503  502 -0.00000000000E+00 -0.00000000000E+00 -0.10015990116E+03  0.10015990116E+03  0.00000000000E+00 0.  1.
         21    1    1    2  503  506 -0.26195284251E+02  0.27712181916E+02 -0.16781067006E+02  0.41662478964E+02  0.00000000000E+00 0.  1.
         21    1    1    2  504  505 -0.95205603480E+01  0.63055694589E+02  0.12460379116E+03  0.13997416355E+03  0.00000000000E+00 0.  1.
         21    1    1    2  505  502 -0.15849237118E+02 -0.10901475753E+03 -0.12743361438E+02  0.11089548655E+03  0.00000000000E+00 0.  1.
         21    1    1    2  506  501  0.51565081717E+02  0.18246881025E+02  0.52034338738E+03  0.52321042336E+03  0.00000000000E+00 0.  1.
<scales pt_clust_3="38.13342" pt_clust_4="84.43813" pt_clust_5="14000.00000" pt_clust_6="54.39067"></scales>
<clustering>
<clus scale="   38.133">  2  3  1 -1</clus>
<clus scale="   54.391">  1  6  2 -1</clus>
<clus scale="   84.438">  1  4  2 -1</clus>
<clus scale="   54.391">  1  3  2 -1</clus>
</clustering>
</event>
<event>
 6    0  0.4227619E+002  0.6936313E+02  0.7546771E-02  0.1362272E+00
         21   -1    0    0  506  501  0.00000000000E+00  0.00000000000E+00  0.19002501874E+03  0.19002501874E+03  0.00000000000E+00 0.  1.
         21   -1    0    0  505  502 -0.00000000000E+00 -0.00000000000E+00 -0.83805732680E+03  0.83805732680E+03  0.00000000000E+00 0.  1.
         21    1    1    2  503  502 -0.29073067379E+02 -0.38736295935E+02 -0.16319207580E+03  0.17022748742E+03  0.00000000000E+00 0.  1.
         21    1    1    2  504  501 -0.58801545242E+02 -0.33685503888E+02  0.14676455181E+03  0.16165447276E+03  0.00000000000E+00 0.  1.
         21    1    1    2  505  504  0.44269414813E+02  0.97921122904E+02 -0.61409124577E+02  0.12377159601E+03  0.00000000000E+00 0.  1.
         21    1    1    2  506  503  0.43605197809E+02 -0.25499323080E+02 -0.57019565950E+03  0.57242878934E+03  0.00000000000E+00 0.  1.
<scales pt_clust_3="48.43288" pt_clust_4="69.36313" pt_clust_5="14000.00000" pt_clust_6="61.43173"></scales>
<clustering>
<clus scale="   48.433">  2  3  1 -1</clus>
<clus scale="   61.432">  2  6  1 -1</clus>
<clus scale="   69.363">  1  4  2 -1</clus>
<clus scale="   69.363">  1  3  2 -1</clus>
</clustering>
</event>
<event>
 6    0  0.4227619E+002  0.8670994E+02  0.7546771E-02  0.1311020E+00
         21   -1    0    0  506  501  0.00000000000E+00  0.00000000000E+00  0.11615821464E+03  0.11615821464E+03  0.00000000000E+00 0.  1.
         21   -1    0    0  504  502 -0.00000000000E+00 -0.00000000000E+00 -0.13135113027E+04  0.13135113027E+04  0.00000000000E+00 0.  1.
         21    1    1    2  503  505  0.75331147257E+02  0.87382616006E+02 -0.17215242849E+03  0.20723648801E+03  0.00000000000E+00 0. -1.
         21    1    1    2  504  501 -0.44020776483E+02 -0.64465220985E+02 -0.80610269546E+03  0.80987353896E+03  0.00000000000E+00 0.  1.
         21    1    1    2  505  502  0.43573970895E+02  0.16383818844E+02 -0.29516423091E+03  0.29881272340E+03  0.00000000000E+00 0. -1.
         21    1    1    2  506  503 -0.74884341669E+02 -0.39301213864E+02  0.76066266832E+02  0.11374676694E+03  0.00000000000E+00 0.  1.
<scales pt_clust_3="86.70994" pt_clust_4="52.29168" pt_clust_5="46.55234" pt_clust_6="14000.00000"></scales>
<clustering>
<clus scale="   46.552">  2  5  1 -1</clus>
<clus scale="   52.292">  2  4  1 -1</clus>
<clus scale="   86.710">  2  3  1 -1</clus>
<clus scale="   86.710">  1  3  2 -1</clus>
</clustering>
</event>
<event>
 6    0  0.4227619E+002  0.1849240E+03  0.7546771E-02  0.1163121E+00
         21   -1    0    0  504  501  0.00000000000E+00  0.00000000000E+00  0.10576990102E+04  0.10576990102E+04  0.00000000000E+00 0.  1.
         21   -1    0    0  506  502 -0.00000000000E+00 -0.00000000000E+00 -0.43001024721E+02  0.43001024721E+02  0.00000000000E+00 0.  1.
         21    1    1    2  503  505  0.92883122887E+02 -0.20813790719E+02  0.13623482856E+03  0.16619391359E+03  0.00000000000E+00 0.  1.
         21    1    1    2  504  503  0.30577993226E+02 -0.42691944921E+02  0.22076691175E+03  0.22692651928E+03  0.00000000000E+00 0.  1.
         21    1    1    2  505  502  0.57984149198E+02  0.52668283009E+02  0.17249395303E+03  0.18944728403E+03  0.00000000000E+00 0.  1.
         21    1    1    2  506  501 -0.18144526531E+03  0.10837452631E+02  0.48520229217E+03  0.51813231805E+03  0.00000000000E+00 0.  1.
<scales pt_clust_3="74.92818" pt_clust_4="52.51301" pt_clust_5="74.92818" pt_clust_6="163.72334"></scales>
<clustering>
<clus scale="   52.513">  1  4  2 -1</clus>
<clus scale="   74.928">  3  5 -1 -1</clus>
<clus scale="  163.723">  1  6  2 -1</clus>
<clus scale="   52.513">  1  3  2 -1</clus>
</clustering>
</event>
<event>
 6    0  0.4227619E+002  0.9928003E+02  0.7546771E-02  0.1281817E+00
         21   -1    0    0  505  501  0.00000000000E+00  0.00000000000E+00  0.13041746554E+03  0.13041746554E+03  0.00000000000E+00 0.  1.
         21   -1    0    0  503  502 -0.00000000000E+00 -0.00000000000E+00 -0.38143529425E+03  0.38143529425E+03  0.00000000000E+00 0.  1.
         21    1    1    2  503  506 -0.42140213891E+02  0.88958959012E+02 -0.29504175759E+03  0.31102915095E+03  0.00000000000E+00 0.  1.
         21    1    1    2  504  502  0.35451554642E+02 -0.10082638040E+03  0.24414491975E+02  0.10963046625E+03  0.00000000000E+00 0.  1.
         21    1    1    2  505  504  0.36966857660E+02  0.29893149634E+02  0.27722535782E+02  0.55033516611E+02  0.00000000000E+00 0.  1.
         21    1    1    2  506  501 -0.30278198412E+02 -0.18025728248E+02 -0.81130988737E+01  0.36159625983E+02  0.00000000000E+00 0. -1.
<scales pt_clust_3="99.28003" pt_clust_4="14000.00000" pt_clust_5="35.18725" pt_clust_6="35.23771"></scales>
<clustering>
<clus scale="   35.238">  1  6  2 -1</clus>
<clus scale="   35.187">  1  5  2 -1</clus>
<clus scale="   99.280">  2  3  1 -1</clus>
<clus scale="   35.238">  1  3  2 -1</clus>
</clustering>
</event>
<event>
 6    0  0.4227619E+002  0.7471549E+02  0.7546771E-02  0.1344754E+00
         21   -1    0    0  503  501  0.00000000000E+00  0.00000000000E+00  0.61600604733E+03  0.61600604733E+03  0.00000000000E+00 0. -1.
         21   -1    0    0  506  502 -0.00000000000E+00 -0.00000000000E+00 -0.20141241543E+03  0.20141241543E+03  0.00000000000E+00 0. -1.
         21    1    1    2  503  505  0.42546789855E+02 -0.16223225527E+01  0.32305766576E+03  0.32585137205E+03  0.00000000000E+00 0. -1.
         21    1    1    2  504  501 -0.10754754859E+03  0.37741610862E+02  0.26662532870E+03  0.28996546398E+03  0.00000000000E+00 0. -1.
         21    1    1    2  505  502  0.29140730065E+01 -0.35952570748E+02 -0.83432364170E+02  0.90895756534E+02  0.00000000000E+00 0. -1.
         21    1    1    2  506  504  0.62086685726E+02 -0.16671756086E+00 -0.91656998396E+02  0.11070587019E+03  0.00000000000E+00 0. -1.
<scales pt_clust_3="42.63231" pt_clust_4="14000.00000" pt_clust_5="36.07047" pt_clust_6="74.71549"></scales>
<clustering>
<clus scale="   36.070">  2  5  1 -1</clus>
<clus scale="   42.632">  1  3  2 -1</clus>
<clus scale="   74.715">  2  6  1 -1</clus>
<clus scale="   42.632">  1  3  2 -1</clus>
</clustering>
</event>
<event>
 6    0  0.4227619E+002  0.8889944E+02  0.7546771E-02  0.1305539E+00
         21   -1    0    0  506  501  0.00000000000E+00  0.00000000000E+00  0.24907800004E+03  0.24907800004E+03  0.00000000000E+00 0.  1.
         21   -1    0    0  505  502 -0.00000000000E+00 -0.00000000000E+00 -0.18143290335E+03  0.18143290335E+03  0.00000000000E+00 0.  1.
         21    1    1    2  503  501  0.82280080801E+02 -0.15322898406E+02  0.14141919584E+03  0.16432952219E+03  0.00000000000E+00 0.  1.
         21    1    1    2  504  503 -0.13473464836E+03 -0.36332919389E+02 -0.30240047318E+02  0.14278643830E+03  0.00000000000E+00 0.  1.
         21    1    1    2  505  504  0.28928484634E+01  0.62922976529E+02 -0.34346110202E+02  0.71744859283E+02  0.00000000000E+00 0. -1.
         21    1    1    2  506  502  0.49561719098E+02 -0.11267158735E+02 -0.91879416348E+01  0.51650083614E+02  0.00000000000E+00 0. -1.
<scales pt_clust_3="14000.00000" pt_clust_4="88.89944" pt_clust_5="62.36243" pt_clust_6="50.82630"></scales>
<clustering>
<clus scale="   50.826">  2  6  1 -1</clus>
<clus scale="   62.362">  2  5  1 -1</clus>
<clus scale="   88.899">  2  4  1 -1</clus>
<clus scale="   88.899">  1  3  2 -1</clus>
</clustering>
</event>
<event>
 6    0  0.4227619E+002  0.1006931E+03  0.7546771E-02  0.1278845E+00
         21   -1    0    0  503  501  0.00000000000E+00  0.00000000000E+00  0.17241073427E+03  0.17241073427E+03  0.00000000000E+00 0. -1.
         21   -1    0    0  506  502 -0.00000000000E+00 -0.00000000000E+00 -0.47884443444E+03  0.47884443444E+03  0.00000000000E+00 0. -1.
         21    1    1    2  503  504  0.48912219437E+02 -0.78798456262E+02 -0.96987909721E+01  0.93250568180E+02  0.00000000000E+00 0. -1.
         21    1    1    2  504  505  0.57755916003E+02 -0.36543007373E+01 -0.31582328676E+03  0.32108168463E+03  0.00000000000E+00 0. -1.
         21    1    1    2  505  502  0.81825585535E+00  0.47883988068E+02 -0.75649070261E+02  0.89533947122E+02  0.00000000000E+00 0. -1.
         21    1    1    2  506  501 -0.10748639130E+03  0.34568768932E+02  0.94737447812E+02  0.14738896878E+03  0.00000000000E+00 0. -1.
<scales pt_clust_3="14000.00000" pt_clust_4="68.00836" pt_clust_5="47.89098" pt_clust_6="100.69311"></scales>
<clustering>
<clus scale="   47.891">  2  5  1 -1</clus>
<clus scale="   68.008">  2  4  1 -1</clus>
<clus scale="  100.693">  1  6  2 -1</clus>
<clus scale="  100.693">  1  3  2 -1</clus>
</clustering>
</event>
<event>
 6    0  0.6878860E+002  0.1207918E+03  0.7546771E-02  0.1241796E+00
         21   -1    0    0  503  501  0.00000000000E+00  0.00000000000E+00  0.46200800992E+03  0.46200800992E+03  0.00000000000E+00 0.  1.
         21   -1    0    0  506  502 -0.00000000000E+00 -0.00000000000E+00 -0.16081140730E+04  0.16081140730E+04  0.00000000000E+00 0.  1.
         21    1    1    2  503  502 -0.27041382118E+02  0.25184654007E+02 -0.56899551862E+02  0.67845870519E+02  0.00000000000E+00 0.  1.
         21    1    1    2  504  505  0.12756238459E+03  0.89117452484E+02 -0.10130011611E+03  0.18567658932E+03  0.00000000000E+00 0.  1.
         21    1    1    2  505  501 -0.49205547415E+01 -0.10821789844E+03  0.40559342365E+03  0.41981108931E+03  0.00000000000E+00 0.  1.
         21    1    1    2  506  504 -0.95600447727E+02 -0.60842080525E+01 -0.13934998187E+04  0.13967885337E+04  0.00000000000E+00 0.  1.
<scales pt_clust_3="36.95271" pt_clust_4="120.79181" pt_clust_5="108.21973" pt_clust_6="14000.00000"></scales>
<clustering>
<clus scale="   36.953">  2  3  1 -1</clus>
<clus scale="  108.220">  1  5  2 -1</clus>
<clus scale="  120.792">  1  4  2 -1</clus>
<clus scale="  108.220">  1  3  2 -1</clus>
</clustering>
</event>
<event>
 6    0  0.4227619E+002  0.1125592E+03  0.7546771E-02  0.1255903E+00
         21   -1    0    0  505  501  0.00000000000E+00  0.00000000000E+00  0.19624033725E+04  0.19624033725E+04  0.00000000000E+00 0.  1.
         21   -1    0    0  506  502 -0.00000000000E+00 -0.00000000000E+00 -0.72787771871E+02  0.72787771871E+02  0.00000000000E+00 0. -1.
         21    1    1    2  503  504 -0.70690944254E+02 -0.62381880156E+02  0.71282795911E+02  0.11819452426E+03  0.00000000000E+00 0. -1.
         21    1    1    2  504  502 -0.61428574419E+02 -0.29372184210E+01 -0.80848032939E+01  0.62027905425E+02  0.00000000000E+00 0. -1.
         21    1    1    2  505  503  0.11592720419E+03 -0.11576484350E+02  0.17131749493E+04  0.17171317767E+04  0.00000000000E+00 0.  1.
         21    1    1    2  506  501  0.16192314485E+02  0.76895582927E+02  0.11324265873E+03  0.13783693801E+03  0.00000000000E+00 0. -1.
<scales pt_clust_3="112.55924" pt_clust_4="61.49876" pt_clust_5="14000.00000" pt_clust_6="76.03473"></scales>
<clustering>
<clus scale="   61.499">  2  4  1 -1</clus>
<clus scale="   76.035">  2  6  1 -1</clus>
<clus scale="  112.559">  2  3  1 -1</clus>
<clus scale="  112.559">  1  3  2 -1</clus>
</clustering>
</event>
<event>
 6    0  0.4227619E+002  0.9290658E+02  0.7546771E-02  0.1295962E+00
         21   -1    0    0  505  501  0.00000000000E+00  0.00000000000E+00  0.50796713481E+03  0.50796713481E+03  0.00000000000E+00 0.  1.
         21   -1    0    0  503  502 -0.00000000000E+00 -0.00000000000E+00 -0.37113926756E+03  0.37113926756E+03  0.00000000000E+00 0. -1.
         21    1    1    2  503  501  0.15456325885E+03  0.50666941235E+02  0.34721983647E+03  0.38342998677E+03  0.00000000000E+00 0.  1.
         21    1    1    2  504  502 -0.84965840561E+02 -0.34540177733E+02 -0.32976145320E+03  0.34227888330E+03  0.00000000000E+00 0. -1.
         21    1    1    2  505  506 -0.24610100751E+02 -0.19850406647E+02  0.98901929092E+02  0.10383297781E+03  0.00000000000E+00 0.  1.
         21    1    1    2  506  504 -0.44987317533E+02  0.37236431451E+01  0.20467554889E+02  0.49564554474E+02  0.00000000000E+00 0. -1.
<scales pt_clust_3="92.90658" pt_clust_4="14000.00000" pt_clust_5="31.61796" pt_clust_6="47.14976"></scales>
<clustering>
<clus scale="   31.618">  1  5  2 -1</clus>
<clus scale="   47.150">  1  6  2 -1</clus>
<clus scale="   92.907">  1  3  2 -1</clus>
<clus scale="   31.618">  1  3  2 -1</clus>
</clustering>
</event>
<event>
 6    0  0.4227619E+002  0.9018951E+02  0.7546771E-02  0.1302393E+00
         21   -1    0    0  503  501  0.00000000000E+00  0.00000000000E+00  0.11224101596E+04  0.11224101596E+04  0.00000000000E+00 0.  1.
         21   -1    0    0  506  502 -0.00000000000E+00 -0.00000000000E+00 -0.22818130962E+03  0.22818130962E+03  0.00000000000E+00 0. -1.
         21    1    1    2  503  504  0.61142589364E+02  0.69067159916E+01  0.88171008495E+03  0.88385450888E+03  0.00000000000E+00 0.  1.
         21    1    1    2  504  502 -0.13417458531E+03  0.11582461855E+02 -0.10703624986E+03  0.17202828706E+03  0.00000000000E+00 0. -1.
         21    1    1    2  505  501  0.20453257795E+02  0.33535859335E+02  0.18912729333E+03  0.19316346109E+03  0.00000000000E+00 0. -1.
         21    1    1    2  506  505  0.52578738148E+02 -0.52025037182E+02 -0.69572278430E+02  0.10154521222E+03  0.00000000000E+00 0. -1.
<scales pt_clust_3="90.18951" pt_clust_4="14000.00000" pt_clust_5="39.28091" pt_clust_6="73.81466"></scales>
<clustering>
<clus scale="   39.281">  1  5  2 -1</clus>
<clus scale="   73.815">  2  6  1 -1</clus>
<clus scale="   90.190">  1  3  2 -1</clus>
<clus scale="   39.281">  1  3  2 -1</clus>
</clustering>
</event>
<event>
 6    0  0.4227619E+002  0.1266260E+03  0.7546771E-02  0.1232550E+00
         21   -1    0    0  505  501  0.00000000000E+00  0.00000000000E+00  0.15724662792E+03  0.15724662792E+03  0.00000000000E+00 0. -1.
         21   -1    0    0  504  502 -0.00000000000E+00 -0.00000000000E+00 -0.67918005007E+03  0.67918005007E+03  0.00000000000E+00 0.  1.
         21    1    1    2  503  501 -0.41395833785E+02  0.17763928335E+03 -0.22670181119E+03  0.29096914138E+03  0.00000000000E+00 0.  1.
         21    1    1    2  504  503 -0.17258986669E+02 -0.62095033794E+02 -0.36100505340E+03  0.36671285009E+03  0.00000000000E+00 0.  1.
         21    1    1    2  505  506 -0.10880316793E+02 -0.48153214014E+02  0.65362219472E+02  0.81910518541E+02  0.00000000000E+00 0. -1.
         21    1    1    2  506  502  0.69535137247E+02 -0.67391035539E+02  0.41122296408E+00  0.96834167974E+02  0.00000000000E+00 0. -1.
<scales pt_clust_3="14000.00000" pt_clust_4="66.13204" pt_clust_5="49.36713" pt_clust_6="126.62603"></scales>
<clustering>
<clus scale="   49.367">  1  5  2 -1</clus>
<clus scale="   66.132">  2  4  1 -1</clus>
<clus scale="  126.626">  1  6  2 -1</clus>
<clus scale="   49.367">  1  3  2 -1</clus>
</clustering>
</event>
<event>
 6    0  0.4227619E+002  0.9868499E+02  0.7546771E-02  0.1283086E+00
         21   -1    0    0  506  501  0.00000000000E+00  0.00000000000E+00  0.33041764948E+03  0.33041764948E+03  0.00000000000E+00 0.  1.
         21   -1    0    0  503  502 -0.00000000000E+00 -0.00000000000E+00 -0.19823096427E+03  0.19823096427E+03  0.00000000000E+00 0.  1.
         21    1    1    2  503  504  0.27453672875E+02 -0.15744641213E+02  0.65706545554E+01  0.32322923484E+02  0.00000000000E+00 0.  1.
         21    1    1    2  504  501 -0.96926858221E+02 -0.20009193245E+02  0.24679580987E+03  0.26590102562E+03  0.00000000000E+00 0.  1.
         21    1    1    2  505  502 -0.87072499988E+01 -0.49462871341E+02 -0.10132120058E+03  0.11308570878E+03  0.00000000000E+00 0.  1.
         21    1    1    2  506  505  0.78180435344E+02  0.85216705800E+02 -0.19858578629E+02  0.11733895586E+03  0.00000000000E+00 0.  1.
<scales pt_clust_3="31.64803" pt_clust_4="98.68499" pt_clust_5="59.00646" pt_clust_6="14000.00000"></scales>
<clustering>
<clus scale="   31.648">  2  3  1 -1</clus>
<clus scale="   59.006">  2  5  1 -1</clus>
<clus scale="   98.685">  1  4  2 -1</clus>
<clus scale="   98.685">  1  3  2 -1</clus>
</clustering>
</event>
<event>
 6    0  0.4227619E+002  0.1096459E+03  0.7546771E-02  0.1261227E+00
         21   -1    0    0  505  501  0.00000000000E+00  0.00000000000E+00  0.93364355953E+03  0.93364355953E+03  0.00000000000E+00 0.  1.
         21   -1    0    0  504  502 -0.00000000000E+00 -0.00000000000E+00 -0.45425814346E+02  0.45425814346E+02  0.00000000000E+00 0.  1.
         21    1    1    2  503  502  0.25413668310E+02  0.32230411517E+02  0.21149695440E+02  0.46173191148E+02  0.00000000000E+00 0.  1.
         21    1    1    2  504  506  0.69656158566E+02 -0.73650459368E+02  0.10483682005E+03  0.14583253899E+03  0.00000000000E+00 0.  1.
         21    1    1    2  505  503 -0.10962291398E+03  0.92228406639E+02  0.55027344057E+03  0.56861597028E+03  0.00000000000E+00 0.  1.
         21    1    1    2  506  501  0.14553087108E+02 -0.50808358788E+02  0.21195778912E+03  0.21844767345E+03  0.00000000000E+00 0.  1.
<scales pt_clust_3="41.04454" pt_clust_4="109.64592" pt_clust_5="14000.00000" pt_clust_6="50.59338"></scales>
<clustering>
<clus scale="   41.045">  2  3  1 -1</clus>
<clus scale="   50.593">  1  6  2 -1</clus>
<clus scale="  109.646">  2  4  1 -1</clus>
<clus scale="   50.593">  1  3  2 -1</clus>
</clustering>
</event>
<event>
 6    0  0.4227619E+002  0.8926017E+02  0.7546771E-02  0.1304653E+00
         21   -1    0    0  504  501  0.00000000000E+00  0.00000000000E+00  0.38935557818E+04  0.38935557818E+04  0.00000000000E+00 0.  1.
         21   -1    0    0  505  502 -0.00000000000E+00 -0.00000000000E+00 -0.15907704995E+02  0.15907704995E+02  0.00000000000E+00 0.  1.
         21    1    1    2  503  501 -0.31059970242E+02 -0.15213775898E+02  0.18229848023E+04  0.18233128558E+04  0.00000000000E+00 0.  1.
         21    1    1    2  504  502 -0.23667469044E+02  0.11660921055E+03  0.13873234644E+04  0.13924166948E+04  0.00000000000E+00 0.  1.
         21    1    1    2  505  506  0.71647409331E+01 -0.85742453564E+02  0.14214419285E+03  0.16615677361E+03  0.00000000000E+00 0.  1.
         21    1    1    2  506  503  0.47562698353E+02 -0.15652981092E+02  0.52519561725E+03  0.52757716257E+03  0.00000000000E+00 0. -1.
<scales pt_clust_3="34.58585" pt_clust_4="89.26017" pt_clust_5="14000.00000" pt_clust_6="44.20920"></scales>
<clustering>
<clus scale="   34.586">  1  3  2 -1</clus>
<clus scale="   44.209">  1  6  2 -1</clus>
<clus scale="   89.260">  1  4  2 -1</clus>
<clus scale="   34.586">  1  3  2 -1</clus>
</clustering>
</event>
<event>
 6    0  0.4227619E+002  0.1149703E+03  0.7546771E-02  0.1251633E+00
         21   -1    0    0  503  501  0.00000000000E+00  0.00000000000E+00  0.11794300702E+03  0.11794300702E+03  0.00000000000E+00 0.  1.
         21   -1    0    0  504  502 -0.00000000000E+00 -0.00000000000E+00 -0.49843034665E+03  0.49843034665E+03  0.00000000000E+00 0. -1.
         21    1    1    2  503  505 -0.20220261330E+02  0.49213280729E+02  0.67197136723E+01  0.53627982622E+02  0.00000000000E+00 0.  1.
         21    1    1    2  504  501  0.12744344067E+03 -0.79738871712E+02 -0.36271653490E+03  0.39263647681E+03  0.00000000000E+00 0. -1.
         21    1    1    2  505  506 -0.86153363012E+02  0.18825285881E+01  0.41120411536E+02  0.95482114122E+02  0.00000000000E+00 0.  1.
         21    1    1    2  506  502 -0.21069816331E+02  0.28643062396E+02 -0.65610929932E+02  0.74626780114E+02  0.00000000000E+00 0.  1.
<scales pt_clust_3="55.09661" pt_clust_4="114.97031" pt_clust_5="14000.00000" pt_clust_6="35.55787"></scales>
<clustering>
<clus scale="   35.558">  2  6  1 -1</clus>
<clus scale="   55.097">  1  3  2 -1</clus>
<clus scale="  114.970">  2  4  1 -1</clus>
<clus scale="   55.097">  1  3  2 -1</clus>
</clustering>
</event>
<event>
 6    0  0.4227619E+002  0.1001675E+03  0.7546771E-02  0.1279944E+00
         21   -1    0    0  503  501  0.00000000000E+00  0.00000000000E+00  0.12401380186E+04  0.12401380186E+04  0.00000000000E+00 0. -1.
         21   -1    0    0  505  502 -0.00000000000E+00 -0.00000000000E+00 -0.45797463972E+02  0.45797463972E+02  0.00000000000E+00 0.  1.
         21    1    1    2  503  502  0.90830195127E+02 -0.58847028946E+02  0.10909255352E+04  0.10962808128E+04  0.00000000000E+00 0. -1.
         21    1    1    2  504  501 -0.13583108914E+02  0.64355868482E+02  0.44830502365E+02  0.79598697214E+02  0.00000000000E+00 0.  1.
         21    1    1    2  505  506 -0.30077843245E+02 -0.26945196195E+00 -0.52276992145E+01  0.30529954105E+02  0.00000000000E+00 0.  1.
         21    1    1    2  506  504 -0.47169242968E+02 -0.52393875742E+01  0.63812216272E+02  0.79526018446E+02  0.00000000000E+00 0. -1.
<scales pt_clust_3="100.16749" pt_clust_4="14000.00000" pt_clust_5="30.07905" pt_clust_6="55.88712"></scales>
<clustering>
<clus scale="   30.079">  2  5  1 -1</clus>
<clus scale="   55.887">  2  6  1 -1</clus>
<clus scale="  100.167">  1  3  2 -1</clus>
<clus scale="  100.167">  1  3  2 -1</clus>
</clustering>
</event>
<event>
 6    0  0.4227619E+002  0.1052323E+03  0.7546771E-02  0.1269663E+00
         21   -1    0    0  504  501  0.00000000000E+00  0.00000000000E+00  0.30934452884E+03  0.30934452884E+03  0.00000000000E+00 0. -1.
         21   -1    0    0  506  502 -0.00000000000E+00 -0.00000000000E+00 -0.28830566067E+03  0.28830566067E+03  0.00000000000E+00 0. -1.
         21    1    1    2  503  501  0.95396396528E+02  0.78657219288E+02  0.76684597443E+02  0.14549212385E+03  0.00000000000E+00 0. -1.
         21    1    1    2  504  502 -0.81745436762E+02 -0.54694139738E+02  0.17078030726E+03  0.19707784934E+03  0.00000000000E+00 0. -1.
         21    1    1    2  505  503 -0.24487772572E+02 -0.58659044239E+02 -0.70291553764E+02  0.94770443743E+02  0.00000000000E+00 0. -1.
         21    1    1    2  506  505  0.10836812807E+02  0.34695964688E+02 -0.15613448277E+03  0.16030977258E+03  0.00000000000E+00 0. -1.
<scales pt_clust_3="105.23235" pt_clust_4="14000.00000" pt_clust_5="40.65894" pt_clust_6="36.34895"></scales>
<clustering>
<clus scale="   36.349">  2  6  1 -1</clus>
<clus scale="   40.659">  2  5  1 -1</clus>
<clus scale="  105.232">  2  3  1 -1</clus>
<clus scale="  105.232">  1  3  2 -1</clus>
</clustering>
</event>
<event>
 6    0  0.4227619E+002  0.1780595E+03  0.7546771E-02  0.1169694E+00
         21   -1    0    0  504  501  0.00000000000E+00  0.00000000000E+00  0.37200799609E+03  0.37200799609E+03  0.00000000000E+00 0. -1.
         21   -1    0    0  506  502 -0.00000000000E+00 -0.00000000000E+00 -0.84985442427E+03  0.84985442427E+03  0.00000000000E+00 0. -1.
         21    1    1    2  503  502  0.69170818042E+02 -0.91741890188E+02 -0.71618309105E+03  0.72534088289E+03  0.00000000000E+00 0. -1.
         21    1    1    2  504  503 -0.95179488475E+02  0.19118152616E+03  0.16651237539E+03  0.27080598614E+03  0.00000000000E+00 0. -1.
         21    1    1    2  505  501  0.50836166531E+01 -0.36661614974E+02  0.13149914852E+03  0.13660872311E+03  0.00000000000E+00 0. -1.
         21    1    1    2  506  505  0.20925053780E+02 -0.62778020998E+02 -0.59674861036E+02  0.89106828222E+02  0.00000000000E+00 0. -1.
<scales pt_clust_3="178.05948" pt_clust_4="14000.00000" pt_clust_5="37.01239" pt_clust_6="68.42519"></scales>
<clustering>
<clus scale="   37.012">  1  5  2 -1</clus>
<clus scale="   68.425">  2  6  1 -1</clus>
<clus scale="  178.059">  2  3  1 -1</clus>
<clus scale="   37.012">  1  3  2 -1</clus>
</clustering>
</event>
<event>
 6    0  0.4227619E+002  0.1085936E+03  0.7546771E-02  0.1263197E+00
         21   -1    0    0  506  501  0.00000000000E+00  0.00000000000E+00  0.23251552109E+02  0.23251552109E+02  0.00000000000E+00 0.  1.
         21   -1    0    0  503  502 -0.00000000000E+00 -0.00000000000E+00 -0.12208458369E+04  0.12208458369E+04  0.00000000000E+00 0.  1.
         21    1    1    2  503  501 -0.13227121213E+03  0.27605291934E+02 -0.43840353567E+03  0.45875416705E+03  0.00000000000E+00 0.  1.
         21    1    1    2  504  505  0.46229299207E+02 -0.21635967901E+02 -0.14606465729E+03  0.15472603957E+03  0.00000000000E+00 0.  1.
         21    1    1    2  505  502  0.51890347578E+02  0.16487865336E+01 -0.58036775541E+03  0.58268521364E+03  0.00000000000E+00 0.  1.
         21    1    1    2  506  504  0.34151565340E+02 -0.76181105668E+01 -0.32758336442E+02  0.47931968771E+02  0.00000000000E+00 0. -1.
<scales pt_clust_3="100.08419" pt_clust_4="34.89010" pt_clust_5="51.91654" pt_clust_6="34.89010"></scales>
<clustering>
<clus scale="   34.890">  4  6 -1 -1</clus>
<clus scale="   51.917">  2  5  1 -1</clus>
<clus scale="  100.084">  2  3  1 -1</clus>
<clus scale="  108.594">  1  3  2 -1</clus>
</clustering>
</event>
<event>
 6    0  0.4227619E+002  0.1183241E+03  0.7546771E-02  0.1245888E+00
         21   -1    0    0  506  501  0.00000000000E+00  0.00000000000E+00  0.78679945218E+03  0.78679945218E+03  0.00000000000E+00 0. -1.
         21   -1    0    0  503  502 -0.00000000000E+00 -0.00000000000E+00 -0.46894655028E+02  0.46894655028E+02  0.00000000000E+00 0. -1.
         21    1    1    2  503  504  0.45229562882E+02 -0.15867625634E+02  0.33530388526E+02  0.58495998636E+02  0.00000000000E+00 0. -1.
         21    1    1    2  504  505 -0.12673243188E+03 -0.75998619743E+02  0.25772101867E+03  0.29708083573E+03  0.00000000000E+00 0. -1.
         21    1    1    2  505  501  0.31077483328E+02  0.10384961452E+03  0.24386758604E+03  0.26687441228E+03  0.00000000000E+00 0. -1.
         21    1    1    2  506  502  0.50425385667E+02 -0.11983369143E+02  0.20478580392E+03  0.21124286057E+03  0.00000000000E+00 0.  1.
<scales pt_clust_3="47.93219" pt_clust_4="118.32414" pt_clust_5="14000.00000" pt_clust_6="56.30434"></scales>
<clustering>
<clus scale="   47.932">  2  3  1 -1</clus>
<clus scale="   56.304">  1  6  2 -1</clus>
<clus scale="  118.324">  2  4  1 -1</clus>
<clus scale="   56.304">  1  3  2 -1</clus>
</clustering>
</event>
<event>
 6    0  0.4227619E+002  0.1342282E+03  0.7546771E-02  0.1221313E+00
         21   -1    0    0  505  501  0.00000000000E+00  0.00000000000E+00  0.32920719609E+04  0.32920719609E+04  0.00000000000E+00 0.  1.
         21   -1    0    0  503  502 -0.00000000000E+00 -0.00000000000E+00 -0.23981857534E+03  0.23981857534E+03  0.00000000000E+00 0. -1.
         21    1    1    2  503  504  0.42169734905E+02  0.93270161232E+02 -0.21845906314E+03  0.24125084826E+03  0.00000000000E+00 0. -1.
         21    1    1    2  504  501 -0.28254298015E+02 -0.94953138197E+02  0.28733491932E+04  0.28750565194E+04  0.00000000000E+00 0.  1.
         21    1    1    2  505  506 -0.51151494817E+02 -0.15215507606E+02  0.34521006281E+03  0.34931071349E+03  0.00000000000E+00 0.  1.
         21    1    1    2  506  502  0.37236057927E+02  0.16898484571E+02  0.52153192678E+02  0.66272455042E+02  0.00000000000E+00 0.  1.
<scales pt_clust_3="134.22819" pt_clust_4="14000.00000" pt_clust_5="53.00973" pt_clust_6="40.89111"></scales>
<clustering>
<clus scale="   40.891">  2  6  1 -1</clus>
<clus scale="   53.010">  1  5  2 -1</clus>
<clus scale="  134.228">  2  3  1 -1</clus>
<clus scale="   53.010">  1  3  2 -1</clus>
</clustering>
</event>
<event>
 6    0  0.4227619E+002  0.7618259E+02  0.7546771E-02  0.1340248E+00
         21   -1    0    0  503  501  0.00000000000E+00  0.00000000000E+00  0.93334559147E+03  0.93334559147E+03  0.00000000000E+00 0. -1.
         21   -1    0    0  505  502 -0.00000000000E+00 -0.00000000000E+00 -0.23561269281E+03  0.23561269281E+03  0.00000000000E+00 0. -1.
         21    1    1    2  503  502 -0.38660425098E+02 -0.12877054991E+03  0.42877042423E+02  0.14112024575E+03  0.00000000000E+00 0. -1.
         21    1    1    2  504  501  0.28286591076E+02  0.58335282264E+02  0.82524113939E+03  0.82778383321E+03  0.00000000000E+00 0. -1.
         21    1    1    2  505  506  0.34865844283E+02  0.15295099757E+02 -0.34511585833E+02  0.51386931518E+02  0.00000000000E+00 0. -1.
         21    1    1    2  506  504 -0.24492010261E+02  0.55140167889E+02 -0.13587369732E+03  0.14866727381E+03  0.00000000000E+00 0. -1.
<scales pt_clust_3="76.18259" pt_clust_4="65.02300" pt_clust_5="38.07318" pt_clust_6="14000.00000"></scales>
<clustering>
<clus scale="   38.073">  2  5  1 -1</clus>
<clus scale="   65.023">  1  4  2 -1</clus>
<clus scale="   76.183">  1  3  2 -1</clus>
<clus scale="   65.023">  1  3  2 -1</clus>
</clustering>
</event>
<event>
 6    0  0.4227619E+002  0.2407213E+03  0.7546771E-02  0.1119313E+00
         21   -1    0    0  503  501  0.00000000000E+00  0.00000000000E+00  0.79681554086E+03  0.79681554086E+03  0.00000000000E+00 0. -1.
         21   -1    0    0  505  502 -0.00000000000E+00 -0.00000000000E+00 -0.58721224609E+03  0.58721224609E+03  0.00000000000E+00 0. -1.
         21    1    1    2  503  502  0.12877876291E+03 -0.18490612856E+03  0.58610208593E+03  0.62792507617E+03  0.00000000000E+00 0. -1.
         21    1    1    2  504  506 -0.12838098147E+03  0.18272819233E+03  0.80926402607E+02  0.23752968513E+03  0.00000000000E+00 0.  1.
         21    1    1    2  505  504 -0.17217581129E+02  0.30259117293E+02 -0.47842028171E+03  0.47968533981E+03  0.00000000000E+00 0. -1.
         21    1    1    2  506  501  0.16819799693E+02 -0.28081181070E+02  0.20995087941E+02  0.38887685836E+02  0.00000000000E+00 0.  1.
<scales pt_clust_3="240.72128" pt_clust_4="14000.00000" pt_clust_5="34.78765" pt_clust_6="32.73314"></scales>
<clustering>
<clus scale="   32.733">  1  6  2 -1</clus>
<clus scale="   34.788">  2  5  1 -1</clus>
<clus scale="  240.721">  1  3  2 -1</clus>
<clus scale="   32.733">  1  3  2 -1</clus>
</clustering>
</event>
<event>
 6    0  0.4227619E+002  0.1240063E+03  0.7546771E-02  0.1236630E+00
         21   -1    0    0  506  501  0.00000000000E+00  0.00000000000E+00  0.72250620316E+02  0.72250620316E+02  0.00000000000E+00 0. -1.
         21   -1    0    0  505  502 -0.00000000000E+00 -0.00000000000E+00 -0.56465356293E+03  0.56465356293E+03  0.00000000000E+00 0. -1.
         21    1    1    2  503  504 -0.44984567023E+02  0.54059286303E+02  0.15151457431E+02  0.71941534374E+02  0.00000000000E+00 0. -1.
         21    1    1    2  504  501 -0.47416829455E+02  0.26713265676E+02 -0.19263124476E+02  0.57732332737E+02  0.00000000000E+00 0. -1.
         21    1    1    2  505  503  0.40655333249E+02 -0.17433485979E+02 -0.86008816430E+02  0.96717625378E+02  0.00000000000E+00 0. -1.
         21    1    1    2  506  502  0.51746063229E+02 -0.63339066000E+02 -0.40228245914E+03  0.41051269076E+03  0.00000000000E+00 0. -1.
<scales pt_clust_3="36.65459" pt_clust_4="36.65459" pt_clust_5="44.23553" pt_clust_6="116.79633"></scales>
<clustering>
<clus scale="   36.655">  3  4 -1 -1</clus>
<clus scale="   44.236">  2  5  1 -1</clus>
<clus scale="  116.796">  2  6  1 -1</clus>
<clus scale="  124.006">  1  3  2 -1</clus>
</clustering>
</event>
<event>
 6    0  0.4227619E+002  0.1347803E+03  0.7546771E-02  0.1220530E+00
         21   -1    0    0  503  501  0.00000000000E+00  0.00000000000E+00  0.58560590796E+03  0.58560590796E+03  0.00000000000E+00 0. -1.
         21   -1    0    0  504  502 -0.00000000000E+00 -0.00000000000E+00 -0.93676355667E+02  0.93676355667E+02  0.00000000000E+00 0. -1.
         21    1    1    2  503  505  0.48816098611E+02 -0.31626807567E+02  0.15262436227E+02  0.60134918310E+02  0.00000000000E+00 0. -1.
         21    1    1    2  504  501 -0.96194785026E+02  0.74457912019E+02  0.42542025494E+03  0.44247012401E+03  0.00000000000E+00 0. -1.
         21    1    1    2  505  506  0.80977924182E+02 -0.18409623563E+02  0.88156183518E+02  0.12111090429E+03  0.00000000000E+00 0. -1.
         21    1    1    2  506  502 -0.33599237768E+02 -0.24421480889E+02 -0.36909322395E+02  0.55566317018E+02  0.00000000000E+00 0. -1.
<scales pt_clust_3="45.25901" pt_clust_4="123.94044" pt_clust_5="45.25901" pt_clust_6="41.53694"></scales>
<clustering>
<clus scale="   41.537">  2  6  1 -1</clus>
<clus scale="   45.259">  3  5 -1 -1</clus>
<clus scale="  123.940">  1  4  2 -1</clus>
<clus scale="  123.940">  1  3  2 -1</clus>
</clustering>
</event>
<event>
 6    0  0.4227619E+002  0.7417341E+02  0.7546771E-02  0.1346450E+00
         21   -1    0    0  504  501  0.00000000000E+00  0.00000000000E+00  0.42353358682E+02  0.42353358682E+02  0.00000000000E+00 0. -1.
         21   -1    0    0  506  502 -0.00000000000E+00 -0.00000000000E+00 -0.51525987063E+03  0.51525987063E+03  0.00000000000E+00 0. -1.
         21    1    1    2  503  501 -0.51298058127E+02  0.61702072175E+02 -0.71761119609E+02  0.10764894224E+03  0.00000000000E+00 0. -1.
         21    1    1    2  504  505 -0.38825675307E+02 -0.31087766442E+02 -0.36867646843E+02  0.61912080155E+02  0.00000000000E+00 0. -1.
         21    1    1    2  505  502  0.19430879048E+02 -0.49830097827E+02 -0.95363111775E+02  0.10933764584E+03  0.00000000000E+00 0. -1.
         21    1    1    2  506  503  0.70692854386E+02  0.19215792095E+02 -0.26891463372E+03  0.27871456107E+03  0.00000000000E+00 0. -1.
<scales pt_clust_3="74.17341" pt_clust_4="49.73814" pt_clust_5="58.03961" pt_clust_6="14000.00000"></scales>
<clustering>
<clus scale="   49.738">  1  4  2 -1</clus>
<clus scale="   58.040">  2  5  1 -1</clus>
<clus scale="   74.173">  1  3  2 -1</clus>
<clus scale="   49.738">  1  3  2 -1</clus>
</clustering>
</event>
<event>
 6    0  0.4227619E+002  0.9555652E+02  0.7546771E-02  0.1289928E+00
         21   -1    0    0  504  501  0.00000000000E+00  0.00000000000E+00  0.11053375425E+04  0.11053375425E+04  0.00000000000E+00 0.  1.
         21   -1    0    0  506  502 -0.00000000000E+00 -0.00000000000E+00 -0.13923515636E+03  0.13923515636E+03  0.00000000000E+00 0. -1.
         21    1    1    2  503  505 -0.61406611453E+02 -0.16247021812E+02  0.48993202320E+03  0.49403251412E+03  0.00000000000E+00 0.  1.
         21    1    1    2  504  502 -0.21856494834E+02  0.10612020213E+03 -0.92572633888E+02  0.14250928465E+03  0.00000000000E+00 0. -1.
         21    1    1    2  505  501  0.32609998267E+02 -0.40605437570E+02  0.51902461341E+03  0.52163086840E+03  0.00000000000E+00 0.  1.
         21    1    1    2  506  503  0.50653108020E+02 -0.49267742745E+02  0.49718383410E+02  0.86400031691E+02  0.00000000000E+00 0.  1.
<scales pt_clust_3="60.78232" pt_clust_4="14000.00000" pt_clust_5="52.07892" pt_clust_6="95.55652"></scales>
<clustering>
<clus scale="   52.079">  1  5  2 -1</clus>
<clus scale="   60.782">  1  3  2 -1</clus>
<clus scale="   95.557">  1  6  2 -1</clus>
<clus scale="   52.079">  1  3  2 -1</clus>
</clustering>
</event>
<event>
 6    0  0.4227619E+002  0.1024968E+03  0.7546771E-02  0.1275131E+00
         21   -1    0    0  502  501  0.00000000000E+00  0.00000000000E+00  0.11453314477E+03  0.11453314477E+03  0.00000000000E+00 0. -1.
         21   -1    0    0  503  502 -0.00000000000E+00 -0.00000000000E+00 -0.27951319604E+03  0.27951319604E+03  0.00000000000E+00 0. -1.
         21    1    1    2  503  505  0.35130597272E+02 -0.17239584339E+02 -0.38221334521E+02  0.54701302959E+02  0.00000000000E+00 0.  1.
         21    1    1    2  504  501 -0.38120662661E+02  0.52004998776E+01  0.12618913531E+01  0.38494447528E+02  0.00000000000E+00 0.  1.
         21    1    1    2  505  506  0.59991890253E+02  0.77046117036E+02 -0.17651204727E+03  0.20172167429E+03  0.00000000000E+00 0. -1.
         21    1    1    2  506  504 -0.57001824864E+02 -0.65007032575E+02  0.48491439165E+02  0.99128916035E+02  0.00000000000E+00 0. -1.
<scales pt_clust_3="35.96954" pt_clust_4="38.47376" pt_clust_5="102.49681" pt_clust_6="14000.00000"></scales>
<clustering>
<clus scale="   38.474">  1  4  2 -1</clus>
<clus scale="   35.970">  2  3  1 -1</clus>
<clus scale="  102.497">  2  5  1 -1</clus>
<clus scale="   38.474">  1  3  2 -1</clus>
</clustering>
</event>
<event>
 6    0  0.4227619E+002  0.1990513E+03  0.7546771E-02  0.1150542E+00
         21   -1    0    0  503  501  0.00000000000E+00  0.00000000000E+00  0.16368168285E+04  0.16368168285E+04  0.00000000000E+00 0. -1.
         21   -1    0    0  504  502 -0.00000000000E+00 -0.00000000000E+00 -0.72676476539E+02  0.72676476539E+02  0.00000000000E+00 0.  1.
         21    1    1    2  503  505 -0.35734413662E+02 -0.18425468591E+03  0.12574785319E+04  0.12714082726E+04  0.00000000000E+00 0. -1.
         21    1    1    2  504  501 -0.38631335552E+02  0.13617295617E+02 -0.27526988530E+02  0.49351250481E+02  0.00000000000E+00 0.  1.
         21    1    1    2  505  506  0.48665828266E+02  0.15237105676E+03  0.31056168530E+03  0.34933345410E+03  0.00000000000E+00 0.  1.
         21    1    1    2  506  502  0.25699920949E+02  0.18266333531E+02  0.23627123354E+02  0.39400327859E+02  0.00000000000E+00 0.  1.
<scales pt_clust_3="186.64672" pt_clust_4="40.96109" pt_clust_5="30.70994" pt_clust_6="30.70994"></scales>
<clustering>
<clus scale="   30.710">  5  6 -1 -1</clus>
<clus scale="   40.961">  2  4  1 -1</clus>
<clus scale="  186.647">  1  3  2 -1</clus>
<clus scale="  186.647">  1  3  2 -1</clus>
</clustering>
</event>
<event>
 6    0  0.4227619E+002  0.8332190E+02  0.7546771E-02  0.1319880E+00
         21   -1    0    0  504  501  0.00000000000E+00  0.00000000000E+00  0.37342158297E+03  0.37342158297E+03  0.00000000000E+00 0.  1.
         21   -1    0    0  505  502 -0.00000000000E+00 -0.00000000000E+00 -0.76777074845E+03  0.76777074845E+03  0.00000000000E+00 0.  1.
         21    1    1    2  503  502  0.99401538586E+02  0.23513893788E+02 -0.64141145716E+03  0.64949382326E+03  0.00000000000E+00 0.  1.
         21    1    1    2  504  503  0.27119799187E+02 -0.79503184180E+02  0.24526485330E+03  0.25925101363E+03  0.00000000000E+00 0.  1.
         21    1    1    2  505  506 -0.47843771416E+02  0.21995996737E+01 -0.88837113033E+02  0.10092520673E+03  0.00000000000E+00 0.  1.
         21    1    1    2  506  501 -0.78677566358E+02  0.53789690718E+02  0.90634551426E+02  0.13152228780E+03  0.00000000000E+00 0.  1.
<scales pt_clust_3="59.32747" pt_clust_4="83.32190" pt_clust_5="47.89431" pt_clust_6="14000.00000"></scales>
<clustering>
<clus scale="   47.894">  2  5  1 -1</clus>
<clus scale="   59.327">  2  3  1 -1</clus>
<clus scale="   83.322">  1  4  2 -1</clus>
<clus scale="   83.322">  1  3  2 -1</clus>
</clustering>
</event>
<event>
 6    0  0.4227619E+002  0.1563745E+03  0.7546771E-02  0.1192852E+00
         21   -1    0    0  504  501  0.00000000000E+00  0.00000000000E+00  0.71638185786E+03  0.71638185786E+03  0.00000000000E+00 0. -1.
         21   -1    0    0  505  502 -0.00000000000E+00 -0.00000000000E+00 -0.24323173657E+03  0.24323173657E+03  0.00000000000E+00 0. -1.
         21    1    1    2  503  501 -0.36937494873E+02  0.15715885429E+02  0.56140311724E+03  0.56283641285E+03  0.00000000000E+00 0. -1.
         21    1    1    2  504  502 -0.58545031886E+02 -0.15567760818E+03 -0.80974466051E+02  0.18498622273E+03  0.00000000000E+00 0. -1.
         21    1    1    2  505  506  0.32020587421E+02  0.26973673396E+01 -0.45601320007E+02  0.55785967731E+02  0.00000000000E+00 0. -1.
         21    1    1    2  506  503  0.63461939338E+02  0.13726435541E+03  0.38322790110E+02  0.15600499112E+03  0.00000000000E+00 0.  1.
<scales pt_clust_3="40.03614" pt_clust_4="156.37453" pt_clust_5="32.13400" pt_clust_6="14000.00000"></scales>
<clustering>
<clus scale="   32.134">  2  5  1 -1</clus>
<clus scale="   40.036">  1  3  2 -1</clus>
<clus scale="  156.375">  2  4  1 -1</clus>
<clus scale="   40.036">  1  3  2 -1</clus>
</clustering>
</event>
<event>
 6    0  0.4227619E+002  0.1647792E+03  0.7546771E-02  0.1183404E+00
         21   -1    0    0  506  501  0.00000000000E+00  0.00000000000E+00  0.20327853567E+03  0.20327853567E+03  0.00000000000E+00 0. -1.
         21   -1    0    0  503  502 -0.00000000000E+00 -0.00000000000E+00 -0.20609276753E+03  0.20609276753E+03  0.00000000000E+00 0.  1.
         21    1    1    2  503  501  0.51704707965E+02 -0.13826822127E+03 -0.56419016969E+02  0.15803348795E+03  0.00000000000E+00 0.  1.
         21    1    1    2  504  505 -0.25686653209E+02  0.10199830295E+03  0.31528674971E+02  0.10980671794E+03  0.00000000000E+00 0. -1.
         21    1    1    2  505  502 -0.26949144840E+02 -0.13333005884E+02 -0.47416890289E+02  0.56146121310E+02  0.00000000000E+00 0.  1.
         21    1    1    2  506  504  0.93109008397E+00  0.49602924202E+02  0.69493000422E+02  0.85384975996E+02  0.00000000000E+00 0. -1.
<scales pt_clust_3="151.17390" pt_clust_4="45.00063" pt_clust_5="30.06702" pt_clust_6="45.00063"></scales>
<clustering>
<clus scale="   30.067">  2  5  1 -1</clus>
<clus scale="   45.001">  4  6 -1 -1</clus>
<clus scale="  151.174">  2  3  1 -1</clus>
<clus scale="  164.779">  1  3  2 -1</clus>
</clustering>
</event>
<event>
 6    0  0.4227619E+002  0.1183982E+03  0.7546771E-02  0.1245763E+00
         21   -1    0    0  504  501  0.00000000000E+00  0.00000000000E+00  0.18186245787E+03  0.18186245787E+03  0.00000000000E+00 0. -1.
         21   -1    0    0  503  502 -0.00000000000E+00 -0.00000000000E+00 -0.11441963486E+04  0.11441963486E+04  0.00000000000E+00 0.  1.
         21    1    1    2  503  505  0.33845806639E+02 -0.19930591468E+02 -0.69486655208E+02  0.79819561232E+02  0.00000000000E+00 0. -1.
         21    1    1    2  504  506 -0.10231108088E+03 -0.67597474349E+02  0.14249574364E+03  0.18799471472E+03  0.00000000000E+00 0. -1.
         21    1    1    2  505  501  0.75006859128E+02  0.43189706856E+02 -0.16131358572E+03  0.18306679828E+03  0.00000000000E+00 0.  1.
         21    1    1    2  506  502 -0.65415848867E+01  0.44338358961E+02 -0.87402939347E+03  0.87517773227E+03  0.00000000000E+00 0.  1.
<scales pt_clust_3="39.27807" pt_clust_4="14000.00000" pt_clust_5="118.39825" pt_clust_6="35.11363"></scales>
<clustering>
<clus scale="   39.278">  2  3  1 -1</clus>
<clus scale="   35.114">  2  6  1 -1</clus>
<clus scale="  118.398">  2  5  1 -1</clus>
<clus scale="  118.398">  1  3  2 -1</clus>
</clustering>
</event>
<event>
 6    0  0.4227619E+002  0.8464070E+02  0.7546771E-02  0.1316375E+00
         21   -1    0    0  505  501  0.00000000000E+00  0.00000000000E+00  0.33402633168E+03  0.33402633168E+03  0.00000000000E+00 0. -1.
         21   -1    0    0  506  502 -0.00000000000E+00 -0.00000000000E+00 -0.46104917204E+03  0.46104917204E+03  0.00000000000E+00 0. -1.
         21    1    1    2  503  504  0.10477906809E+03 -0.40468508004E+01 -0.34561725331E+03  0.36117352602E+03  0.00000000000E+00 0. -1.
         21    1    1    2  504  502 -0.31692857003E+02  0.51863673892E+02 -0.81011121051E+02  0.10127724122E+03  0.00000000000E+00 0. -1.
         21    1    1    2  505  503 -0.64063261231E+01 -0.64075649826E+02  0.80882763486E+02  0.10338641760E+03  0.00000000000E+00 0. -1.
         21    1    1    2  506  501 -0.66679884962E+02  0.16258826734E+02  0.21872277051E+03  0.22923831888E+03  0.00000000000E+00 0. -1.
<scales pt_clust_3="84.64070" pt_clust_4="60.78057" pt_clust_5="62.93114" pt_clust_6="14000.00000"></scales>
<clustering>
<clus scale="   60.781">  2  4  1 -1</clus>
<clus scale="   62.931">  1  5  2 -1</clus>
<clus scale="   84.641">  2  3  1 -1</clus>
<clus scale="   62.931">  1  3  2 -1</clus>
</clustering>
</event>
<event>
 6    0  0.4227619E+002  0.8226443E+02  0.7546771E-02  0.1322745E+00
         21   -1    0    0  504  501  0.00000000000E+00  0.00000000000E+00  0.56179976889E+03  0.56179976889E+03  0.00000000000E+00 0.  1.
         21   -1    0    0  506  502 -0.00000000000E+00 -0.00000000000E+00 -0.25788387097E+03  0.25788387097E+03  0.00000000000E+00 0.  1.
         21    1    1    2  503  501 -0.77625553823E+02  0.24351837472E+02  0.46803042369E+03  0.47504864603E+03  0.00000000000E+00 0.  1.
         21    1    1    2  504  505  0.13519351207E+03  0.31633086300E+02 -0.11374454495E+03  0.17948749082E+03  0.00000000000E+00 0.  1.
         21    1    1    2  505  502 -0.68703978005E+02  0.37383330087E+01 -0.73001322418E+02  0.10031652308E+03  0.00000000000E+00 0.  1.
         21    1    1    2  506  503  0.11136019760E+02 -0.59723256780E+02  0.22631341605E+02  0.64830979936E+02  0.00000000000E+00 0.  1.
<scales pt_clust_3="14000.00000" pt_clust_4="82.26443" pt_clust_5="67.12033" pt_clust_6="60.75260"></scales>
<clustering>
<clus scale="   60.753">  2  6  1 -1</clus>
<clus scale="   67.120">  2  5  1 -1</clus>
<clus scale="   82.264">  2  4  1 -1</clus>
<clus scale="   82.264">  1  3  2 -1</clus>
</clustering>
</event>
<event>
 6    0  0.4227619E+002  0.8078577E+02  0.7546771E-02  0.1326836E+00
         21   -1    0    0  503  501  0.00000000000E+00  0.00000000000E+00  0.58118454656E+02  0.58118454656E+02  0.00000000000E+00 0.  1.
         21   -1    0    0  505  502 -0.00000000000E+00 -0.00000000000E+00 -0.94370411781E+03  0.94370411781E+03  0.00000000000E+00 0.  1.
         21    1    1    2  503  504 -0.10139173312E+02  0.79574943345E+02 -0.10554753872E+02  0.80909685904E+02  0.00000000000E+00 0.  1.
         21    1    1    2  504  502 -0.83164612630E+02  0.13678119645E+01 -0.11347491197E+03  0.14069392080E+03  0.00000000000E+00 0.  1.
         21    1    1    2  505  506  0.34278599602E+02 -0.60199398730E+01 -0.51002506105E+03  0.51121113541E+03  0.00000000000E+00 0.  1.
         21    1    1    2  506  501  0.59025186340E+02 -0.74922815436E+02 -0.25153093626E+03  0.26900783035E+03  0.00000000000E+00 0.  1.
<scales pt_clust_3="80.78577" pt_clust_4="73.10701" pt_clust_5="34.80319" pt_clust_6="14000.00000"></scales>
<clustering>
<clus scale="   34.803">  2  5  1 -1</clus>
<clus scale="   73.107">  2  4  1 -1</clus>
<clus scale="   80.786">  1  3  2 -1</clus>
<clus scale="   80.786">  1  3  2 -1</clus>
</clustering>
</event>
<event>
 6    0  0.4227619E+002  0.1345902E+03  0.7546771E-02  0.1220799E+00
         21   -1    0    0  506  501  0.00000000000E+00  0.00000000000E+00  0.44093238199E+02  0.44093238199E+02  0.00000000000E+00 0.  1.
         21   -1    0    0  503  502 -0.00000000000E+00 -0.00000000000E+00 -0.27330545118E+04  0.27330545118E+04  0.00000000000E+00 0.  1.
         21    1    1    2  503  501  0.11608175931E+03  0.56915813192E+02 -0.74144451814E+02  0.14903618477E+03  0.00000000000E+00 0.  1.
         21    1    1    2  504  502  0.51434363350E+01 -0.44834803745E+02 -0.19650504032E+04  0.19655685442E+04  0.00000000000E+00 0.  1.
         21    1    1    2  505  504 -0.57411706764E+02 -0.26613491482E+02 -0.35529673417E+03  0.36088800384E+03  0.00000000000E+00 0.  1.
         21    1    1    2  506  505 -0.63813488881E+02  0.14532482036E+02 -0.29446968441E+03  0.30165501725E+03  0.00000000000E+00 0.  1.
<scales pt_clust_3="127.23668" pt_clust_4="45.12887" pt_clust_5="43.14630" pt_clust_6="43.14630"></scales>
<clustering>
<clus scale="   43.146">  5  6 -1 -1</clus>
<clus scale="   45.129">  2  4  1 -1</clus>
<clus scale="  127.237">  1  3  2 -1</clus>
<clus scale="  127.237">  1  3  2 -1</clus>
</clustering>
</event>
<event>
 6    0  0.4227619E+002  0.8391053E+02  0.7546771E-02  0.1318306E+00
         21   -1    0    0  505  501  0.00000000000E+00  0.00000000000E+00  0.67945067033E+03  0.67945067033E+03  0.00000000000E+00 0. -1.
         21   -1    0    0  503  502 -0.00000000000E+00 -0.00000000000E+00 -0.10283533873E+03  0.10283533873E+03  0.00000000000E+00 0.  1.
         21    1    1    2  503  501 -0.42777872042E+02  0.48230460056E+02  0.24339183682E+03  0.25178504690E+03  0.00000000000E+00 0. -1.
         21    1    1    2  504  502 -0.30021390103E+02  0.11909745113E+01 -0.49087686531E+02  0.57552612912E+02  0.00000000000E+00 0.  1.
         21    1    1    2  505  506  0.13068202972E+03 -0.44707343369E+02  0.39058607249E+03  0.41428736339E+03  0.00000000000E+00 0. -1.
         21    1    1    2  506  504 -0.57882767572E+02 -0.47140911986E+01 -0.82748911732E+01  0.58660985856E+02  0.00000000000E+00 0. -1.
<scales pt_clust_3="66.25734" pt_clust_4="30.04500" pt_clust_5="83.91053" pt_clust_6="14000.00000"></scales>
<clustering>
<clus scale="   30.045">  2  4  1 -1</clus>
<clus scale="   66.257">  1  3  2 -1</clus>
<clus scale="   83.911">  1  5  2 -1</clus>
<clus scale="   66.257">  1  3  2 -1</clus>
</clustering>
</event>
<event>
 6    0  0.4227619E+002  0.8580202E+02  0.7546771E-02  0.1313348E+00
         21   -1    0    0  505  501  0.00000000000E+00  0.00000000000E+00  0.11242799467E+04  0.11242799467E+04  0.00000000000E+00 0. -1.
         21   -1    0    0  504  502 -0.00000000000E+00 -0.00000000000E+00 -0.43952299550E+02  0.43952299550E+02  0.00000000000E+00 0. -1.
         21    1    1    2  503  501  0.44055354510E+02  0.29502106419E+02  0.36696294330E+03  0.37077358361E+03  0.00000000000E+00 0. -1.
         21    1    1    2  504  503  0.65784503668E+02 -0.34883236163E+02  0.51506120882E+02  0.90539061053E+02  0.00000000000E+00 0. -1.
         21    1    1    2  505  506 -0.13123914354E+02 -0.40034410941E+02  0.55222989675E+03  0.55383467755E+03  0.00000000000E+00 0. -1.
         21    1    1    2  506  502 -0.96715943825E+02  0.45415540685E+02  0.10962868619E+03  0.15308492402E+03  0.00000000000E+00 0. -1.
<scales pt_clust_3="35.76775" pt_clust_4="85.80202" pt_clust_5="42.13064" pt_clust_6="14000.00000"></scales>
<clustering>
<clus scale="   42.131">  1  5  2 -1</clus>
<clus scale="   35.768">  1  3  2 -1</clus>
<clus scale="   85.802">  2  4  1 -1</clus>
<clus scale="   42.131">  1  3  2 -1</clus>
</clustering>
</event>
<event>
 6    0  0.4227619E+002  0.1223929E+03  0.7546771E-02  0.1239201E+00
         21   -1    0    0  504  501  0.00000000000E+00  0.00000000000E+00  0.22877028632E+03  0.22877028632E+03  0.00000000000E+00 0. -1.
         21   -1    0    0  503  502 -0.00000000000E+00 -0.00000000000E+00 -0.63484822690E+03  0.63484822690E+03  0.00000000000E+00 0. -1.
         21    1    1    2  503  501  0.94219723390E+02  0.11411466418E+03  0.57113531897E+01  0.14809501144E+03  0.00000000000E+00 0. -1.
         21    1    1    2  504  506  0.23561925300E+02  0.36392354150E+02  0.11741712991E+03  0.12516529135E+03  0.00000000000E+00 0. -1.
         21    1    1    2  505  502 -0.10933462875E+03 -0.51839982000E+02 -0.44246633698E+03  0.45871331367E+03  0.00000000000E+00 0. -1.
         21    1    1    2  506  505 -0.84470199368E+01 -0.98667036331E+02 -0.86740086689E+02  0.13164489676E+03  0.00000000000E+00 0. -1.
<scales pt_clust_3="122.39290" pt_clust_4="43.35398" pt_clust_5="14000.00000" pt_clust_6="91.13286"></scales>
<clustering>
<clus scale="   43.354">  1  4  2 -1</clus>
<clus scale="   91.133">  1  6  2 -1</clus>
<clus scale="  122.393">  1  3  2 -1</clus>
<clus scale="   43.354">  1  3  2 -1</clus>
</clustering>
</event>
<event>
 6    0  0.4227619E+002  0.1040952E+03  0.7546771E-02  0.1271913E+00
         21   -1    0    0  503  501  0.00000000000E+00  0.00000000000E+00  0.62049414546E+03  0.62049414546E+03  0.00000000000E+00 0. -1.
         21   -1    0    0  506  502 -0.00000000000E+00 -0.00000000000E+00 -0.68104571648E+03  0.68104571648E+03  0.00000000000E+00 0.  1.
         21    1    1    2  503  504 -0.54556674676E+01  0.39194067585E+02  0.19082538865E+03  0.19488526931E+03  0.00000000000E+00 0.  1.
         21    1    1    2  504  502  0.61801792437E+02  0.49913438854E+02  0.14254029706E+03  0.16318256406E+03  0.00000000000E+00 0.  1.
         21    1    1    2  505  501 -0.72517197341E+02 -0.12052412243E+03  0.25626543816E+03  0.29232992114E+03  0.00000000000E+00 0. -1.
         21    1    1    2  506  505  0.16171072372E+02  0.31416615991E+02 -0.65018269488E+03  0.65114210743E+03  0.00000000000E+00 0.  1.
<scales pt_clust_3="41.52419" pt_clust_4="14000.00000" pt_clust_5="104.09517" pt_clust_6="35.33422"></scales>
<clustering>
<clus scale="   35.334">  2  6  1 -1</clus>
<clus scale="   41.524">  1  3  2 -1</clus>
<clus scale="  104.095">  2  5  1 -1</clus>
<clus scale="   41.524">  1  3  2 -1</clus>
</clustering>
</event>
<event>
 6    0  0.4227619E+002  0.8505683E+02  0.7546771E-02  0.1315284E+00
         21   -1    0    0  505  501  0.00000000000E+00  0.00000000000E+00  0.77221519584E+03  0.77221519584E+03  0.00000000000E+00 0. -1.
         21   -1    0    0  506  502 -0.00000000000E+00 -0.00000000000E+00 -0.34504338745E+02  0.34504338745E+02  0.00000000000E+00 0. -1.
         21    1    1    2  503  501 -0.82265915029E+02 -0.42113378285E+02  0.24181534918E+03  0.25887425617E+03  0.00000000000E+00 0. -1.
         21    1    1    2  504  502  0.19396910670E+02  0.64214356437E+02  0.11407081989E+03  0.13233244374E+03  0.00000000000E+00 0. -1.
         21    1    1    2  505  504  0.86376521795E+02 -0.53091187885E+02  0.35252451838E+03  0.36681482223E+03  0.00000000000E+00 0. -1.
         21    1    1    2  506  503 -0.23507517436E+02  0.30990209732E+02  0.29300169647E+02  0.48698012450E+02  0.00000000000E+00 0. -1.
<scales pt_clust_3="14000.00000" pt_clust_4="76.38117" pt_clust_5="85.05683" pt_clust_6="38.89726"></scales>
<clustering>
<clus scale="   38.897">  2  6  1 -1</clus>
<clus scale="   76.381">  2  4  1 -1</clus>
<clus scale="   85.057">  1  5  2 -1</clus>
<clus scale="   85.057">  1  3  2 -1</clus>
</clustering>
</event>
<event>
 6    0  0.4227619E+002  0.1188193E+03  0.7546771E-02  0.1245058E+00
         21   -1    0    0  504  501  0.00000000000E+00  0.00000000000E+00  0.29074203401E+03  0.29074203401E+03  0.00000000000E+00 0.  1.
         21   -1    0    0  505  502 -0.00000000000E+00 -0.00000000000E+00 -0.22774015017E+03  0.22774015017E+03  0.00000000000E+00 0.  1.
         21    1    1    2  503  506 -0.99027920670E+02 -0.32869444680E+02  0.16203598445E+03  0.19272412854E+03  0.00000000000E+00 0.  1.
         21    1    1    2  504  502  0.74931763632E+02  0.42054825272E+02 -0.16645894057E+03  0.18732847201E+03  0.00000000000E+00 0.  1.
         21    1    1    2  505  503  0.30270486764E+02  0.30011723713E+02 -0.16411781889E+02  0.45676607951E+02  0.00000000000E+00 0. -1.
         21    1    1    2  506  501 -0.61743297256E+01 -0.39197104305E+02  0.83836621848E+02  0.92752975674E+02  0.00000000000E+00 0.  1.
<scales pt_clust_3="118.81930" pt_clust_4="14000.00000" pt_clust_5="40.35050" pt_clust_6="39.68041"></scales>
<clustering>
<clus scale="   39.680">  1  6  2 -1</clus>
<clus scale="   40.351">  2  5  1 -1</clus>
<clus scale="  118.819">  1  3  2 -1</clus>
<clus scale="   39.680">  1  3  2 -1</clus>
</clustering>
</event>
<event>
 6    0  0.4227619E+002  0.9066853E+02  0.7546771E-02  0.1301241E+00
         21   -1    0    0  504  501  0.00000000000E+00  0.00000000000E+00  0.61397132962E+03  0.61397132962E+03  0.00000000000E+00 0.  1.
         21   -1    0    0  506  502 -0.00000000000E+00 -0.00000000000E+00 -0.47989718255E+03  0.47989718255E+03  0.00000000000E+00 0. -1.
         21    1    1    2  503  505  0.52191256278E+02 -0.48153113786E+02  0.84394597756E+02  0.11029550186E+03  0.00000000000E+00 0.  1.
         21    1    1    2  504  502 -0.83369055389E+02  0.68941947889E+02  0.31495002377E+03  0.33301187524E+03  0.00000000000E+00 0.  1.
         21    1    1    2  505  501  0.27550114549E+02  0.17605758007E+02  0.19043773828E+03  0.19322397286E+03  0.00000000000E+00 0.  1.
         21    1    1    2  506  503  0.36276845615E+01 -0.38394592109E+02 -0.45570821273E+03  0.45733716222E+03  0.00000000000E+00 0. -1.
<scales pt_clust_3="90.66853" pt_clust_4="14000.00000" pt_clust_5="32.69513" pt_clust_6="38.53681"></scales>
<clustering>
<clus scale="   32.695">  1  5  2 -1</clus>
<clus scale="   38.537">  2  6  1 -1</clus>
<clus scale="   90.669">  2  3  1 -1</clus>
<clus scale="   32.695">  1  3  2 -1</clus>
</clustering>
</event>
<event>
 6    0  0.4227619E+002  0.1707287E+03  0.7546771E-02  0.1177090E+00
         21   -1    0    0  505  501  0.00000000000E+00  0.00000000000E+00  0.69752740218E+03  0.69752740218E+03  0.00000000000E+00 0. -1.
         21   -1    0    0  501  502 -0.00000000000E+00 -0.00000000000E+00 -0.26116487027E+03  0.26116487027E+03  0.00000000000E+00 0. -1.
         21    1    1    2  503  502 -0.84214281627E+01  0.28897277481E+02 -0.32812653003E+02  0.44526882837E+02  0.00000000000E+00 0.  1.
         21    1    1    2  504  506  0.22754248552E+03 -0.60113417390E+02 -0.97240770130E+02  0.25464676131E+03  0.00000000000E+00 0. -1.
         21    1    1    2  505  504 -0.16313755000E+03  0.33016520426E+02  0.57871206925E+03  0.60217240881E+03  0.00000000000E+00 0. -1.
         21    1    1    2  506  503 -0.55983507359E+02 -0.18003805164E+01 -0.12296114195E+02  0.57346219496E+02  0.00000000000E+00 0.  1.
<scales pt_clust_3="30.09939" pt_clust_4="170.72867" pt_clust_5="14000.00000" pt_clust_6="57.36611"></scales>
<clustering>
<clus scale="   30.099">  2  3  1 -1</clus>
<clus scale="   57.366">  2  6  1 -1</clus>
<clus scale="  170.729">  2  4  1 -1</clus>
<clus scale="  170.729">  1  3  2 -1</clus>
</clustering>
</event>
<event>
 6    0  0.4227619E+002  0.1526060E+03  0.7546771E-02  0.1197307E+00
         21   -1    0    0  505  501  0.00000000000E+00  0.00000000000E+00  0.40531409168E+02  0.40531409168E+02  0.00000000000E+00 0. -1.
         21   -1    0    0  504  502 -0.00000000000E+00 -0.00000000000E+00 -0.90410335536E+03  0.90410335536E+03  0.00000000000E+00 0. -1.
         21    1    1    2  503  502 -0.23097621542E+02 -0.69801075086E+02 -0.25712909364E+03  0.26743421808E+03  0.00000000000E+00 0. -1.
         21    1    1    2  504  501  0.13728033654E+03 -0.25244603818E+02 -0.26534250508E+03  0.29981632014E+03  0.00000000000E+00 0. -1.
         21    1    1    2  505  506 -0.73427978218E+02  0.23774591994E+02 -0.19630214989E+03  0.21092992500E+03  0.00000000000E+00 0. -1.
         21    1    1    2  506  503 -0.40754736780E+02  0.71271086910E+02 -0.14479819759E+03  0.16645430131E+03  0.00000000000E+00 0. -1.
<scales pt_clust_3="73.52340" pt_clust_4="138.89047" pt_clust_5="61.30628" pt_clust_6="61.30628"></scales>
<clustering>
<clus scale="   61.306">  5  6 -1 -1</clus>
<clus scale="   73.523">  2  3  1 -1</clus>
<clus scale="  138.890">  1  4  2 -1</clus>
<clus scale="  138.890">  1  3  2 -1</clus>
</clustering>
</event>
<event>
 6    0  0.4227619E+002  0.2092602E+03  0.7546771E-02  0.1142153E+00
         21   -1    0    0  505  501  0.00000000000E+00  0.00000000000E+00  0.16864248057E+04  0.16864248057E+04  0.00000000000E+00 0. -1.
         21   -1    0    0  503  502 -0.00000000000E+00 -0.00000000000E+00 -0.24875881361E+03  0.24875881361E+03  0.00000000000E+00 0. -1.
         21    1    1    2  503  504  0.22729039717E+01 -0.20560329396E+03 -0.16252701741E+03  0.26209332682E+03  0.00000000000E+00 0. -1.
         21    1    1    2  504  506  0.70626871063E+00 -0.11810277311E+03  0.27665838294E+03  0.30081327212E+03  0.00000000000E+00 0. -1.
         21    1    1    2  505  502 -0.50093612060E+02  0.29790644937E+03  0.12023859232E+04  0.12397538186E+04  0.00000000000E+00 0. -1.
         21    1    1    2  506  501  0.47114439378E+02  0.25799617697E+02  0.12114870334E+03  0.13252320171E+03  0.00000000000E+00 0. -1.
<scales pt_clust_3="209.26017" pt_clust_4="113.71791" pt_clust_5="14000.00000" pt_clust_6="53.71583"></scales>
<clustering>
<clus scale="   53.716">  1  6  2 -1</clus>
<clus scale="  113.718">  1  4  2 -1</clus>
<clus scale="  209.260">  2  3  1 -1</clus>
<clus scale="   53.716">  1  3  2 -1</clus>
</clustering>
</event>
<event>
 6    0  0.4227619E+002  0.7601133E+02  0.7546771E-02  0.1340768E+00
         21   -1    0    0  502  501  0.00000000000E+00  0.00000000000E+00  0.67332509172E+03  0.67332509172E+03  0.00000000000E+00 0.  1.
         21   -1    0    0  506  502 -0.00000000000E+00 -0.00000000000E+00 -0.86946559120E+02  0.86946559120E+02  0.00000000000E+00 0.  1.
         21    1    1    2  503  504  0.61064600444E+02  0.44291564750E+01  0.19944292314E+03  0.20862881499E+03  0.00000000000E+00 0.  1.
         21    1    1    2  504  501 -0.10937610966E+02  0.45836951380E+02  0.22083260337E+03  0.22580455300E+03  0.00000000000E+00 0.  1.
         21    1    1    2  505  503 -0.78677237089E+02 -0.81761250128E+02  0.22570979943E+03  0.25262605411E+03  0.00000000000E+00 0.  1.
         21    1    1    2  506  505  0.28550247611E+02  0.31495142273E+02 -0.59606793333E+02  0.73212228739E+02  0.00000000000E+00 0.  1.
<scales pt_clust_3="76.01133" pt_clust_4="50.20992" pt_clust_5="14000.00000" pt_clust_6="42.50954"></scales>
<clustering>
<clus scale="   42.510">  2  6  1 -1</clus>
<clus scale="   50.210">  1  4  2 -1</clus>
<clus scale="   76.011">  1  3  2 -1</clus>
<clus scale="   50.210">  1  3  2 -1</clus>
</clustering>
</event>
<event>
 6    0  0.4227619E+002  0.1635564E+03  0.7546771E-02  0.1184739E+00
         21   -1    0    0  504  501  0.00000000000E+00  0.00000000000E+00  0.10305336996E+04  0.10305336996E+04  0.00000000000E+00 0. -1.
         21   -1    0    0  505  502 -0.00000000000E+00 -0.00000000000E+00 -0.25712558133E+03  0.25712558133E+03  0.00000000000E+00 0. -1.
         21    1    1    2  503  502  0.65762597535E+00  0.64505267705E+02 -0.11845236138E+03  0.13487892330E+03  0.00000000000E+00 0. -1.
         21    1    1    2  504  506 -0.81575323925E+02 -0.23326522438E+03  0.73818146485E+03  0.77844657711E+03  0.00000000000E+00 0. -1.
         21    1    1    2  505  501  0.17826195192E+02  0.10535871197E+03  0.23201268148E+03  0.25543710731E+03  0.00000000000E+00 0. -1.
         21    1    1    2  506  503  0.63091502758E+02  0.63401244703E+02 -0.78333666715E+02  0.11889667317E+03  0.00000000000E+00 0. -1.
<scales pt_clust_3="61.55288" pt_clust_4="146.61993" pt_clust_5="106.85612" pt_clust_6="61.55288"></scales>
<clustering>
<clus scale="   61.553">  3  6 -1 -1</clus>
<clus scale="  106.856">  1  5  2 -1</clus>
<clus scale="  146.620">  1  4  2 -1</clus>
<clus scale="  106.856">  1  3  2 -1</clus>
</clustering>
</event>
<event>
 6    0  0.4227619E+002  0.1231140E+03  0.7546771E-02  0.1238046E+00
         21   -1    0    0  506  501  0.00000000000E+00  0.00000000000E+00  0.53749634001E+03  0.53749634001E+03  0.00000000000E+00 0.  1.
         21   -1    0    0  505  502 -0.00000000000E+00 -0.00000000000E+00 -0.67467153246E+03  0.67467153246E+03  0.00000000000E+00 0. -1.
         21    1    1    2  503  502 -0.35646660813E+02 -0.11937117416E+02  0.86790085423E+02  0.94581700804E+02  0.00000000000E+00 0.  1.
         21    1    1    2  504  501  0.11950679235E+03  0.90495785891E+02 -0.41976314875E+03  0.44572689141E+03  0.00000000000E+00 0. -1.
         21    1    1    2  505  504 -0.10214641038E+02 -0.60812487525E+02 -0.23064208643E+03  0.23874310369E+03  0.00000000000E+00 0. -1.
         21    1    1    2  506  503 -0.73645490501E+02 -0.17746180951E+02  0.42643995730E+03  0.43311617655E+03  0.00000000000E+00 0.  1.
<scales pt_clust_3="33.29657" pt_clust_4="113.67923" pt_clust_5="61.66439" pt_clust_6="33.29657"></scales>
<clustering>
<clus scale="   33.297">  3  6 -1 -1</clus>
<clus scale="   61.664">  2  5  1 -1</clus>
<clus scale="  113.679">  2  4  1 -1</clus>
<clus scale="  123.114">  1  3  2 -1</clus>
</clustering>
</event>
<event>
 6    0  0.4227619E+002  0.1288770E+03  0.7546771E-02  0.1229132E+00
         21   -1    0    0  506  501  0.00000000000E+00  0.00000000000E+00  0.61739111969E+03  0.61739111969E+03  0.00000000000E+00 0. -1.
         21   -1    0    0  504  502 -0.00000000000E+00 -0.00000000000E+00 -0.40846974493E+03  0.40846974493E+03  0.00000000000E+00 0. -1.
         21    1    1    2  503  505  0.64397049658E+02 -0.58442965781E+02  0.29492974204E+03  0.30748351662E+03  0.00000000000E+00 0. -1.
         21    1    1    2  504  503 -0.56226476576E+02  0.15487500196E+03 -0.40998379083E+02  0.16978972286E+03  0.00000000000E+00 0.  1.
         21    1    1    2  505  501 -0.33240221167E+02 -0.71631453386E+02  0.24450083378E+03  0.25693702562E+03  0.00000000000E+00 0. -1.
         21    1    1    2  506  502  0.25069648085E+02 -0.24800582798E+02 -0.28951082197E+03  0.29165059952E+03  0.00000000000E+00 0. -1.
<scales pt_clust_3="14000.00000" pt_clust_4="128.87695" pt_clust_5="79.61742" pt_clust_6="35.26409"></scales>
<clustering>
<clus scale="   35.264">  2  6  1 -1</clus>
<clus scale="   79.617">  1  5  2 -1</clus>
<clus scale="  128.877">  2  4  1 -1</clus>
<clus scale="   79.617">  1  3  2 -1</clus>
</clustering>
</event>
<event>
 6    0  0.4227619E+002  0.1492247E+03  0.7546771E-02  0.1201429E+00
         21   -1    0    0  505  501  0.00000000000E+00  0.00000000000E+00  0.51572210487E+03  0.51572210487E+03  0.00000000000E+00 0.  1.
         21   -1    0    0  506  502 -0.00000000000E+00 -0.00000000000E+00 -0.86682003397E+03  0.86682003397E+03  0.00000000000E+00 0.  1.
         21    1    1    2  503  502  0.17055202731E+03  0.56006177006E+02 -0.76041533702E+02  0.19495384256E+03  0.00000000000E+00 0.  1.
         21    1    1    2  504  501 -0.10185580220E+03 -0.81456093287E+02  0.40951951104E+02  0.13669953136E+03  0.00000000000E+00 0.  1.
         21    1    1    2  505  503 -0.36065247139E+01 -0.31286364413E+02  0.36403038288E+03  0.36539015214E+03  0.00000000000E+00 0.  1.
         21    1    1    2  506  504 -0.65089700399E+02  0.56736280694E+02 -0.68003872939E+03  0.68549861277E+03  0.00000000000E+00 0.  1.
<scales pt_clust_3="149.22465" pt_clust_4="14000.00000" pt_clust_5="31.49355" pt_clust_6="86.02504"></scales>
<clustering>
<clus scale="   31.494">  1  5  2 -1</clus>
<clus scale="   86.025">  2  6  1 -1</clus>
<clus scale="  149.225">  2  3  1 -1</clus>
<clus scale="   31.494">  1  3  2 -1</clus>
</clustering>
</event>
<event>
 6    0  0.4227619E+002  0.8496359E+02  0.7546771E-02  0.1315528E+00
         21   -1    0    0  506  501  0.00000000000E+00  0.00000000000E+00  0.11528148055E+04  0.11528148055E+04  0.00000000000E+00 0.  1.
         21   -1    0    0  504  502 -0.00000000000E+00 -0.00000000000E+00 -0.43861642995E+03  0.43861642995E+03  0.00000000000E+00 0. -1.
         21    1    1    2  503  502  0.56137197562E+02 -0.48692638592E+02  0.63229095907E+02  0.97571904626E+02  0.00000000000E+00 0. -1.
         21    1    1    2  504  505 -0.27955885108E+02 -0.18446254736E+02 -0.41124150911E+03  0.41260316848E+03  0.00000000000E+00 0. -1.
         21    1    1    2  505  501  0.55185752457E+02  0.42320159362E+02  0.15501986319E+03  0.16990474139E+03  0.00000000000E+00 0. -1.
         21    1    1    2  506  503 -0.83367064911E+02  0.24818733966E+02  0.90719092551E+03  0.91135142091E+03  0.00000000000E+00 0.  1.
<scales pt_clust_3="84.96359" pt_clust_4="33.49322" pt_clust_5="60.23375" pt_clust_6="14000.00000"></scales>
<clustering>
<clus scale="   33.493">  2  4  1 -1</clus>
<clus scale="   60.234">  2  5  1 -1</clus>
<clus scale="   84.964">  2  3  1 -1</clus>
<clus scale="   84.964">  1  3  2 -1</clus>
</clustering>
</event>
<event>
 6    0  0.4227619E+002  0.1134860E+03  0.7546771E-02  0.1254247E+00
         21   -1    0    0  505  501  0.00000000000E+00  0.00000000000E+00  0.41432004384E+02  0.41432004384E+02  0.00000000000E+00 0.  1.
         21   -1    0    0  503  502 -0.00000000000E+00 -0.00000000000E+00 -0.10498281639E+04  0.10498281639E+04  0.00000000000E+00 0.  1.
         21    1    1    2  503  504 -0.45378953311E+02 -0.21596200457E+02 -0.44872170392E+03  0.45152720056E+03  0.00000000000E+00 0.  1.
         21    1    1    2  504  506  0.12483830017E+03 -0.20391223498E+02 -0.23005726743E+03  0.26253904373E+03  0.00000000000E+00 0.  1.
         21    1    1    2  505  502 -0.72705834016E+02  0.81942991711E+02 -0.31599176664E+03  0.33444220544E+03  0.00000000000E+00 0.  1.
         21    1    1    2  506  501 -0.67535128451E+01 -0.39955567756E+02 -0.13625421566E+02  0.42751718600E+02  0.00000000000E+00 0. -1.
<scales pt_clust_3="51.49969" pt_clust_4="113.48597" pt_clust_5="14000.00000" pt_clust_6="40.52231"></scales>
<clustering>
<clus scale="   40.522">  1  6  2 -1</clus>
<clus scale="   51.500">  2  3  1 -1</clus>
<clus scale="  113.486">  1  4  2 -1</clus>
<clus scale="   40.522">  1  3  2 -1</clus>
</clustering>
</event>
<event>
 6    0  0.4227619E+002  0.1194335E+03  0.7546771E-02  0.1244034E+00
         21   -1    0    0  504  501  0.00000000000E+00  0.00000000000E+00  0.11964327676E+03  0.11964327676E+03  0.00000000000E+00 0.  1.
         21   -1    0    0  505  502 -0.00000000000E+00 -0.00000000000E+00 -0.11185655291E+04  0.11185655291E+04  0.00000000000E+00 0.  1.
         21    1    1    2  503  502  0.52827238914E+02 -0.80895280255E+02 -0.68786928644E+03  0.69462142118E+03  0.00000000000E+00 0.  1.
         21    1    1    2  504  503 -0.38531497708E+00 -0.53603544678E+02  0.94938071556E+02  0.10902626243E+03  0.00000000000E+00 0.  1.
         21    1    1    2  505  506  0.77619050974E+01  0.38146391654E+02 -0.14023186650E+03  0.14553477505E+03  0.00000000000E+00 0.  1.
         21    1    1    2  506  501 -0.60203829034E+02  0.96352433278E+02 -0.26575917095E+03  0.28902634720E+03  0.00000000000E+00 0.  1.
<scales pt_clust_3="105.30818" pt_clust_4="53.60493" pt_clust_5="32.98039" pt_clust_6="32.98039"></scales>
<clustering>
<clus scale="   32.980">  5  6 -1 -1</clus>
<clus scale="   53.605">  1  4  2 -1</clus>
<clus scale="  105.308">  2  3  1 -1</clus>
<clus scale="   53.605">  1  3  2 -1</clus>
</clustering>
</event>
<event>
 6    0  0.4227619E+002  0.9201367E+02  0.7546771E-02  0.1298047E+00
         21   -1    0    0  506  501  0.00000000000E+00  0.00000000000E+00  0.41123164137E+03  0.41123164137E+03  0.00000000000E+00 0.  1.
         21   -1    0    0  503  502 -0.00000000000E+00 -0.00000000000E+00 -0.12737417904E+04  0.12737417904E+04  0.00000000000E+00 0. -1.
         21    1    1    2  503  504 -0.15390898515E+03 -0.19509643578E+02 -0.83278748753E+03  0.84711486901E+03  0.00000000000E+00 0. -1.
         21    1    1    2  504  501  0.51958187332E+02  0.84077926112E+01  0.39172157653E+03  0.39524187243E+03  0.00000000000E+00 0.  1.
         21    1    1    2  505  502  0.49309184208E+02  0.91382619331E+01 -0.35147291371E+03  0.35503255139E+03  0.00000000000E+00 0. -1.
         21    1    1    2  506  505  0.52641613614E+02  0.19635890341E+01 -0.69971324279E+02  0.87584138902E+02  0.00000000000E+00 0. -1.
<scales pt_clust_3="14000.00000" pt_clust_4="52.72993" pt_clust_5="50.14881" pt_clust_6="92.01367"></scales>
<clustering>
<clus scale="   50.149">  2  5  1 -1</clus>
<clus scale="   52.730">  1  4  2 -1</clus>
<clus scale="   92.014">  1  6  2 -1</clus>
<clus scale="   52.730">  1  3  2 -1</clus>
</clustering>
</event>
<event>
 6    0  0.4227619E+002  0.7348462E+02  0.7546771E-02  0.1348629E+00
         21   -1    0    0  506  501  0.00000000000E+00  0.00000000000E+00  0.43784121151E+03  0.43784121151E+03  0.00000000000E+00 0.  1.
         21   -1    0    0  503  502 -0.00000000000E+00 -0.00000000000E+00 -0.14273530970E+03  0.14273530970E+03  0.00000000000E+00 0.  1.
         21    1    1    2  503  504 -0.33485625046E+02  0.65064311900E+02  0.46578049301E+02  0.86741953197E+02  0.00000000000E+00 0.  1.
         21    1    1    2  504  501 -0.29138923237E+02  0.43059287953E+02  0.28746687547E+03  0.29213076459E+03  0.00000000000E+00 0.  1.
         21    1    1    2  505  502 -0.59714354925E+01 -0.75300532749E+02 -0.84273240233E+02  0.11317158342E+03  0.00000000000E+00 0.  1.
         21    1    1    2  506  505  0.68595983776E+02 -0.32823067104E+02  0.45334217273E+02  0.88532220011E+02  0.00000000000E+00 0.  1.
<scales pt_clust_3="73.48462" pt_clust_4="51.99211" pt_clust_5="14000.00000" pt_clust_6="57.00802"></scales>
<clustering>
<clus scale="   51.992">  1  4  2 -1</clus>
<clus scale="   57.008">  1  6  2 -1</clus>
<clus scale="   73.485">  1  3  2 -1</clus>
<clus scale="   51.992">  1  3  2 -1</clus>
</clustering>
</event>
<event>
 6    0  0.5958079E+002  0.1479376E+03  0.7546771E-02  0.1203030E+00
         21   -1    0    0  502  501  0.00000000000E+00  0.00000000000E+00  0.78792075159E+03  0.78792075159E+03  0.00000000000E+00 0.  1.
         21   -1    0    0  504  502 -0.00000000000E+00 -0.00000000000E+00 -0.98235831999E+03  0.98235831999E+03  0.00000000000E+00 0.  1.
         21    1    1    2  503  506 -0.85256599481E+02  0.87091177708E+02 -0.51474001354E+03  0.52897149501E+03  0.00000000000E+00 0.  1.
         21    1    1    2  504  503 -0.14674986195E+02  0.29431181304E+02 -0.42728195789E+03  0.42854570490E+03  0.00000000000E+00 0.  1.
         21    1    1    2  505  501  0.45708412490E+02 -0.10050262363E+02  0.66700670595E+03  0.66864655277E+03  0.00000000000E+00 0.  1.
         21    1    1    2  506  505  0.54223173185E+02 -0.10647209665E+03  0.80577697085E+02  0.14411531890E+03  0.00000000000E+00 0.  1.
<scales pt_clust_3="14000.00000" pt_clust_4="32.88692" pt_clust_5="46.76976" pt_clust_6="147.93760"></scales>
<clustering>
<clus scale="   32.887">  2  4  1 -1</clus>
<clus scale="   46.770">  1  5  2 -1</clus>
<clus scale="  147.938">  1  6  2 -1</clus>
<clus scale="   46.770">  1  3  2 -1</clus>
</clustering>
</event>
<event>
 6    0  0.4227619E+002  0.1113477E+03  0.7546771E-02  0.1258094E+00
         21   -1    0    0  503  501  0.00000000000E+00  0.00000000000E+00  0.65412852109E+03  0.65412852109E+03  0.00000000000E+00 0. -1.
         21   -1    0    0  504  502 -0.00000000000E+00 -0.00000000000E+00 -0.11238145099E+04  0.11238145099E+04  0.00000000000E+00 0. -1.
         21    1    1    2  503  506 -0.10630908972E+03  0.27020831989E+02  0.59560967435E+03  0.60562581855E+03  0.00000000000E+00 0. -1.
         21    1    1    2  504  505  0.17462983021E+02  0.39910270802E+02 -0.21621003065E+03  0.22055512427E+03  0.00000000000E+00 0. -1.
         21    1    1    2  505  501  0.13705763177E+03 -0.89351687320E+02 -0.82316406426E+02  0.18315160174E+03  0.00000000000E+00 0. -1.
         21    1    1    2  506  502 -0.48211525069E+02  0.22420584529E+02 -0.76676922608E+03  0.76861048642E+03  0.00000000000E+00 0. -1.
<scales pt_clust_3="111.34768" pt_clust_4="43.56358" pt_clust_5="14000.00000" pt_clust_6="65.42951"></scales>
<clustering>
<clus scale="   43.564">  2  4  1 -1</clus>
<clus scale="   65.430">  2  6  1 -1</clus>
<clus scale="  111.348">  1  3  2 -1</clus>
<clus scale="  111.348">  1  3  2 -1</clus>
</clustering>
</event>
<event>
 6    0  0.4227619E+002  0.9536837E+02  0.7546771E-02  0.1290349E+00
         21   -1    0    0  506  501  0.00000000000E+00  0.00000000000E+00  0.60230885885E+03  0.60230885885E+03  0.00000000000E+00 0.  1.
         21   -1    0    0  505  502 -0.00000000000E+00 -0.00000000000E+00 -0.12824526089E+03  0.12824526089E+03  0.00000000000E+00 0.  1.
         21    1    1    2  503  501 -0.80426726055E+00  0.10021225053E+03  0.47520037846E+03  0.48565269658E+03  0.00000000000E+00 0.  1.
         21    1    1    2  504  503 -0.30126251638E+01 -0.65308407823E+02 -0.47424696178E+02  0.80767356341E+02  0.00000000000E+00 0.  1.
         21    1    1    2  505  504  0.50848058417E+01  0.44695565258E+02 -0.29841868658E+02  0.53982274213E+02  0.00000000000E+00 0.  1.
         21    1    1    2  506  502 -0.12679134174E+01 -0.79599407964E+02  0.76129784331E+02  0.11015179261E+03  0.00000000000E+00 0. -1.
<scales pt_clust_3="14000.00000" pt_clust_4="32.13429" pt_clust_5="44.98387" pt_clust_6="95.36837"></scales>
<clustering>
<clus scale="   44.984">  2  5  1 -1</clus>
<clus scale="   32.134">  2  4  1 -1</clus>
<clus scale="   95.368">  2  6  1 -1</clus>
<clus scale="   95.368">  1  3  2 -1</clus>
</clustering>
</event>
<event>
 6    0  0.4227619E+002  0.3133481E+03  0.7546771E-02  0.1078752E+00
         21   -1    0    0  504  501  0.00000000000E+00  0.00000000000E+00  0.91395080252E+03  0.91395080252E+03  0.00000000000E+00 0. -1.
         21   -1    0    0  505  502 -0.00000000000E+00 -0.00000000000E+00 -0.90768063094E+03  0.90768063094E+03  0.00000000000E+00 0. -1.
         21    1    1    2  503  502 -0.53471236295E+02  0.21393445010E+02 -0.52855822484E+03  0.53168660849E+03  0.00000000000E+00 0. -1.
         21    1    1    2  504  503  0.25674500787E+03 -0.28598156300E+03 -0.21455524194E+03  0.44015611468E+03  0.00000000000E+00 0. -1.
         21    1    1    2  505  506  0.56658691415E+00  0.35240198868E+02 -0.48044039164E+01  0.35570703310E+02  0.00000000000E+00 0. -1.
         21    1    1    2  506  501 -0.20384035849E+03  0.22934791912E+03  0.75418804228E+03  0.81421800697E+03  0.00000000000E+00 0. -1.
<scales pt_clust_3="68.00390" pt_clust_4="313.34809" pt_clust_5="35.24475" pt_clust_6="14000.00000"></scales>
<clustering>
<clus scale="   35.245">  2  5  1 -1</clus>
<clus scale="   68.004">  2  3  1 -1</clus>
<clus scale="  313.348">  2  4  1 -1</clus>
<clus scale="  313.348">  1  3  2 -1</clus>
</clustering>
</event>
<event>
 6    0  0.4227619E+002  0.8716678E+02  0.7546771E-02  0.1309861E+00
         21   -1    0    0  506  501  0.00000000000E+00  0.00000000000E+00  0.31274635716E+03  0.31274635716E+03  0.00000000000E+00 0.  1.
         21   -1    0    0  504  502 -0.00000000000E+00 -0.00000000000E+00 -0.71492978033E+02  0.71492978033E+02  0.00000000000E+00 0.  1.
         21    1    1    2  503  502  0.33330842563E+02  0.47312363276E+01  0.34918514629E+01  0.33845571199E+02  0.00000000000E+00 0.  1.
         21    1    1    2  504  501 -0.41949191066E+02  0.95850099221E+02  0.24996082882E+02  0.10757220975E+03  0.00000000000E+00 0.  1.
         21    1    1    2  505  503  0.30150791192E+02 -0.52168823460E+02  0.14332025972E+03  0.15547139029E+03  0.00000000000E+00 0.  1.
         21    1    1    2  506  505 -0.21532442690E+02 -0.48412512088E+02  0.69445185062E+02  0.87350163956E+02  0.00000000000E+00 0.  1.
<scales pt_clust_3="33.66496" pt_clust_4="87.16678" pt_clust_5="14000.00000" pt_clust_6="50.34930"></scales>
<clustering>
<clus scale="   33.665">  2  3  1 -1</clus>
<clus scale="   50.349">  1  6  2 -1</clus>
<clus scale="   87.167">  2  4  1 -1</clus>
<clus scale="   50.349">  1  3  2 -1</clus>
</clustering>
</event>
<event>
 6    0  0.4227619E+002  0.8854353E+02  0.7546771E-02  0.1306418E+00
         21   -1    0    0  504  501  0.00000000000E+00  0.00000000000E+00  0.63201986567E+02  0.63201986567E+02  0.00000000000E+00 0.  1.
         21   -1    0    0  506  502 -0.00000000000E+00 -0.00000000000E+00 -0.96843811315E+03  0.96843811315E+03  0.00000000000E+00 0. -1.
         21    1    1    2  503  502  0.62526548512E+02  0.10328358259E+03 -0.29740401764E+03  0.32097697333E+03  0.00000000000E+00 0. -1.
         21    1    1    2  504  503 -0.44527810956E+01 -0.52238551128E+02  0.21343398868E+02  0.56605955152E+02  0.00000000000E+00 0.  1.
         21    1    1    2  505  501 -0.95786190728E+01 -0.40758675315E+02 -0.26945838951E+02  0.49790539197E+02  0.00000000000E+00 0.  1.
         21    1    1    2  506  505 -0.48495148343E+02 -0.10286356147E+02 -0.60222966886E+03  0.60426663204E+03  0.00000000000E+00 0. -1.
<scales pt_clust_3="14000.00000" pt_clust_4="88.54353" pt_clust_5="41.86908" pt_clust_6="49.93029"></scales>
<clustering>
<clus scale="   41.869">  1  5  2 -1</clus>
<clus scale="   49.930">  2  6  1 -1</clus>
<clus scale="   88.544">  1  4  2 -1</clus>
<clus scale="   41.869">  1  3  2 -1</clus>
</clustering>
</event>
<event>
 6    0  0.4227619E+002  0.1083197E+03  0.7546771E-02  0.1263714E+00
         21   -1    0    0  505  501  0.00000000000E+00  0.00000000000E+00  0.86708936800E+03  0.86708936800E+03  0.00000000000E+00 0. -1.
         21   -1    0    0  506  502 -0.00000000000E+00 -0.00000000000E+00 -0.53660976519E+03  0.53660976519E+03  0.00000000000E+00 0. -1.
         21    1    1    2  503  502  0.84159767524E+02  0.33069593496E+02 -0.23538214581E+03  0.25215316586E+03  0.00000000000E+00 0. -1.
         21    1    1    2  504  501 -0.89537719861E+01 -0.32216903322E+02  0.29015820129E+03  0.29207855222E+03  0.00000000000E+00 0. -1.
         21    1    1    2  505  503  0.52032254933E+02  0.92471128067E+02  0.54071974578E+03  0.55103185802E+03  0.00000000000E+00 0. -1.
         21    1    1    2  506  504 -0.12723825047E+03 -0.93323818242E+02 -0.26501619845E+03  0.30843555708E+03  0.00000000000E+00 0. -1.
<scales pt_clust_3="108.31968" pt_clust_4="33.43799" pt_clust_5="75.71360" pt_clust_6="14000.00000"></scales>
<clustering>
<clus scale="   33.438">  1  4  2 -1</clus>
<clus scale="   75.714">  1  5  2 -1</clus>
<clus scale="  108.320">  2  3  1 -1</clus>
<clus scale="   33.438">  1  3  2 -1</clus>
</clustering>
</event>
<event>
 6    0  0.4227619E+002  0.1022626E+03  0.7546771E-02  0.1275609E+00
         21   -1    0    0  502  501  0.00000000000E+00  0.00000000000E+00  0.11589722593E+04  0.11589722593E+04  0.00000000000E+00 0. -1.
         21   -1    0    0  503  502 -0.00000000000E+00 -0.00000000000E+00 -0.10618930433E+03  0.10618930433E+03  0.00000000000E+00 0. -1.
         21    1    1    2  503  505  0.33320750060E+00  0.57855612833E+02 -0.67105841093E+02  0.88603481152E+02  0.00000000000E+00 0. -1.
         21    1    1    2  504  506  0.83569538941E+02 -0.77966866480E+02  0.30661549363E+03  0.32722432832E+03  0.00000000000E+00 0. -1.
         21    1    1    2  505  504 -0.62988332147E+02  0.48616560965E+02  0.72276973294E+02  0.10749446895E+03  0.00000000000E+00 0. -1.
         21    1    1    2  506  501 -0.20914414294E+02 -0.28505307319E+02  0.74099632909E+03  0.74183928516E+03  0.00000000000E+00 0. -1.
<scales pt_clust_3="57.12219" pt_clust_4="14000.00000" pt_clust_5="102.26258" pt_clust_6="35.35485"></scales>
<clustering>
<clus scale="   35.355">  1  6  2 -1</clus>
<clus scale="   57.122">  2  3  1 -1</clus>
<clus scale="  102.263">  2  5  1 -1</clus>
<clus scale="   35.355">  1  3  2 -1</clus>
</clustering>
</event>
<event>
 6    0  0.4227619E+002  0.7723908E+02  0.7546771E-02  0.1337074E+00
         21   -1    0    0  503  501  0.00000000000E+00  0.00000000000E+00  0.19371462743E+03  0.19371462743E+03  0.00000000000E+00 0. -1.
         21   -1    0    0  506  502 -0.00000000000E+00 -0.00000000000E+00 -0.25696609225E+03  0.25696609225E+03  0.00000000000E+00 0. -1.
         21    1    1    2  503  504 -0.26303983061E+02  0.71961679719E+02  0.14347442648E+03  0.16265083438E+03  0.00000000000E+00 0. -1.
         21    1    1    2  504  502  0.86148399157E+01  0.38626221383E+02 -0.40010295962E+02  0.56276320314E+02  0.00000000000E+00 0. -1.
         21    1    1    2  505  501  0.65295826526E+02 -0.64014494001E+02 -0.74193135565E+02  0.11775407326E+03  0.00000000000E+00 0. -1.
         21    1    1    2  506  505 -0.47606683381E+02 -0.46573407101E+02 -0.92522459765E+02  0.11399949172E+03  0.00000000000E+00 0. -1.
<scales pt_clust_3="14000.00000" pt_clust_4="39.57525" pt_clust_5="77.23908" pt_clust_6="51.31968"></scales>
<clustering>
<clus scale="   39.575">  2  4  1 -1</clus>
<clus scale="   51.320">  2  6  1 -1</clus>
<clus scale="   77.239">  2  5  1 -1</clus>
<clus scale="   77.239">  1  3  2 -1</clus>
</clustering>
</event>
<event>
 6    0  0.4227619E+002  0.1885747E+03  0.7546771E-02  0.1159753E+00
         21   -1    0    0  506  501  0.00000000000E+00  0.00000000000E+00  0.25680401552E+03  0.25680401552E+03  0.00000000000E+00 0.  1.
         21   -1    0    0  505  502 -0.00000000000E+00 -0.00000000000E+00 -0.14111681671E+04  0.14111681671E+04  0.00000000000E+00 0. -1.
         21    1    1    2  503  504  0.20392613999E+03 -0.65288911213E+02 -0.10243078462E+04  0.10464487929E+04  0.00000000000E+00 0. -1.
         21    1    1    2  504  501 -0.18521171115E+03  0.30639515191E+02  0.19758370371E+03  0.27254628563E+03  0.00000000000E+00 0.  1.
         21    1    1    2  505  503  0.29329045066E+02 -0.19862465069E+02 -0.45677523880E+02  0.57802652109E+02  0.00000000000E+00 0.  1.
         21    1    1    2  506  502 -0.48043473904E+02  0.54511861092E+02 -0.28196248519E+03  0.29117445190E+03  0.00000000000E+00 0. -1.
<scales pt_clust_3="188.57469" pt_clust_4="14000.00000" pt_clust_5="35.42189" pt_clust_6="65.45933"></scales>
<clustering>
<clus scale="   35.422">  2  5  1 -1</clus>
<clus scale="   65.459">  2  6  1 -1</clus>
<clus scale="  188.575">  2  3  1 -1</clus>
<clus scale="  188.575">  1  3  2 -1</clus>
</clustering>
</event>
<event>
 6    0  0.4227619E+002  0.6643088E+02  0.7546771E-02  0.1372669E+00
         21   -1    0    0  504  501  0.00000000000E+00  0.00000000000E+00  0.45196901154E+03  0.45196901154E+03  0.00000000000E+00 0. -1.
         21   -1    0    0  501  502 -0.00000000000E+00 -0.00000000000E+00 -0.20224625077E+03  0.20224625077E+03  0.00000000000E+00 0. -1.
         21    1    1    2  503  505 -0.16199839215E+02  0.60703542832E+02 -0.13301770102E+03  0.14710901973E+03  0.00000000000E+00 0. -1.
         21    1    1    2  504  506 -0.20340987763E+02 -0.62734027059E+02  0.37116653465E+03  0.37697998671E+03  0.00000000000E+00 0. -1.
         21    1    1    2  505  502 -0.43062529100E+02 -0.17926499011E+02  0.11574163342E+02  0.48059359508E+02  0.00000000000E+00 0. -1.
         21    1    1    2  506  503  0.79603356079E+02  0.19956983238E+02 -0.23620801124E-03  0.82066896365E+02  0.00000000000E+00 0. -1.
<scales pt_clust_3="61.37517" pt_clust_4="66.43088" pt_clust_5="46.64484" pt_clust_6="14000.00000"></scales>
<clustering>
<clus scale="   46.645">  2  5  1 -1</clus>
<clus scale="   66.431">  1  4  2 -1</clus>
<clus scale="   61.375">  2  3  1 -1</clus>
<clus scale="   66.431">  1  3  2 -1</clus>
</clustering>
</event>
<event>
 6    0  0.4227619E+002  0.6160105E+02  0.7546771E-02  0.1391233E+00
         21   -1    0    0  504  501  0.00000000000E+00  0.00000000000E+00  0.29711959905E+03  0.29711959905E+03  0.00000000000E+00 0. -1.
         21   -1    0    0  505  502 -0.00000000000E+00 -0.00000000000E+00 -0.39245599947E+03  0.39245599947E+03  0.00000000000E+00 0.  1.
         21    1    1    2  503  502  0.10834850313E+02 -0.74080936957E+02 -0.32988879308E+03  0.33827798480E+03  0.00000000000E+00 0.  1.
         21    1    1    2  504  503 -0.17277859855E+02  0.97286753100E+02  0.59884787968E+02  0.11553971006E+03  0.00000000000E+00 0. -1.
         21    1    1    2  505  506  0.18190454019E+02  0.26233780618E+02 -0.17899246629E+02  0.36599001254E+02  0.00000000000E+00 0. -1.
         21    1    1    2  506  501 -0.11747444477E+02 -0.49439596761E+02  0.19256685133E+03  0.19915890241E+03  0.00000000000E+00 0. -1.
<scales pt_clust_3="61.60105" pt_clust_4="14000.00000" pt_clust_5="31.92341" pt_clust_6="50.54791"></scales>
<clustering>
<clus scale="   31.923">  2  5  1 -1</clus>
<clus scale="   50.548">  1  6  2 -1</clus>
<clus scale="   61.601">  2  3  1 -1</clus>
<clus scale="   50.548">  1  3  2 -1</clus>
</clustering>
</event>
<event>
 6    0  0.4227619E+002  0.8967629E+02  0.7546771E-02  0.1303637E+00
         21   -1    0    0  505  501  0.00000000000E+00  0.00000000000E+00  0.79538492443E+02  0.79538492443E+02  0.00000000000E+00 0.  1.
         21   -1    0    0  503  502 -0.00000000000E+00 -0.00000000000E+00 -0.40616611864E+04  0.40616611864E+04  0.00000000000E+00 0. -1.
         21    1    1    2  503  506  0.31699578847E+02 -0.10542584875E+02 -0.22099648719E+04  0.22102173523E+04  0.00000000000E+00 0. -1.
         21    1    1    2  504  502  0.62459294778E+02  0.63556000078E+02 -0.92978581333E+02  0.12878487969E+03  0.00000000000E+00 0.  1.
         21    1    1    2  505  504  0.22925494714E+02 -0.39518475787E+02  0.50734444433E+02  0.68273509419E+02  0.00000000000E+00 0.  1.
         21    1    1    2  506  501 -0.11708436834E+03 -0.13494939415E+02 -0.17299136852E+04  0.17339239375E+04  0.00000000000E+00 0.  1.
<scales pt_clust_3="33.40673" pt_clust_4="89.67629" pt_clust_5="45.80550" pt_clust_6="14000.00000"></scales>
<clustering>
<clus scale="   33.407">  2  3  1 -1</clus>
<clus scale="   45.805">  1  5  2 -1</clus>
<clus scale="   89.676">  1  4  2 -1</clus>
<clus scale="   45.805">  1  3  2 -1</clus>
</clustering>
</event>
<event>
 6    0  0.4227619E+002  0.8329418E+02  0.7546771E-02  0.1319955E+00
         21   -1    0    0  503  501  0.00000000000E+00  0.00000000000E+00  0.14618945752E+04  0.14618945752E+04  0.00000000000E+00 0. -1.
         21   -1    0    0  506  502 -0.00000000000E+00 -0.00000000000E+00 -0.17341129399E+03  0.17341129399E+03  0.00000000000E+00 0.  1.
         21    1    1    2  503  502  0.62561319956E+02 -0.57284781461E+02  0.34324646359E+02  0.91507629678E+02  0.00000000000E+00 0.  1.
         21    1    1    2  504  505 -0.89043911886E+02 -0.26610741753E+02 -0.54754984588E+02  0.10786592677E+03  0.00000000000E+00 0.  1.
         21    1    1    2  505  501  0.32337429112E+02  0.51188517384E+02  0.13673607728E+04  0.13687006454E+04  0.00000000000E+00 0. -1.
         21    1    1    2  506  504 -0.58548371819E+01  0.32707005830E+02 -0.58447153415E+02  0.67231667324E+02  0.00000000000E+00 0.  1.
<scales pt_clust_3="14000.00000" pt_clust_4="83.29418" pt_clust_5="60.69603" pt_clust_6="33.22691"></scales>
<clustering>
<clus scale="   33.227">  2  6  1 -1</clus>
<clus scale="   60.696">  1  5  2 -1</clus>
<clus scale="   83.294">  2  4  1 -1</clus>
<clus scale="   60.696">  1  3  2 -1</clus>
</clustering>
</event>
<event>
 6    0  0.4227619E+002  0.1236914E+03  0.7546771E-02  0.1237129E+00
         21   -1    0    0  503  501  0.00000000000E+00  0.00000000000E+00  0.17506301614E+03  0.17506301614E+03  0.00000000000E+00 0.  1.
         21   -1    0    0  506  502 -0.00000000000E+00 -0.00000000000E+00 -0.81235938872E+03  0.81235938872E+03  0.00000000000E+00 0. -1.
         21    1    1    2  503  505 -0.12047741984E+03  0.57271848077E+02  0.12659543047E+03  0.18390561788E+03  0.00000000000E+00 0.  1.
         21    1    1    2  504  501 -0.30075368238E+01 -0.55488997830E+02 -0.29355128156E+03  0.29876483907E+03  0.00000000000E+00 0. -1.
         21    1    1    2  505  502  0.91398058144E+02  0.97702614807E+01 -0.11243970768E+03  0.14522999313E+03  0.00000000000E+00 0.  1.
         21    1    1    2  506  504  0.32086898517E+02 -0.11553111727E+02 -0.35790081381E+03  0.35952195479E+03  0.00000000000E+00 0. -1.
<scales pt_clust_3="123.69136" pt_clust_4="65.53462" pt_clust_5="14000.00000" pt_clust_6="34.10342"></scales>
<clustering>
<clus scale="   34.103">  2  6  1 -1</clus>
<clus scale="   65.535">  2  4  1 -1</clus>
<clus scale="  123.691">  1  3  2 -1</clus>
<clus scale="  123.691">  1  3  2 -1</clus>
</clustering>
</event>
<event>
 6    0  0.4227619E+002  0.8942500E+02  0.7546771E-02  0.1304250E+00
         21   -1    0    0  505  501  0.00000000000E+00  0.00000000000E+00  0.78589640820E+02  0.78589640820E+02  0.00000000000E+00 0.  1.
         21   -1    0    0  504  502 -0.00000000000E+00 -0.00000000000E+00 -0.43076991276E+03  0.43076991276E+03  0.00000000000E+00 0.  1.
         21    1    1    2  503  501 -0.35933021970E+02 -0.90853346090E+01 -0.10174138210E+02  0.38434859974E+02  0.00000000000E+00 0. -1.
         21    1    1    2  504  503 -0.59631760067E+02 -0.75594169309E+02 -0.27557638459E+03  0.29191226248E+03  0.00000000000E+00 0.  1.
         21    1    1    2  505  506  0.33715583152E+02  0.35777932549E+02  0.27537476946E+02  0.56348146743E+02  0.00000000000E+00 0.  1.
         21    1    1    2  506  502  0.61849198886E+02  0.48901571368E+02 -0.93967226083E+02  0.12266428438E+03  0.00000000000E+00 0.  1.
<scales pt_clust_3="37.06380" pt_clust_4="89.42500" pt_clust_5="31.60367" pt_clust_6="14000.00000"></scales>
<clustering>
<clus scale="   37.064">  1  3  2 -1</clus>
<clus scale="   31.604">  1  5  2 -1</clus>
<clus scale="   89.425">  2  4  1 -1</clus>
<clus scale="   37.064">  1  3  2 -1</clus>
</clustering>
</event>
<event>
 6    0  0.4227619E+002  0.2022366E+03  0.7546771E-02  0.1147866E+00
         21   -1    0    0  505  501  0.00000000000E+00  0.00000000000E+00  0.30105605563E+03  0.30105605563E+03  0.00000000000E+00 0.  1.
         21   -1    0    0  503  502 -0.00000000000E+00 -0.00000000000E+00 -0.18813742072E+04  0.18813742072E+04  0.00000000000E+00 0. -1.
         21    1    1    2  503  501  0.17963787472E+03  0.71670742075E+02 -0.14797689690E+04  0.14923547376E+04  0.00000000000E+00 0. -1.
         21    1    1    2  504  506 -0.55413232166E+02 -0.10636864076E+03 -0.28332878489E+03  0.30766883883E+03  0.00000000000E+00 0.  1.
         21    1    1    2  505  504 -0.71155157152E+02  0.84817767065E+02  0.25606272956E+03  0.27897173955E+03  0.00000000000E+00 0.  1.
         21    1    1    2  506  502 -0.53069485407E+02 -0.50119868379E+02 -0.73283127268E+02  0.10343494685E+03  0.00000000000E+00 0.  1.
<scales pt_clust_3="187.94289" pt_clust_4="58.26081" pt_clust_5="110.71183" pt_clust_6="58.26081"></scales>
<clustering>
<clus scale="   58.261">  4  6 -1 -1</clus>
<clus scale="  110.712">  1  5  2 -1</clus>
<clus scale="  187.943">  2  3  1 -1</clus>
<clus scale="  110.712">  1  3  2 -1</clus>
</clustering>
</event>
<event>
 6    0  0.4227619E+002  0.3297785E+03  0.7546771E-02  0.1071235E+00
         21   -1    0    0  505  501  0.00000000000E+00  0.00000000000E+00  0.71880584318E+03  0.71880584318E+03  0.00000000000E+00 0. -1.
         21   -1    0    0  503  502 -0.00000000000E+00 -0.00000000000E+00 -0.52678057520E+03  0.52678057520E+03  0.00000000000E+00 0. -1.
         21    1    1    2  503  501  0.30792845658E+03 -0.95975228374E+02  0.55481431052E+03  0.64175548147E+03  0.00000000000E+00 0. -1.
         21    1    1    2  504  506 -0.13286454992E+03  0.40894089777E+02 -0.72846745941E+02  0.15694573457E+03  0.00000000000E+00 0. -1.
         21    1    1    2  505  504 -0.15420991766E+03  0.11709326877E+03 -0.52534540705E+02  0.20062754114E+03  0.00000000000E+00 0. -1.
         21    1    1    2  506  502 -0.20853989000E+02 -0.62012130175E+02 -0.23740775589E+03  0.24625766121E+03  0.00000000000E+00 0. -1.
<scales pt_clust_3="322.47081" pt_clust_4="58.49850" pt_clust_5="58.49850" pt_clust_6="65.42471"></scales>
<clustering>
<clus scale="   58.499">  4  5 -1 -1</clus>
<clus scale="   65.425">  2  6  1 -1</clus>
<clus scale="  322.471">  1  3  2 -1</clus>
<clus scale="  322.471">  1  3  2 -1</clus>
</clustering>
</event>
<event>
 6    0  0.4227619E+002  0.7725330E+02  0.7546771E-02  0.1337032E+00
         21   -1    0    0  505  501  0.00000000000E+00  0.00000000000E+00  0.50906420236E+03  0.50906420236E+03  0.00000000000E+00 0. -1.
         21   -1    0    0  503  502 -0.00000000000E+00 -0.00000000000E+00 -0.17320114626E+03  0.17320114626E+03  0.00000000000E+00 0. -1.
         21    1    1    2  503  501 -0.10095528788E+03  0.91747859447E+02 -0.28921198696E+02  0.13944918644E+03  0.00000000000E+00 0. -1.
         21    1    1    2  504  506  0.27761601204E+02 -0.22032101988E+02  0.13663244407E+03  0.14115432970E+03  0.00000000000E+00 0. -1.
         21    1    1    2  505  504  0.17157803230E+02 -0.28862691648E+02  0.29996085266E+03  0.30183432262E+03  0.00000000000E+00 0. -1.
         21    1    1    2  506  502  0.56035883451E+02 -0.40853065811E+02 -0.71809041947E+02  0.99827509864E+02  0.00000000000E+00 0. -1.
<scales pt_clust_3="70.36239" pt_clust_4="31.04350" pt_clust_5="31.04350" pt_clust_6="69.34690"></scales>
<clustering>
<clus scale="   31.043">  4  5 -1 -1</clus>
<clus scale="   69.347">  2  6  1 -1</clus>
<clus scale="   70.362">  2  3  1 -1</clus>
<clus scale="   77.253">  1  3  2 -1</clus>
</clustering>
</event>
<event>
 6    0  0.4227619E+002  0.1842913E+03  0.7546771E-02  0.1163713E+00
         21   -1    0    0  503  501  0.00000000000E+00  0.00000000000E+00  0.17725009299E+04  0.17725009299E+04  0.00000000000E+00 0. -1.
         21   -1    0    0  504  502 -0.00000000000E+00 -0.00000000000E+00 -0.23458006542E+03  0.23458006542E+03  0.00000000000E+00 0. -1.
         21    1    1    2  503  505 -0.69372141489E+02  0.10935417699E+01  0.83619077265E+03  0.83906417997E+03  0.00000000000E+00 0. -1.
         21    1    1    2  504  506 -0.13015861284E+03 -0.22529743869E+02 -0.11720986110E+03  0.17659842976E+03  0.00000000000E+00 0. -1.
         21    1    1    2  505  502  0.19574388778E+03 -0.15182732252E+03  0.12753807281E+03  0.27862728776E+03  0.00000000000E+00 0. -1.
         21    1    1    2  506  501  0.37868665512E+01  0.17326352462E+03  0.69140188011E+03  0.71279109782E+03  0.00000000000E+00 0. -1.
<scales pt_clust_3="69.38076" pt_clust_4="134.25999" pt_clust_5="184.29133" pt_clust_6="14000.00000"></scales>
<clustering>
<clus scale="   69.381">  1  3  2 -1</clus>
<clus scale="  134.260">  2  4  1 -1</clus>
<clus scale="  184.291">  2  5  1 -1</clus>
<clus scale="   69.381">  1  3  2 -1</clus>
</clustering>
</event>
<event>
 6    0  0.4227619E+002  0.2013278E+03  0.7546771E-02  0.1148624E+00
         21   -1    0    0  504  501  0.00000000000E+00  0.00000000000E+00  0.14443829435E+04  0.14443829435E+04  0.00000000000E+00 0. -1.
         21   -1    0    0  506  502 -0.00000000000E+00 -0.00000000000E+00 -0.20464809901E+03  0.20464809901E+03  0.00000000000E+00 0. -1.
         21    1    1    2  503  502  0.80103539493E+02 -0.52675205256E+02  0.12110783527E+03  0.15446152289E+03  0.00000000000E+00 0.  1.
         21    1    1    2  504  503 -0.18671596880E+02 -0.28208855812E+02  0.32399074359E+03  0.32575200691E+03  0.00000000000E+00 0. -1.
         21    1    1    2  505  501  0.60184540399E+02 -0.87078329354E+02  0.92028452944E+03  0.92635221675E+03  0.00000000000E+00 0. -1.
         21    1    1    2  506  505 -0.12161648301E+03  0.16796239042E+03 -0.12564826383E+03  0.24246529595E+03  0.00000000000E+00 0. -1.
<scales pt_clust_3="95.94888" pt_clust_4="33.82851" pt_clust_5="14000.00000" pt_clust_6="201.32783"></scales>
<clustering>
<clus scale="   33.829">  1  4  2 -1</clus>
<clus scale="   95.949">  1  3  2 -1</clus>
<clus scale="  201.328">  2  6  1 -1</clus>
<clus scale="   33.829">  1  3  2 -1</clus>
</clustering>
</event>
<event>
 6    0  0.4227619E+002  0.9672389E+02  0.7546771E-02  0.1287340E+00
         21   -1    0    0  505  501  0.00000000000E+00  0.00000000000E+00  0.81652803476E+03  0.81652803476E+03  0.00000000000E+00 0. -1.
         21   -1    0    0  504  502 -0.00000000000E+00 -0.00000000000E+00 -0.37917583302E+03  0.37917583302E+03  0.00000000000E+00 0.  1.
         21    1    1    2  503  506 -0.64966218962E+02  0.40109352154E+02  0.50160465727E+01  0.76514903514E+02  0.00000000000E+00 0. -1.
         21    1    1    2  504  501  0.32324166873E+02 -0.93237430745E+02 -0.24359835136E+03  0.26282737118E+03  0.00000000000E+00 0.  1.
         21    1    1    2  505  503 -0.17167898959E+01  0.46040161131E+02  0.76201507539E+03  0.76340658821E+03  0.00000000000E+00 0. -1.
         21    1    1    2  506  502  0.34358841986E+02  0.70879174610E+01 -0.86080568860E+02  0.92955004878E+02  0.00000000000E+00 0.  1.
<scales pt_clust_3="14000.00000" pt_clust_4="96.72389" pt_clust_5="46.08617" pt_clust_6="35.08231"></scales>
<clustering>
<clus scale="   35.082">  2  6  1 -1</clus>
<clus scale="   46.086">  1  5  2 -1</clus>
<clus scale="   96.724">  2  4  1 -1</clus>
<clus scale="   46.086">  1  3  2 -1</clus>
</clustering>
</event>
<event>
 6    0  0.4227619E+002  0.1905271E+03  0.7546771E-02  0.1157987E+00
         21   -1    0    0  505  501  0.00000000000E+00  0.00000000000E+00  0.10949355393E+04  0.10949355393E+04  0.00000000000E+00 0. -1.
         21   -1    0    0  503  502 -0.00000000000E+00 -0.00000000000E+00 -0.94784438912E+02  0.94784438912E+02  0.00000000000E+00 0. -1.
         21    1    1    2  503  506  0.34246407141E+02  0.63594023607E+02  0.12312667794E+01  0.72239409317E+02  0.00000000000E+00 0. -1.
         21    1    1    2  504  501  0.31034221496E+02 -0.44347295354E+02  0.65814049459E+03  0.66036256415E+03  0.00000000000E+00 0. -1.
         21    1    1    2  505  502 -0.12751071676E+03 -0.11846744259E+03  0.26691989567E+03  0.31865302218E+03  0.00000000000E+00 0. -1.
         21    1    1    2  506  504  0.62230088125E+02  0.99220714332E+02  0.73859443320E+02  0.13846498253E+03  0.00000000000E+00 0. -1.
<scales pt_clust_3="42.59054" pt_clust_4="54.12768" pt_clust_5="182.64498" pt_clust_6="42.59054"></scales>
<clustering>
<clus scale="   42.591">  3  6 -1 -1</clus>
<clus scale="   54.128">  1  4  2 -1</clus>
<clus scale="  182.645">  1  5  2 -1</clus>
<clus scale="   54.128">  1  3  2 -1</clus>
</clustering>
</event>
<event>
 6    0  0.4227619E+002  0.9387784E+02  0.7546771E-02  0.1293724E+00
         21   -1    0    0  503  501  0.00000000000E+00  0.00000000000E+00  0.18918815324E+02  0.18918815324E+02  0.00000000000E+00 0. -1.
         21   -1    0    0  506  502 -0.00000000000E+00 -0.00000000000E+00 -0.16262157353E+04  0.16262157353E+04  0.00000000000E+00 0. -1.
         21    1    1    2  503  504 -0.66434920204E+02  0.39634946609E+02 -0.26800302127E+03  0.27894470245E+03  0.00000000000E+00 0. -1.
         21    1    1    2  504  502 -0.64087011636E+02  0.18980641751E+02 -0.66870851743E+03  0.67204054275E+03  0.00000000000E+00 0. -1.
         21    1    1    2  505  501  0.25662828531E+02  0.23798213091E+02 -0.62715426388E+02  0.71820334318E+02  0.00000000000E+00 0. -1.
         21    1    1    2  506  505  0.10485910331E+03 -0.82413801452E+02 -0.60786995485E+03  0.62232897106E+03  0.00000000000E+00 0. -1.
<scales pt_clust_3="93.87784" pt_clust_4="64.86293" pt_clust_5="34.99908" pt_clust_6="14000.00000"></scales>
<clustering>
<clus scale="   34.999">  1  5  2 -1</clus>
<clus scale="   64.863">  2  4  1 -1</clus>
<clus scale="   93.878">  1  3  2 -1</clus>
<clus scale="   34.999">  1  3  2 -1</clus>
</clustering>
</event>
<event>
 6    0  0.4227619E+002  0.1423314E+03  0.7546771E-02  0.1210226E+00
         21   -1    0    0  505  501  0.00000000000E+00  0.00000000000E+00  0.48406333693E+03  0.48406333693E+03  0.00000000000E+00 0. -1.
         21   -1    0    0  503  502 -0.00000000000E+00 -0.00000000000E+00 -0.19458323442E+03  0.19458323442E+03  0.00000000000E+00 0. -1.
         21    1    1    2  503  501 -0.15113346071E+03  0.68818768384E+02  0.13732798846E+03  0.21549088668E+03  0.00000000000E+00 0. -1.
         21    1    1    2  504  502  0.36555699442E+02 -0.31754316507E+02 -0.12559906759E+03  0.13460973798E+03  0.00000000000E+00 0. -1.
         21    1    1    2  505  506 -0.14945779719E+01  0.34330314372E+02  0.91701054253E+02  0.97927971486E+02  0.00000000000E+00 0. -1.
         21    1    1    2  506  504  0.11607233924E+03 -0.71394766249E+02  0.18605012739E+03  0.23061797520E+03  0.00000000000E+00 0. -1.
<scales pt_clust_3="14000.00000" pt_clust_4="48.14887" pt_clust_5="34.36283" pt_clust_6="142.33137"></scales>
<clustering>
<clus scale="   34.363">  1  5  2 -1</clus>
<clus scale="   48.149">  2  4  1 -1</clus>
<clus scale="  142.331">  1  6  2 -1</clus>
<clus scale="   34.363">  1  3  2 -1</clus>
</clustering>
</event>
<event>
 6    0  0.4227619E+002  0.9970584E+02  0.7546771E-02  0.1280916E+00
         21   -1    0    0  504  501  0.00000000000E+00  0.00000000000E+00  0.79304704012E+02  0.79304704012E+02  0.00000000000E+00 0.  1.
         21   -1    0    0  501  502 -0.00000000000E+00 -0.00000000000E+00 -0.20311249200E+04  0.20311249200E+04  0.00000000000E+00 0.  1.
         21    1    1    2  503  502  0.90602613209E+02  0.46350570066E+02 -0.15526919217E+04  0.15560235900E+04  0.00000000000E+00 0.  1.
         21    1    1    2  504  505  0.61101676049E+02  0.44431076744E+02  0.25217801960E+02  0.79645922258E+02  0.00000000000E+00 0.  1.
         21    1    1    2  505  506 -0.67723052764E+02 -0.52441810466E+02 -0.76403091887E+02  0.11477799358E+03  0.00000000000E+00 0.  1.
         21    1    1    2  506  503 -0.83981236494E+02 -0.38339836345E+02 -0.34794300433E+03  0.35998211816E+03  0.00000000000E+00 0.  1.
<scales pt_clust_3="14000.00000" pt_clust_4="75.54823" pt_clust_5="31.77786" pt_clust_6="99.70584"></scales>
<clustering>
<clus scale="   75.548">  1  4  2 -1</clus>
<clus scale="   31.778">  1  5  2 -1</clus>
<clus scale="   99.706">  1  6  2 -1</clus>
<clus scale="   75.548">  1  3  2 -1</clus>
</clustering>
</event>
<event>
 6    0  0.4227619E+002  0.1153109E+03  0.7546771E-02  0.1251039E+00
         21   -1    0    0  506  501  0.00000000000E+00  0.00000000000E+00  0.14021724817E+04  0.14021724817E+04  0.00000000000E+00 0.  1.
         21   -1    0    0  503  502 -0.00000000000E+00 -0.00000000000E+00 -0.54211099263E+02  0.54211099263E+02  0.00000000000E+00 0.  1.
         21    1    1    2  503  501 -0.65263799261E+02 -0.74062711447E+02  0.23448510040E+03  0.25441680572E+03  0.00000000000E+00 0.  1.
         21    1    1    2  504  502  0.18635956969E+02 -0.29607205722E+02 -0.24476540966E+02  0.42696446930E+02  0.00000000000E+00 0. -1.
         21    1    1    2  505  504  0.30819456782E+02  0.14338081352E+03  0.53296180373E+03  0.55277136398E+03  0.00000000000E+00 0.  1.
         21    1    1    2  506  505  0.15808385511E+02 -0.39710896354E+02  0.60499101928E+03  0.60649896435E+03  0.00000000000E+00 0.  1.
<scales pt_clust_3="14000.00000" pt_clust_4="34.98408" pt_clust_5="115.31089" pt_clust_6="43.99997"></scales>
<clustering>
<clus scale="   34.984">  2  4  1 -1</clus>
<clus scale="   44.000">  1  6  2 -1</clus>
<clus scale="  115.311">  1  5  2 -1</clus>
<clus scale="   44.000">  1  3  2 -1</clus>
</clustering>
</event>
<event>
 6    0  0.4227619E+002  0.1174408E+03  0.7546771E-02  0.1247380E+00
         21   -1    0    0  505  501  0.00000000000E+00  0.00000000000E+00  0.11725528160E+04  0.11725528160E+04  0.00000000000E+00 0. -1.
         21   -1    0    0  503  502 -0.00000000000E+00 -0.00000000000E+00 -0.19225276048E+03  0.19225276048E+03  0.00000000000E+00 0. -1.
         21    1    1    2  503  501  0.54138710235E+02 -0.11867403486E+03  0.10021390595E+04  0.10105925099E+04  0.00000000000E+00 0. -1.
         21    1    1    2  504  506 -0.50295349539E+02  0.11692417496E+03  0.72650836868E+02  0.14655725493E+03  0.00000000000E+00 0. -1.
         21    1    1    2  505  504  0.19225553669E+02  0.30902426949E+02  0.48089791700E+02  0.60309285943E+02  0.00000000000E+00 0. -1.
         21    1    1    2  506  502 -0.23068914364E+02 -0.29152567055E+02 -0.14257963262E+03  0.14734652563E+03  0.00000000000E+00 0. -1.
<scales pt_clust_3="117.44084" pt_clust_4="14000.00000" pt_clust_5="36.39481" pt_clust_6="37.09882"></scales>
<clustering>
<clus scale="   36.395">  1  5  2 -1</clus>
<clus scale="   37.099">  2  6  1 -1</clus>
<clus scale="  117.441">  1  3  2 -1</clus>
<clus scale="   36.395">  1  3  2 -1</clus>
</clustering>
</event>
<event>
 6    0  0.4227619E+002  0.9341214E+02  0.7546771E-02  0.1294793E+00
         21   -1    0    0  503  501  0.00000000000E+00  0.00000000000E+00  0.39000981931E+03  0.39000981931E+03  0.00000000000E+00 0. -1.
         21   -1    0    0  506  502 -0.00000000000E+00 -0.00000000000E+00 -0.51672296975E+02  0.51672296975E+02  0.00000000000E+00 0. -1.
         21    1    1    2  503  504 -0.36266994270E+02  0.21559494146E+02  0.98805577376E+02  0.10743671990E+03  0.00000000000E+00 0. -1.
         21    1    1    2  504  502  0.72607932790E+02  0.56475066885E+02  0.60606389367E+02  0.11015661358E+03  0.00000000000E+00 0. -1.
         21    1    1    2  505  501 -0.68536145084E+02 -0.55861116219E+02  0.15444732601E+03  0.17796528875E+03  0.00000000000E+00 0. -1.
         21    1    1    2  506  505  0.32195206564E+02 -0.22173444813E+02  0.24478229577E+02  0.46123494054E+02  0.00000000000E+00 0. -1.
<scales pt_clust_3="38.07162" pt_clust_4="14000.00000" pt_clust_5="93.41214" pt_clust_6="39.09211"></scales>
<clustering>
<clus scale="   39.092">  2  6  1 -1</clus>
<clus scale="   38.072">  1  3  2 -1</clus>
<clus scale="   93.412">  1  5  2 -1</clus>
<clus scale="   38.072">  1  3  2 -1</clus>
</clustering>
</event>
<event>
 6    0  0.4227619E+002  0.1003753E+03  0.7546771E-02  0.1279509E+00
         21   -1    0    0  506  501  0.00000000000E+00  0.00000000000E+00  0.14773827349E+03  0.14773827349E+03  0.00000000000E+00 0.  1.
         21   -1    0    0  504  502 -0.00000000000E+00 -0.00000000000E+00 -0.10070000291E+04  0.10070000291E+04  0.00000000000E+00 0. -1.
         21    1    1    2  503  502 -0.37318738795E+02  0.15212898457E+02 -0.11153491482E+03  0.11859240182E+03  0.00000000000E+00 0. -1.
         21    1    1    2  504  505 -0.54669812470E+02  0.35880348927E+02 -0.79483209240E+03  0.79751755024E+03  0.00000000000E+00 0. -1.
         21    1    1    2  505  501  0.73874865758E+02  0.73318794727E+02  0.43628623177E+02  0.11285653819E+03  0.00000000000E+00 0.  1.
         21    1    1    2  506  503  0.18113685508E+02 -0.12441204211E+03  0.34766284794E+01  0.12577181231E+03  0.00000000000E+00 0.  1.
<scales pt_clust_3="40.30038" pt_clust_4="100.93114" pt_clust_5="14000.00000" pt_clust_6="100.37535"></scales>
<clustering>
<clus scale="   40.300">  2  3  1 -1</clus>
<clus scale="  100.931">  2  4  1 -1</clus>
<clus scale="  100.375">  2  6  1 -1</clus>
<clus scale="  100.375">  1  3  2 -1</clus>
</clustering>
</event>
<event>
 6    0  0.4227619E+002  0.9686243E+02  0.7546771E-02  0.1287036E+00
         21   -1    0    0  505  501  0.00000000000E+00  0.00000000000E+00  0.81398258688E+03  0.81398258688E+03  0.00000000000E+00 0. -1.
         21   -1    0    0  506  502 -0.00000000000E+00 -0.00000000000E+00 -0.19909019671E+03  0.19909019671E+03  0.00000000000E+00 0. -1.
         21    1    1    2  503  502  0.19279863785E+02  0.43156425755E+02 -0.16863932041E+03  0.17513826144E+03  0.00000000000E+00 0. -1.
         21    1    1    2  504  503 -0.67910617545E+02 -0.80744766773E+02  0.49383975809E+03  0.50498443145E+03  0.00000000000E+00 0. -1.
         21    1    1    2  505  504  0.34732424437E+02 -0.26492907874E+02  0.25510154408E+03  0.25881463109E+03  0.00000000000E+00 0. -1.
         21    1    1    2  506  501  0.13898329323E+02  0.64081248892E+02  0.34590408408E+02  0.74135459608E+02  0.00000000000E+00 0.  1.
<scales pt_clust_3="47.20941" pt_clust_4="96.86243" pt_clust_5="43.68313" pt_clust_6="14000.00000"></scales>
<clustering>
<clus scale="   43.683">  1  5  2 -1</clus>
<clus scale="   47.209">  2  3  1 -1</clus>
<clus scale="   96.862">  1  4  2 -1</clus>
<clus scale="   43.683">  1  3  2 -1</clus>
</clustering>
</event>
<event>
 6    0  0.4227619E+002  0.1205780E+03  0.7546771E-02  0.1242147E+00
         21   -1    0    0  504  501  0.00000000000E+00  0.00000000000E+00  0.56972713215E+03  0.56972713215E+03  0.00000000000E+00 0. -1.
         21   -1    0    0  503  502 -0.00000000000E+00 -0.00000000000E+00 -0.32956881607E+03  0.32956881607E+03  0.00000000000E+00 0. -1.
         21    1    1    2  503  505 -0.54868142351E+02  0.75181624620E+01 -0.40310833942E+02  0.68498168917E+02  0.00000000000E+00 0. -1.
         21    1    1    2  504  506  0.14638364255E+02  0.91218353171E+02  0.43586383813E+01  0.92488201366E+02  0.00000000000E+00 0. -1.
         21    1    1    2  505  501  0.49157769139E+01  0.31194755435E+02  0.48704327407E+03  0.48806600829E+03  0.00000000000E+00 0. -1.
         21    1    1    2  506  502  0.35314001181E+02 -0.12993127107E+03 -0.21093276243E+03  0.25024356964E+03  0.00000000000E+00 0. -1.
<scales pt_clust_3="55.53648" pt_clust_4="120.57798" pt_clust_5="31.57970" pt_clust_6="14000.00000"></scales>
<clustering>
<clus scale="   31.580">  1  5  2 -1</clus>
<clus scale="   55.536">  1  3  2 -1</clus>
<clus scale="  120.578">  1  4  2 -1</clus>
<clus scale="   31.580">  1  3  2 -1</clus>
</clustering>
</event>
<event>
 6    0  0.4227619E+002  0.7945953E+02  0.7546771E-02  0.1330592E+00
         21   -1    0    0  503  501  0.00000000000E+00  0.00000000000E+00  0.11462693460E+04  0.11462693460E+04  0.00000000000E+00 0.  1.
         21   -1    0    0  506  502 -0.00000000000E+00 -0.00000000000E+00 -0.89367310667E+03  0.89367310667E+03  0.00000000000E+00 0. -1.
         21    1    1    2  503  505  0.42136828043E+02 -0.69005498780E+01  0.10417089122E+04  0.10425836118E+04  0.00000000000E+00 0.  1.
         21    1    1    2  504  501 -0.10325473808E+03  0.72814802920E+02 -0.61365677778E+03  0.62652867243E+03  0.00000000000E+00 0. -1.
         21    1    1    2  505  502  0.14707882388E+02 -0.50605671873E+02  0.88166670462E+02  0.10271619936E+03  0.00000000000E+00 0.  1.
         21    1    1    2  506  504  0.46410027653E+02 -0.15308581169E+02 -0.26362256557E+03  0.26811396905E+03  0.00000000000E+00 0. -1.
<scales pt_clust_3="42.69812" pt_clust_4="14000.00000" pt_clust_5="79.45953" pt_clust_6="49.77954"></scales>
<clustering>
<clus scale="   42.698">  1  3  2 -1</clus>
<clus scale="   49.780">  2  6  1 -1</clus>
<clus scale="   79.460">  1  5  2 -1</clus>
<clus scale="   42.698">  1  3  2 -1</clus>
</clustering>
</event>
<event>
 6    0  0.4227619E+002  0.7592950E+02  0.7546771E-02  0.1341017E+00
         21   -1    0    0  502  501  0.00000000000E+00  0.00000000000E+00  0.12859012827E+04  0.12859012827E+04  0.00000000000E+00 0.  1.
         21   -1    0    0  505  502 -0.00000000000E+00 -0.00000000000E+00 -0.66180972619E+02  0.66180972619E+02  0.00000000000E+00 0. -1.
         21    1    1    2  503  506 -0.43799867802E+02 -0.23569335785E+02  0.16593611213E+03  0.17323029561E+03  0.00000000000E+00 0. -1.
         21    1    1    2  504  503 -0.26884293558E+02  0.10266901338E+03  0.92442519047E+03  0.93049751441E+03  0.00000000000E+00 0.  1.
         21    1    1    2  505  504  0.37954689542E+02 -0.64953077019E+02 -0.32983529562E+02  0.82142400104E+02  0.00000000000E+00 0. -1.
         21    1    1    2  506  501  0.32729471817E+02 -0.14146600572E+02  0.16234253702E+03  0.16621204516E+03  0.00000000000E+00 0.  1.
<scales pt_clust_3="46.58691" pt_clust_4="14000.00000" pt_clust_5="75.92950" pt_clust_6="35.65592"></scales>
<clustering>
<clus scale="   35.656">  1  6  2 -1</clus>
<clus scale="   46.587">  1  3  2 -1</clus>
<clus scale="   75.930">  2  5  1 -1</clus>
<clus scale="   35.656">  1  3  2 -1</clus>
</clustering>
</event>
<event>
 6    0  0.4227619E+002  0.8676700E+02  0.7546771E-02  0.1310875E+00
         21   -1    0    0  505  501  0.00000000000E+00  0.00000000000E+00  0.15760899022E+04  0.15760899022E+04  0.00000000000E+00 0. -1.
         21   -1    0    0  506  502 -0.00000000000E+00 -0.00000000000E+00 -0.36278433361E+03  0.36278433361E+03  0.00000000000E+00 0. -1.
         21    1    1    2  503  501  0.33155451480E+02 -0.36261250048E+02  0.13884659851E+03  0.14728387602E+03  0.00000000000E+00 0. -1.
         21    1    1    2  504  503 -0.23519194350E+02 -0.80544020220E+02 -0.47344081335E+02  0.96342896643E+02  0.00000000000E+00 0. -1.
         21    1    1    2  505  502  0.10661160595E+02  0.29059051544E+02  0.14012776173E+04  0.14016194382E+04  0.00000000000E+00 0. -1.
         21    1    1    2  506  504 -0.20297417725E+02  0.87746218725E+02 -0.27947456588E+03  0.29362802495E+03  0.00000000000E+00 0. -1.
<scales pt_clust_3="43.70180" pt_clust_4="14000.00000" pt_clust_5="30.95301" pt_clust_6="86.76700"></scales>
<clustering>
<clus scale="   30.953">  1  5  2 -1</clus>
<clus scale="   43.702">  1  3  2 -1</clus>
<clus scale="   86.767">  2  6  1 -1</clus>
<clus scale="   30.953">  1  3  2 -1</clus>
</clustering>
</event>
<event>
 6    0  0.4227619E+002  0.2006603E+03  0.7546771E-02  0.1149183E+00
         21   -1    0    0  505  501  0.00000000000E+00  0.00000000000E+00  0.30234329009E+03  0.30234329009E+03  0.00000000000E+00 0.  1.
         21   -1    0    0  504  502 -0.00000000000E+00 -0.00000000000E+00 -0.20386940169E+03  0.20386940169E+03  0.00000000000E+00 0.  1.
         21    1    1    2  503  501 -0.35784573237E+02  0.14702855284E+02  0.95106353937E+02  0.10267389247E+03  0.00000000000E+00 0.  1.
         21    1    1    2  504  503 -0.13365090523E+03 -0.12501301675E+03  0.49367282714E+02  0.18954668931E+03  0.00000000000E+00 0.  1.
         21    1    1    2  505  506  0.10189031268E+03  0.56722526662E+02 -0.74675949872E+00  0.11661748797E+03  0.00000000000E+00 0.  1.
         21    1    1    2  506  502  0.67545165783E+02  0.53587634805E+02 -0.45252988749E+02  0.97374622029E+02  0.00000000000E+00 0.  1.
<scales pt_clust_3="38.68733" pt_clust_4="193.55779" pt_clust_5="46.19759" pt_clust_6="46.19759"></scales>
<clustering>
<clus scale="   38.687">  1  3  2 -1</clus>
<clus scale="   46.198">  5  6 -1 -1</clus>
<clus scale="  193.558">  1  4  2 -1</clus>
<clus scale="   38.687">  1  3  2 -1</clus>
</clustering>
</event>
<event>
 6    0  0.4227619E+002  0.7074101E+02  0.7546771E-02  0.1357591E+00
         21   -1    0    0  505  501  0.00000000000E+00  0.00000000000E+00  0.24258352788E+03  0.24258352788E+03  0.00000000000E+00 0.  1.
         21   -1    0    0  504  502 -0.00000000000E+00 -0.00000000000E+00 -0.57833854342E+03  0.57833854342E+03  0.00000000000E+00 0. -1.
         21    1    1    2  503  502  0.53504904508E+02  0.44348052819E+02 -0.51782908695E+03  0.52247151874E+03  0.00000000000E+00 0. -1.
         21    1    1    2  504  506 -0.74767232333E+02 -0.64481470900E+02  0.53298665065E+01  0.98875712878E+02  0.00000000000E+00 0.  1.
         21    1    1    2  505  503 -0.29719685322E+02 -0.11494880202E+02  0.74485695945E+02  0.81015497696E+02  0.00000000000E+00 0.  1.
         21    1    1    2  506  501  0.50982013147E+02  0.31628298283E+02  0.10225850896E+03  0.11855934199E+03  0.00000000000E+00 0.  1.
<scales pt_clust_3="70.74101" pt_clust_4="14000.00000" pt_clust_5="31.86522" pt_clust_6="39.22048"></scales>
<clustering>
<clus scale="   31.865">  1  5  2 -1</clus>
<clus scale="   39.220">  1  6  2 -1</clus>
<clus scale="   70.741">  2  3  1 -1</clus>
<clus scale="   31.865">  1  3  2 -1</clus>
</clustering>
</event>
<event>
 6    0  0.4227619E+002  0.7739875E+02  0.7546771E-02  0.1336600E+00
         21   -1    0    0  503  501  0.00000000000E+00  0.00000000000E+00  0.86890859479E+02  0.86890859479E+02  0.00000000000E+00 0.  1.
         21   -1    0    0  505  502 -0.00000000000E+00 -0.00000000000E+00 -0.88296371026E+03  0.88296371026E+03  0.00000000000E+00 0. -1.
         21    1    1    2  503  506 -0.73730089198E+02  0.18389389724E+02  0.33763747252E+02  0.83152187801E+02  0.00000000000E+00 0.  1.
         21    1    1    2  504  501  0.93041785278E+02  0.42540874641E+02 -0.10140625979E+03  0.14404766346E+03  0.00000000000E+00 0.  1.
         21    1    1    2  505  504  0.42298264637E+02 -0.33385995751E+02 -0.13435675279E+03  0.14476016346E+03  0.00000000000E+00 0.  1.
         21    1    1    2  506  502 -0.61609960717E+02 -0.27544268614E+02 -0.59407358546E+03  0.59789455503E+03  0.00000000000E+00 0. -1.
<scales pt_clust_3="14000.00000" pt_clust_4="77.39875" pt_clust_5="53.88662" pt_clust_6="60.96564"></scales>
<clustering>
<clus scale="   53.887">  2  5  1 -1</clus>
<clus scale="   60.966">  2  6  1 -1</clus>
<clus scale="   77.399">  2  4  1 -1</clus>
<clus scale="   77.399">  1  3  2 -1</clus>
</clustering>
</event>
<event>
 6    0  0.4227619E+002  0.1016423E+03  0.7546771E-02  0.1276880E+00
         21   -1    0    0  503  501  0.00000000000E+00  0.00000000000E+00  0.30386508001E+04  0.30386508001E+04  0.00000000000E+00 0. -1.
         21   -1    0    0  504  502 -0.00000000000E+00 -0.00000000000E+00 -0.24407343501E+03  0.24407343501E+03  0.00000000000E+00 0. -1.
         21    1    1    2  503  505  0.67565642142E+02  0.20211723555E+02  0.25878008561E+04  0.25887616538E+04  0.00000000000E+00 0. -1.
         21    1    1    2  504  506 -0.13443009839E+03 -0.58767561020E+02  0.18381174625E+03  0.23518468411E+03  0.00000000000E+00 0. -1.
         21    1    1    2  505  502  0.54783470084E+02 -0.12744802345E+01 -0.21260799119E+03  0.21955639552E+03  0.00000000000E+00 0. -1.
         21    1    1    2  506  501  0.12080986163E+02  0.39830317699E+02  0.23557275402E+03  0.23922150169E+03  0.00000000000E+00 0. -1.
<scales pt_clust_3="101.64225" pt_clust_4="14000.00000" pt_clust_5="54.81215" pt_clust_6="41.62216"></scales>
<clustering>
<clus scale="   41.622">  1  6  2 -1</clus>
<clus scale="   54.812">  2  5  1 -1</clus>
<clus scale="  101.642">  1  3  2 -1</clus>
<clus scale="   41.622">  1  3  2 -1</clus>
</clustering>
</event>
<event>
 6    0  0.4227619E+002  0.2406968E+03  0.7546771E-02  0.1119330E+00
         21   -1    0    0  503  501  0.00000000000E+00  0.00000000000E+00  0.10866370440E+03  0.10866370440E+03  0.00000000000E+00 0. -1.
         21   -1    0    0  504  502 -0.00000000000E+00 -0.00000000000E+00 -0.12934121614E+04  0.12934121614E+04  0.00000000000E+00 0.  1.
         21    1    1    2  503  502  0.28930592672E+02  0.20922864222E+03 -0.10762161098E+03  0.23705698696E+03  0.00000000000E+00 0. -1.
         21    1    1    2  504  505  0.11132664381E+03 -0.16098877665E+03 -0.75121782249E+03  0.77629841211E+03  0.00000000000E+00 0.  1.
         21    1    1    2  505  506 -0.15608079135E+02 -0.51523158464E+02 -0.21566072542E+03  0.22227864603E+03  0.00000000000E+00 0.  1.
         21    1    1    2  506  501 -0.12464915734E+03  0.32832928960E+01 -0.11024829811E+03  0.16644182069E+03  0.00000000000E+00 0.  1.
<scales pt_clust_3="223.50903" pt_clust_4="46.84548" pt_clust_5="46.84548" pt_clust_6="124.69239"></scales>
<clustering>
<clus scale="   46.845">  4  5 -1 -1</clus>
<clus scale="  124.692">  1  6  2 -1</clus>
<clus scale="  223.509">  1  3  2 -1</clus>
<clus scale="  124.692">  1  3  2 -1</clus>
</clustering>
</event>
<event>
 6    0  0.4227619E+002  0.8250347E+02  0.7546771E-02  0.1322093E+00
         21   -1    0    0  504  501  0.00000000000E+00  0.00000000000E+00  0.88382447013E+03  0.88382447013E+03  0.00000000000E+00 0. -1.
         21   -1    0    0  505  502 -0.00000000000E+00 -0.00000000000E+00 -0.77231953081E+02  0.77231953081E+02  0.00000000000E+00 0. -1.
         21    1    1    2  503  502  0.44132237618E+02 -0.27617899742E+02  0.41917741774E+02  0.66839358605E+02  0.00000000000E+00 0. -1.
         21    1    1    2  504  503  0.60934284143E+02  0.55386386279E+02  0.74525735299E+03  0.74979274534E+03  0.00000000000E+00 0. -1.
         21    1    1    2  505  506 -0.40922004863E+02  0.27192195488E+02 -0.17612492276E+02  0.52194117117E+02  0.00000000000E+00 0. -1.
         21    1    1    2  506  501 -0.64144516898E+02 -0.54960682026E+02  0.37029914556E+02  0.92230202151E+02  0.00000000000E+00 0. -1.
<scales pt_clust_3="37.60519" pt_clust_4="82.50347" pt_clust_5="49.13274" pt_clust_6="14000.00000"></scales>
<clustering>
<clus scale="   49.133">  2  5  1 -1</clus>
<clus scale="   37.605">  2  3  1 -1</clus>
<clus scale="   82.503">  1  4  2 -1</clus>
<clus scale="   82.503">  1  3  2 -1</clus>
</clustering>
</event>
<event>
 6    0  0.4227619E+002  0.1903896E+03  0.7546771E-02  0.1158110E+00
         21   -1    0    0  506  501  0.00000000000E+00  0.00000000000E+00  0.18047154931E+03  0.18047154931E+03  0.00000000000E+00 0.  1.
         21   -1    0    0  504  502 -0.00000000000E+00 -0.00000000000E+00 -0.30077040234E+04  0.30077040234E+04  0.00000000000E+00 0.  1.
         21    1    1    2  503  502  0.20098985938E+03  0.57889868978E+02 -0.13215985689E+03  0.24741541641E+03  0.00000000000E+00 0.  1.
         21    1    1    2  504  505 -0.15278069965E+03 -0.11299206798E+03 -0.27343031198E+04  0.27408981558E+04  0.00000000000E+00 0.  1.
         21    1    1    2  505  501  0.17943457492E+02  0.41600206083E+02 -0.62848052126E+02  0.77475302316E+02  0.00000000000E+00 0. -1.
         21    1    1    2  506  503 -0.66152617224E+02  0.13501992921E+02  0.10207855467E+03  0.12238669822E+03  0.00000000000E+00 0.  1.
<scales pt_clust_3="14000.00000" pt_clust_4="190.38955" pt_clust_5="45.30502" pt_clust_6="67.89803"></scales>
<clustering>
<clus scale="   45.305">  1  5  2 -1</clus>
<clus scale="   67.898">  1  6  2 -1</clus>
<clus scale="  190.390">  2  4  1 -1</clus>
<clus scale="   45.305">  1  3  2 -1</clus>
</clustering>
</event>
<event>
 6    0  0.4227619E+002  0.1196509E+03  0.7546771E-02  0.1243674E+00
         21   -1    0    0  505  501  0.00000000000E+00  0.00000000000E+00  0.20465575487E+03  0.20465575487E+03  0.00000000000E+00 0. -1.
         21   -1    0    0  503  502 -0.00000000000E+00 -0.00000000000E+00 -0.30228115942E+03  0.30228115942E+03  0.00000000000E+00 0. -1.
         21    1    1    2  503  506 -0.33739049682E+02 -0.40312585209E+02 -0.22062977318E+02  0.57010551372E+02  0.00000000000E+00 0.  1.
         21    1    1    2  504  501  0.27495521700E+02  0.12648637882E+03  0.12963417904E+03  0.18319341723E+03  0.00000000000E+00 0. -1.
         21    1    1    2  505  502 -0.46421506994E+02  0.46426467920E+01 -0.12853499664E+03  0.13673973761E+03  0.00000000000E+00 0. -1.
         21    1    1    2  506  504  0.52665034975E+02 -0.90816440401E+02 -0.76661609630E+02  0.12999320808E+03  0.00000000000E+00 0.  1.
<scales pt_clust_3="59.36706" pt_clust_4="119.65089" pt_clust_5="46.65309" pt_clust_6="14000.00000"></scales>
<clustering>
<clus scale="   46.653">  2  5  1 -1</clus>
<clus scale="   59.367">  2  3  1 -1</clus>
<clus scale="  119.651">  1  4  2 -1</clus>
<clus scale="  119.651">  1  3  2 -1</clus>
</clustering>
</event>
<event>
 6    0  0.4227619E+002  0.9975294E+02  0.7546771E-02  0.1280816E+00
         21   -1    0    0  505  501  0.00000000000E+00  0.00000000000E+00  0.19147759125E+03  0.19147759125E+03  0.00000000000E+00 0.  1.
         21   -1    0    0  506  502 -0.00000000000E+00 -0.00000000000E+00 -0.29289063084E+03  0.29289063084E+03  0.00000000000E+00 0.  1.
         21    1    1    2  503  501 -0.30621026829E+02 -0.88916877584E+02  0.95915173676E+02  0.13432638961E+03  0.00000000000E+00 0.  1.
         21    1    1    2  504  503 -0.61586387145E+02 -0.34580308370E+02 -0.68218898340E+02  0.98196226502E+02  0.00000000000E+00 0.  1.
         21    1    1    2  505  502  0.13368312553E+03  0.95767309018E+02 -0.84342909264E+02  0.18481418201E+03  0.00000000000E+00 0.  1.
         21    1    1    2  506  504 -0.41475711558E+02  0.27729876936E+02 -0.44766405660E+02  0.67031423973E+02  0.00000000000E+00 0.  1.
<scales pt_clust_3="99.75294" pt_clust_4="80.09889" pt_clust_5="14000.00000" pt_clust_6="49.89169"></scales>
<clustering>
<clus scale="   49.892">  2  6  1 -1</clus>
<clus scale="   80.099">  2  4  1 -1</clus>
<clus scale="   99.753">  1  3  2 -1</clus>
<clus scale="   99.753">  1  3  2 -1</clus>
</clustering>
</event>
<event>
 6    0  0.4227619E+002  0.1293185E+03  0.7546771E-02  0.1228470E+00
         21   -1    0    0  505  501  0.00000000000E+00  0.00000000000E+00  0.66956760234E+02  0.66956760234E+02  0.00000000000E+00 0.  1.
         21   -1    0    0  504  502 -0.00000000000E+00 -0.00000000000E+00 -0.58943060395E+03  0.58943060395E+03  0.00000000000E+00 0.  1.
         21    1    1    2  503  502 -0.20751110217E+02 -0.66547460155E+02 -0.33245299846E+03  0.33968245350E+03  0.00000000000E+00 0.  1.
         21    1    1    2  504  501 -0.84655316460E+02 -0.35015848399E+02 -0.68737203747E+02  0.11453137309E+03  0.00000000000E+00 0.  1.
         21    1    1    2  505  506  0.45927583669E+02  0.64195701470E+02 -0.24620670671E+02  0.82683785915E+02  0.00000000000E+00 0.  1.
         21    1    1    2  506  503  0.59478843008E+02  0.37367607084E+02 -0.96662970837E+02  0.11948975168E+03  0.00000000000E+00 0.  1.
<scales pt_clust_3="69.70777" pt_clust_4="109.47368" pt_clust_5="64.93904" pt_clust_6="64.93904"></scales>
<clustering>
<clus scale="   64.939">  5  6 -1 -1</clus>
<clus scale="   69.708">  2  3  1 -1</clus>
<clus scale="  109.474">  1  4  2 -1</clus>
<clus scale="  109.474">  1  3  2 -1</clus>
</clustering>
</event>
<event>
 6    0  0.4227619E+002  0.8729921E+02  0.7546771E-02  0.1309527E+00
         21   -1    0    0  504  501  0.00000000000E+00  0.00000000000E+00  0.33606452441E+04  0.33606452441E+04  0.00000000000E+00 0. -1.
         21   -1    0    0  505  502 -0.00000000000E+00 -0.00000000000E+00 -0.25802237601E+02  0.25802237601E+02  0.00000000000E+00 0. -1.
         21    1    1    2  503  502  0.15615744722E+02 -0.87527261762E+02  0.84409698569E+02  0.12259637126E+03  0.00000000000E+00 0. -1.
         21    1    1    2  504  503 -0.85762177412E+02  0.29526905470E+02  0.19444208697E+04  0.19465352573E+04  0.00000000000E+00 0. -1.
         21    1    1    2  505  506  0.58302550032E+02  0.85896035403E+02  0.49654199512E+03  0.50727829557E+03  0.00000000000E+00 0. -1.
         21    1    1    2  506  501  0.11843882659E+02 -0.27895679111E+02  0.80947044310E+03  0.81003755760E+03  0.00000000000E+00 0. -1.
<scales pt_clust_3="14000.00000" pt_clust_4="77.17169" pt_clust_5="87.29921" pt_clust_6="30.30588"></scales>
<clustering>
<clus scale="   30.306">  1  6  2 -1</clus>
<clus scale="   77.172">  1  4  2 -1</clus>
<clus scale="   87.299">  1  5  2 -1</clus>
<clus scale="   30.306">  1  3  2 -1</clus>
</clustering>
</event>
<event>
 6    0  0.4227619E+002  0.1033517E+03  0.7546771E-02  0.1273402E+00
         21   -1    0    0  504  501  0.00000000000E+00  0.00000000000E+00  0.11472031553E+04  0.11472031553E+04  0.00000000000E+00 0. -1.
         21   -1    0    0  505  502 -0.00000000000E+00 -0.00000000000E+00 -0.29764394678E+04  0.29764394678E+04  0.00000000000E+00 0. -1.
         21    1    1    2  503  501 -0.15089008950E+02 -0.89901070705E+02  0.11068530823E+04  0.11106005702E+04  0.00000000000E+00 0. -1.
         21    1    1    2  504  506  0.74410672473E+02 -0.79660654013E+01 -0.16237436737E+03  0.17878993695E+03  0.00000000000E+00 0.  1.
         21    1    1    2  505  503 -0.10379461853E+03  0.12024897369E+03 -0.18003896777E+03  0.24009824744E+03  0.00000000000E+00 0. -1.
         21    1    1    2  506  502  0.44472955003E+02 -0.22381837587E+02 -0.25936760597E+04  0.25941538684E+04  0.00000000000E+00 0. -1.
<scales pt_clust_3="91.23091" pt_clust_4="14000.00000" pt_clust_5="103.35167" pt_clust_6="49.78745"></scales>
<clustering>
<clus scale="   49.787">  2  6  1 -1</clus>
<clus scale="   91.231">  1  3  2 -1</clus>
<clus scale="  103.352">  1  5  2 -1</clus>
<clus scale="   91.231">  1  3  2 -1</clus>
</clustering>
</event>
<event>
 6    0  0.4227619E+002  0.6815736E+02  0.7546771E-02  0.1366474E+00
         21   -1    0    0  503  501  0.00000000000E+00  0.00000000000E+00  0.21878957519E+03  0.21878957519E+03  0.00000000000E+00 0. -1.
         21   -1    0    0  505  502 -0.00000000000E+00 -0.00000000000E+00 -0.13848968909E+04  0.13848968909E+04  0.00000000000E+00 0. -1.
         21    1    1    2  503  504 -0.33399872765E+02  0.58914824159E+02  0.20431212215E+03  0.21524393433E+03  0.00000000000E+00 0. -1.
         21    1    1    2  504  506  0.33109827384E+02 -0.12744748864E+03 -0.73924430642E+03  0.75088032841E+03  0.00000000000E+00 0. -1.
         21    1    1    2  505  501 -0.82195736455E+01  0.33777415466E+02 -0.11477906110E+03  0.11992792858E+03  0.00000000000E+00 0. -1.
         21    1    1    2  506  502  0.85096190261E+01  0.34755249016E+02 -0.51639607033E+03  0.51763427475E+03  0.00000000000E+00 0. -1.
<scales pt_clust_3="68.15736" pt_clust_4="14000.00000" pt_clust_5="34.76313" pt_clust_6="48.80585"></scales>
<clustering>
<clus scale="   34.763">  2  5  1 -1</clus>
<clus scale="   48.806">  2  6  1 -1</clus>
<clus scale="   68.157">  1  3  2 -1</clus>
<clus scale="   68.157">  1  3  2 -1</clus>
</clustering>
</event>
<event>
 6    0  0.4227619E+002  0.1226351E+03  0.7546771E-02  0.1238812E+00
         21   -1    0    0  504  501  0.00000000000E+00  0.00000000000E+00  0.18367602003E+04  0.18367602003E+04  0.00000000000E+00 0.  1.
         21   -1    0    0  503  502 -0.00000000000E+00 -0.00000000000E+00 -0.71569972155E+03  0.71569972155E+03  0.00000000000E+00 0. -1.
         21    1    1    2  503  505 -0.11176950279E+03 -0.50476137033E+02 -0.68871415592E+03  0.69954803318E+03  0.00000000000E+00 0. -1.
         21    1    1    2  504  502  0.24403053956E+02 -0.18786728204E+02  0.16542783032E+02  0.34958745250E+02  0.00000000000E+00 0. -1.
         21    1    1    2  505  506  0.54804957096E+02  0.17399932512E+03  0.92467219139E+03  0.94249562863E+03  0.00000000000E+00 0.  1.
         21    1    1    2  506  501  0.32561491741E+02 -0.10473645988E+03  0.86855966025E+03  0.87545751478E+03  0.00000000000E+00 0.  1.
<scales pt_clust_3="14000.00000" pt_clust_4="30.79692" pt_clust_5="122.63505" pt_clust_6="122.10629"></scales>
<clustering>
<clus scale="   30.797">  1  4  2 -1</clus>
<clus scale="  122.106">  1  6  2 -1</clus>
<clus scale="  122.635">  1  5  2 -1</clus>
<clus scale="   30.797">  1  3  2 -1</clus>
</clustering>
</event>
<event>
 6    0  0.4227619E+002  0.9312560E+02  0.7546771E-02  0.1295454E+00
         21   -1    0    0  506  501  0.00000000000E+00  0.00000000000E+00  0.12461799650E+04  0.12461799650E+04  0.00000000000E+00 0.  1.
         21   -1    0    0  505  502 -0.00000000000E+00 -0.00000000000E+00 -0.14188220765E+03  0.14188220765E+03  0.00000000000E+00 0.  1.
         21    1    1    2  503  504 -0.55357663149E+02 -0.53517882122E+02  0.60314122431E+03  0.60803615932E+03  0.00000000000E+00 0.  1.
         21    1    1    2  504  501  0.25611911905E+02 -0.58224324300E+02  0.49394316849E+03  0.49802198312E+03  0.00000000000E+00 0.  1.
         21    1    1    2  505  503 -0.19208617617E+02  0.87368112187E+02  0.12408649109E+03  0.15296932794E+03  0.00000000000E+00 0.  1.
         21    1    1    2  506  502  0.48954368861E+02  0.24374094235E+02 -0.11687312651E+03  0.12903470231E+03  0.00000000000E+00 0.  1.
<scales pt_clust_3="93.12560" pt_clust_4="63.60132" pt_clust_5="14000.00000" pt_clust_6="54.68662"></scales>
<clustering>
<clus scale="   54.687">  2  6  1 -1</clus>
<clus scale="   63.601">  1  4  2 -1</clus>
<clus scale="   93.126">  1  3  2 -1</clus>
<clus scale="   63.601">  1  3  2 -1</clus>
</clustering>
</event>
<event>
 6    0  0.4227619E+002  0.1086536E+03  0.7546771E-02  0.1263084E+00
         21   -1    0    0  506  501  0.00000000000E+00  0.00000000000E+00  0.47162192191E+03  0.47162192191E+03  0.00000000000E+00 0. -1.
         21   -1    0    0  503  502 -0.00000000000E+00 -0.00000000000E+00 -0.24282600061E+04  0.24282600061E+04  0.00000000000E+00 0.  1.
         21    1    1    2  503  504  0.72485106906E+02  0.81961103020E+02 -0.24086925972E+04  0.24111764226E+04  0.00000000000E+00 0.  1.
         21    1    1    2  504  501  0.12140275402E+02 -0.37263111854E+02  0.26087043450E+03  0.26379785706E+03  0.00000000000E+00 0. -1.
         21    1    1    2  505  502 -0.45188880589E+02 -0.45230589981E+02  0.59121594056E+02  0.87081594396E+02  0.00000000000E+00 0. -1.
         21    1    1    2  506  505 -0.39436501719E+02  0.53259881494E+00  0.13206248448E+03  0.13782605391E+03  0.00000000000E+00 0. -1.
<scales pt_clust_3="14000.00000" pt_clust_4="39.19089" pt_clust_5="108.65364" pt_clust_6="39.38365"></scales>
<clustering>
<clus scale="   39.191">  1  4  2 -1</clus>
<clus scale="   39.384">  1  6  2 -1</clus>
<clus scale="  108.654">  1  5  2 -1</clus>
<clus scale="   39.191">  1  3  2 -1</clus>
</clustering>
</event>
<event>
 6    0  0.4227619E+002  0.1172513E+03  0.7546771E-02  0.1247702E+00
         21   -1    0    0  505  501  0.00000000000E+00  0.00000000000E+00  0.78598022672E+02  0.78598022672E+02  0.00000000000E+00 0. -1.
         21   -1    0    0  504  502 -0.00000000000E+00 -0.00000000000E+00 -0.29180006715E+03  0.29180006715E+03  0.00000000000E+00 0.  1.
         21    1    1    2  503  501 -0.35150687910E+02  0.78820710878E+02 -0.35357343340E+02  0.93265304652E+02  0.00000000000E+00 0. -1.
         21    1    1    2  504  503 -0.45700448861E+02  0.91887487059E+01 -0.13934907028E+02  0.48653322217E+02  0.00000000000E+00 0.  1.
         21    1    1    2  505  506  0.13041331817E+02 -0.90178348078E+02 -0.88072282749E+02  0.12672386431E+03  0.00000000000E+00 0.  1.
         21    1    1    2  506  502  0.67809804953E+02  0.21688884946E+01 -0.75837511361E+02  0.10175559864E+03  0.00000000000E+00 0.  1.
<scales pt_clust_3="43.03359" pt_clust_4="43.03359" pt_clust_5="101.58375" pt_clust_6="67.84448"></scales>
<clustering>
<clus scale="   43.034">  3  4 -1 -1</clus>
<clus scale="   67.844">  2  6  1 -1</clus>
<clus scale="  101.584">  2  5  1 -1</clus>
<clus scale="  117.251">  1  3  2 -1</clus>
</clustering>
</event>
<event>
 6    0  0.4227619E+002  0.7258554E+02  0.7546771E-02  0.1351515E+00
         21   -1    0    0  506  501  0.00000000000E+00  0.00000000000E+00  0.16270943553E+04  0.16270943553E+04  0.00000000000E+00 0.  1.
         21   -1    0    0  505  502 -0.00000000000E+00 -0.00000000000E+00 -0.18743527854E+03  0.18743527854E+03  0.00000000000E+00 0.  1.
         21    1    1    2  503  502  0.40891760427E+02 -0.98746752026E+02 -0.12978422866E+03  0.16812793675E+03  0.00000000000E+00 0.  1.
         21    1    1    2  504  501 -0.78275244788E+02  0.61160071433E+02  0.13617936634E+04  0.13654118609E+04  0.00000000000E+00 0.  1.
         21    1    1    2  505  504  0.23206578998E+02  0.67215196938E+02  0.35530592623E+00  0.71109452610E+02  0.00000000000E+00 0.  1.
         21    1    1    2  506  503  0.14176905362E+02 -0.29628516345E+02  0.20729433613E+03  0.20988038359E+03  0.00000000000E+00 0.  1.
<scales pt_clust_3="14000.00000" pt_clust_4="72.58554" pt_clust_5="70.52202" pt_clust_6="32.84560"></scales>
<clustering>
<clus scale="   32.846">  1  6  2 -1</clus>
<clus scale="   70.522">  2  5  1 -1</clus>
<clus scale="   72.586">  1  4  2 -1</clus>
<clus scale="   32.846">  1  3  2 -1</clus>
</clustering>
</event>
<event>
 6    0  0.4227619E+002  0.8978190E+02  0.7546771E-02  0.1303381E+00
         21   -1    0    0  505  501  0.00000000000E+00  0.00000000000E+00  0.41968596603E+03  0.41968596603E+03  0.00000000000E+00 0.  1.
         21   -1    0    0  506  502 -0.00000000000E+00 -0.00000000000E+00 -0.14779167826E+04  0.14779167826E+04  0.00000000000E+00 0.  1.
         21    1    1    2  503  501 -0.64179918622E+01  0.49390338017E+02  0.38071185408E+03  0.38395587239E+03  0.00000000000E+00 0.  1.
         21    1    1    2  504  503 -0.70219287555E+02 -0.26464838996E+01 -0.29413530818E+03  0.30241251915E+03  0.00000000000E+00 0.  1.
         21    1    1    2  505  502 -0.22692134285E+02 -0.31713089410E+02  0.18805330179E+02  0.43293110785E+02  0.00000000000E+00 0. -1.
         21    1    1    2  506  504  0.99329413702E+02 -0.15030764707E+02 -0.11636126926E+04  0.11679412463E+04  0.00000000000E+00 0.  1.
<scales pt_clust_3="34.01532" pt_clust_4="89.78190" pt_clust_5="38.99555" pt_clust_6="14000.00000"></scales>
<clustering>
<clus scale="   38.996">  1  5  2 -1</clus>
<clus scale="   34.015">  1  3  2 -1</clus>
<clus scale="   89.782">  1  4  2 -1</clus>
<clus scale="   38.996">  1  3  2 -1</clus>
</clustering>
</event>
<event>
 6    0  0.4227619E+002  0.8729313E+02  0.7546771E-02  0.1309542E+00
         21   -1    0    0  506  501  0.00000000000E+00  0.00000000000E+00  0.18310186836E+03  0.18310186836E+03  0.00000000000E+00 0. -1.
         21   -1    0    0  505  502 -0.00000000000E+00 -0.00000000000E+00 -0.24710745784E+03  0.24710745784E+03  0.00000000000E+00 0.  1.
         21    1    1    2  503  501 -0.79341465920E+00  0.33445780838E+02  0.16739963516E+02  0.37409572855E+02  0.00000000000E+00 0. -1.
         21    1    1    2  504  502  0.56674763518E+02  0.86361139180E+01 -0.12593564143E+02  0.58695903956E+02  0.00000000000E+00 0.  1.
         21    1    1    2  505  503 -0.46942207786E+01  0.61869820770E+02 -0.16928970860E+03  0.18030229024E+03  0.00000000000E+00 0.  1.
         21    1    1    2  506  504 -0.51187128080E+02 -0.10395171553E+03  0.10113771974E+03  0.15380155914E+03  0.00000000000E+00 0. -1.
<scales pt_clust_3="33.45519" pt_clust_4="58.16442" pt_clust_5="87.29313" pt_clust_6="14000.00000"></scales>
<clustering>
<clus scale="   33.455">  1  3  2 -1</clus>
<clus scale="   58.164">  2  4  1 -1</clus>
<clus scale="   87.293">  2  5  1 -1</clus>
<clus scale="   33.455">  1  3  2 -1</clus>
</clustering>
</event>
<event>
 6    0  0.4227619E+002  0.7731749E+02  0.7546771E-02  0.1336841E+00
         21   -1    0    0  504  501  0.00000000000E+00  0.00000000000E+00  0.93458799489E+03  0.93458799489E+03  0.00000000000E+00 0.  1.
         21   -1    0    0  503  502 -0.00000000000E+00 -0.00000000000E+00 -0.15631812390E+03  0.15631812390E+03  0.00000000000E+00 0. -1.
         21    1    1    2  503  505 -0.83794586726E+02 -0.13125810918E+02  0.92198816543E+01  0.85316035389E+02  0.00000000000E+00 0. -1.
         21    1    1    2  504  506  0.46785182293E+02 -0.34804196078E+01  0.41569716390E+03  0.41833610731E+03  0.00000000000E+00 0.  1.
         21    1    1    2  505  501  0.17981157137E+02 -0.52296743266E+02  0.45755797754E+03  0.46088781084E+03  0.00000000000E+00 0.  1.
         21    1    1    2  506  502  0.19028247296E+02  0.68902973791E+02 -0.10420515211E+03  0.12636616524E+03  0.00000000000E+00 0. -1.
<scales pt_clust_3="77.31749" pt_clust_4="46.91446" pt_clust_5="14000.00000" pt_clust_6="71.68370"></scales>
<clustering>
<clus scale="   46.914">  1  4  2 -1</clus>
<clus scale="   71.684">  2  6  1 -1</clus>
<clus scale="   77.317">  2  3  1 -1</clus>
<clus scale="   46.914">  1  3  2 -1</clus>
</clustering>
</event>
<event>
 6    0  0.4227619E+002  0.1103692E+03  0.7546771E-02  0.1259888E+00
         21   -1    0    0  506  501  0.00000000000E+00  0.00000000000E+00  0.15953616362E+04  0.15953616362E+04  0.00000000000E+00 0.  1.
         21   -1    0    0  505  502 -0.00000000000E+00 -0.00000000000E+00 -0.19416280144E+02  0.19416280144E+02  0.00000000000E+00 0.  1.
         21    1    1    2  503  504  0.70404053942E+02  0.98607345272E+01  0.27025326439E+03  0.27944729702E+03  0.00000000000E+00 0.  1.
         21    1    1    2  504  502  0.48722494161E+02 -0.42407103645E+01  0.80170537182E+02  0.93910489796E+02  0.00000000000E+00 0.  1.
         21    1    1    2  505  501 -0.32091031205E+02  0.36765578876E+02  0.95376907473E+02  0.10713681232E+03  0.00000000000E+00 0. -1.
         21    1    1    2  506  503 -0.87035516897E+02 -0.42385603039E+02  0.11301446470E+04  0.11342833172E+04  0.00000000000E+00 0.  1.
<scales pt_clust_3="40.43365" pt_clust_4="40.43365" pt_clust_5="48.80105" pt_clust_6="99.01964"></scales>
<clustering>
<clus scale="   40.434">  3  4 -1 -1</clus>
<clus scale="   48.801">  2  5  1 -1</clus>
<clus scale="   99.020">  1  6  2 -1</clus>
<clus scale="   99.020">  1  3  2 -1</clus>
</clustering>
</event>
<event>
 6    0  0.4227619E+002  0.2054579E+03  0.7546771E-02  0.1145214E+00
         21   -1    0    0  503  501  0.00000000000E+00  0.00000000000E+00  0.82704343234E+03  0.82704343234E+03  0.00000000000E+00 0. -1.
         21   -1    0    0  506  502 -0.00000000000E+00 -0.00000000000E+00 -0.14629563364E+03  0.14629563364E+03  0.00000000000E+00 0.  1.
         21    1    1    2  503  502 -0.39858227213E+02  0.94137518523E+01  0.31081710059E+03  0.31350369538E+03  0.00000000000E+00 0. -1.
         21    1    1    2  504  505 -0.15858457201E+03 -0.11137054060E+03  0.20738422744E+03  0.28383213627E+03  0.00000000000E+00 0. -1.
         21    1    1    2  505  501  0.17572873880E+03  0.12936190783E+03  0.21907161832E+03  0.30920457110E+03  0.00000000000E+00 0.  1.
         21    1    1    2  506  504  0.22714060422E+02 -0.27405119079E+02 -0.56525147640E+02  0.66798663222E+02  0.00000000000E+00 0.  1.
<scales pt_clust_3="40.50540" pt_clust_4="205.45790" pt_clust_5="14000.00000" pt_clust_6="35.59451"></scales>
<clustering>
<clus scale="   35.595">  2  6  1 -1</clus>
<clus scale="   40.505">  1  3  2 -1</clus>
<clus scale="  205.458">  2  4  1 -1</clus>
<clus scale="   40.505">  1  3  2 -1</clus>
</clustering>
</event>
<event>
 6    0  0.4227619E+002  0.7351362E+02  0.7546771E-02  0.1348537E+00
         21   -1    0    0  505  501  0.00000000000E+00  0.00000000000E+00  0.72933480125E+03  0.72933480125E+03  0.00000000000E+00 0. -1.
         21   -1    0    0  503  502 -0.00000000000E+00 -0.00000000000E+00 -0.34325434720E+02  0.34325434720E+02  0.00000000000E+00 0. -1.
         21    1    1    2  503  506  0.57176530772E+02 -0.33762186737E+02  0.42173737225E+02  0.78661712643E+02  0.00000000000E+00 0. -1.
         21    1    1    2  504  502 -0.97201393801E+02  0.27044282359E+02  0.20007502300E+03  0.22407480669E+03  0.00000000000E+00 0. -1.
         21    1    1    2  505  504  0.11583224855E+02  0.40513557625E+02  0.22925659864E+03  0.23309677705E+03  0.00000000000E+00 0. -1.
         21    1    1    2  506  501  0.28441638174E+02 -0.33795653247E+02  0.22350400766E+03  0.22782693959E+03  0.00000000000E+00 0. -1.
<scales pt_clust_3="73.51362" pt_clust_4="14000.00000" pt_clust_5="42.13691" pt_clust_6="37.05974"></scales>
<clustering>
<clus scale="   42.137">  1  5  2 -1</clus>
<clus scale="   37.060">  1  6  2 -1</clus>
<clus scale="   73.514">  2  3  1 -1</clus>
<clus scale="   42.137">  1  3  2 -1</clus>
</clustering>
</event>
<event>
 6    0  0.4227619E+002  0.1649399E+03  0.7546771E-02  0.1183230E+00
         21   -1    0    0  506  501  0.00000000000E+00  0.00000000000E+00  0.21792754413E+04  0.21792754413E+04  0.00000000000E+00 0.  1.
         21   -1    0    0  504  502 -0.00000000000E+00 -0.00000000000E+00 -0.66878929037E+02  0.66878929037E+02  0.00000000000E+00 0. -1.
         21    1    1    2  503  502  0.94449778770E+02 -0.13671174887E+03  0.83940854570E+02  0.18616371842E+03  0.00000000000E+00 0. -1.
         21    1    1    2  504  505 -0.36357442523E+02 -0.22079746914E+02  0.30289213134E+02  0.52218916906E+02  0.00000000000E+00 0. -1.
         21    1    1    2  505  501 -0.40156501485E+02  0.12403136381E+03  0.18480604654E+04  0.18526531806E+04  0.00000000000E+00 0.  1.
         21    1    1    2  506  503 -0.17935834762E+02  0.34760131976E+02  0.15010597919E+03  0.15511855444E+03  0.00000000000E+00 0. -1.
<scales pt_clust_3="14000.00000" pt_clust_4="42.48900" pt_clust_5="164.93990" pt_clust_6="39.11472"></scales>
<clustering>
<clus scale="   39.115">  1  6  2 -1</clus>
<clus scale="   42.489">  2  4  1 -1</clus>
<clus scale="  164.940">  1  5  2 -1</clus>
<clus scale="   39.115">  1  3  2 -1</clus>
</clustering>
</event>
<event>
 6    0  0.4227619E+002  0.8422613E+02  0.7546771E-02  0.1317469E+00
         21   -1    0    0  504  501  0.00000000000E+00  0.00000000000E+00  0.38339742323E+03  0.38339742323E+03  0.00000000000E+00 0.  1.
         21   -1    0    0  503  502 -0.00000000000E+00 -0.00000000000E+00 -0.13209363486E+03  0.13209363486E+03  0.00000000000E+00 0.  1.
         21    1    1    2  503  505  0.11922427239E+03 -0.50857682898E+02 -0.12708065580E+02  0.13023987856E+03  0.00000000000E+00 0.  1.
         21    1    1    2  504  502 -0.62956121870E+02 -0.67693396837E+01  0.20892485174E+01  0.63353470307E+02  0.00000000000E+00 0.  1.
         21    1    1    2  505  506 -0.25545006685E+02  0.61533664699E+02  0.91685331723E+01  0.67253262064E+02  0.00000000000E+00 0. -1.
         21    1    1    2  506  501 -0.30723143836E+02 -0.39066421173E+01  0.25275407226E+03  0.25464444715E+03  0.00000000000E+00 0.  1.
<scales pt_clust_3="84.22613" pt_clust_4="14000.00000" pt_clust_5="69.59158" pt_clust_6="30.97053"></scales>
<clustering>
<clus scale="   30.971">  1  6  2 -1</clus>
<clus scale="   69.592">  1  5  2 -1</clus>
<clus scale="   84.226">  1  3  2 -1</clus>
<clus scale="   30.971">  1  3  2 -1</clus>
</clustering>
</event>
<event>
 6    0  0.4227619E+002  0.9443467E+02  0.7546771E-02  0.1292454E+00
         21   -1    0    0  502  501  0.00000000000E+00  0.00000000000E+00  0.16007295600E+03  0.16007295600E+03  0.00000000000E+00 0.  1.
         21   -1    0    0  505  502 -0.00000000000E+00 -0.00000000000E+00 -0.87241625925E+03  0.87241625925E+03  0.00000000000E+00 0.  1.
         21    1    1    2  503  506 -0.46826353028E+02 -0.68569556462E+02  0.73823661322E+02  0.11110546513E+03  0.00000000000E+00 0.  1.
         21    1    1    2  504  503  0.85451632156E+02  0.77930044548E+01 -0.30725671085E+03  0.31901316387E+03  0.00000000000E+00 0.  1.
         21    1    1    2  505  504  0.36185164151E+01  0.33665431295E+02 -0.52980598261E+03  0.53088683741E+03  0.00000000000E+00 0.  1.
         21    1    1    2  506  501 -0.42243795543E+02  0.27111120712E+02  0.50895728895E+02  0.71483748838E+02  0.00000000000E+00 0.  1.
<scales pt_clust_3="94.43467" pt_clust_4="14000.00000" pt_clust_5="33.85934" pt_clust_6="50.65888"></scales>
<clustering>
<clus scale="   33.859">  2  5  1 -1</clus>
<clus scale="   50.659">  1  6  2 -1</clus>
<clus scale="   94.435">  1  3  2 -1</clus>
<clus scale="   50.659">  1  3  2 -1</clus>
</clustering>
</event>
<event>
 6    0  0.4227619E+002  0.2692653E+03  0.7546771E-02  0.1101701E+00
         21   -1    0    0  506  501  0.00000000000E+00  0.00000000000E+00  0.16711695104E+03  0.16711695104E+03  0.00000000000E+00 0. -1.
         21   -1    0    0  503  502 -0.00000000000E+00 -0.00000000000E+00 -0.67639976082E+03  0.67639976082E+03  0.00000000000E+00 0. -1.
         21    1    1    2  503  505 -0.49248899129E+02 -0.20001263403E+03 -0.28583059713E+03  0.35232036287E+03  0.00000000000E+00 0. -1.
         21    1    1    2  504  501 -0.14611429134E+02  0.28580029756E+03 -0.17676510952E+03  0.33636469477E+03  0.00000000000E+00 0. -1.
         21    1    1    2  505  504  0.21365406121E+02 -0.47042844194E+02 -0.74730092564E+02  0.90852058332E+02  0.00000000000E+00 0.  1.
         21    1    1    2  506  502  0.42494922142E+02 -0.38744819338E+02  0.28042989431E+02  0.63979595885E+02  0.00000000000E+00 0.  1.
<scales pt_clust_3="33.90824" pt_clust_4="260.61448" pt_clust_5="33.90824" pt_clust_6="57.50634"></scales>
<clustering>
<clus scale="   33.908">  3  5 -1 -1</clus>
<clus scale="   57.506">  1  6  2 -1</clus>
<clus scale="  260.614">  1  4  2 -1</clus>
<clus scale="   57.506">  1  3  2 -1</clus>
</clustering>
</event>
<event>
 6    0  0.4227619E+002  0.7933888E+02  0.7546771E-02  0.1330938E+00
         21   -1    0    0  504  501  0.00000000000E+00  0.00000000000E+00  0.22710345581E+04  0.22710345581E+04  0.00000000000E+00 0.  1.
         21   -1    0    0  505  502 -0.00000000000E+00 -0.00000000000E+00 -0.11266716997E+03  0.11266716997E+03  0.00000000000E+00 0.  1.
         21    1    1    2  503  502  0.50393353960E+02 -0.69529819625E+02  0.50058764881E+03  0.50789947832E+03  0.00000000000E+00 0.  1.
         21    1    1    2  504  503  0.22893979016E+02  0.81822349805E+02  0.17118956385E+04  0.17140028321E+04  0.00000000000E+00 0.  1.
         21    1    1    2  505  506 -0.32205821270E+01 -0.61369449588E+02 -0.44165245947E+02  0.75677938936E+02  0.00000000000E+00 0.  1.
         21    1    1    2  506  501 -0.70066750849E+02  0.49076919408E+02 -0.99506532736E+01  0.86121478701E+02  0.00000000000E+00 0. -1.
<scales pt_clust_3="14000.00000" pt_clust_4="79.33888" pt_clust_5="61.45390" pt_clust_6="73.31701"></scales>
<clustering>
<clus scale="   61.454">  2  5  1 -1</clus>
<clus scale="   73.317">  2  6  1 -1</clus>
<clus scale="   79.339">  1  4  2 -1</clus>
<clus scale="   79.339">  1  3  2 -1</clus>
</clustering>
</event>
<event>
 6    0  0.4227619E+002  0.1819289E+03  0.7546771E-02  0.1165949E+00
         21   -1    0    0  503  501  0.00000000000E+00  0.00000000000E+00  0.15003512255E+03  0.15003512255E+03  0.00000000000E+00 0.  1.
         21   -1    0    0  504  502 -0.00000000000E+00 -0.00000000000E+00 -0.11490636579E+04  0.11490636579E+04  0.00000000000E+00 0.  1.
         21    1    1    2  503  502  0.42404435442E+02  0.10684324641E+03 -0.12607967944E+03  0.17061565290E+03  0.00000000000E+00 0. -1.
         21    1    1    2  504  506  0.17567031307E+03 -0.11132837513E+01 -0.58806277221E+03  0.61374190207E+03  0.00000000000E+00 0.  1.
         21    1    1    2  505  501 -0.30942210922E+02 -0.71330231863E+00  0.83145761113E+02  0.88719483812E+02  0.00000000000E+00 0.  1.
         21    1    1    2  506  505 -0.18713253759E+03 -0.10501666034E+03 -0.36803184485E+03  0.42602174170E+03  0.00000000000E+00 0.  1.
<scales pt_clust_3="111.19656" pt_clust_4="181.92887" pt_clust_5="30.95043" pt_clust_6="14000.00000"></scales>
<clustering>
<clus scale="   30.950">  1  5  2 -1</clus>
<clus scale="  111.197">  1  3  2 -1</clus>
<clus scale="  181.929">  2  4  1 -1</clus>
<clus scale="   30.950">  1  3  2 -1</clus>
</clustering>
</event>
<event>
 6    0  0.4227619E+002  0.7279212E+02  0.7546771E-02  0.1350848E+00
         21   -1    0    0  504  501  0.00000000000E+00  0.00000000000E+00  0.52903561514E+02  0.52903561514E+02  0.00000000000E+00 0. -1.
         21   -1    0    0  506  502 -0.00000000000E+00 -0.00000000000E+00 -0.56989655301E+03  0.56989655301E+03  0.00000000000E+00 0. -1.
         21    1    1    2  503  502 -0.17898946160E+02 -0.10571569303E+03 -0.30441640726E+03  0.32274684976E+03  0.00000000000E+00 0. -1.
         21    1    1    2  504  505  0.24173953257E+02  0.47700669374E+02 -0.24633885872E+01  0.53533187446E+02  0.00000000000E+00 0. -1.
         21    1    1    2  505  503 -0.58666956836E+02  0.34108441674E+02 -0.84822198985E+02  0.10862781899E+03  0.00000000000E+00 0. -1.
         21    1    1    2  506  501  0.52391949740E+02  0.23906581979E+02 -0.12529099667E+03  0.13789225832E+03  0.00000000000E+00 0. -1.
<scales pt_clust_3="72.79212" pt_clust_4="53.47648" pt_clust_5="14000.00000" pt_clust_6="67.64757"></scales>
<clustering>
<clus scale="   53.476">  1  4  2 -1</clus>
<clus scale="   67.648">  2  6  1 -1</clus>
<clus scale="   72.792">  2  3  1 -1</clus>
<clus scale="   53.476">  1  3  2 -1</clus>
</clustering>
</event>
<event>
 6    0  0.4227619E+002  0.9625621E+02  0.7546771E-02  0.1288372E+00
         21   -1    0    0  505  501  0.00000000000E+00  0.00000000000E+00  0.77666368994E+02  0.77666368994E+02  0.00000000000E+00 0. -1.
         21   -1    0    0  503  502 -0.00000000000E+00 -0.00000000000E+00 -0.40017382756E+03  0.40017382756E+03  0.00000000000E+00 0.  1.
         21    1    1    2  503  506 -0.62626903688E+02  0.65979497789E+02 -0.22806028936E+03  0.24553394628E+03  0.00000000000E+00 0.  1.
         21    1    1    2  504  502  0.81292500029E+02 -0.78644753747E+02 -0.87625548286E+02  0.14307936457E+03  0.00000000000E+00 0. -1.
         21    1    1    2  505  504 -0.18454010292E+02 -0.30749207459E+02  0.17020665346E+02  0.39695935611E+02  0.00000000000E+00 0. -1.
         21    1    1    2  506  501 -0.21158604901E+00  0.43414463416E+02 -0.23842286261E+02  0.49530950087E+02  0.00000000000E+00 0.  1.
<scales pt_clust_3="96.25621" pt_clust_4="14000.00000" pt_clust_5="35.86174" pt_clust_6="35.75850"></scales>
<clustering>
<clus scale="   35.862">  1  5  2 -1</clus>
<clus scale="   35.758">  1  6  2 -1</clus>
<clus scale="   96.256">  2  3  1 -1</clus>
<clus scale="   35.862">  1  3  2 -1</clus>
</clustering>
</event>
<event>
 6    0  0.4227619E+002  0.1153452E+03  0.7546771E-02  0.1250980E+00
         21   -1    0    0  505  501  0.00000000000E+00  0.00000000000E+00  0.65801364597E+02  0.65801364597E+02  0.00000000000E+00 0. -1.
         21   -1    0    0  506  502 -0.00000000000E+00 -0.00000000000E+00 -0.12629547872E+04  0.12629547872E+04  0.00000000000E+00 0. -1.
         21    1    1    2  503  502  0.44383053750E+02  0.69085730848E+01 -0.74079075125E+03  0.74215127904E+03  0.00000000000E+00 0. -1.
         21    1    1    2  504  503 -0.50607156218E+02  0.74897265678E+02 -0.16980454081E+03  0.19236493117E+03  0.00000000000E+00 0. -1.
         21    1    1    2  505  504 -0.71834136103E+02 -0.11143148133E+03 -0.47186514198E+02  0.14072556720E+03  0.00000000000E+00 0. -1.
         21    1    1    2  506  501  0.78058238571E+02  0.29625642570E+02 -0.23937161633E+03  0.25351437436E+03  0.00000000000E+00 0. -1.
<scales pt_clust_3="44.91752" pt_clust_4="84.93181" pt_clust_5="115.34525" pt_clust_6="14000.00000"></scales>
<clustering>
<clus scale="   44.918">  2  3  1 -1</clus>
<clus scale="   84.932">  2  4  1 -1</clus>
<clus scale="  115.345">  1  5  2 -1</clus>
<clus scale="  115.345">  1  3  2 -1</clus>
</clustering>
</event>
<event>
 6    0  0.4227619E+002  0.2187609E+03  0.7546771E-02  0.1134810E+00
         21   -1    0    0  504  501  0.00000000000E+00  0.00000000000E+00  0.18607422511E+03  0.18607422511E+03  0.00000000000E+00 0.  1.
         21   -1    0    0  503  502 -0.00000000000E+00 -0.00000000000E+00 -0.17327867867E+04  0.17327867867E+04  0.00000000000E+00 0.  1.
         21    1    1    2  503  506 -0.36289349816E+02 -0.30666501964E+02 -0.11775894033E+04  0.11785474764E+04  0.00000000000E+00 0.  1.
         21    1    1    2  504  505 -0.29370678499E+02  0.16465447715E+03  0.93051152513E+02  0.19139553439E+03  0.00000000000E+00 0.  1.
         21    1    1    2  505  502 -0.32865981404E+02  0.34973176459E+02 -0.10235609655E+01  0.48003577808E+02  0.00000000000E+00 0.  1.
         21    1    1    2  506  501  0.98526009719E+02 -0.16896115164E+03 -0.46115074986E+03  0.50091442329E+03  0.00000000000E+00 0.  1.
<scales pt_clust_3="47.51159" pt_clust_4="38.32311" pt_clust_5="38.32311" pt_clust_6="206.73185"></scales>
<clustering>
<clus scale="   38.323">  4  5 -1 -1</clus>
<clus scale="   47.512">  2  3  1 -1</clus>
<clus scale="  206.732">  2  6  1 -1</clus>
<clus scale="  218.761">  1  3  2 -1</clus>
</clustering>
</event>
<event>
 6    0  0.4227619E+002  0.9263109E+02  0.7546771E-02  0.1296602E+00
         21   -1    0    0  503  501  0.00000000000E+00  0.00000000000E+00  0.15053440862E+03  0.15053440862E+03  0.00000000000E+00 0. -1.
         21   -1    0    0  506  502 -0.00000000000E+00 -0.00000000000E+00 -0.42453871060E+03  0.42453871060E+03  0.00000000000E+00 0.  1.
         21    1    1    2  503  502  0.12689192475E+03  0.36461377674E+02 -0.33246685397E+03  0.35772224087E+03  0.00000000000E+00 0.  1.
         21    1    1    2  504  501 -0.27668336055E+02  0.11674190435E+02  0.49721880157E+02  0.58086908239E+02  0.00000000000E+00 0.  1.
         21    1    1    2  505  504 -0.54165856406E+02 -0.57080522364E+02  0.53477826742E+02  0.95142020089E+02  0.00000000000E+00 0. -1.
         21    1    1    2  506  505 -0.45057732284E+02  0.89449542544E+01 -0.44737154907E+02  0.64121950020E+02  0.00000000000E+00 0.  1.
<scales pt_clust_3="92.63109" pt_clust_4="30.03038" pt_clust_5="14000.00000" pt_clust_6="48.89096"></scales>
<clustering>
<clus scale="   30.030">  1  4  2 -1</clus>
<clus scale="   48.891">  2  6  1 -1</clus>
<clus scale="   92.631">  2  3  1 -1</clus>
<clus scale="   30.030">  1  3  2 -1</clus>
</clustering>
</event>
<event>
 6    0  0.4227619E+002  0.6574632E+02  0.7546771E-02  0.1375186E+00
         21   -1    0    0  504  501  0.00000000000E+00  0.00000000000E+00  0.35591388785E+02  0.35591388785E+02  0.00000000000E+00 0.  1.
         21   -1    0    0  503  502 -0.00000000000E+00 -0.00000000000E+00 -0.16832111874E+04  0.16832111874E+04  0.00000000000E+00 0. -1.
         21    1    1    2  503  506  0.56107125969E+01  0.65196070378E+02 -0.13997662136E+04  0.14012949227E+04  0.00000000000E+00 0. -1.
         21    1    1    2  504  502  0.25056277476E+02  0.27903508878E+02 -0.87292822286E+02  0.95007682170E+02  0.00000000000E+00 0.  1.
         21    1    1    2  505  501  0.45268142082E+02 -0.26150520360E+02 -0.63523582448E+02  0.82269678070E+02  0.00000000000E+00 0. -1.
         21    1    1    2  506  505 -0.75935132155E+02 -0.66949058897E+02 -0.97037180277E+02  0.14023029323E+03  0.00000000000E+00 0.  1.
<scales pt_clust_3="14000.00000" pt_clust_4="37.50230" pt_clust_5="55.63034" pt_clust_6="65.74632"></scales>
<clustering>
<clus scale="   37.502">  1  4  2 -1</clus>
<clus scale="   55.630">  1  5  2 -1</clus>
<clus scale="   65.746">  1  6  2 -1</clus>
<clus scale="   37.502">  1  3  2 -1</clus>
</clustering>
</event>
<event>
 6    0  0.4227619E+002  0.1235561E+03  0.7546771E-02  0.1237343E+00
         21   -1    0    0  505  501  0.00000000000E+00  0.00000000000E+00  0.33897243755E+03  0.33897243755E+03  0.00000000000E+00 0.  1.
         21   -1    0    0  506  502 -0.00000000000E+00 -0.00000000000E+00 -0.13340164137E+04  0.13340164137E+04  0.00000000000E+00 0. -1.
         21    1    1    2  503  502  0.41527924935E+02  0.74989065098E+02 -0.51661230683E+03  0.52367566681E+03  0.00000000000E+00 0.  1.
         21    1    1    2  504  503  0.97481532979E+02 -0.72253957560E+02 -0.66932544704E+02  0.13857578863E+03  0.00000000000E+00 0. -1.
         21    1    1    2  505  504 -0.50114980084E+02 -0.55872345503E+02  0.29106232975E+03  0.30058361569E+03  0.00000000000E+00 0.  1.
         21    1    1    2  506  501 -0.88894477830E+02  0.53137237964E+02 -0.70256145436E+03  0.71015378010E+03  0.00000000000E+00 0. -1.
<scales pt_clust_3="79.74419" pt_clust_4="14000.00000" pt_clust_5="75.05485" pt_clust_6="123.55612"></scales>
<clustering>
<clus scale="   75.055">  1  5  2 -1</clus>
<clus scale="   79.744">  2  3  1 -1</clus>
<clus scale="  123.556">  2  6  1 -1</clus>
<clus scale="   75.055">  1  3  2 -1</clus>
</clustering>
</event>
<event>
 6    0  0.4227619E+002  0.6542284E+02  0.7546771E-02  0.1376388E+00
         21   -1    0    0  505  501  0.00000000000E+00  0.00000000000E+00  0.28094758551E+03  0.28094758551E+03  0.00000000000E+00 0. -1.
         21   -1    0    0  504  502 -0.00000000000E+00 -0.00000000000E+00 -0.29886328664E+03  0.29886328664E+03  0.00000000000E+00 0. -1.
         21    1    1    2  503  501  0.30620458252E+02  0.51014487505E+02  0.17379527732E+03  0.18369781931E+03  0.00000000000E+00 0. -1.
         21    1    1    2  504  503  0.39496906474E+02  0.19612113329E+01 -0.44288791858E+01  0.39792800125E+02  0.00000000000E+00 0. -1.
         21    1    1    2  505  506 -0.51243652624E+02 -0.94464657932E+02  0.47252243534E+02  0.11739786221E+03  0.00000000000E+00 0. -1.
         21    1    1    2  506  502 -0.18873712103E+02  0.41488959094E+02 -0.23453434280E+03  0.23892239051E+03  0.00000000000E+00 0. -1.
<scales pt_clust_3="14000.00000" pt_clust_4="39.54557" pt_clust_5="65.42284" pt_clust_6="45.66938"></scales>
<clustering>
<clus scale="   39.546">  2  4  1 -1</clus>
<clus scale="   45.669">  2  6  1 -1</clus>
<clus scale="   65.423">  2  5  1 -1</clus>
<clus scale="   65.423">  1  3  2 -1</clus>
</clustering>
</event>
<event>
 6    0  0.4227619E+002  0.1075594E+03  0.7546771E-02  0.1265157E+00
         21   -1    0    0  504  501  0.00000000000E+00  0.00000000000E+00  0.95017834710E+02  0.95017834710E+02  0.00000000000E+00 0. -1.
         21   -1    0    0  503  502 -0.00000000000E+00 -0.00000000000E+00 -0.10079359026E+04  0.10079359026E+04  0.00000000000E+00 0. -1.
         21    1    1    2  503  506 -0.23702352162E+02  0.10906159497E+03 -0.86160188830E+03  0.86880034928E+03  0.00000000000E+00 0. -1.
         21    1    1    2  504  505 -0.24748246561E+02 -0.60837049054E+02 -0.44135601132E+02  0.79130105097E+02  0.00000000000E+00 0. -1.
         21    1    1    2  505  502  0.80548683035E+02 -0.54137716166E+02 -0.43360341808E+02  0.10629723370E+03  0.00000000000E+00 0. -1.
         21    1    1    2  506  501 -0.32098084312E+02  0.59131702537E+01  0.36179763340E+02  0.48726049238E+02  0.00000000000E+00 0. -1.
<scales pt_clust_3="14000.00000" pt_clust_4="68.70957" pt_clust_5="107.55943" pt_clust_6="32.63821"></scales>
<clustering>
<clus scale="   32.638">  1  6  2 -1</clus>
<clus scale="   68.710">  1  4  2 -1</clus>
<clus scale="  107.559">  1  5  2 -1</clus>
<clus scale="   32.638">  1  3  2 -1</clus>
</clustering>
</event>
<event>
 6    0  0.4227619E+002  0.8825904E+02  0.7546771E-02  0.1307123E+00
         21   -1    0    0  506  501  0.00000000000E+00  0.00000000000E+00  0.47617207058E+03  0.47617207058E+03  0.00000000000E+00 0. -1.
         21   -1    0    0  504  502 -0.00000000000E+00 -0.00000000000E+00 -0.50601557366E+03  0.50601557366E+03  0.00000000000E+00 0. -1.
         21    1    1    2  503  502  0.29699949196E+02  0.82512586997E+02 -0.38460569594E+03  0.39447681218E+03  0.00000000000E+00 0. -1.
         21    1    1    2  504  501 -0.68827175470E+02 -0.52895194916E+01  0.51670709468E+02  0.86226569667E+02  0.00000000000E+00 0. -1.
         21    1    1    2  505  503  0.59537249764E+02 -0.11477971319E+03 -0.55243372481E+02  0.14060902130E+03  0.00000000000E+00 0. -1.
         21    1    1    2  506  505 -0.20410023490E+02  0.37556645681E+02  0.35833485588E+03  0.36087524109E+03  0.00000000000E+00 0. -1.
<scales pt_clust_3="88.25904" pt_clust_4="82.65105" pt_clust_5="14000.00000" pt_clust_6="42.74425"></scales>
<clustering>
<clus scale="   42.744">  1  6  2 -1</clus>
<clus scale="   82.651">  1  4  2 -1</clus>
<clus scale="   88.259">  2  3  1 -1</clus>
<clus scale="   42.744">  1  3  2 -1</clus>
</clustering>
</event>
<event>
 6    0  0.4227619E+002  0.1013986E+03  0.7546771E-02  0.1277382E+00
         21   -1    0    0  503  501  0.00000000000E+00  0.00000000000E+00  0.19584106104E+04  0.19584106104E+04  0.00000000000E+00 0.  1.
         21   -1    0    0  504  502 -0.00000000000E+00 -0.00000000000E+00 -0.22018296752E+03  0.22018296752E+03  0.00000000000E+00 0. -1.
         21    1    1    2  503  506  0.87161960632E+02  0.60776448081E+02  0.17718548693E+04  0.17750382142E+04  0.00000000000E+00 0.  1.
         21    1    1    2  504  505 -0.52514204786E+02 -0.11901657579E+02 -0.92810906796E+02  0.10729983960E+03  0.00000000000E+00 0. -1.
         21    1    1    2  505  501 -0.88943746429E+02  0.34378240659E+02  0.13914942928E+03  0.16868733541E+03  0.00000000000E+00 0.  1.
         21    1    1    2  506  502  0.54295990583E+02 -0.83253031161E+02 -0.79965748863E+02  0.12756818875E+03  0.00000000000E+00 0. -1.
<scales pt_clust_3="14000.00000" pt_clust_4="53.84599" pt_clust_5="101.39861" pt_clust_6="93.95945"></scales>
<clustering>
<clus scale="   53.846">  2  4  1 -1</clus>
<clus scale="   93.959">  2  6  1 -1</clus>
<clus scale="  101.399">  2  5  1 -1</clus>
<clus scale="  101.399">  1  3  2 -1</clus>
</clustering>
</event>
<event>
 6    0  0.4227619E+002  0.8474083E+02  0.7546771E-02  0.1316112E+00
         21   -1    0    0  506  501  0.00000000000E+00  0.00000000000E+00  0.37455220860E+03  0.37455220860E+03  0.00000000000E+00 0. -1.
         21   -1    0    0  503  502 -0.00000000000E+00 -0.00000000000E+00 -0.13700679394E+03  0.13700679394E+03  0.00000000000E+00 0. -1.
         21    1    1    2  503  504  0.85461217392E+02 -0.50554206082E+01 -0.32778743409E+01  0.85673341337E+02  0.00000000000E+00 0. -1.
         21    1    1    2  504  501 -0.16177408953E+02 -0.29437905246E+02  0.16957571303E+03  0.17287053327E+03  0.00000000000E+00 0. -1.
         21    1    1    2  505  502 -0.40640395923E+02 -0.68661895874E+02 -0.47719822954E+02  0.92969238076E+02  0.00000000000E+00 0. -1.
         21    1    1    2  506  505 -0.28643412515E+02  0.10315522173E+03  0.11896739893E+03  0.16004588985E+03  0.00000000000E+00 0. -1.
<scales pt_clust_3="82.91896" pt_clust_4="33.59016" pt_clust_5="14000.00000" pt_clust_6="84.74083"></scales>
<clustering>
<clus scale="   33.590">  1  4  2 -1</clus>
<clus scale="   82.919">  2  3  1 -1</clus>
<clus scale="   84.741">  1  6  2 -1</clus>
<clus scale="   33.590">  1  3  2 -1</clus>
</clustering>
</event>
<event>
 6    0  0.4227619E+002  0.1155404E+03  0.7546771E-02  0.1250641E+00
         21   -1    0    0  504  501  0.00000000000E+00  0.00000000000E+00  0.24323144957E+03  0.24323144957E+03  0.00000000000E+00 0. -1.
         21   -1    0    0  506  502 -0.00000000000E+00 -0.00000000000E+00 -0.11650811808E+03  0.11650811808E+03  0.00000000000E+00 0. -1.
         21    1    1    2  503  501 -0.44497742616E+02  0.31185896027E+02  0.64164588673E+02  0.84081529770E+02  0.00000000000E+00 0. -1.
         21    1    1    2  504  502  0.25319480850E+02  0.82805684580E+02  0.11260219411E+03  0.14204616020E+03  0.00000000000E+00 0. -1.
         21    1    1    2  505  503 -0.86164893936E+01 -0.70501280767E+02 -0.19565692549E+02  0.73671506053E+02  0.00000000000E+00 0. -1.
         21    1    1    2  506  505  0.27794751159E+02 -0.43490299839E+02 -0.30477758741E+02  0.59940371620E+02  0.00000000000E+00 0. -1.
<scales pt_clust_3="54.33792" pt_clust_4="106.60058" pt_clust_5="37.98850" pt_clust_6="37.98850"></scales>
<clustering>
<clus scale="   37.989">  5  6 -1 -1</clus>
<clus scale="   54.338">  1  3  2 -1</clus>
<clus scale="  106.601">  1  4  2 -1</clus>
<clus scale="   54.338">  1  3  2 -1</clus>
</clustering>
</event>
<event>
 6    0  0.4227619E+002  0.1124607E+03  0.7546771E-02  0.1256080E+00
         21   -1    0    0  504  501  0.00000000000E+00  0.00000000000E+00  0.37958240219E+03  0.37958240219E+03  0.00000000000E+00 0. -1.
         21   -1    0    0  503  502 -0.00000000000E+00 -0.00000000000E+00 -0.23136591053E+03  0.23136591053E+03  0.00000000000E+00 0.  1.
         21    1    1    2  503  506 -0.14178570671E+02 -0.97385660823E+02 -0.17446277853E+03  0.20030541653E+03  0.00000000000E+00 0.  1.
         21    1    1    2  504  505 -0.49121117880E+02  0.69977230777E+02  0.17504176800E+03  0.19480584589E+03  0.00000000000E+00 0. -1.
         21    1    1    2  505  502  0.26007068599E+02 -0.22721414049E+02 -0.17902199485E+02  0.38898830572E+02  0.00000000000E+00 0.  1.
         21    1    1    2  506  501  0.37292619952E+02  0.50129844095E+02  0.16553970166E+03  0.17693821972E+03  0.00000000000E+00 0. -1.
<scales pt_clust_3="14000.00000" pt_clust_4="112.46072" pt_clust_5="34.53448" pt_clust_6="62.41139"></scales>
<clustering>
<clus scale="   34.534">  2  5  1 -1</clus>
<clus scale="   62.411">  1  6  2 -1</clus>
<clus scale="  112.461">  1  4  2 -1</clus>
<clus scale="   62.411">  1  3  2 -1</clus>
</clustering>
</event>
<event>
 6    0  0.4227619E+002  0.1663573E+03  0.7546771E-02  0.1181701E+00
         21   -1    0    0  506  501  0.00000000000E+00  0.00000000000E+00  0.83270954038E+02  0.83270954038E+02  0.00000000000E+00 0.  1.
         21   -1    0    0  504  502 -0.00000000000E+00 -0.00000000000E+00 -0.84778372308E+03  0.84778372308E+03  0.00000000000E+00 0.  1.
         21    1    1    2  503  501 -0.24758994074E+02 -0.15934272984E+03 -0.98463203110E+02  0.18893944984E+03  0.00000000000E+00 0.  1.
         21    1    1    2  504  503 -0.21708863798E+02  0.18116695855E+03 -0.30018828390E+03  0.35129154193E+03  0.00000000000E+00 0.  1.
         21    1    1    2  505  502 -0.32111028171E+02 -0.22752394729E+02 -0.23427682771E+03  0.23755930122E+03  0.00000000000E+00 0.  1.
         21    1    1    2  506  505  0.78578886043E+02  0.92816602154E+00 -0.13158445433E+03  0.15326438414E+03  0.00000000000E+00 0.  1.
<scales pt_clust_3="166.35727" pt_clust_4="14000.00000" pt_clust_5="39.35466" pt_clust_6="71.23841"></scales>
<clustering>
<clus scale="   39.355">  2  5  1 -1</clus>
<clus scale="   71.238">  2  6  1 -1</clus>
<clus scale="  166.357">  1  3  2 -1</clus>
<clus scale="  166.357">  1  3  2 -1</clus>
</clustering>
</event>
<event>
 6    0  0.4227619E+002  0.1263746E+03  0.7546771E-02  0.1232937E+00
         21   -1    0    0  506  501  0.00000000000E+00  0.00000000000E+00  0.18720923770E+04  0.18720923770E+04  0.00000000000E+00 0.  1.
         21   -1    0    0  504  502 -0.00000000000E+00 -0.00000000000E+00 -0.91191710884E+02  0.91191710884E+02  0.00000000000E+00 0.  1.
         21    1    1    2  503  501  0.72798301321E+01  0.31646844337E+02  0.98917494979E+03  0.98970783566E+03  0.00000000000E+00 0.  1.
         21    1    1    2  504  505  0.56853149274E+02 -0.91908120848E+01 -0.53325165976E+02  0.78487737485E+02  0.00000000000E+00 0.  1.
         21    1    1    2  505  503  0.73649711232E+02 -0.48185293321E+02  0.85469012333E+02  0.12268273932E+03  0.00000000000E+00 0. -1.
         21    1    1    2  506  502 -0.13778269064E+03  0.25729261068E+02  0.75958186999E+03  0.77240577544E+03  0.00000000000E+00 0.  1.
<scales pt_clust_3="32.47335" pt_clust_4="57.62355" pt_clust_5="14000.00000" pt_clust_6="126.37457"></scales>
<clustering>
<clus scale="   32.473">  1  3  2 -1</clus>
<clus scale="   57.624">  2  4  1 -1</clus>
<clus scale="  126.375">  1  6  2 -1</clus>
<clus scale="   32.473">  1  3  2 -1</clus>
</clustering>
</event>
<event>
 6    0  0.4227619E+002  0.8467779E+02  0.7546771E-02  0.1316277E+00
         21   -1    0    0  504  501  0.00000000000E+00  0.00000000000E+00  0.10068252850E+04  0.10068252850E+04  0.00000000000E+00 0. -1.
         21   -1    0    0  506  502 -0.00000000000E+00 -0.00000000000E+00 -0.27832211936E+03  0.27832211936E+03  0.00000000000E+00 0. -1.
         21    1    1    2  503  502  0.33746940278E+01 -0.38107987653E+02 -0.20215053449E+03  0.20573878068E+03  0.00000000000E+00 0. -1.
         21    1    1    2  504  503  0.31287393476E+02 -0.10614673465E+03  0.82133007248E+03  0.82875154192E+03  0.00000000000E+00 0. -1.
         21    1    1    2  505  501  0.12664136666E+02  0.38535990672E+02  0.12715122466E+03  0.13346474016E+03  0.00000000000E+00 0. -1.
         21    1    1    2  506  505 -0.47326224170E+02  0.10571873164E+03 -0.17827597004E+02  0.11719234159E+03  0.00000000000E+00 0. -1.
<scales pt_clust_3="38.25712" pt_clust_4="84.67779" pt_clust_5="39.07699" pt_clust_6="14000.00000"></scales>
<clustering>
<clus scale="   38.257">  2  3  1 -1</clus>
<clus scale="   39.077">  1  5  2 -1</clus>
<clus scale="   84.678">  1  4  2 -1</clus>
<clus scale="   39.077">  1  3  2 -1</clus>
</clustering>
</event>
<event>
 6    0  0.4227619E+002  0.9005384E+02  0.7546771E-02  0.1302721E+00
         21   -1    0    0  506  501  0.00000000000E+00  0.00000000000E+00  0.91243085242E+03  0.91243085242E+03  0.00000000000E+00 0. -1.
         21   -1    0    0  503  502 -0.00000000000E+00 -0.00000000000E+00 -0.32968515571E+02  0.32968515571E+02  0.00000000000E+00 0. -1.
         21    1    1    2  503  505 -0.84992932112E+02  0.29635772532E+02  0.10491856383E+03  0.13823886052E+03  0.00000000000E+00 0. -1.
         21    1    1    2  504  502  0.83841597099E+02 -0.33230774991E+02  0.22484144685E+03  0.24225477092E+03  0.00000000000E+00 0. -1.
         21    1    1    2  505  501 -0.25135816586E+01  0.44006697252E+02  0.65167052052E+02  0.78674342507E+02  0.00000000000E+00 0. -1.
         21    1    1    2  506  504  0.36649166719E+01 -0.40411694793E+02  0.48453527412E+03  0.48623139404E+03  0.00000000000E+00 0. -1.
<scales pt_clust_3="90.05384" pt_clust_4="14000.00000" pt_clust_5="37.24911" pt_clust_6="40.57754"></scales>
<clustering>
<clus scale="   40.578">  1  6  2 -1</clus>
<clus scale="   37.249">  1  5  2 -1</clus>
<clus scale="   90.054">  2  3  1 -1</clus>
<clus scale="   40.578">  1  3  2 -1</clus>
</clustering>
</event>
<event>
 6    0  0.4227619E+002  0.9794788E+02  0.7546771E-02  0.1284671E+00
         21   -1    0    0  504  501  0.00000000000E+00  0.00000000000E+00  0.26610999791E+03  0.26610999791E+03  0.00000000000E+00 0. -1.
         21   -1    0    0  506  502 -0.00000000000E+00 -0.00000000000E+00 -0.13984185683E+03  0.13984185683E+03  0.00000000000E+00 0.  1.
         21    1    1    2  503  501  0.24106275786E+02  0.44545105419E+02  0.35471508890E+02  0.61835320748E+02  0.00000000000E+00 0.  1.
         21    1    1    2  504  505  0.48416564296E+02  0.29039184746E+02  0.14167570537E+03  0.15251046994E+03  0.00000000000E+00 0. -1.
         21    1    1    2  505  502 -0.89868645939E+02 -0.10563676040E+03 -0.13414809245E+02  0.13933935474E+03  0.00000000000E+00 0.  1.
         21    1    1    2  506  503  0.17345805857E+02  0.32052470240E+02 -0.37464263936E+02  0.52266709305E+02  0.00000000000E+00 0.  1.
<scales pt_clust_3="55.70782" pt_clust_4="97.94788" pt_clust_5="14000.00000" pt_clust_6="36.44500"></scales>
<clustering>
<clus scale="   36.445">  2  6  1 -1</clus>
<clus scale="   55.708">  1  3  2 -1</clus>
<clus scale="   97.948">  1  4  2 -1</clus>
<clus scale="   55.708">  1  3  2 -1</clus>
</clustering>
</event>
<event>
 6    0  0.4227619E+002  0.1060581E+03  0.7546771E-02  0.1268049E+00
         21   -1    0    0  504  501  0.00000000000E+00  0.00000000000E+00  0.25870142112E+04  0.25870142112E+04  0.00000000000E+00 0.  1.
         21   -1    0    0  505  502 -0.00000000000E+00 -0.00000000000E+00 -0.12942408238E+02  0.12942408238E+02  0.00000000000E+00 0.  1.
         21    1    1    2  503  501  0.49779666653E+02  0.11663259817E+03  0.13679568487E+04  0.13738220838E+04  0.00000000000E+00 0.  1.
         21    1    1    2  504  506 -0.69890379104E+02 -0.62583863792E+02  0.91778795336E+03  0.92257039430E+03  0.00000000000E+00 0.  1.
         21    1    1    2  505  503  0.40504891150E+02 -0.13761487003E+02  0.19812828413E+03  0.20269396070E+03  0.00000000000E+00 0.  1.
         21    1    1    2  506  502 -0.20394178699E+02 -0.40287247376E+02  0.90198716792E+02  0.10087018061E+03  0.00000000000E+00 0.  1.
<scales pt_clust_3="106.05806" pt_clust_4="14000.00000" pt_clust_5="42.77879" pt_clust_6="47.17582"></scales>
<clustering>
<clus scale="   42.779">  2  5  1 -1</clus>
<clus scale="   47.176">  2  6  1 -1</clus>
<clus scale="  106.058">  2  3  1 -1</clus>
<clus scale="  106.058">  1  3  2 -1</clus>
</clustering>
</event>
<event>
 6    0  0.4227619E+002  0.1565192E+03  0.7546771E-02  0.1192684E+00
         21   -1    0    0  504  501  0.00000000000E+00  0.00000000000E+00  0.30201906224E+02  0.30201906224E+02  0.00000000000E+00 0. -1.
         21   -1    0    0  505  502 -0.00000000000E+00 -0.00000000000E+00 -0.25330301386E+04  0.25330301386E+04  0.00000000000E+00 0. -1.
         21    1    1    2  503  502  0.22158599783E+02 -0.46734743003E+02 -0.55137302147E+03  0.55379359743E+03  0.00000000000E+00 0. -1.
         21    1    1    2  504  506 -0.22000657642E+02  0.88124926753E+02 -0.12224702905E+03  0.15229697228E+03  0.00000000000E+00 0. -1.
         21    1    1    2  505  501 -0.15126677083E+03 -0.62198346307E+02 -0.11054978565E+04  0.11175311096E+04  0.00000000000E+00 0. -1.
         21    1    1    2  506  503  0.15110882868E+03  0.20808162556E+02 -0.72371032534E+03  0.73961036549E+03  0.00000000000E+00 0. -1.
<scales pt_clust_3="51.72175" pt_clust_4="87.31762" pt_clust_5="156.51917" pt_clust_6="14000.00000"></scales>
<clustering>
<clus scale="   51.722">  2  3  1 -1</clus>
<clus scale="   87.318">  1  4  2 -1</clus>
<clus scale="  156.519">  2  5  1 -1</clus>
<clus scale="   87.318">  1  3  2 -1</clus>
</clustering>
</event>
<event>
 6    0  0.4227619E+002  0.8706285E+02  0.7546771E-02  0.1310124E+00
         21   -1    0    0  504  501  0.00000000000E+00  0.00000000000E+00  0.24826285982E+02  0.24826285982E+02  0.00000000000E+00 0. -1.
         21   -1    0    0  506  502 -0.00000000000E+00 -0.00000000000E+00 -0.16487925862E+04  0.16487925862E+04  0.00000000000E+00 0. -1.
         21    1    1    2  503  505  0.68709601570E+02 -0.18463959860E+02 -0.96391215509E+02  0.11980481455E+03  0.00000000000E+00 0. -1.
         21    1    1    2  504  503  0.10311299790E+02 -0.49057631940E+02 -0.57946038671E+02  0.76620607884E+02  0.00000000000E+00 0. -1.
         21    1    1    2  505  502 -0.32568542209E+02  0.83540655375E+02 -0.65837788872E+03  0.66445556314E+03  0.00000000000E+00 0. -1.
         21    1    1    2  506  501 -0.46452359151E+02 -0.16019063574E+02 -0.81125115734E+03  0.81273788663E+03  0.00000000000E+00 0. -1.
<scales pt_clust_3="87.06285" pt_clust_4="50.77334" pt_clust_5="14000.00000" pt_clust_6="49.13687"></scales>
<clustering>
<clus scale="   49.137">  2  6  1 -1</clus>
<clus scale="   50.773">  1  4  2 -1</clus>
<clus scale="   87.063">  1  3  2 -1</clus>
<clus scale="   50.773">  1  3  2 -1</clus>
</clustering>
</event>
<event>
 6    0  0.4227619E+002  0.1169079E+03  0.7546771E-02  0.1248287E+00
         21   -1    0    0  503  501  0.00000000000E+00  0.00000000000E+00  0.24135937844E+03  0.24135937844E+03  0.00000000000E+00 0.  1.
         21   -1    0    0  504  502 -0.00000000000E+00 -0.00000000000E+00 -0.26914272671E+03  0.26914272671E+03  0.00000000000E+00 0. -1.
         21    1    1    2  503  506 -0.18403792183E+02  0.26870354050E+02  0.82565359830E+02  0.88756713196E+02  0.00000000000E+00 0.  1.
         21    1    1    2  504  505  0.40625643551E+02 -0.73874614019E+02 -0.18102502014E+03  0.19969466550E+03  0.00000000000E+00 0. -1.
         21    1    1    2  505  501  0.24641587461E+02  0.10534822407E+03  0.94358609496E+02  0.14355836212E+03  0.00000000000E+00 0.  1.
         21    1    1    2  506  502 -0.46863438829E+02 -0.58343964104E+02 -0.23682297453E+02  0.78492364335E+02  0.00000000000E+00 0. -1.
<scales pt_clust_3="32.56863" pt_clust_4="14000.00000" pt_clust_5="116.90787" pt_clust_6="73.38114"></scales>
<clustering>
<clus scale="   32.569">  1  3  2 -1</clus>
<clus scale="   73.381">  2  6  1 -1</clus>
<clus scale="  116.908">  1  5  2 -1</clus>
<clus scale="   32.569">  1  3  2 -1</clus>
</clustering>
</event>
<event>
 6    0  0.4227619E+002  0.1479896E+03  0.7546771E-02  0.1202965E+00
         21   -1    0    0  505  501  0.00000000000E+00  0.00000000000E+00  0.25441105868E+03  0.25441105868E+03  0.00000000000E+00 0. -1.
         21   -1    0    0  504  502 -0.00000000000E+00 -0.00000000000E+00 -0.60528579033E+03  0.60528579033E+03  0.00000000000E+00 0.  1.
         21    1    1    2  503  502 -0.16595746544E+02 -0.34026541249E+02 -0.58365889808E+02  0.69568681214E+02  0.00000000000E+00 0. -1.
         21    1    1    2  504  506  0.16113743150E+03  0.45577138734E+02 -0.44470414259E+03  0.47518872235E+03  0.00000000000E+00 0.  1.
         21    1    1    2  505  503 -0.82079980045E+01  0.57447327099E+02  0.15139757432E+03  0.16213818838E+03  0.00000000000E+00 0. -1.
         21    1    1    2  506  501 -0.13633368696E+03 -0.68997924584E+02  0.79772642946E+00  0.15280125707E+03  0.00000000000E+00 0. -1.
<scales pt_clust_3="37.85795" pt_clust_4="14000.00000" pt_clust_5="57.72023" pt_clust_6="147.98963"></scales>
<clustering>
<clus scale="   37.858">  2  3  1 -1</clus>
<clus scale="   57.720">  1  5  2 -1</clus>
<clus scale="  147.990">  1  6  2 -1</clus>
<clus scale="   57.720">  1  3  2 -1</clus>
</clustering>
</event>
<event>
 6    0  0.4227619E+002  0.1132834E+03  0.7546771E-02  0.1254608E+00
         21   -1    0    0  506  501  0.00000000000E+00  0.00000000000E+00  0.13138810486E+03  0.13138810486E+03  0.00000000000E+00 0.  1.
         21   -1    0    0  505  502 -0.00000000000E+00 -0.00000000000E+00 -0.62415552673E+03  0.62415552673E+03  0.00000000000E+00 0. -1.
         21    1    1    2  503  502  0.16384367299E+02  0.50907262257E+02 -0.12904479238E+03  0.13968734833E+03  0.00000000000E+00 0. -1.
         21    1    1    2  504  501 -0.10688094770E+03  0.28085694106E+02  0.70599464017E+02  0.13113591237E+03  0.00000000000E+00 0.  1.
         21    1    1    2  505  504 -0.48691876263E+02 -0.21339355231E+02 -0.54615111708E+02  0.76217303302E+02  0.00000000000E+00 0. -1.
         21    1    1    2  506  503  0.13918845666E+03 -0.57653601133E+02 -0.37970698180E+03  0.40850306758E+03  0.00000000000E+00 0. -1.
<scales pt_clust_3="46.01365" pt_clust_4="14000.00000" pt_clust_5="53.16265" pt_clust_6="113.28344"></scales>
<clustering>
<clus scale="   53.163">  2  5  1 -1</clus>
<clus scale="   46.014">  2  3  1 -1</clus>
<clus scale="  113.283">  2  6  1 -1</clus>
<clus scale="  113.283">  1  3  2 -1</clus>
</clustering>
</event>
<event>
 6    0  0.4227619E+002  0.1153724E+03  0.7546771E-02  0.1250932E+00
         21   -1    0    0  504  501  0.00000000000E+00  0.00000000000E+00  0.37829055314E+03  0.37829055314E+03  0.00000000000E+00 0.  1.
         21   -1    0    0  503  502 -0.00000000000E+00 -0.00000000000E+00 -0.65848943365E+02  0.65848943365E+02  0.00000000000E+00 0.  1.
         21    1    1    2  503  505 -0.10868528904E+03  0.30382826195E+02  0.13897470465E+03  0.17902395570E+03  0.00000000000E+00 0.  1.
         21    1    1    2  504  506  0.10823451679E+03 -0.38992694412E+02  0.71514836232E+02  0.13546037297E+03  0.00000000000E+00 0.  1.
         21    1    1    2  505  501  0.26913044325E+01  0.43045135796E+02  0.72156945346E+02  0.84063973240E+02  0.00000000000E+00 0.  1.
         21    1    1    2  506  502 -0.22405321873E+01 -0.34435267580E+02  0.29795123540E+02  0.45591194594E+02  0.00000000000E+00 0. -1.
<scales pt_clust_3="115.37238" pt_clust_4="14000.00000" pt_clust_5="39.58406" pt_clust_6="34.50808"></scales>
<clustering>
<clus scale="   34.508">  2  6  1 -1</clus>
<clus scale="   39.584">  1  5  2 -1</clus>
<clus scale="  115.372">  1  3  2 -1</clus>
<clus scale="   39.584">  1  3  2 -1</clus>
</clustering>
</event>
<event>
 6    0  0.4227619E+002  0.1225748E+03  0.7546771E-02  0.1238909E+00
         21   -1    0    0  504  501  0.00000000000E+00  0.00000000000E+00  0.10874288161E+04  0.10874288161E+04  0.00000000000E+00 0. -1.
         21   -1    0    0  505  502 -0.00000000000E+00 -0.00000000000E+00 -0.10959625066E+03  0.10959625066E+03  0.00000000000E+00 0. -1.
         21    1    1    2  503  501 -0.34613412145E+02  0.29821858059E+02  0.76688544375E+03  0.76824521824E+03  0.00000000000E+00 0. -1.
         21    1    1    2  504  502 -0.19461673676E+01 -0.13550585006E+03  0.19389892240E+03  0.23656376535E+03  0.00000000000E+00 0. -1.
         21    1    1    2  505  506 -0.45794825676E+02 -0.12228114031E+02  0.83460746272E+01  0.48128471751E+02  0.00000000000E+00 0. -1.
         21    1    1    2  506  503  0.82354405189E+02  0.11791210603E+03  0.87021247079E+01  0.14408761147E+03  0.00000000000E+00 0. -1.
<scales pt_clust_3="45.68842" pt_clust_4="122.57480" pt_clust_5="49.78395" pt_clust_6="14000.00000"></scales>
<clustering>
<clus scale="   45.688">  1  3  2 -1</clus>
<clus scale="   49.784">  2  5  1 -1</clus>
<clus scale="  122.575">  1  4  2 -1</clus>
<clus scale="   45.688">  1  3  2 -1</clus>
</clustering>
</event>
<event>
 6    0  0.4227619E+002  0.1064201E+03  0.7546771E-02  0.1267347E+00
         21   -1    0    0  505  501  0.00000000000E+00  0.00000000000E+00  0.34557807285E+03  0.34557807285E+03  0.00000000000E+00 0. -1.
         21   -1    0    0  506  502 -0.00000000000E+00 -0.00000000000E+00 -0.10638847623E+04  0.10638847623E+04  0.00000000000E+00 0. -1.
         21    1    1    2  503  502  0.40293829529E+02 -0.38836891923E+01 -0.34883057820E+03  0.35117153647E+03  0.00000000000E+00 0. -1.
         21    1    1    2  504  501 -0.34773069884E+02  0.10049191322E+03  0.32290056686E+03  0.33995965509E+03  0.00000000000E+00 0. -1.
         21    1    1    2  505  503 -0.41567277412E+02 -0.13217862627E+03 -0.55112579365E+03  0.56827692916E+03  0.00000000000E+00 0. -1.
         21    1    1    2  506  504  0.36046517767E+02  0.35570402240E+02 -0.14125088444E+03  0.15005471440E+03  0.00000000000E+00 0. -1.
<scales pt_clust_3="40.48056" pt_clust_4="14000.00000" pt_clust_5="106.42007" pt_clust_6="56.29505"></scales>
<clustering>
<clus scale="   40.481">  2  3  1 -1</clus>
<clus scale="   56.295">  2  6  1 -1</clus>
<clus scale="  106.420">  2  5  1 -1</clus>
<clus scale="  106.420">  1  3  2 -1</clus>
</clustering>
</event>
<event>
 6    0  0.4227619E+002  0.1503631E+03  0.7546771E-02  0.1200028E+00
         21   -1    0    0  503  501  0.00000000000E+00  0.00000000000E+00  0.26703811410E+03  0.26703811410E+03  0.00000000000E+00 0. -1.
         21   -1    0    0  506  502 -0.00000000000E+00 -0.00000000000E+00 -0.48484080733E+03  0.48484080733E+03  0.00000000000E+00 0. -1.
         21    1    1    2  503  505  0.42978278921E+02  0.23878308699E+02 -0.13843491663E+03  0.14690654250E+03  0.00000000000E+00 0.  1.
         21    1    1    2  504  501  0.46470018032E+02 -0.10698479478E+03  0.19566536122E+03  0.22779407910E+03  0.00000000000E+00 0. -1.
         21    1    1    2  505  502  0.75677781465E+02  0.46909760225E+02 -0.97378235160E+02  0.13194761421E+03  0.00000000000E+00 0. -1.
         21    1    1    2  506  504 -0.16512607842E+03  0.36196725853E+02 -0.17765490266E+03  0.24523068563E+03  0.00000000000E+00 0. -1.
<scales pt_clust_3="41.11687" pt_clust_4="116.64137" pt_clust_5="41.11687" pt_clust_6="139.81230"></scales>
<clustering>
<clus scale="   41.117">  3  5 -1 -1</clus>
<clus scale="  116.641">  1  4  2 -1</clus>
<clus scale="  139.812">  1  6  2 -1</clus>
<clus scale="  116.641">  1  3  2 -1</clus>
</clustering>
</event>
<event>
 6    0  0.4227619E+002  0.1576299E+03  0.7546771E-02  0.1191399E+00
         21   -1    0    0  502  501  0.00000000000E+00  0.00000000000E+00  0.31121225252E+03  0.31121225252E+03  0.00000000000E+00 0. -1.
         21   -1    0    0  504  502 -0.00000000000E+00 -0.00000000000E+00 -0.10173281683E+04  0.10173281683E+04  0.00000000000E+00 0. -1.
         21    1    1    2  503  501 -0.99241743379E+02  0.51402361996E+02  0.24696195083E+03  0.27107440234E+03  0.00000000000E+00 0. -1.
         21    1    1    2  504  505  0.27263236650E+02  0.19152577985E+02 -0.55090021143E+03  0.55190682934E+03  0.00000000000E+00 0. -1.
         21    1    1    2  505  506  0.99829602527E+02 -0.96320332423E+02 -0.43425587247E+03  0.45587467440E+03  0.00000000000E+00 0. -1.
         21    1    1    2  506  503 -0.27851095798E+02  0.25765392442E+02  0.32078217271E+02  0.49684514772E+02  0.00000000000E+00 0. -1.
<scales pt_clust_3="31.45978" pt_clust_4="33.31824" pt_clust_5="148.09376" pt_clust_6="31.45978"></scales>
<clustering>
<clus scale="   31.460">  3  6 -1 -1</clus>
<clus scale="   33.318">  2  4  1 -1</clus>
<clus scale="  148.094">  2  5  1 -1</clus>
<clus scale="  157.630">  1  3  2 -1</clus>
</clustering>
</event>
<event>
 6    0  0.4227619E+002  0.1450410E+03  0.7546771E-02  0.1206702E+00
         21   -1    0    0  504  501  0.00000000000E+00  0.00000000000E+00  0.19110304099E+03  0.19110304099E+03  0.00000000000E+00 0.  1.
         21   -1    0    0  505  502 -0.00000000000E+00 -0.00000000000E+00 -0.35215309476E+03  0.35215309476E+03  0.00000000000E+00 0.  1.
         21    1    1    2  503  506 -0.43379412279E+02  0.97509105051E+02 -0.61350435381E+02  0.12310026360E+03  0.00000000000E+00 0.  1.
         21    1    1    2  504  503  0.14260367220E+02  0.30360783116E+02 -0.27246896041E+01  0.33653516282E+02  0.00000000000E+00 0.  1.
         21    1    1    2  505  501  0.64332693030E+02 -0.11870754461E+03  0.11135756534E+03  0.17501623895E+03  0.00000000000E+00 0.  1.
         21    1    1    2  506  502 -0.35213647971E+02 -0.91623435616E+01 -0.20833249412E+03  0.21148611691E+03  0.00000000000E+00 0.  1.
<scales pt_clust_3="32.04645" pt_clust_4="32.04645" pt_clust_5="133.30187" pt_clust_6="36.38612"></scales>
<clustering>
<clus scale="   32.046">  3  4 -1 -1</clus>
<clus scale="   36.386">  2  6  1 -1</clus>
<clus scale="  133.302">  1  5  2 -1</clus>
<clus scale="  133.302">  1  3  2 -1</clus>
</clustering>
</event>
<event>
 6    0  0.4227619E+002  0.1335729E+03  0.7546771E-02  0.1222248E+00
         21   -1    0    0  505  501  0.00000000000E+00  0.00000000000E+00  0.29918315053E+03  0.29918315053E+03  0.00000000000E+00 0. -1.
         21   -1    0    0  506  502 -0.00000000000E+00 -0.00000000000E+00 -0.15293194087E+04  0.15293194087E+04  0.00000000000E+00 0.  1.
         21    1    1    2  503  501 -0.16280497608E+03 -0.93715222893E+02 -0.38355127146E+03  0.42708263964E+03  0.00000000000E+00 0.  1.
         21    1    1    2  504  502  0.55194822851E+01  0.45686213471E+02 -0.22611202026E+03  0.23074735208E+03  0.00000000000E+00 0.  1.
         21    1    1    2  505  504  0.99080035729E+02  0.86594039637E+02  0.25789924875E+03  0.28952962489E+03  0.00000000000E+00 0. -1.
         21    1    1    2  506  503  0.58205458069E+02 -0.38565030216E+02 -0.87837221520E+03  0.88114294262E+03  0.00000000000E+00 0.  1.
<scales pt_clust_3="133.57289" pt_clust_4="46.01842" pt_clust_5="14000.00000" pt_clust_6="62.41107"></scales>
<clustering>
<clus scale="   46.018">  2  4  1 -1</clus>
<clus scale="   62.411">  2  6  1 -1</clus>
<clus scale="  133.573">  2  3  1 -1</clus>
<clus scale="  133.573">  1  3  2 -1</clus>
</clustering>
</event>
<event>
 6    0  0.4227619E+002  0.9214803E+02  0.7546771E-02  0.1297732E+00
         21   -1    0    0  504  501  0.00000000000E+00  0.00000000000E+00  0.26970247025E+03  0.26970247025E+03  0.00000000000E+00 0. -1.
         21   -1    0    0  503  502 -0.00000000000E+00 -0.00000000000E+00 -0.64253894541E+03  0.64253894541E+03  0.00000000000E+00 0. -1.
         21    1    1    2  503  505 -0.85019289543E+02 -0.50041215255E+02 -0.57599210481E+03  0.58437942094E+03  0.00000000000E+00 0. -1.
         21    1    1    2  504  506 -0.18069279779E+02 -0.24437259036E+02  0.16891037657E+03  0.17162282428E+03  0.00000000000E+00 0. -1.
         21    1    1    2  505  501  0.65890233129E+02  0.24411101945E+02  0.56343517368E+02  0.90066734533E+02  0.00000000000E+00 0. -1.
         21    1    1    2  506  502  0.37198336192E+02  0.50067372346E+02 -0.22098264283E+02  0.66172435904E+02  0.00000000000E+00 0. -1.
<scales pt_clust_3="14000.00000" pt_clust_4="30.39208" pt_clust_5="52.97802" pt_clust_6="92.14803"></scales>
<clustering>
<clus scale="   30.392">  1  4  2 -1</clus>
<clus scale="   52.978">  1  5  2 -1</clus>
<clus scale="   92.148">  1  6  2 -1</clus>
<clus scale="   30.392">  1  3  2 -1</clus>
</clustering>
</event>
<event>
 6    0  0.4227619E+002  0.1045375E+03  0.7546771E-02  0.1271034E+00
         21   -1    0    0  504  501  0.00000000000E+00  0.00000000000E+00  0.12797647229E+04  0.12797647229E+04  0.00000000000E+00 0.  1.
         21   -1    0    0  506  502 -0.00000000000E+00 -0.00000000000E+00 -0.17359227843E+03  0.17359227843E+03  0.00000000000E+00 0.  1.
         21    1    1    2  503  501 -0.46365432777E+02  0.19598497886E+02  0.10052331896E+04  0.10064927321E+04  0.00000000000E+00 0.  1.
         21    1    1    2  504  505  0.96181709125E+02 -0.14073052219E+02  0.43626163729E+02  0.10654676969E+03  0.00000000000E+00 0.  1.
         21    1    1    2  505  502  0.39026074718E+02  0.86674992397E+01 -0.12811946509E+03  0.13421161420E+03  0.00000000000E+00 0.  1.
         21    1    1    2  506  503 -0.88842351066E+02 -0.14192944906E+02  0.18543255630E+03  0.20610588532E+03  0.00000000000E+00 0.  1.
<scales pt_clust_3="49.85510" pt_clust_4="104.53751" pt_clust_5="39.97699" pt_clust_6="14000.00000"></scales>
<clustering>
<clus scale="   39.977">  2  5  1 -1</clus>
<clus scale="   49.855">  1  3  2 -1</clus>
<clus scale="  104.538">  2  4  1 -1</clus>
<clus scale="   49.855">  1  3  2 -1</clus>
</clustering>
</event>
<event>
 6    0  0.4227619E+002  0.5781922E+02  0.7546771E-02  0.1407218E+00
         21   -1    0    0  505  501  0.00000000000E+00  0.00000000000E+00  0.91784784295E+03  0.91784784295E+03  0.00000000000E+00 0. -1.
         21   -1    0    0  506  502 -0.00000000000E+00 -0.00000000000E+00 -0.51504728973E+02  0.51504728973E+02  0.00000000000E+00 0.  1.
         21    1    1    2  503  502 -0.60569011840E+02  0.40085944165E+02  0.29247641062E+03  0.30136014814E+03  0.00000000000E+00 0. -1.
         21    1    1    2  504  501  0.54298007466E+02 -0.50733161943E+02  0.15747067987E+02  0.75961157744E+02  0.00000000000E+00 0.  1.
         21    1    1    2  505  503  0.56820566101E+02  0.12892047532E+02  0.53182579948E+03  0.53500790892E+03  0.00000000000E+00 0. -1.
         21    1    1    2  506  504 -0.50549561728E+02 -0.22448297538E+01  0.26293835895E+02  0.57023357123E+02  0.00000000000E+00 0.  1.
<scales pt_clust_3="14000.00000" pt_clust_4="53.99649" pt_clust_5="57.81922" pt_clust_6="50.59938"></scales>
<clustering>
<clus scale="   50.599">  2  6  1 -1</clus>
<clus scale="   53.996">  2  4  1 -1</clus>
<clus scale="   57.819">  1  5  2 -1</clus>
<clus scale="   57.819">  1  3  2 -1</clus>
</clustering>
</event>
<event>
 6    0  0.4227619E+002  0.7303259E+02  0.7546771E-02  0.1350074E+00
         21   -1    0    0  506  501  0.00000000000E+00  0.00000000000E+00  0.71995257626E+03  0.71995257626E+03  0.00000000000E+00 0.  1.
         21   -1    0    0  504  502 -0.00000000000E+00 -0.00000000000E+00 -0.19862478591E+03  0.19862478591E+03  0.00000000000E+00 0.  1.
         21    1    1    2  503  502  0.83314523689E+02  0.68460519504E+02  0.12685390005E+03  0.16649343695E+03  0.00000000000E+00 0.  1.
         21    1    1    2  504  501 -0.72437880320E+02  0.67008561887E+01 -0.16782660380E+03  0.18291505384E+03  0.00000000000E+00 0.  1.
         21    1    1    2  505  503 -0.24022711594E+02 -0.41256450714E+02  0.40032222551E+03  0.40315886402E+03  0.00000000000E+00 0.  1.
         21    1    1    2  506  505  0.13146068225E+02 -0.33904924979E+02  0.16197826859E+03  0.16601000736E+03  0.00000000000E+00 0. -1.
<scales pt_clust_3="14000.00000" pt_clust_4="73.03259" pt_clust_5="67.34119" pt_clust_6="36.36431"></scales>
<clustering>
<clus scale="   36.364">  1  6  2 -1</clus>
<clus scale="   67.341">  1  5  2 -1</clus>
<clus scale="   73.033">  2  4  1 -1</clus>
<clus scale="   36.364">  1  3  2 -1</clus>
</clustering>
</event>
<event>
 6    0  0.4227619E+002  0.9904017E+02  0.7546771E-02  0.1282327E+00
         21   -1    0    0  505  501  0.00000000000E+00  0.00000000000E+00  0.15819300147E+03  0.15819300147E+03  0.00000000000E+00 0.  1.
         21   -1    0    0  503  502 -0.00000000000E+00 -0.00000000000E+00 -0.11054605653E+04  0.11054605653E+04  0.00000000000E+00 0.  1.
         21    1    1    2  503  504  0.99805089262E+02 -0.12514612477E+02 -0.98322294505E+03  0.98835470912E+03  0.00000000000E+00 0.  1.
         21    1    1    2  504  506 -0.86825931833E+02 -0.97491050711E+01 -0.59765249508E+02  0.10585684927E+03  0.00000000000E+00 0.  1.
         21    1    1    2  505  502 -0.89510272901E+01  0.55419950675E+02  0.11704751811E+03  0.12981376398E+03  0.00000000000E+00 0.  1.
         21    1    1    2  506  501 -0.40281301385E+01 -0.33156233127E+02 -0.21326887343E+02  0.39628244363E+02  0.00000000000E+00 0.  1.
<scales pt_clust_3="14000.00000" pt_clust_4="99.04017" pt_clust_5="30.54187" pt_clust_6="33.40002"></scales>
<clustering>
<clus scale="   33.400">  1  6  2 -1</clus>
<clus scale="   30.542">  1  5  2 -1</clus>
<clus scale="   99.040">  1  4  2 -1</clus>
<clus scale="   33.400">  1  3  2 -1</clus>
</clustering>
</event>
<event>
 6    0  0.4227619E+002  0.1477913E+03  0.7546771E-02  0.1203214E+00
         21   -1    0    0  506  501  0.00000000000E+00  0.00000000000E+00  0.24662937168E+03  0.24662937168E+03  0.00000000000E+00 0. -1.
         21   -1    0    0  505  502 -0.00000000000E+00 -0.00000000000E+00 -0.54356498033E+03  0.54356498033E+03  0.00000000000E+00 0. -1.
         21    1    1    2  503  502 -0.39850449079E+02 -0.64408123795E+02 -0.16537050480E+03  0.18188971538E+03  0.00000000000E+00 0. -1.
         21    1    1    2  504  503  0.35451902213E+02  0.85340822592E+01  0.18608855339E+02  0.40938459027E+02  0.00000000000E+00 0.  1.
         21    1    1    2  505  501 -0.90401998450E+02  0.11264939824E+02 -0.33921364938E+03  0.35123399625E+03  0.00000000000E+00 0. -1.
         21    1    1    2  506  504  0.94800545316E+02  0.44609101711E+02  0.18903969019E+03  0.21613218135E+03  0.00000000000E+00 0. -1.
<scales pt_clust_3="75.73945" pt_clust_4="33.25495" pt_clust_5="136.61904" pt_clust_6="33.25495"></scales>
<clustering>
<clus scale="   33.255">  4  6 -1 -1</clus>
<clus scale="   75.739">  2  3  1 -1</clus>
<clus scale="  136.619">  2  5  1 -1</clus>
<clus scale="  147.791">  1  3  2 -1</clus>
</clustering>
</event>
<event>
 6    0  0.4227619E+002  0.8586816E+02  0.7546771E-02  0.1313178E+00
         21   -1    0    0  504  501  0.00000000000E+00  0.00000000000E+00  0.77954127801E+03  0.77954127801E+03  0.00000000000E+00 0.  1.
         21   -1    0    0  505  502 -0.00000000000E+00 -0.00000000000E+00 -0.14310605870E+04  0.14310605870E+04  0.00000000000E+00 0. -1.
         21    1    1    2  503  506  0.58627508536E+02  0.42007243808E+02  0.53227731726E+01  0.72319604560E+02  0.00000000000E+00 0.  1.
         21    1    1    2  504  503  0.26953901172E+02 -0.60550496771E+02  0.73481367633E+03  0.73779672971E+03  0.00000000000E+00 0.  1.
         21    1    1    2  505  501  0.34920735223E+02  0.44559004497E+01 -0.26919199674E+03  0.27148415038E+03  0.00000000000E+00 0.  1.
         21    1    1    2  506  502 -0.12050214493E+03  0.14087352514E+02 -0.11224637617E+04  0.11290013803E+04  0.00000000000E+00 0. -1.
<scales pt_clust_3="14000.00000" pt_clust_4="66.29180" pt_clust_5="35.20387" pt_clust_6="85.86816"></scales>
<clustering>
<clus scale="   35.204">  2  5  1 -1</clus>
<clus scale="   66.292">  1  4  2 -1</clus>
<clus scale="   85.868">  2  6  1 -1</clus>
<clus scale="   66.292">  1  3  2 -1</clus>
</clustering>
</event>
<event>
 6    0  0.4227619E+002  0.1672048E+03  0.7546771E-02  0.1180795E+00
         21   -1    0    0  503  501  0.00000000000E+00  0.00000000000E+00  0.16188802549E+04  0.16188802549E+04  0.00000000000E+00 0. -1.
         21   -1    0    0  504  502 -0.00000000000E+00 -0.00000000000E+00 -0.51535104337E+02  0.51535104337E+02  0.00000000000E+00 0. -1.
         21    1    1    2  503  506 -0.62375775434E+02 -0.87932946257E+01  0.33909175206E+03  0.34489313665E+03  0.00000000000E+00 0. -1.
         21    1    1    2  504  501  0.20643719061E+03 -0.61259075600E+02  0.96772305494E+03  0.99139139550E+03  0.00000000000E+00 0. -1.
         21    1    1    2  505  502 -0.38947036959E+02 -0.40287857382E+02  0.83255126327E+02  0.10035636103E+03  0.00000000000E+00 0. -1.
         21    1    1    2  506  505 -0.10511437822E+03  0.11034022761E+03  0.17727521728E+03  0.23377446610E+03  0.00000000000E+00 0. -1.
<scales pt_clust_3="66.01551" pt_clust_4="167.20482" pt_clust_5="56.03555" pt_clust_6="14000.00000"></scales>
<clustering>
<clus scale="   56.036">  2  5  1 -1</clus>
<clus scale="   66.016">  1  3  2 -1</clus>
<clus scale="  167.205">  1  4  2 -1</clus>
<clus scale="   66.016">  1  3  2 -1</clus>
</clustering>
</event>
<event>
 6    0  0.4227619E+002  0.7424834E+02  0.7546771E-02  0.1346215E+00
         21   -1    0    0  506  501  0.00000000000E+00  0.00000000000E+00  0.21028058364E+03  0.21028058364E+03  0.00000000000E+00 0.  1.
         21   -1    0    0  505  502 -0.00000000000E+00 -0.00000000000E+00 -0.23148318267E+03  0.23148318267E+03  0.00000000000E+00 0.  1.
         21    1    1    2  503  501  0.12400599776E+02 -0.36741459439E+02  0.14509811084E+03  0.15019045071E+03  0.00000000000E+00 0.  1.
         21    1    1    2  504  502  0.61306268925E+02  0.17963399026E+02 -0.51491136790E+02  0.82051687868E+02  0.00000000000E+00 0.  1.
         21    1    1    2  505  503 -0.24843704005E+02  0.72693208544E+02 -0.11311961516E+03  0.13673901978E+03  0.00000000000E+00 0.  1.
         21    1    1    2  506  504 -0.48863164695E+02 -0.53915148131E+02 -0.16899579179E+01  0.72782607949E+02  0.00000000000E+00 0.  1.
<scales pt_clust_3="38.77770" pt_clust_4="64.95796" pt_clust_5="14000.00000" pt_clust_6="74.24834"></scales>
<clustering>
<clus scale="   38.778">  1  3  2 -1</clus>
<clus scale="   64.958">  2  4  1 -1</clus>
<clus scale="   74.248">  1  6  2 -1</clus>
<clus scale="   38.778">  1  3  2 -1</clus>
</clustering>
</event>
<event>
 6    0  0.4227619E+002  0.9437565E+02  0.7546771E-02  0.1292589E+00
         21   -1    0    0  506  501  0.00000000000E+00  0.00000000000E+00  0.22365817857E+04  0.22365817857E+04  0.00000000000E+00 0.  1.
         21   -1    0    0  503  502 -0.00000000000E+00 -0.00000000000E+00 -0.42351443127E+03  0.42351443127E+03  0.00000000000E+00 0. -1.
         21    1    1    2  503  504  0.68922854520E+02 -0.65323437386E+02 -0.39147384815E+03  0.40282661920E+03  0.00000000000E+00 0. -1.
         21    1    1    2  504  501 -0.41327202468E+02  0.45014334744E+02  0.32137612365E+03  0.32713428565E+03  0.00000000000E+00 0. -1.
         21    1    1    2  505  502 -0.50157207856E+02 -0.17910380371E+02  0.73135896530E+01  0.53758867349E+02  0.00000000000E+00 0. -1.
         21    1    1    2  506  505  0.22561555805E+02  0.38219483013E+02  0.18758514892E+04  0.18763764447E+04  0.00000000000E+00 0.  1.
<scales pt_clust_3="14000.00000" pt_clust_4="94.37565" pt_clust_5="50.42777" pt_clust_6="44.38190"></scales>
<clustering>
<clus scale="   44.382">  1  6  2 -1</clus>
<clus scale="   50.428">  1  5  2 -1</clus>
<clus scale="   94.376">  1  4  2 -1</clus>
<clus scale="   44.382">  1  3  2 -1</clus>
</clustering>
</event>
<event>
 6    0  0.4227619E+002  0.8163278E+02  0.7546771E-02  0.1324481E+00
         21   -1    0    0  506  501  0.00000000000E+00  0.00000000000E+00  0.35855530097E+03  0.35855530097E+03  0.00000000000E+00 0. -1.
         21   -1    0    0  503  502 -0.00000000000E+00 -0.00000000000E+00 -0.11602826625E+03  0.11602826625E+03  0.00000000000E+00 0. -1.
         21    1    1    2  503  505 -0.31904984980E+02 -0.22059384605E+02 -0.12118448558E+02  0.40637437310E+02  0.00000000000E+00 0. -1.
         21    1    1    2  504  502  0.54298784709E+02  0.90375344390E+02 -0.32381566651E+02  0.11029336677E+03  0.00000000000E+00 0. -1.
         21    1    1    2  505  501 -0.65366445302E+02 -0.80573476221E+02  0.21788596195E+03  0.24132788827E+03  0.00000000000E+00 0. -1.
         21    1    1    2  506  504  0.42972645572E+02  0.12257516435E+02  0.69141087972E+02  0.82324874872E+02  0.00000000000E+00 0. -1.
<scales pt_clust_3="38.78846" pt_clust_4="14000.00000" pt_clust_5="81.63278" pt_clust_6="41.99575"></scales>
<clustering>
<clus scale="   38.788">  2  3  1 -1</clus>
<clus scale="   41.996">  1  6  2 -1</clus>
<clus scale="   81.633">  1  5  2 -1</clus>
<clus scale="   41.996">  1  3  2 -1</clus>
</clustering>
</event>
<event>
 6    0  0.4227619E+002  0.7085893E+02  0.7546771E-02  0.1357196E+00
         21   -1    0    0  502  501  0.00000000000E+00  0.00000000000E+00  0.11186493665E+04  0.11186493665E+04  0.00000000000E+00 0.  1.
         21   -1    0    0  506  502 -0.00000000000E+00 -0.00000000000E+00 -0.28507472720E+03  0.28507472720E+03  0.00000000000E+00 0. -1.
         21    1    1    2  503  504  0.39624876453E+02 -0.28136851934E+02 -0.53424150507E+02  0.72221555840E+02  0.00000000000E+00 0.  1.
         21    1    1    2  504  505 -0.98594050370E+02  0.54752005356E+02  0.56873111682E+03  0.57980483967E+03  0.00000000000E+00 0.  1.
         21    1    1    2  505  501  0.25534658684E+02 -0.57746569981E+02  0.53068264383E+03  0.53442562963E+03  0.00000000000E+00 0.  1.
         21    1    1    2  506  503  0.33434515232E+02  0.31131416558E+02 -0.21241497089E+03  0.21727206853E+03  0.00000000000E+00 0. -1.
<scales pt_clust_3="70.85893" pt_clust_4="14000.00000" pt_clust_5="62.75235" pt_clust_6="45.68404"></scales>
<clustering>
<clus scale="   45.684">  2  6  1 -1</clus>
<clus scale="   62.752">  1  5  2 -1</clus>
<clus scale="   70.859">  2  3  1 -1</clus>
<clus scale="   62.752">  1  3  2 -1</clus>
</clustering>
</event>
<event>
 6    0  0.4227619E+002  0.8078703E+02  0.7546771E-02  0.1326833E+00
         21   -1    0    0  503  501  0.00000000000E+00  0.00000000000E+00  0.67338651558E+03  0.67338651558E+03  0.00000000000E+00 0. -1.
         21   -1    0    0  504  502 -0.00000000000E+00 -0.00000000000E+00 -0.26471852074E+03  0.26471852074E+03  0.00000000000E+00 0. -1.
         21    1    1    2  503  505  0.41184039234E+02 -0.50933428723E+02  0.56143083659E+03  0.56523881990E+03  0.00000000000E+00 0. -1.
         21    1    1    2  504  506 -0.10259531822E+03 -0.31203767978E+02 -0.14744447212E+03  0.18231661146E+03  0.00000000000E+00 0. -1.
         21    1    1    2  505  502  0.29072945707E+02  0.67818058044E+02 -0.79440711283E+02  0.10842210004E+03  0.00000000000E+00 0. -1.
         21    1    1    2  506  501  0.32338333274E+02  0.14319138657E+02  0.74122341660E+02  0.82127504917E+02  0.00000000000E+00 0.  1.
<scales pt_clust_3="14000.00000" pt_clust_4="80.78703" pt_clust_5="74.41989" pt_clust_6="35.36673"></scales>
<clustering>
<clus scale="   35.367">  1  6  2 -1</clus>
<clus scale="   74.420">  2  5  1 -1</clus>
<clus scale="   80.787">  2  4  1 -1</clus>
<clus scale="   35.367">  1  3  2 -1</clus>
</clustering>
</event>
<event>
 6    0  0.4227619E+002  0.7610279E+02  0.7546771E-02  0.1340490E+00
         21   -1    0    0  505  501  0.00000000000E+00  0.00000000000E+00  0.10161850381E+04  0.10161850381E+04  0.00000000000E+00 0. -1.
         21   -1    0    0  504  502 -0.00000000000E+00 -0.00000000000E+00 -0.24539362915E+02  0.24539362915E+02  0.00000000000E+00 0. -1.
         21    1    1    2  503  502  0.26023541827E+02  0.74552695092E+02  0.14426841783E+03  0.16446490646E+03  0.00000000000E+00 0. -1.
         21    1    1    2  504  506  0.41500257182E+02 -0.54328492934E+02  0.15543885751E+03  0.16980899539E+03  0.00000000000E+00 0. -1.
         21    1    1    2  505  503  0.28058563101E+02 -0.25196908282E+02  0.32709111045E+03  0.32925789540E+03  0.00000000000E+00 0. -1.
         21    1    1    2  506  501 -0.95582362110E+02  0.49727061245E+01  0.36484728939E+03  0.37719260376E+03  0.00000000000E+00 0. -1.
<scales pt_clust_3="76.10279" pt_clust_4="70.85486" pt_clust_5="37.71163" pt_clust_6="14000.00000"></scales>
<clustering>
<clus scale="   37.712">  1  5  2 -1</clus>
<clus scale="   76.103">  2  3  1 -1</clus>
<clus scale="   70.855">  2  4  1 -1</clus>
<clus scale="   37.712">  1  3  2 -1</clus>
</clustering>
</event>
<event>
 6    0  0.4227619E+002  0.1488864E+03  0.7546771E-02  0.1201848E+00
         21   -1    0    0  506  501  0.00000000000E+00  0.00000000000E+00  0.33801670029E+04  0.33801670029E+04  0.00000000000E+00 0. -1.
         21   -1    0    0  505  502 -0.00000000000E+00 -0.00000000000E+00 -0.70944333827E+02  0.70944333827E+02  0.00000000000E+00 0.  1.
         21    1    1    2  503  501 -0.86752357541E+02 -0.86185169154E+02  0.60406082919E+03  0.61631431939E+03  0.00000000000E+00 0.  1.
         21    1    1    2  504  502  0.15061427615E+03  0.11583148227E+03  0.20141035090E+04  0.20230458565E+04  0.00000000000E+00 0. -1.
         21    1    1    2  505  503 -0.20608901139E+01 -0.36797404512E+02 -0.53297983762E+02  0.64799470059E+02  0.00000000000E+00 0.  1.
         21    1    1    2  506  504 -0.61801028498E+02  0.71510913994E+01  0.74435631467E+03  0.74695169082E+03  0.00000000000E+00 0. -1.
<scales pt_clust_3="14000.00000" pt_clust_4="148.88639" pt_clust_5="36.85507" pt_clust_6="62.10512"></scales>
<clustering>
<clus scale="   36.855">  2  5  1 -1</clus>
<clus scale="   62.105">  1  6  2 -1</clus>
<clus scale="  148.886">  1  4  2 -1</clus>
<clus scale="   62.105">  1  3  2 -1</clus>
</clustering>
</event>
<event>
 6    0  0.4227619E+002  0.6459219E+02  0.7546771E-02  0.1379512E+00
         21   -1    0    0  503  501  0.00000000000E+00  0.00000000000E+00  0.62480040965E+03  0.62480040965E+03  0.00000000000E+00 0. -1.
         21   -1    0    0  505  502 -0.00000000000E+00 -0.00000000000E+00 -0.81813579882E+02  0.81813579882E+02  0.00000000000E+00 0. -1.
         21    1    1    2  503  504 -0.93309722315E+02  0.52569804841E+02  0.51547938479E+02  0.11885907042E+03  0.00000000000E+00 0. -1.
         21    1    1    2  504  502  0.44241168670E+02 -0.17906347932E+02 -0.12073174830E+02  0.49230883112E+02  0.00000000000E+00 0. -1.
         21    1    1    2  505  506  0.28641257555E+02  0.25504139466E+02  0.82827077666E+01  0.39235010032E+02  0.00000000000E+00 0.  1.
         21    1    1    2  506  501  0.20427296090E+02 -0.60167596375E+02  0.49522935836E+03  0.49928902597E+03  0.00000000000E+00 0. -1.
<scales pt_clust_3="64.59219" pt_clust_4="57.80032" pt_clust_5="38.35079" pt_clust_6="14000.00000"></scales>
<clustering>
<clus scale="   38.351">  2  5  1 -1</clus>
<clus scale="   57.800">  2  4  1 -1</clus>
<clus scale="   64.592">  2  3  1 -1</clus>
<clus scale="   64.592">  1  3  2 -1</clus>
</clustering>
</event>
<event>
 6    0  0.4227619E+002  0.1627184E+03  0.7546771E-02  0.1185661E+00
         21   -1    0    0  504  501  0.00000000000E+00  0.00000000000E+00  0.17062635372E+03  0.17062635372E+03  0.00000000000E+00 0. -1.
         21   -1    0    0  505  502 -0.00000000000E+00 -0.00000000000E+00 -0.14296718372E+04  0.14296718372E+04  0.00000000000E+00 0. -1.
         21    1    1    2  503  501 -0.88061460719E+01 -0.19860709948E+03  0.28846005215E+02  0.20088409641E+03  0.00000000000E+00 0. -1.
         21    1    1    2  504  506  0.25585937081E+01  0.12973415434E+03 -0.25086554202E+02  0.13216214438E+03  0.00000000000E+00 0.  1.
         21    1    1    2  505  503 -0.16850182913E+02  0.42330432422E+02 -0.26950230326E+03  0.27332633542E+03  0.00000000000E+00 0.  1.
         21    1    1    2  506  502  0.23097735277E+02  0.26542512718E+02 -0.99330263128E+03  0.99392561476E+03  0.00000000000E+00 0. -1.
<scales pt_clust_3="162.71837" pt_clust_4="14000.00000" pt_clust_5="58.90318" pt_clust_6="35.18537"></scales>
<clustering>
<clus scale="   35.185">  2  6  1 -1</clus>
<clus scale="   58.903">  2  5  1 -1</clus>
<clus scale="  162.718">  2  3  1 -1</clus>
<clus scale="  162.718">  1  3  2 -1</clus>
</clustering>
</event>
<event>
 6    0  0.4227619E+002  0.1012052E+03  0.7546771E-02  0.1277782E+00
         21   -1    0    0  506  501  0.00000000000E+00  0.00000000000E+00  0.13980381533E+03  0.13980381533E+03  0.00000000000E+00 0. -1.
         21   -1    0    0  504  502 -0.00000000000E+00 -0.00000000000E+00 -0.13812603249E+04  0.13812603249E+04  0.00000000000E+00 0. -1.
         21    1    1    2  503  502 -0.34462239850E+02  0.52127165851E+02 -0.23713984378E+03  0.24523497488E+03  0.00000000000E+00 0. -1.
         21    1    1    2  504  501  0.49782446572E+02  0.13120626700E+03 -0.29331727071E+01  0.14036374171E+03  0.00000000000E+00 0. -1.
         21    1    1    2  505  503 -0.17671347650E+02 -0.13217843059E+03 -0.10537894013E+04  0.10621937283E+04  0.00000000000E+00 0. -1.
         21    1    1    2  506  505  0.23511409281E+01 -0.51155002256E+02  0.52405908258E+02  0.73271695353E+02  0.00000000000E+00 0. -1.
<scales pt_clust_3="60.19261" pt_clust_4="101.20520" pt_clust_5="14000.00000" pt_clust_6="51.20900"></scales>
<clustering>
<clus scale="   51.209">  1  6  2 -1</clus>
<clus scale="   60.193">  2  3  1 -1</clus>
<clus scale="  101.205">  1  4  2 -1</clus>
<clus scale="   51.209">  1  3  2 -1</clus>
</clustering>
</event>
<event>
 6    0  0.4227619E+002  0.5319325E+02  0.7546771E-02  0.1428842E+00
         21   -1    0    0  504  501  0.00000000000E+00  0.00000000000E+00  0.33581401397E+03  0.33581401397E+03  0.00000000000E+00 0. -1.
         21   -1    0    0  505  502 -0.00000000000E+00 -0.00000000000E+00 -0.23622499803E+03  0.23622499803E+03  0.00000000000E+00 0. -1.
         21    1    1    2  503  506  0.10824618333E+03  0.40982316754E+02 -0.14773492515E+03  0.18767630271E+03  0.00000000000E+00 0. -1.
         21    1    1    2  504  502 -0.45224105515E+02  0.17761661333E+02 -0.13505458779E+02  0.50429096261E+02  0.00000000000E+00 0. -1.
         21    1    1    2  505  503 -0.15460728751E+02 -0.36981577886E+02 -0.22398364409E+02  0.45916859264E+02  0.00000000000E+00 0. -1.
         21    1    1    2  506  501 -0.47561349060E+02 -0.21762400201E+02  0.28322776428E+03  0.28801675376E+03  0.00000000000E+00 0. -1.
<scales pt_clust_3="53.19325" pt_clust_4="49.13558" pt_clust_5="40.08330" pt_clust_6="14000.00000"></scales>
<clustering>
<clus scale="   40.083">  2  5  1 -1</clus>
<clus scale="   49.136">  2  4  1 -1</clus>
<clus scale="   53.193">  2  3  1 -1</clus>
<clus scale="   53.193">  1  3  2 -1</clus>
</clustering>
</event>
<event>
 6    0  0.4227619E+002  0.1158071E+03  0.7546771E-02  0.1250179E+00
         21   -1    0    0  505  501  0.00000000000E+00  0.00000000000E+00  0.27081072042E+03  0.27081072042E+03  0.00000000000E+00 0. -1.
         21   -1    0    0  504  502 -0.00000000000E+00 -0.00000000000E+00 -0.40845891063E+03  0.40845891063E+03  0.00000000000E+00 0.  1.
         21    1    1    2  503  501  0.29233442528E+02  0.12921310511E+03  0.13843793101E+03  0.19161336445E+03  0.00000000000E+00 0. -1.
         21    1    1    2  504  503  0.30361654490E+02 -0.13533170681E+02 -0.29115499255E+03  0.29304642373E+03  0.00000000000E+00 0.  1.
         21    1    1    2  505  506 -0.59013246053E+02 -0.85000311198E+02  0.74648123943E+02  0.12759294072E+03  0.00000000000E+00 0.  1.
         21    1    1    2  506  502 -0.58185096586E+00 -0.30679623233E+02 -0.59579252609E+02  0.67016902149E+02  0.00000000000E+00 0. -1.
<scales pt_clust_3="115.80710" pt_clust_4="49.51918" pt_clust_5="14000.00000" pt_clust_6="30.68514"></scales>
<clustering>
<clus scale="   30.685">  2  6  1 -1</clus>
<clus scale="   49.519">  2  4  1 -1</clus>
<clus scale="  115.807">  2  3  1 -1</clus>
<clus scale="  115.807">  1  3  2 -1</clus>
</clustering>
</event>
<event>
 6    0  0.4227619E+002  0.1266972E+03  0.7546771E-02  0.1232440E+00
         21   -1    0    0  505  501  0.00000000000E+00  0.00000000000E+00  0.47155268544E+03  0.47155268544E+03  0.00000000000E+00 0.  1.
         21   -1    0    0  504  502 -0.00000000000E+00 -0.00000000000E+00 -0.10379588839E+03  0.10379588839E+03  0.00000000000E+00 0.  1.
         21    1    1    2  503  501  0.53578654413E+02  0.12812988120E+03  0.18684727040E+02  0.14013228639E+03  0.00000000000E+00 0.  1.
         21    1    1    2  504  503  0.28927210473E+02 -0.16501047094E+02 -0.16125411354E+02  0.37001310143E+02  0.00000000000E+00 0.  1.
         21    1    1    2  505  506 -0.32841563205E+02 -0.21485865350E+02  0.19821910405E+03  0.20206687976E+03  0.00000000000E+00 0.  1.
         21    1    1    2  506  502 -0.49664301681E+02 -0.90142968755E+02  0.16697837732E+03  0.19614809754E+03  0.00000000000E+00 0.  1.
<scales pt_clust_3="14000.00000" pt_clust_4="33.30267" pt_clust_5="38.87457" pt_clust_6="126.69721"></scales>
<clustering>
<clus scale="   33.303">  2  4  1 -1</clus>
<clus scale="   38.875">  1  5  2 -1</clus>
<clus scale="  126.697">  1  6  2 -1</clus>
<clus scale="   38.875">  1  3  2 -1</clus>
</clustering>
</event>
<event>
 6    0  0.4227619E+002  0.8067549E+02  0.7546771E-02  0.1327145E+00
         21   -1    0    0  504  501  0.00000000000E+00  0.00000000000E+00  0.65029984235E+03  0.65029984235E+03  0.00000000000E+00 0.  1.
         21   -1    0    0  503  502 -0.00000000000E+00 -0.00000000000E+00 -0.40525182682E+03  0.40525182682E+03  0.00000000000E+00 0. -1.
         21    1    1    2  503  505  0.12041138040E+02  0.39984547356E+02 -0.49424508403E+02  0.64703439348E+02  0.00000000000E+00 0. -1.
         21    1    1    2  504  506  0.71323524470E+02  0.51827163198E+02  0.39104842853E+03  0.40086403362E+03  0.00000000000E+00 0.  1.
         21    1    1    2  505  501 -0.79729364668E+02 -0.51884373395E+00  0.23389753135E+03  0.24711352848E+03  0.00000000000E+00 0.  1.
         21    1    1    2  506  502 -0.36352978415E+01 -0.91292866821E+02 -0.33047343594E+03  0.34287066772E+03  0.00000000000E+00 0. -1.
<scales pt_clust_3="41.75827" pt_clust_4="14000.00000" pt_clust_5="80.67549" pt_clust_6="53.23643"></scales>
<clustering>
<clus scale="   41.758">  2  3  1 -1</clus>
<clus scale="   53.236">  2  6  1 -1</clus>
<clus scale="   80.675">  2  5  1 -1</clus>
<clus scale="   80.675">  1  3  2 -1</clus>
</clustering>
</event>
<event>
 6    0  0.4227619E+002  0.2510856E+03  0.7546771E-02  0.1112621E+00
         21   -1    0    0  505  501  0.00000000000E+00  0.00000000000E+00  0.79778252372E+02  0.79778252372E+02  0.00000000000E+00 0.  1.
         21   -1    0    0  503  502 -0.00000000000E+00 -0.00000000000E+00 -0.78903403419E+03  0.78903403419E+03  0.00000000000E+00 0.  1.
         21    1    1    2  503  504  0.73647867976E+02 -0.47318033737E+02 -0.14120998390E+03  0.16614230144E+03  0.00000000000E+00 0.  1.
         21    1    1    2  504  501  0.15135047502E+03 -0.36140678185E+02 -0.15731024059E+03  0.22126822343E+03  0.00000000000E+00 0.  1.
         21    1    1    2  505  506 -0.18167701273E+03  0.63348536498E+02 -0.37592000130E+03  0.42229778759E+03  0.00000000000E+00 0.  1.
         21    1    1    2  506  502 -0.43321330267E+02  0.20110175425E+02 -0.34815556032E+02  0.59103974093E+02  0.00000000000E+00 0.  1.
<scales pt_clust_3="43.62514" pt_clust_4="246.92629" pt_clust_5="36.79614" pt_clust_6="36.79614"></scales>
<clustering>
<clus scale="   36.796">  5  6 -1 -1</clus>
<clus scale="   43.625">  3  4 -1 -1</clus>
<clus scale="  246.926">  1  3  2 -1</clus>
<clus scale="  246.926">  1  3  2 -1</clus>
</clustering>
</event>
<event>
 6    0  0.4227619E+002  0.1539480E+03  0.7546771E-02  0.1195704E+00
         21   -1    0    0  505  501  0.00000000000E+00  0.00000000000E+00  0.75260395728E+02  0.75260395728E+02  0.00000000000E+00 0.  1.
         21   -1    0    0  504  502 -0.00000000000E+00 -0.00000000000E+00 -0.21496391498E+04  0.21496391498E+04  0.00000000000E+00 0.  1.
         21    1    1    2  503  502  0.71760348027E+02  0.27181326753E+02 -0.13280016001E+04  0.13302167575E+04  0.00000000000E+00 0.  1.
         21    1    1    2  504  506 -0.14810086129E+03  0.79393003364E+02 -0.17907926384E+03  0.24557381138E+03  0.00000000000E+00 0.  1.
         21    1    1    2  505  503  0.10239379303E+03 -0.51333227761E+02 -0.57612239298E+03  0.58739816208E+03  0.00000000000E+00 0.  1.
         21    1    1    2  506  501 -0.26053279767E+02 -0.55241102356E+02  0.88245029007E+01  0.61710814510E+02  0.00000000000E+00 0.  1.
<scales pt_clust_3="75.52821" pt_clust_4="153.94804" pt_clust_5="14000.00000" pt_clust_6="61.07661"></scales>
<clustering>
<clus scale="   61.077">  1  6  2 -1</clus>
<clus scale="   75.528">  2  3  1 -1</clus>
<clus scale="  153.948">  1  4  2 -1</clus>
<clus scale="   61.077">  1  3  2 -1</clus>
</clustering>
</event>
<event>
 6    0  0.4227619E+002  0.1892691E+03  0.7546771E-02  0.1159122E+00
         21   -1    0    0  503  501  0.00000000000E+00  0.00000000000E+00  0.11977978073E+04  0.11977978073E+04  0.00000000000E+00 0.  1.
         21   -1    0    0  506  502 -0.00000000000E+00 -0.00000000000E+00 -0.48794725714E+02  0.48794725714E+02  0.00000000000E+00 0.  1.
         21    1    1    2  503  502 -0.88346446772E+02  0.36756843632E+02  0.24289605332E+03  0.26106446125E+03  0.00000000000E+00 0.  1.
         21    1    1    2  504  505  0.29638455519E+02 -0.39735447475E+02  0.15980375202E+03  0.16731581811E+03  0.00000000000E+00 0.  1.
         21    1    1    2  505  501 -0.51600226464E+02 -0.13517439039E+03  0.45509431334E+03  0.47754113249E+03  0.00000000000E+00 0.  1.
         21    1    1    2  506  504  0.11030821772E+03  0.13815299423E+03  0.29120896291E+03  0.34067112115E+03  0.00000000000E+00 0.  1.
<scales pt_clust_3="95.68783" pt_clust_4="47.78622" pt_clust_5="47.78622" pt_clust_6="170.75630"></scales>
<clustering>
<clus scale="   47.786">  4  5 -1 -1</clus>
<clus scale="   95.688">  1  3  2 -1</clus>
<clus scale="  170.756">  2  6  1 -1</clus>
<clus scale="   95.688">  1  3  2 -1</clus>
</clustering>
</event>
<event>
 6    0  0.4227619E+002  0.4535090E+03  0.7546771E-02  0.1026681E+00
         21   -1    0    0  506  501  0.00000000000E+00  0.00000000000E+00  0.72227711202E+03  0.72227711202E+03  0.00000000000E+00 0. -1.
         21   -1    0    0  503  502 -0.00000000000E+00 -0.00000000000E+00 -0.15426840294E+04  0.15426840294E+04  0.00000000000E+00 0. -1.
         21    1    1    2  503  501  0.37725549178E+02 -0.10519295018E+02 -0.79503656714E+02  0.88626768300E+02  0.00000000000E+00 0.  1.
         21    1    1    2  504  502 -0.16593907788E+03  0.32323437116E+03 -0.11275633038E+04  0.11846582800E+04  0.00000000000E+00 0. -1.
         21    1    1    2  505  504 -0.10768444370E+03  0.26550782138E+02 -0.22654520501E+03  0.25223721644E+03  0.00000000000E+00 0.  1.
         21    1    1    2  506  505  0.23589797240E+03 -0.33926585828E+03  0.61320524815E+03  0.73943887667E+03  0.00000000000E+00 0. -1.
<scales pt_clust_3="39.16469" pt_clust_4="101.52530" pt_clust_5="101.52530" pt_clust_6="414.52514"></scales>
<clustering>
<clus scale="   39.165">  2  3  1 -1</clus>
<clus scale="  101.525">  4  5 -1 -1</clus>
<clus scale="  414.525">  1  6  2 -1</clus>
<clus scale="  414.525">  1  3  2 -1</clus>
</clustering>
</event>
<event>
 6    0  0.4227619E+002  0.7764533E+02  0.7546771E-02  0.1335870E+00
         21   -1    0    0  503  501  0.00000000000E+00  0.00000000000E+00  0.68844862580E+03  0.68844862580E+03  0.00000000000E+00 0. -1.
         21   -1    0    0  504  502 -0.00000000000E+00 -0.00000000000E+00 -0.26893014625E+03  0.26893014625E+03  0.00000000000E+00 0. -1.
         21    1    1    2  503  506 -0.34331572770E+02  0.16740677721E+02  0.49261104365E+03  0.49408961485E+03  0.00000000000E+00 0. -1.
         21    1    1    2  504  501  0.49859223704E+02 -0.27867335747E+02  0.89587072308E+02  0.10624676049E+03  0.00000000000E+00 0.  1.
         21    1    1    2  505  502 -0.27417280347E+02 -0.72298848556E+02 -0.23412518063E+03  0.24656323929E+03  0.00000000000E+00 0. -1.
         21    1    1    2  506  505  0.11889629414E+02  0.83425506582E+02  0.71445544217E+02  0.11047915742E+03  0.00000000000E+00 0.  1.
<scales pt_clust_3="38.19564" pt_clust_4="37.99390" pt_clust_5="14000.00000" pt_clust_6="77.64533"></scales>
<clustering>
<clus scale="   38.196">  1  3  2 -1</clus>
<clus scale="   37.994">  1  4  2 -1</clus>
<clus scale="   77.645">  1  6  2 -1</clus>
<clus scale="   38.196">  1  3  2 -1</clus>
</clustering>
</event>
<event>
 6    0  0.4227619E+002  0.2123507E+03  0.7546771E-02  0.1139718E+00
         21   -1    0    0  503  501  0.00000000000E+00  0.00000000000E+00  0.56759302591E+03  0.56759302591E+03  0.00000000000E+00 0.  1.
         21   -1    0    0  504  502 -0.00000000000E+00 -0.00000000000E+00 -0.79012070831E+03  0.79012070831E+03  0.00000000000E+00 0.  1.
         21    1    1    2  503  506 -0.71262221860E+01 -0.29298614837E+02  0.44715677806E+03  0.44817226157E+03  0.00000000000E+00 0.  1.
         21    1    1    2  504  501  0.74929229161E+02 -0.22727727797E+03 -0.46795922271E+03  0.52559983312E+03  0.00000000000E+00 0.  1.
         21    1    1    2  505  502 -0.82819258521E+02  0.32005104353E+02 -0.10882571974E+03  0.14045068019E+03  0.00000000000E+00 0.  1.
         21    1    1    2  506  505  0.15016251546E+02  0.22457078845E+03 -0.92899517999E+02  0.24349095934E+03  0.00000000000E+00 0.  1.
<scales pt_clust_3="30.15281" pt_clust_4="14000.00000" pt_clust_5="88.36018" pt_clust_6="212.35070"></scales>
<clustering>
<clus scale="   30.153">  1  3  2 -1</clus>
<clus scale="   88.360">  2  5  1 -1</clus>
<clus scale="  212.351">  1  6  2 -1</clus>
<clus scale="   30.153">  1  3  2 -1</clus>
</clustering>
</event>
<event>
 6    0  0.4227619E+002  0.7808537E+02  0.7546771E-02  0.1334574E+00
         21   -1    0    0  505  501  0.00000000000E+00  0.00000000000E+00  0.77059136452E+03  0.77059136452E+03  0.00000000000E+00 0.  1.
         21   -1    0    0  503  502 -0.00000000000E+00 -0.00000000000E+00 -0.28865542424E+03  0.28865542424E+03  0.00000000000E+00 0. -1.
         21    1    1    2  503  504  0.67262889306E+01  0.63391862738E+02 -0.62890076858E+02  0.89548495193E+02  0.00000000000E+00 0. -1.
         21    1    1    2  504  501  0.77778015329E+02  0.63644963131E+01  0.62398331314E+03  0.62884425859E+03  0.00000000000E+00 0.  1.
         21    1    1    2  505  506 -0.52850462534E+02 -0.87154196205E+02  0.10901736672E+03  0.14924413406E+03  0.00000000000E+00 0.  1.
         21    1    1    2  506  502 -0.31653841725E+02  0.17397837154E+02 -0.18817466272E+03  0.19160990090E+03  0.00000000000E+00 0. -1.
<scales pt_clust_3="14000.00000" pt_clust_4="77.29808" pt_clust_5="78.08537" pt_clust_6="36.11995"></scales>
<clustering>
<clus scale="   36.120">  2  6  1 -1</clus>
<clus scale="   77.298">  1  4  2 -1</clus>
<clus scale="   78.085">  1  5  2 -1</clus>
<clus scale="   77.298">  1  3  2 -1</clus>
</clustering>
</event>
<event>
 6    0  0.4227619E+002  0.1602539E+03  0.7546771E-02  0.1188410E+00
         21   -1    0    0  506  501  0.00000000000E+00  0.00000000000E+00  0.13929519949E+04  0.13929519949E+04  0.00000000000E+00 0. -1.
         21   -1    0    0  503  502 -0.00000000000E+00 -0.00000000000E+00 -0.62070428871E+03  0.62070428871E+03  0.00000000000E+00 0. -1.
         21    1    1    2  503  505 -0.36487634983E+02  0.10558227611E+03 -0.56520244902E+03  0.57613607153E+03  0.00000000000E+00 0. -1.
         21    1    1    2  504  502  0.40625856656E+02  0.53453814338E+02 -0.96187693313E+00  0.67146821992E+02  0.00000000000E+00 0.  1.
         21    1    1    2  505  501  0.91682790282E+01  0.39453831830E+02  0.71155685864E+03  0.71270879415E+03  0.00000000000E+00 0. -1.
         21    1    1    2  506  504 -0.13306500701E+02 -0.19848992227E+03  0.62685517347E+03  0.65766459591E+03  0.00000000000E+00 0. -1.
<scales pt_clust_3="160.25386" pt_clust_4="68.94110" pt_clust_5="40.50509" pt_clust_6="14000.00000"></scales>
<clustering>
<clus scale="   40.505">  1  5  2 -1</clus>
<clus scale="   68.941">  2  4  1 -1</clus>
<clus scale="  160.254">  2  3  1 -1</clus>
<clus scale="   40.505">  1  3  2 -1</clus>
</clustering>
</event>
<event>
 6    0  0.4227619E+002  0.9178577E+02  0.7546771E-02  0.1298584E+00
         21   -1    0    0  506  501  0.00000000000E+00  0.00000000000E+00  0.33292893712E+03  0.33292893712E+03  0.00000000000E+00 0. -1.
         21   -1    0    0  503  502 -0.00000000000E+00 -0.00000000000E+00 -0.75374939484E+03  0.75374939484E+03  0.00000000000E+00 0. -1.
         21    1    1    2  503  504 -0.50479567150E+02  0.39291855715E+02 -0.11423935936E+02  0.64981096770E+02  0.00000000000E+00 0. -1.
         21    1    1    2  504  501 -0.58668829454E+02 -0.74088820011E+01  0.27489309780E+03  0.28118168202E+03  0.00000000000E+00 0. -1.
         21    1    1    2  505  502  0.78001989897E+02  0.63033779820E+02 -0.60423163755E+03  0.61249770583E+03  0.00000000000E+00 0. -1.
         21    1    1    2  506  505  0.31146406707E+02 -0.94916753535E+02 -0.80057982038E+02  0.12801784735E+03  0.00000000000E+00 0. -1.
<scales pt_clust_3="86.77460" pt_clust_4="59.13479" pt_clust_5="14000.00000" pt_clust_6="91.78577"></scales>
<clustering>
<clus scale="   59.135">  1  4  2 -1</clus>
<clus scale="   86.775">  1  3  2 -1</clus>
<clus scale="   91.786">  1  6  2 -1</clus>
<clus scale="   59.135">  1  3  2 -1</clus>
</clustering>
</event>
<event>
 6    0  0.4227619E+002  0.7228522E+02  0.7546771E-02  0.1352490E+00
         21   -1    0    0  504  501  0.00000000000E+00  0.00000000000E+00  0.22567361063E+03  0.22567361063E+03  0.00000000000E+00 0. -1.
         21   -1    0    0  505  502 -0.00000000000E+00 -0.00000000000E+00 -0.10268792955E+04  0.10268792955E+04  0.00000000000E+00 0.  1.
         21    1    1    2  503  501 -0.37468660026E+02 -0.85893274596E+02  0.64129644071E+02  0.11355248282E+03  0.00000000000E+00 0.  1.
         21    1    1    2  504  506 -0.10746897738E+02  0.36637696655E+02  0.12617653476E+03  0.13182691133E+03  0.00000000000E+00 0. -1.
         21    1    1    2  505  503 -0.21234508024E+02 -0.34271190022E+02 -0.58533339775E+03  0.58672021043E+03  0.00000000000E+00 0.  1.
         21    1    1    2  506  502  0.69450065788E+02  0.83526767962E+02 -0.40617846592E+03  0.42045330154E+03  0.00000000000E+00 0.  1.
<scales pt_clust_3="14000.00000" pt_clust_4="38.18136" pt_clust_5="40.13421" pt_clust_6="72.28522"></scales>
<clustering>
<clus scale="   38.181">  1  4  2 -1</clus>
<clus scale="   40.134">  2  5  1 -1</clus>
<clus scale="   72.285">  2  6  1 -1</clus>
<clus scale="   38.181">  1  3  2 -1</clus>
</clustering>
</event>
<event>
 6    0  0.4227619E+002  0.1260729E+03  0.7546771E-02  0.1233402E+00
         21   -1    0    0  503  501  0.00000000000E+00  0.00000000000E+00  0.26992149860E+03  0.26992149860E+03  0.00000000000E+00 0.  1.
         21   -1    0    0  506  502 -0.00000000000E+00 -0.00000000000E+00 -0.36719024286E+03  0.36719024286E+03  0.00000000000E+00 0.  1.
         21    1    1    2  503  502  0.38037160419E+02  0.11484513059E+03 -0.51615838996E+02  0.13153107780E+03  0.00000000000E+00 0.  1.
         21    1    1    2  504  501 -0.53004430881E+02 -0.11186284579E+02  0.10802504470E+03  0.12084706425E+03  0.00000000000E+00 0.  1.
         21    1    1    2  505  504  0.79403866745E+02 -0.12456016677E+03  0.60853993537E+02  0.15976050116E+03  0.00000000000E+00 0.  1.
         21    1    1    2  506  505 -0.64436596283E+02  0.20901320760E+02 -0.21453194350E+03  0.22497309825E+03  0.00000000000E+00 0.  1.
<scales pt_clust_3="126.07293" pt_clust_4="54.17197" pt_clust_5="14000.00000" pt_clust_6="69.32460"></scales>
<clustering>
<clus scale="   54.172">  1  4  2 -1</clus>
<clus scale="   69.325">  2  6  1 -1</clus>
<clus scale="  126.073">  2  3  1 -1</clus>
<clus scale="   54.172">  1  3  2 -1</clus>
</clustering>
</event>
<event>
 6    0  0.4227619E+002  0.1708803E+03  0.7546771E-02  0.1176933E+00
         21   -1    0    0  506  501  0.00000000000E+00  0.00000000000E+00  0.99265352342E+03  0.99265352342E+03  0.00000000000E+00 0.  1.
         21   -1    0    0  504  502 -0.00000000000E+00 -0.00000000000E+00 -0.17267088368E+03  0.17267088368E+03  0.00000000000E+00 0.  1.
         21    1    1    2  503  505 -0.18165378076E+02 -0.72401445642E+02  0.37636215816E+03  0.38369313831E+03  0.00000000000E+00 0.  1.
         21    1    1    2  504  503  0.10088565002E+03  0.15060825564E+03  0.18570202478E+03  0.25951108465E+03  0.00000000000E+00 0.  1.
         21    1    1    2  505  501  0.15039662640E+02  0.58835851782E+02  0.33250016774E+03  0.33800031132E+03  0.00000000000E+00 0.  1.
         21    1    1    2  506  502 -0.97759934585E+02 -0.13704266178E+03 -0.74581710950E+02  0.18411987282E+03  0.00000000000E+00 0.  1.
<scales pt_clust_3="39.54108" pt_clust_4="14000.00000" pt_clust_5="60.72766" pt_clust_6="170.88033"></scales>
<clustering>
<clus scale="   60.728">  1  5  2 -1</clus>
<clus scale="   39.541">  1  3  2 -1</clus>
<clus scale="  170.880">  2  6  1 -1</clus>
<clus scale="   60.728">  1  3  2 -1</clus>
</clustering>
</event>
<event>
 6    0  0.4227619E+002  0.1498921E+03  0.7546771E-02  0.1200606E+00
         21   -1    0    0  506  501  0.00000000000E+00  0.00000000000E+00  0.58309708913E+03  0.58309708913E+03  0.00000000000E+00 0.  1.
         21   -1    0    0  504  502 -0.00000000000E+00 -0.00000000000E+00 -0.16793050764E+03  0.16793050764E+03  0.00000000000E+00 0. -1.
         21    1    1    2  503  505 -0.58783644772E+01 -0.93259011254E+02 -0.55260048376E+02  0.10856091053E+03  0.00000000000E+00 0. -1.
         21    1    1    2  504  501  0.84600321771E+02 -0.46823396266E+02  0.47659782465E+02  0.10780120475E+03  0.00000000000E+00 0. -1.
         21    1    1    2  505  502 -0.42852968493E+02 -0.15777249176E+02 -0.29895148910E+02  0.54580385017E+02  0.00000000000E+00 0. -1.
         21    1    1    2  506  503 -0.35868988800E+02  0.15585965670E+03  0.45266199631E+03  0.48008509647E+03  0.00000000000E+00 0.  1.
<scales pt_clust_3="149.89208" pt_clust_4="89.93222" pt_clust_5="45.66507" pt_clust_6="14000.00000"></scales>
<clustering>
<clus scale="   45.665">  2  5  1 -1</clus>
<clus scale="   89.932">  2  4  1 -1</clus>
<clus scale="  149.892">  2  3  1 -1</clus>
<clus scale="  149.892">  1  3  2 -1</clus>
</clustering>
</event>
<event>
 6    0  0.4227619E+002  0.1479561E+03  0.7546771E-02  0.1203007E+00
         21   -1    0    0  504  501  0.00000000000E+00  0.00000000000E+00  0.46068572712E+03  0.46068572712E+03  0.00000000000E+00 0. -1.
         21   -1    0    0  503  502 -0.00000000000E+00 -0.00000000000E+00 -0.31701351515E+03  0.31701351515E+03  0.00000000000E+00 0. -1.
         21    1    1    2  503  506  0.30065092585E+02 -0.10195592978E+01 -0.11979339615E+03  0.12351278094E+03  0.00000000000E+00 0. -1.
         21    1    1    2  504  502  0.51059502230E+01 -0.36699037845E+02  0.31489491823E+02  0.48625900523E+02  0.00000000000E+00 0.  1.
         21    1    1    2  505  501 -0.14985387791E+03 -0.85312561105E+01  0.38241829896E+03  0.41081957407E+03  0.00000000000E+00 0. -1.
         21    1    1    2  506  505  0.11468283510E+03  0.46249853253E+02 -0.15044218267E+03  0.19474098674E+03  0.00000000000E+00 0. -1.
<scales pt_clust_3="30.08238" pt_clust_4="37.30119" pt_clust_5="14000.00000" pt_clust_6="147.95606"></scales>
<clustering>
<clus scale="   30.082">  2  3  1 -1</clus>
<clus scale="   37.301">  1  4  2 -1</clus>
<clus scale="  147.956">  2  6  1 -1</clus>
<clus scale="   37.301">  1  3  2 -1</clus>
</clustering>
</event>
<event>
 6    0  0.4227619E+002  0.9405202E+02  0.7546771E-02  0.1293326E+00
         21   -1    0    0  503  501  0.00000000000E+00  0.00000000000E+00  0.87087501530E+03  0.87087501530E+03  0.00000000000E+00 0. -1.
         21   -1    0    0  506  502 -0.00000000000E+00 -0.00000000000E+00 -0.10610096019E+04  0.10610096019E+04  0.00000000000E+00 0.  1.
         21    1    1    2  503  502  0.44945623562E+02 -0.85362597113E+02 -0.18036726735E+03  0.20454640841E+03  0.00000000000E+00 0.  1.
         21    1    1    2  504  501 -0.26679693668E+02  0.47120889351E+02  0.64995142709E+03  0.65220322128E+03  0.00000000000E+00 0. -1.
         21    1    1    2  505  504  0.38095614490E+02  0.50240423568E+02  0.20193868076E+03  0.21155284633E+03  0.00000000000E+00 0. -1.
         21    1    1    2  506  505 -0.56361544383E+02 -0.11998715806E+02 -0.86165742711E+03  0.86358214118E+03  0.00000000000E+00 0.  1.
<scales pt_clust_3="14000.00000" pt_clust_4="54.14965" pt_clust_5="94.05202" pt_clust_6="57.69632"></scales>
<clustering>
<clus scale="   54.150">  1  4  2 -1</clus>
<clus scale="   57.696">  2  6  1 -1</clus>
<clus scale="   94.052">  1  5  2 -1</clus>
<clus scale="   54.150">  1  3  2 -1</clus>
</clustering>
</event>
<event>
 6    0  0.4227619E+002  0.1616010E+03  0.7546771E-02  0.1186901E+00
         21   -1    0    0  506  501  0.00000000000E+00  0.00000000000E+00  0.20477992200E+03  0.20477992200E+03  0.00000000000E+00 0. -1.
         21   -1    0    0  501  502 -0.00000000000E+00 -0.00000000000E+00 -0.29396540572E+03  0.29396540572E+03  0.00000000000E+00 0. -1.
         21    1    1    2  503  505 -0.16898069643E+02  0.50452133166E+02 -0.59622289981E+02  0.79911075336E+02  0.00000000000E+00 0. -1.
         21    1    1    2  504  503 -0.13310135195E+02  0.76452545694E+02 -0.20546456359E+01  0.77629717317E+02  0.00000000000E+00 0. -1.
         21    1    1    2  505  502 -0.39762782878E+02  0.12854875794E+02 -0.14163768675E+03  0.14767383330E+03  0.00000000000E+00 0. -1.
         21    1    1    2  506  504  0.69970987716E+02 -0.13975955465E+03  0.11412913865E+03  0.19353070177E+03  0.00000000000E+00 0. -1.
<scales pt_clust_3="56.53988" pt_clust_4="56.53988" pt_clust_5="41.78907" pt_clust_6="148.71838"></scales>
<clustering>
<clus scale="   41.789">  2  5  1 -1</clus>
<clus scale="   56.540">  3  4 -1 -1</clus>
<clus scale="  148.718">  1  6  2 -1</clus>
<clus scale="  148.718">  1  3  2 -1</clus>
</clustering>
</event>
<event>
 6    0  0.4227619E+002  0.9035974E+02  0.7546771E-02  0.1301983E+00
         21   -1    0    0  506  501  0.00000000000E+00  0.00000000000E+00  0.70359363326E+03  0.70359363326E+03  0.00000000000E+00 0.  1.
         21   -1    0    0  504  502 -0.00000000000E+00 -0.00000000000E+00 -0.19786084784E+03  0.19786084784E+03  0.00000000000E+00 0.  1.
         21    1    1    2  503  502 -0.68267539372E+02 -0.61498812244E+02 -0.16501583358E+03  0.18887240712E+03  0.00000000000E+00 0.  1.
         21    1    1    2  504  501 -0.42388779357E+02 -0.41662620974E+02  0.14996534266E+03  0.16131393802E+03  0.00000000000E+00 0.  1.
         21    1    1    2  505  503  0.25564027715E+02  0.75326862445E+02  0.14952710968E+03  0.16936945489E+03  0.00000000000E+00 0.  1.
         21    1    1    2  506  505  0.85092291013E+02  0.27834570773E+02  0.37125616666E+03  0.38189868107E+03  0.00000000000E+00 0.  1.
<scales pt_clust_3="90.35974" pt_clust_4="59.43553" pt_clust_5="14000.00000" pt_clust_6="55.96659"></scales>
<clustering>
<clus scale="   59.436">  1  4  2 -1</clus>
<clus scale="   55.967">  1  6  2 -1</clus>
<clus scale="   90.360">  2  3  1 -1</clus>
<clus scale="   59.436">  1  3  2 -1</clus>
</clustering>
</event>
<event>
 6    0  0.4227619E+002  0.1486045E+03  0.7546771E-02  0.1202198E+00
         21   -1    0    0  504  501  0.00000000000E+00  0.00000000000E+00  0.45238998182E+03  0.45238998182E+03  0.00000000000E+00 0. -1.
         21   -1    0    0  503  502 -0.00000000000E+00 -0.00000000000E+00 -0.52510660397E+03  0.52510660397E+03  0.00000000000E+00 0.  1.
         21    1    1    2  503  506 -0.41891091152E+02 -0.88292217833E+02 -0.46518319789E+03  0.47533755042E+03  0.00000000000E+00 0.  1.
         21    1    1    2  504  505  0.71030509370E+01  0.68459696657E+02  0.76704196913E+02  0.10305686403E+03  0.00000000000E+00 0. -1.
         21    1    1    2  505  502 -0.38377702275E+02 -0.47582747039E+02 -0.68353430609E+01  0.61511688015E+02  0.00000000000E+00 0. -1.
         21    1    1    2  506  501  0.73165742491E+02  0.67415268214E+02  0.32259772189E+03  0.33759048332E+03  0.00000000000E+00 0. -1.
<scales pt_clust_3="148.60454" pt_clust_4="67.45653" pt_clust_5="61.13073" pt_clust_6="14000.00000"></scales>
<clustering>
<clus scale="   61.131">  2  5  1 -1</clus>
<clus scale="   67.457">  1  4  2 -1</clus>
<clus scale="  148.605">  2  3  1 -1</clus>
<clus scale="   67.457">  1  3  2 -1</clus>
</clustering>
</event>
<event>
 6    0  0.4227619E+002  0.1949270E+03  0.7546771E-02  0.1154091E+00
         21   -1    0    0  503  501  0.00000000000E+00  0.00000000000E+00  0.66359338252E+03  0.66359338252E+03  0.00000000000E+00 0.  1.
         21   -1    0    0  505  502 -0.00000000000E+00 -0.00000000000E+00 -0.18697317257E+04  0.18697317257E+04  0.00000000000E+00 0.  1.
         21    1    1    2  503  502  0.70174387541E+02  0.14357058698E+03 -0.48774508844E+03  0.51325649475E+03  0.00000000000E+00 0.  1.
         21    1    1    2  504  501 -0.14025286120E+03 -0.13729615693E+03  0.61802094663E+03  0.64843734490E+03  0.00000000000E+00 0.  1.
         21    1    1    2  505  506  0.29811823559E+02 -0.19210316295E+02 -0.13280439968E+04  0.13285174588E+04  0.00000000000E+00 0.  1.
         21    1    1    2  506  504  0.40266650100E+02  0.12935886237E+02 -0.83702046028E+01  0.43113809715E+02  0.00000000000E+00 0.  1.
<scales pt_clust_3="194.92696" pt_clust_4="14000.00000" pt_clust_5="35.46521" pt_clust_6="43.38314"></scales>
<clustering>
<clus scale="   35.465">  2  5  1 -1</clus>
<clus scale="   43.383">  2  6  1 -1</clus>
<clus scale="  194.927">  2  3  1 -1</clus>
<clus scale="  194.927">  1  3  2 -1</clus>
</clustering>
</event>
<event>
 6    0  0.4227619E+002  0.8750770E+02  0.7546771E-02  0.1309002E+00
         21   -1    0    0  506  501  0.00000000000E+00  0.00000000000E+00  0.14920923136E+03  0.14920923136E+03  0.00000000000E+00 0.  1.
         21   -1    0    0  503  502 -0.00000000000E+00 -0.00000000000E+00 -0.14827144535E+03  0.14827144535E+03  0.00000000000E+00 0. -1.
         21    1    1    2  503  501 -0.90201459524E+02 -0.58491975202E+02  0.19498898666E+02  0.10926033824E+03  0.00000000000E+00 0. -1.
         21    1    1    2  504  505  0.70027065033E+02  0.37541604899E+02 -0.27876006330E+02  0.84203525249E+02  0.00000000000E+00 0.  1.
         21    1    1    2  505  502  0.11580190411E+02 -0.31888466372E+02 -0.23460033353E+02  0.41247403100E+02  0.00000000000E+00 0. -1.
         21    1    1    2  506  504  0.85942040794E+01  0.52838836676E+02  0.32774927028E+02  0.62769410120E+02  0.00000000000E+00 0.  1.
<scales pt_clust_3="87.50770" pt_clust_4="14000.00000" pt_clust_5="33.92602" pt_clust_6="49.74765"></scales>
<clustering>
<clus scale="   33.926">  2  5  1 -1</clus>
<clus scale="   49.748">  1  6  2 -1</clus>
<clus scale="   87.508">  1  3  2 -1</clus>
<clus scale="   49.748">  1  3  2 -1</clus>
</clustering>
</event>
<event>
 6    0  0.4227619E+002  0.1090203E+03  0.7546771E-02  0.1262395E+00
         21   -1    0    0  504  501  0.00000000000E+00  0.00000000000E+00  0.14315237276E+03  0.14315237276E+03  0.00000000000E+00 0.  1.
         21   -1    0    0  503  502 -0.00000000000E+00 -0.00000000000E+00 -0.54671500716E+03  0.54671500716E+03  0.00000000000E+00 0.  1.
         21    1    1    2  503  501  0.35837064212E+02 -0.11999717837E+03 -0.38436972601E+03  0.40425697800E+03  0.00000000000E+00 0.  1.
         21    1    1    2  504  506  0.29494926062E+02  0.20256774356E+02  0.90689141334E+02  0.97492604471E+02  0.00000000000E+00 0.  1.
         21    1    1    2  505  502 -0.77646996955E+02  0.53517707567E+02 -0.10323396177E+03  0.13982293096E+03  0.00000000000E+00 0.  1.
         21    1    1    2  506  505  0.12315006681E+02  0.46222696448E+02 -0.66480879540E+01  0.48294866497E+02  0.00000000000E+00 0.  1.
<scales pt_clust_3="14000.00000" pt_clust_4="35.78111" pt_clust_5="109.02030" pt_clust_6="60.18292"></scales>
<clustering>
<clus scale="   35.781">  1  4  2 -1</clus>
<clus scale="   60.183">  1  6  2 -1</clus>
<clus scale="  109.020">  1  5  2 -1</clus>
<clus scale="   35.781">  1  3  2 -1</clus>
</clustering>
</event>
<event>
 6    0  0.4227619E+002  0.9579579E+02  0.7546771E-02  0.1289394E+00
         21   -1    0    0  506  501  0.00000000000E+00  0.00000000000E+00  0.27575075736E+03  0.27575075736E+03  0.00000000000E+00 0.  1.
         21   -1    0    0  505  502 -0.00000000000E+00 -0.00000000000E+00 -0.89070413415E+02  0.89070413415E+02  0.00000000000E+00 0.  1.
         21    1    1    2  503  502 -0.24986271067E+02 -0.37251572362E+02 -0.12630462010E+02  0.46599591799E+02  0.00000000000E+00 0.  1.
         21    1    1    2  504  501 -0.30847936600E+02 -0.17549285106E+02  0.52072252578E+02  0.63016601692E+02  0.00000000000E+00 0.  1.
         21    1    1    2  505  504  0.11956354328E+03 -0.27534987688E+01  0.64140735306E+02  0.13570945642E+03  0.00000000000E+00 0.  1.
         21    1    1    2  506  503 -0.63729335609E+02  0.57554356236E+02  0.83097818075E+02  0.11949552087E+03  0.00000000000E+00 0.  1.
<scales pt_clust_3="47.34327" pt_clust_4="35.49046" pt_clust_5="95.79579" pt_clust_6="14000.00000"></scales>
<clustering>
<clus scale="   35.490">  1  4  2 -1</clus>
<clus scale="   47.343">  2  3  1 -1</clus>
<clus scale="   95.796">  2  5  1 -1</clus>
<clus scale="   35.490">  1  3  2 -1</clus>
</clustering>
</event>
<event>
 6    0  0.4227619E+002  0.1446610E+03  0.7546771E-02  0.1207191E+00
         21   -1    0    0  506  501  0.00000000000E+00  0.00000000000E+00  0.23999384825E+03  0.23999384825E+03  0.00000000000E+00 0.  1.
         21   -1    0    0  505  502 -0.00000000000E+00 -0.00000000000E+00 -0.23946757987E+04  0.23946757987E+04  0.00000000000E+00 0.  1.
         21    1    1    2  503  502  0.26269144547E+02 -0.11717899281E+03 -0.15549360395E+04  0.15595663087E+04  0.00000000000E+00 0.  1.
         21    1    1    2  504  501 -0.57914382301E+02  0.12507556776E+03  0.20331124750E+03  0.24562865608E+03  0.00000000000E+00 0.  1.
         21    1    1    2  505  504  0.66933880489E+02  0.45831300785E+01 -0.78509705537E+03  0.78795846070E+03  0.00000000000E+00 0.  1.
         21    1    1    2  506  503 -0.35288642735E+02 -0.12479705026E+02 -0.17960103123E+02  0.41516221502E+02  0.00000000000E+00 0.  1.
<scales pt_clust_3="144.66100" pt_clust_4="14000.00000" pt_clust_5="66.86458" pt_clust_6="37.43035"></scales>
<clustering>
<clus scale="   37.430">  1  6  2 -1</clus>
<clus scale="   66.865">  2  5  1 -1</clus>
<clus scale="  144.661">  2  3  1 -1</clus>
<clus scale="   37.430">  1  3  2 -1</clus>
</clustering>
</event>
<event>
 6    0  0.4227619E+002  0.1489033E+03  0.7546771E-02  0.1201827E+00
         21   -1    0    0  506  501  0.00000000000E+00  0.00000000000E+00  0.13026025687E+04  0.13026025687E+04  0.00000000000E+00 0. -1.
         21   -1    0    0  505  502 -0.00000000000E+00 -0.00000000000E+00 -0.42256953924E+03  0.42256953924E+03  0.00000000000E+00 0.  1.
         21    1    1    2  503  504 -0.38107509555E+02  0.54629920088E+02 -0.12679375956E+03  0.14322453671E+03  0.00000000000E+00 0.  1.
         21    1    1    2  504  501  0.35731127408E+02  0.86814078349E+01  0.12479407184E+04  0.12484823254E+04  0.00000000000E+00 0. -1.
         21    1    1    2  505  503 -0.90922725592E+02  0.30700965691E+00 -0.18766292334E+03  0.20852915643E+03  0.00000000000E+00 0.  1.
         21    1    1    2  506  502  0.93299107739E+02 -0.63618337580E+02 -0.53451006032E+02  0.12493608937E+03  0.00000000000E+00 0. -1.
<scales pt_clust_3="63.18547" pt_clust_4="36.77064" pt_clust_5="63.18547" pt_clust_6="130.35110"></scales>
<clustering>
<clus scale="   36.771">  1  4  2 -1</clus>
<clus scale="   63.185">  3  5 -1 -1</clus>
<clus scale="  130.351">  1  6  2 -1</clus>
<clus scale="   36.771">  1  3  2 -1</clus>
</clustering>
</event>
<event>
 6    0  0.4227619E+002  0.1140839E+03  0.7546771E-02  0.1253189E+00
         21   -1    0    0  506  501  0.00000000000E+00  0.00000000000E+00  0.72681216495E+02  0.72681216495E+02  0.00000000000E+00 0. -1.
         21   -1    0    0  504  502 -0.00000000000E+00 -0.00000000000E+00 -0.11243181583E+04  0.11243181583E+04  0.00000000000E+00 0.  1.
         21    1    1    2  503  501  0.67883576818E+02 -0.42936032135E+02 -0.10333801929E+03  0.13088326511E+03  0.00000000000E+00 0. -1.
         21    1    1    2  504  505  0.54979293894E+01  0.51027635570E+02 -0.24894283909E+03  0.25417825232E+03  0.00000000000E+00 0.  1.
         21    1    1    2  505  503  0.98946522783E+02 -0.59774269516E+01 -0.60963400349E+03  0.61764047974E+03  0.00000000000E+00 0.  1.
         21    1    1    2  506  502 -0.17232802899E+03 -0.21141764835E+01 -0.89722079928E+02  0.19429737761E+03  0.00000000000E+00 0. -1.
<scales pt_clust_3="77.53254" pt_clust_4="51.32297" pt_clust_5="14000.00000" pt_clust_6="114.08390"></scales>
<clustering>
<clus scale="   51.323">  2  4  1 -1</clus>
<clus scale="   77.533">  1  3  2 -1</clus>
<clus scale="  114.084">  1  6  2 -1</clus>
<clus scale="   77.533">  1  3  2 -1</clus>
</clustering>
</event>
<event>
 6    0  0.4227619E+002  0.1838978E+03  0.7546771E-02  0.1164083E+00
         21   -1    0    0  502  501  0.00000000000E+00  0.00000000000E+00  0.26706493455E+03  0.26706493455E+03  0.00000000000E+00 0.  1.
         21   -1    0    0  506  502 -0.00000000000E+00 -0.00000000000E+00 -0.11776689101E+04  0.11776689101E+04  0.00000000000E+00 0.  1.
         21    1    1    2  503  505 -0.12552639153E+03 -0.21441580471E+03 -0.16835077895E+01  0.24846296802E+03  0.00000000000E+00 0.  1.
         21    1    1    2  504  503  0.76200895852E+02  0.11462310747E+03 -0.46369075646E+03  0.48368807193E+03  0.00000000000E+00 0.  1.
         21    1    1    2  505  501  0.32364948553E+02  0.53570527804E+02  0.12523151202E+03  0.14000079624E+03  0.00000000000E+00 0.  1.
         21    1    1    2  506  504  0.16960547130E+02  0.46222169439E+02 -0.57046122328E+03  0.57258200843E+03  0.00000000000E+00 0.  1.
<scales pt_clust_3="183.89775" pt_clust_4="14000.00000" pt_clust_5="63.17721" pt_clust_6="49.23565"></scales>
<clustering>
<clus scale="   49.236">  2  6  1 -1</clus>
<clus scale="   63.177">  1  5  2 -1</clus>
<clus scale="  183.898">  1  3  2 -1</clus>
<clus scale="   63.177">  1  3  2 -1</clus>
</clustering>
</event>
<event>
 6    0  0.4227619E+002  0.1085856E+03  0.7546771E-02  0.1263212E+00
         21   -1    0    0  506  501  0.00000000000E+00  0.00000000000E+00  0.12155667834E+03  0.12155667834E+03  0.00000000000E+00 0.  1.
         21   -1    0    0  504  502 -0.00000000000E+00 -0.00000000000E+00 -0.75958274370E+03  0.75958274370E+03  0.00000000000E+00 0.  1.
         21    1    1    2  503  505 -0.79921928626E+02 -0.53658716129E+02 -0.45019565053E+03  0.46037256244E+03  0.00000000000E+00 0.  1.
         21    1    1    2  504  503  0.45367472201E+02 -0.13782087050E+02 -0.21205905219E+03  0.21729517959E+03  0.00000000000E+00 0.  1.
         21    1    1    2  505  501  0.17806755227E+02  0.10982888852E+03  0.75813302717E+02  0.13463700143E+03  0.00000000000E+00 0.  1.
         21    1    1    2  506  502  0.16747701198E+02 -0.42388085339E+02 -0.51584665360E+02  0.68834678575E+02  0.00000000000E+00 0. -1.
<scales pt_clust_3="108.58558" pt_clust_4="57.17493" pt_clust_5="14000.00000" pt_clust_6="45.57670"></scales>
<clustering>
<clus scale="   45.577">  2  6  1 -1</clus>
<clus scale="   57.175">  2  4  1 -1</clus>
<clus scale="  108.586">  2  3  1 -1</clus>
<clus scale="  108.586">  1  3  2 -1</clus>
</clustering>
</event>
<event>
 6    0  0.4227619E+002  0.9318991E+02  0.7546771E-02  0.1295306E+00
         21   -1    0    0  506  501  0.00000000000E+00  0.00000000000E+00  0.43058418109E+03  0.43058418109E+03  0.00000000000E+00 0. -1.
         21   -1    0    0  503  502 -0.00000000000E+00 -0.00000000000E+00 -0.59697522510E+03  0.59697522510E+03  0.00000000000E+00 0. -1.
         21    1    1    2  503  505  0.90374382676E+01 -0.10703931753E+03 -0.29935019691E+03  0.31804029804E+03  0.00000000000E+00 0. -1.
         21    1    1    2  504  502 -0.88305922531E+02  0.51878918217E+02 -0.26944689813E+03  0.28825507631E+03  0.00000000000E+00 0. -1.
         21    1    1    2  505  501  0.30816331006E+02  0.29613345646E+02  0.55441726929E+02  0.70002725531E+02  0.00000000000E+00 0. -1.
         21    1    1    2  506  504  0.48452153258E+02  0.25547053670E+02  0.34696432410E+03  0.35126130630E+03  0.00000000000E+00 0. -1.
<scales pt_clust_3="14000.00000" pt_clust_4="93.18991" pt_clust_5="42.73870" pt_clust_6="94.42135"></scales>
<clustering>
<clus scale="   42.739">  1  5  2 -1</clus>
<clus scale="   94.421">  1  6  2 -1</clus>
<clus scale="   93.190">  1  4  2 -1</clus>
<clus scale="   42.739">  1  3  2 -1</clus>
</clustering>
</event>
<event>
 6    0  0.4227619E+002  0.9736228E+02  0.7546771E-02  0.1285943E+00
         21   -1    0    0  504  501  0.00000000000E+00  0.00000000000E+00  0.28778923884E+03  0.28778923884E+03  0.00000000000E+00 0. -1.
         21   -1    0    0  503  502 -0.00000000000E+00 -0.00000000000E+00 -0.63748596520E+03  0.63748596520E+03  0.00000000000E+00 0. -1.
         21    1    1    2  503  506  0.37623385324E+02  0.87247054472E+02 -0.19255809893E+03  0.21472351781E+03  0.00000000000E+00 0. -1.
         21    1    1    2  504  505  0.87215814197E+02 -0.22226198596E+02  0.20826478474E+03  0.22688063539E+03  0.00000000000E+00 0. -1.
         21    1    1    2  505  502 -0.83263936894E+02 -0.61768255760E+02 -0.40982917614E+03  0.42273887238E+03  0.00000000000E+00 0. -1.
         21    1    1    2  506  501 -0.41575262626E+02 -0.32526001156E+01  0.44425763965E+02  0.60932178476E+02  0.00000000000E+00 0. -1.
<scales pt_clust_3="14000.00000" pt_clust_4="54.88738" pt_clust_5="97.36228" pt_clust_6="41.70230"></scales>
<clustering>
<clus scale="   41.702">  1  6  2 -1</clus>
<clus scale="   54.887">  1  4  2 -1</clus>
<clus scale="   97.362">  2  5  1 -1</clus>
<clus scale="   41.702">  1  3  2 -1</clus>
</clustering>
</event>
<event>
 6    0  0.4227619E+002  0.9738200E+02  0.7546771E-02  0.1285900E+00
         21   -1    0    0  506  501  0.00000000000E+00  0.00000000000E+00  0.16048653070E+03  0.16048653070E+03  0.00000000000E+00 0.  1.
         21   -1    0    0  503  502 -0.00000000000E+00 -0.00000000000E+00 -0.11582639323E+04  0.11582639323E+04  0.00000000000E+00 0. -1.
         21    1    1    2  503  504  0.38254127979E+02  0.65983265435E+02 -0.57640089995E+03  0.58142511735E+03  0.00000000000E+00 0. -1.
         21    1    1    2  504  505 -0.12756513465E+03 -0.25395846865E+02 -0.51262180117E+03  0.52886569529E+03  0.00000000000E+00 0. -1.
         21    1    1    2  505  501  0.73979274621E+02  0.83885938613E+00  0.13007727352E+03  0.14964536025E+03  0.00000000000E+00 0.  1.
         21    1    1    2  506  502  0.15331732054E+02 -0.41426277956E+02 -0.38831973959E+02  0.58814290054E+02  0.00000000000E+00 0.  1.
<scales pt_clust_3="75.80263" pt_clust_4="14000.00000" pt_clust_5="97.38200" pt_clust_6="44.17237"></scales>
<clustering>
<clus scale="   44.172">  1  6  2 -1</clus>
<clus scale="   75.803">  2  3  1 -1</clus>
<clus scale="   97.382">  1  5  2 -1</clus>
<clus scale="   44.172">  1  3  2 -1</clus>
</clustering>
</event>
<event>
 6    0  0.4227619E+002  0.8104137E+02  0.7546771E-02  0.1326122E+00
         21   -1    0    0  503  501  0.00000000000E+00  0.00000000000E+00  0.13239707653E+04  0.13239707653E+04  0.00000000000E+00 0. -1.
         21   -1    0    0  505  502 -0.00000000000E+00 -0.00000000000E+00 -0.59762650841E+02  0.59762650841E+02  0.00000000000E+00 0.  1.
         21    1    1    2  503  502  0.76105192267E+02 -0.89813018315E+02  0.16026334052E+03  0.19885350604E+03  0.00000000000E+00 0.  1.
         21    1    1    2  504  506 -0.76569427097E+00  0.80212517330E+02  0.37267782069E+03  0.38121305363E+03  0.00000000000E+00 0.  1.
         21    1    1    2  505  504 -0.63573322161E+02  0.38259617714E+02  0.24985052815E+01  0.74240205865E+02  0.00000000000E+00 0.  1.
         21    1    1    2  506  501 -0.11766175834E+02 -0.28659116730E+02  0.72876844796E+03  0.72942665060E+03  0.00000000000E+00 0. -1.
<scales pt_clust_3="14000.00000" pt_clust_4="62.59474" pt_clust_5="81.04137" pt_clust_6="30.98044"></scales>
<clustering>
<clus scale="   30.980">  1  6  2 -1</clus>
<clus scale="   62.595">  1  4  2 -1</clus>
<clus scale="   81.041">  2  5  1 -1</clus>
<clus scale="   30.980">  1  3  2 -1</clus>
</clustering>
</event>
<event>
 6    0  0.4227619E+002  0.3888854E+03  0.7546771E-02  0.1047698E+00
         21   -1    0    0  503  501  0.00000000000E+00  0.00000000000E+00  0.12055810774E+04  0.12055810774E+04  0.00000000000E+00 0. -1.
         21   -1    0    0  504  502 -0.00000000000E+00 -0.00000000000E+00 -0.38694377511E+03  0.38694377511E+03  0.00000000000E+00 0. -1.
         21    1    1    2  503  506  0.15058554865E+03 -0.23034673195E+03  0.57689885354E+03  0.63917752745E+03  0.00000000000E+00 0. -1.
         21    1    1    2  504  505  0.22976319195E+02  0.29551509653E+02 -0.56033852635E+02  0.67386909765E+02  0.00000000000E+00 0. -1.
         21    1    1    2  505  501 -0.44526067802E+03 -0.56598596502E+02  0.23442700688E+03  0.50637584271E+03  0.00000000000E+00 0. -1.
         21    1    1    2  506  502  0.27169881018E+03  0.25739381879E+03  0.63345294478E+02  0.37958457258E+03  0.00000000000E+00 0. -1.
<scales pt_clust_3="274.05751" pt_clust_4="37.43265" pt_clust_5="388.88542" pt_clust_6="14000.00000"></scales>
<clustering>
<clus scale="   37.433">  2  4  1 -1</clus>
<clus scale="  274.058">  1  3  2 -1</clus>
<clus scale="  388.885">  1  5  2 -1</clus>
<clus scale="  274.058">  1  3  2 -1</clus>
</clustering>
</event>
<event>
 6    0  0.4227619E+002  0.3557089E+03  0.7546771E-02  0.1060296E+00
         21   -1    0    0  505  501  0.00000000000E+00  0.00000000000E+00  0.78484751994E+03  0.78484751994E+03  0.00000000000E+00 0. -1.
         21   -1    0    0  504  502 -0.00000000000E+00 -0.00000000000E+00 -0.11117973169E+04  0.11117973169E+04  0.00000000000E+00 0.  1.
         21    1    1    2  503  506  0.11085596650E+03 -0.31655982501E+03  0.13633760315E+02  0.33568593587E+03  0.00000000000E+00 0. -1.
         21    1    1    2  504  501  0.44339326108E+01  0.38507044060E+02 -0.20086655277E+03  0.20457229583E+03  0.00000000000E+00 0.  1.
         21    1    1    2  505  503  0.87595545886E+02  0.38510824322E+01  0.56589833738E+03  0.57265062538E+03  0.00000000000E+00 0. -1.
         21    1    1    2  506  502 -0.20288544499E+03  0.27420169852E+03 -0.70561534188E+03  0.78373597975E+03  0.00000000000E+00 0.  1.
<scales pt_clust_3="355.70894" pt_clust_4="38.76148" pt_clust_5="87.70301" pt_clust_6="14000.00000"></scales>
<clustering>
<clus scale="   38.761">  2  4  1 -1</clus>
<clus scale="   87.703">  1  5  2 -1</clus>
<clus scale="  355.709">  1  3  2 -1</clus>
<clus scale="   87.703">  1  3  2 -1</clus>
</clustering>
</event>
<event>
 6    0  0.4227619E+002  0.8687307E+02  0.7546771E-02  0.1310606E+00
         21   -1    0    0  503  501  0.00000000000E+00  0.00000000000E+00  0.14595973343E+03  0.14595973343E+03  0.00000000000E+00 0.  1.
         21   -1    0    0  506  502 -0.00000000000E+00 -0.00000000000E+00 -0.22024726663E+04  0.22024726663E+04  0.00000000000E+00 0.  1.
         21    1    1    2  503  505  0.51093627797E+02 -0.27832484507E+02  0.13152961629E+03  0.14382366272E+03  0.00000000000E+00 0.  1.
         21    1    1    2  504  501  0.29913660133E+02  0.87389249903E+02 -0.73829246707E+03  0.74404803272E+03  0.00000000000E+00 0.  1.
         21    1    1    2  505  502 -0.43990782133E+02  0.10582799375E+02 -0.11686196236E+03  0.12531521377E+03  0.00000000000E+00 0.  1.
         21    1    1    2  506  504 -0.37016505797E+02 -0.70139564771E+02 -0.13328881198E+04  0.13352454906E+04  0.00000000000E+00 0.  1.
<scales pt_clust_3="58.05349" pt_clust_4="14000.00000" pt_clust_5="45.24582" pt_clust_6="86.87307"></scales>
<clustering>
<clus scale="   45.246">  2  5  1 -1</clus>
<clus scale="   58.053">  1  3  2 -1</clus>
<clus scale="   86.873">  2  6  1 -1</clus>
<clus scale="   58.053">  1  3  2 -1</clus>
</clustering>
</event>
<event>
 6    0  0.4227619E+002  0.7198987E+02  0.7546771E-02  0.1353454E+00
         21   -1    0    0  504  501  0.00000000000E+00  0.00000000000E+00  0.65824904738E+02  0.65824904738E+02  0.00000000000E+00 0. -1.
         21   -1    0    0  503  502 -0.00000000000E+00 -0.00000000000E+00 -0.10371426026E+04  0.10371426026E+04  0.00000000000E+00 0. -1.
         21    1    1    2  503  501  0.59585943394E+02  0.45714180084E+02  0.23608238724E+02  0.78724963300E+02  0.00000000000E+00 0. -1.
         21    1    1    2  504  505 -0.32555603834E+02 -0.54320156497E+02 -0.10007349231E+03  0.11842825088E+03  0.00000000000E+00 0. -1.
         21    1    1    2  505  506 -0.29984815692E+02  0.61495263954E+02 -0.26327335184E+03  0.27201767305E+03  0.00000000000E+00 0. -1.
         21    1    1    2  506  502  0.29544761328E+01 -0.52889287541E+02 -0.63157909240E+03  0.63379662008E+03  0.00000000000E+00 0. -1.
<scales pt_clust_3="71.98987" pt_clust_4="14000.00000" pt_clust_5="38.57081" pt_clust_6="52.97174"></scales>
<clustering>
<clus scale="   52.972">  2  6  1 -1</clus>
<clus scale="   38.571">  2  5  1 -1</clus>
<clus scale="   71.990">  1  3  2 -1</clus>
<clus scale="   71.990">  1  3  2 -1</clus>
</clustering>
</event>
<event>
 6    0  0.4227619E+002  0.8236489E+02  0.7546771E-02  0.1322471E+00
         21   -1    0    0  503  501  0.00000000000E+00  0.00000000000E+00  0.11092794285E+03  0.11092794285E+03  0.00000000000E+00 0. -1.
         21   -1    0    0  505  502 -0.00000000000E+00 -0.00000000000E+00 -0.41861768695E+03  0.41861768695E+03  0.00000000000E+00 0. -1.
         21    1    1    2  503  504  0.77123748634E+02 -0.77847663107E+02  0.48997983863E+02  0.12003805096E+03  0.00000000000E+00 0. -1.
         21    1    1    2  504  502  0.25821904370E+02 -0.18857181880E+02 -0.52266139635E+02  0.61270820185E+02  0.00000000000E+00 0. -1.
         21    1    1    2  505  506 -0.73687736540E+02  0.75014816578E+02 -0.29100971898E+03  0.30942488872E+03  0.00000000000E+00 0. -1.
         21    1    1    2  506  501 -0.29257916464E+02  0.21690028409E+02 -0.13411869354E+02  0.38811869934E+02  0.00000000000E+00 0. -1.
<scales pt_clust_3="14000.00000" pt_clust_4="31.97443" pt_clust_5="82.36489" pt_clust_6="34.11363"></scales>
<clustering>
<clus scale="   31.974">  2  4  1 -1</clus>
<clus scale="   34.114">  1  6  2 -1</clus>
<clus scale="   82.365">  2  5  1 -1</clus>
<clus scale="   34.114">  1  3  2 -1</clus>
</clustering>
</event>
<event>
 6    0  0.4227619E+002  0.1201635E+03  0.7546771E-02  0.1242828E+00
         21   -1    0    0  504  501  0.00000000000E+00  0.00000000000E+00  0.62126014394E+03  0.62126014394E+03  0.00000000000E+00 0.  1.
         21   -1    0    0  505  502 -0.00000000000E+00 -0.00000000000E+00 -0.22871928546E+04  0.22871928546E+04  0.00000000000E+00 0. -1.
         21    1    1    2  503  501  0.53835773801E+02  0.35469844060E+02  0.48456126087E+03  0.48883127551E+03  0.00000000000E+00 0.  1.
         21    1    1    2  504  502  0.19896259881E+02  0.62054391857E+02  0.12027662237E+03  0.13679574042E+03  0.00000000000E+00 0.  1.
         21    1    1    2  505  506  0.15342236897E+02 -0.54869224234E+02 -0.18398918419E+04  0.18407737520E+04  0.00000000000E+00 0. -1.
         21    1    1    2  506  503 -0.89074270579E+02 -0.42655011683E+02 -0.43087875201E+03  0.44205223066E+03  0.00000000000E+00 0. -1.
<scales pt_clust_3="120.16347" pt_clust_4="64.28945" pt_clust_5="56.97382" pt_clust_6="14000.00000"></scales>
<clustering>
<clus scale="   56.974">  2  5  1 -1</clus>
<clus scale="   64.289">  1  4  2 -1</clus>
<clus scale="  120.163">  1  3  2 -1</clus>
<clus scale="   64.289">  1  3  2 -1</clus>
</clustering>
</event>
<event>
 6    0  0.4227619E+002  0.1031703E+03  0.7546771E-02  0.1273767E+00
         21   -1    0    0  505  501  0.00000000000E+00  0.00000000000E+00  0.14872330733E+04  0.14872330733E+04  0.00000000000E+00 0. -1.
         21   -1    0    0  503  502 -0.00000000000E+00 -0.00000000000E+00 -0.10011384455E+03  0.10011384455E+03  0.00000000000E+00 0. -1.
         21    1    1    2  503  506  0.63657736100E+02  0.40257057481E+02  0.14330246918E+03  0.16189050533E+03  0.00000000000E+00 0. -1.
         21    1    1    2  504  502 -0.83097116601E+02 -0.71391215630E+02 -0.53819368718E+02  0.12205884198E+03  0.00000000000E+00 0. -1.
         21    1    1    2  505  504 -0.32830922918E+02  0.19836256738E+02  0.16108497499E+03  0.16558899646E+03  0.00000000000E+00 0. -1.
         21    1    1    2  506  501  0.52270303420E+02  0.11297901411E+02  0.11365511533E+04  0.11378085741E+04  0.00000000000E+00 0. -1.
<scales pt_clust_3="14000.00000" pt_clust_4="103.17035" pt_clust_5="38.35814" pt_clust_6="37.17943"></scales>
<clustering>
<clus scale="   38.358">  1  5  2 -1</clus>
<clus scale="   37.179">  1  6  2 -1</clus>
<clus scale="  103.170">  2  4  1 -1</clus>
<clus scale="   38.358">  1  3  2 -1</clus>
</clustering>
</event>
<event>
 6    0  0.4227619E+002  0.8773249E+02  0.7546771E-02  0.1308438E+00
         21   -1    0    0  504  501  0.00000000000E+00  0.00000000000E+00  0.54687443222E+03  0.54687443222E+03  0.00000000000E+00 0. -1.
         21   -1    0    0  505  502 -0.00000000000E+00 -0.00000000000E+00 -0.11933735511E+03  0.11933735511E+03  0.00000000000E+00 0.  1.
         21    1    1    2  503  502  0.85474799058E+02  0.84473449502E+00  0.24942134429E+03  0.26366202198E+03  0.00000000000E+00 0. -1.
         21    1    1    2  504  503 -0.14091067834E+02 -0.28980695444E+02  0.12282942221E+03  0.12698624280E+03  0.00000000000E+00 0. -1.
         21    1    1    2  505  506  0.46040947084E+02 -0.64224869822E+02 -0.49351943877E+02  0.93167682575E+02  0.00000000000E+00 0.  1.
         21    1    1    2  506  501 -0.11742467831E+03  0.92360830771E+02  0.10463825449E+03  0.18239583997E+03  0.00000000000E+00 0. -1.
<scales pt_clust_3="78.71601" pt_clust_4="32.22482" pt_clust_5="87.73249" pt_clust_6="14000.00000"></scales>
<clustering>
<clus scale="   32.225">  1  4  2 -1</clus>
<clus scale="   78.716">  1  3  2 -1</clus>
<clus scale="   87.732">  2  5  1 -1</clus>
<clus scale="   32.225">  1  3  2 -1</clus>
</clustering>
</event>
<event>
 6    0  0.4227619E+002  0.1280156E+03  0.7546771E-02  0.1230430E+00
         21   -1    0    0  504  501  0.00000000000E+00  0.00000000000E+00  0.10594206490E+03  0.10594206490E+03  0.00000000000E+00 0.  1.
         21   -1    0    0  506  502 -0.00000000000E+00 -0.00000000000E+00 -0.73974084343E+03  0.73974084343E+03  0.00000000000E+00 0.  1.
         21    1    1    2  503  505 -0.18311302850E+02 -0.83975751832E+02  0.52142704654E+02  0.10052906225E+03  0.00000000000E+00 0.  1.
         21    1    1    2  504  503 -0.19652872431E+02 -0.42201818684E+02 -0.32254165389E+02  0.56635325372E+02  0.00000000000E+00 0.  1.
         21    1    1    2  505  502  0.87965589162E+02  0.13690501654E+03 -0.45033690013E+03  0.47883635206E+03  0.00000000000E+00 0.  1.
         21    1    1    2  506  501 -0.50001413881E+02 -0.10727446023E+02 -0.20335041767E+03  0.20968216866E+03  0.00000000000E+00 0.  1.
<scales pt_clust_3="14000.00000" pt_clust_4="46.55351" pt_clust_5="128.01557" pt_clust_6="52.10215"></scales>
<clustering>
<clus scale="   46.554">  1  4  2 -1</clus>
<clus scale="   52.102">  2  6  1 -1</clus>
<clus scale="  128.016">  2  5  1 -1</clus>
<clus scale="   46.554">  1  3  2 -1</clus>
</clustering>
</event>
<event>
 6    0  0.4227619E+002  0.1015817E+03  0.7546771E-02  0.1277005E+00
         21   -1    0    0  506  501  0.00000000000E+00  0.00000000000E+00  0.14666357115E+03  0.14666357115E+03  0.00000000000E+00 0.  1.
         21   -1    0    0  503  502 -0.00000000000E+00 -0.00000000000E+00 -0.70886907982E+03  0.70886907982E+03  0.00000000000E+00 0.  1.
         21    1    1    2  503  504  0.41605842944E+02 -0.35332435571E+02 -0.52352199062E+02  0.75631871041E+02  0.00000000000E+00 0.  1.
         21    1    1    2  504  501 -0.16206733377E+02 -0.59599471338E+02  0.94592486377E+02  0.11297120726E+03  0.00000000000E+00 0.  1.
         21    1    1    2  505  502  0.24410884627E+02  0.12095452715E+03 -0.59772790214E+03  0.61033149511E+03  0.00000000000E+00 0.  1.
         21    1    1    2  506  505 -0.49809994195E+02 -0.26022620238E+02 -0.67178938461E+01  0.56598077560E+02  0.00000000000E+00 0.  1.
<scales pt_clust_3="54.58413" pt_clust_4="101.58172" pt_clust_5="14000.00000" pt_clust_6="55.24666"></scales>
<clustering>
<clus scale="   54.584">  2  3  1 -1</clus>
<clus scale="   55.247">  1  6  2 -1</clus>
<clus scale="  101.582">  1  4  2 -1</clus>
<clus scale="   55.247">  1  3  2 -1</clus>
</clustering>
</event>
<event>
 6    0  0.4227619E+002  0.1198104E+03  0.7546771E-02  0.1243410E+00
         21   -1    0    0  504  501  0.00000000000E+00  0.00000000000E+00  0.19257720221E+02  0.19257720221E+02  0.00000000000E+00 0.  1.
         21   -1    0    0  503  502 -0.00000000000E+00 -0.00000000000E+00 -0.22892806120E+04  0.22892806120E+04  0.00000000000E+00 0.  1.
         21    1    1    2  503  505 -0.50527798602E+02  0.97427368055E+02 -0.11804636039E+04  0.11855544992E+04  0.00000000000E+00 0.  1.
         21    1    1    2  504  502 -0.32737217006E+02  0.97347838260E+01 -0.68697900128E+02  0.76719572961E+02  0.00000000000E+00 0.  1.
         21    1    1    2  505  506  0.28283791375E+02 -0.14867699450E+03 -0.82175883575E+03  0.83557908404E+03  0.00000000000E+00 0.  1.
         21    1    1    2  506  501  0.54981224232E+02  0.41514842620E+02 -0.19910255204E+03  0.21068517604E+03  0.00000000000E+00 0. -1.
<scales pt_clust_3="14000.00000" pt_clust_4="34.15394" pt_clust_5="119.81035" pt_clust_6="62.08355"></scales>
<clustering>
<clus scale="   34.154">  1  4  2 -1</clus>
<clus scale="   62.084">  1  6  2 -1</clus>
<clus scale="  119.810">  1  5  2 -1</clus>
<clus scale="   34.154">  1  3  2 -1</clus>
</clustering>
</event>
<event>
 6    0  0.4227619E+002  0.8468269E+02  0.7546771E-02  0.1316264E+00
         21   -1    0    0  505  501  0.00000000000E+00  0.00000000000E+00  0.52197883032E+03  0.52197883032E+03  0.00000000000E+00 0. -1.
         21   -1    0    0  503  502 -0.00000000000E+00 -0.00000000000E+00 -0.22012972595E+03  0.22012972595E+03  0.00000000000E+00 0.  1.
         21    1    1    2  503  506 -0.66195002377E+02 -0.53039862235E+02 -0.18436986742E+03  0.20294642973E+03  0.00000000000E+00 0.  1.
         21    1    1    2  504  501 -0.13811651837E+02 -0.35678314752E+02  0.19120358954E+03  0.19499363200E+03  0.00000000000E+00 0. -1.
         21    1    1    2  505  502  0.28397258046E+02  0.92347416669E+02  0.26987309617E+03  0.28664601456E+03  0.00000000000E+00 0. -1.
         21    1    1    2  506  504  0.51609396168E+02 -0.36292396815E+01  0.25142286089E+02  0.57522479982E+02  0.00000000000E+00 0.  1.
<scales pt_clust_3="84.68269" pt_clust_4="38.25838" pt_clust_5="14000.00000" pt_clust_6="50.52919"></scales>
<clustering>
<clus scale="   38.258">  1  4  2 -1</clus>
<clus scale="   50.529">  1  6  2 -1</clus>
<clus scale="   84.683">  2  3  1 -1</clus>
<clus scale="   38.258">  1  3  2 -1</clus>
</clustering>
</event>
<event>
 6    0  0.4227619E+002  0.1014608E+03  0.7546771E-02  0.1277254E+00
         21   -1    0    0  504  501  0.00000000000E+00  0.00000000000E+00  0.20820523211E+03  0.20820523211E+03  0.00000000000E+00 0. -1.
         21   -1    0    0  506  502 -0.00000000000E+00 -0.00000000000E+00 -0.19403694728E+03  0.19403694728E+03  0.00000000000E+00 0. -1.
         21    1    1    2  503  502 -0.36172979997E+02 -0.23103083168E+02 -0.15660520760E+02  0.45689045123E+02  0.00000000000E+00 0. -1.
         21    1    1    2  504  505 -0.37865094937E+02 -0.31529235952E+02  0.98413592558E+02  0.11005949907E+03  0.00000000000E+00 0. -1.
         21    1    1    2  505  503 -0.21484344838E+02  0.10920618369E+03 -0.78254827736E+02  0.13605655329E+03  0.00000000000E+00 0. -1.
         21    1    1    2  506  501  0.95522419772E+02 -0.54573864567E+02  0.96700407655E+01  0.11043708191E+03  0.00000000000E+00 0. -1.
<scales pt_clust_3="42.92129" pt_clust_4="50.79145" pt_clust_5="14000.00000" pt_clust_6="101.46078"></scales>
<clustering>
<clus scale="   42.921">  2  3  1 -1</clus>
<clus scale="   50.791">  1  4  2 -1</clus>
<clus scale="  101.461">  1  6  2 -1</clus>
<clus scale="   50.791">  1  3  2 -1</clus>
</clustering>
</event>
<event>
 6    0  0.4227619E+002  0.1039432E+03  0.7546771E-02  0.1272216E+00
         21   -1    0    0  506  501  0.00000000000E+00  0.00000000000E+00  0.80333308844E+03  0.80333308844E+03  0.00000000000E+00 0.  1.
         21   -1    0    0  503  502 -0.00000000000E+00 -0.00000000000E+00 -0.92566297633E+02  0.92566297633E+02  0.00000000000E+00 0.  1.
         21    1    1    2  503  504  0.19534896011E+02  0.37802813971E+02  0.38601977187E+02  0.57452393762E+02  0.00000000000E+00 0.  1.
         21    1    1    2  504  505 -0.56082513177E+02 -0.10656117449E+03  0.39067402351E+03  0.40881135606E+03  0.00000000000E+00 0.  1.
         21    1    1    2  505  501  0.40814266980E+02  0.60608558684E-01  0.33807672333E+03  0.34053146539E+03  0.00000000000E+00 0.  1.
         21    1    1    2  506  502 -0.42666498136E+01  0.68697751963E+02 -0.56585933228E+02  0.89104170860E+02  0.00000000000E+00 0.  1.
<scales pt_clust_3="44.65452" pt_clust_4="14000.00000" pt_clust_5="40.81431" pt_clust_6="103.94322"></scales>
<clustering>
<clus scale="   40.814">  1  5  2 -1</clus>
<clus scale="   44.655">  2  3  1 -1</clus>
<clus scale="  103.943">  2  6  1 -1</clus>
<clus scale="   40.814">  1  3  2 -1</clus>
</clustering>
</event>
<event>
 6    0  0.4227619E+002  0.6811651E+02  0.7546771E-02  0.1366618E+00
         21   -1    0    0  505  501  0.00000000000E+00  0.00000000000E+00  0.20807031700E+03  0.20807031700E+03  0.00000000000E+00 0. -1.
         21   -1    0    0  506  502 -0.00000000000E+00 -0.00000000000E+00 -0.27042083189E+03  0.27042083189E+03  0.00000000000E+00 0. -1.
         21    1    1    2  503  502  0.63123349233E+02 -0.21857365271E+02 -0.21195267709E+03  0.22223014863E+03  0.00000000000E+00 0. -1.
         21    1    1    2  504  501  0.30390116022E+02 -0.10334868991E+01  0.63962107393E+02  0.70822160580E+02  0.00000000000E+00 0. -1.
         21    1    1    2  505  503 -0.10867804366E+03 -0.17975869798E+02  0.89147157415E+02  0.14170837923E+03  0.00000000000E+00 0. -1.
         21    1    1    2  506  504  0.15164578405E+02  0.40866721968E+02 -0.35071026161E+01  0.43730460452E+02  0.00000000000E+00 0. -1.
<scales pt_clust_3="14000.00000" pt_clust_4="30.40768" pt_clust_5="68.11651" pt_clust_6="45.15135"></scales>
<clustering>
<clus scale="   30.408">  1  4  2 -1</clus>
<clus scale="   45.151">  1  6  2 -1</clus>
<clus scale="   68.117">  1  5  2 -1</clus>
<clus scale="   30.408">  1  3  2 -1</clus>
</clustering>
</event>
<event>
 6    0  0.4227619E+002  0.9064269E+02  0.7546771E-02  0.1301303E+00
         21   -1    0    0  506  501  0.00000000000E+00  0.00000000000E+00  0.65164034396E+03  0.65164034396E+03  0.00000000000E+00 0. -1.
         21   -1    0    0  505  502 -0.00000000000E+00 -0.00000000000E+00 -0.31909629456E+03  0.31909629456E+03  0.00000000000E+00 0. -1.
         21    1    1    2  503  504 -0.18026163429E+01  0.10059803684E+03  0.34628909400E+03  0.36060969352E+03  0.00000000000E+00 0. -1.
         21    1    1    2  504  502  0.90548859627E+02 -0.60454417210E+02 -0.23942108973E+03  0.26301386037E+03  0.00000000000E+00 0. -1.
         21    1    1    2  505  501 -0.33550138244E+02 -0.98903452499E+01 -0.51846617680E+02  0.62542005645E+02  0.00000000000E+00 0. -1.
         21    1    1    2  506  503 -0.55196105040E+02 -0.30253274382E+02  0.27752266281E+03  0.28457107899E+03  0.00000000000E+00 0. -1.
<scales pt_clust_3="14000.00000" pt_clust_4="90.64269" pt_clust_5="34.97757" pt_clust_6="63.40333"></scales>
<clustering>
<clus scale="   34.978">  2  5  1 -1</clus>
<clus scale="   63.403">  1  6  2 -1</clus>
<clus scale="   90.643">  2  4  1 -1</clus>
<clus scale="   63.403">  1  3  2 -1</clus>
</clustering>
</event>
<event>
 6    0  0.4227619E+002  0.8864233E+02  0.7546771E-02  0.1306173E+00
         21   -1    0    0  506  501  0.00000000000E+00  0.00000000000E+00  0.16806340520E+04  0.16806340520E+04  0.00000000000E+00 0. -1.
         21   -1    0    0  503  502 -0.00000000000E+00 -0.00000000000E+00 -0.65119552858E+02  0.65119552858E+02  0.00000000000E+00 0. -1.
         21    1    1    2  503  505 -0.30287563669E+02 -0.34641640876E+02 -0.18196438475E+02  0.49482220734E+02  0.00000000000E+00 0. -1.
         21    1    1    2  504  502  0.92024172715E+02 -0.28774497136E+02  0.57348977080E+02  0.11218433590E+03  0.00000000000E+00 0. -1.
         21    1    1    2  505  501 -0.20929605602E+02 -0.31250363623E+02  0.17799208904E+03  0.18192255873E+03  0.00000000000E+00 0.  1.
         21    1    1    2  506  504 -0.40807003444E+02  0.94666501635E+02  0.13983698715E+04  0.14021644895E+04  0.00000000000E+00 0. -1.
<scales pt_clust_3="46.40386" pt_clust_4="88.64233" pt_clust_5="37.61162" pt_clust_6="14000.00000"></scales>
<clustering>
<clus scale="   37.612">  1  5  2 -1</clus>
<clus scale="   46.404">  2  3  1 -1</clus>
<clus scale="   88.642">  2  4  1 -1</clus>
<clus scale="   37.612">  1  3  2 -1</clus>
</clustering>
</event>
<event>
 6    0  0.4227619E+002  0.1016498E+03  0.7546771E-02  0.1276864E+00
         21   -1    0    0  503  501  0.00000000000E+00  0.00000000000E+00  0.37902615763E+03  0.37902615763E+03  0.00000000000E+00 0.  1.
         21   -1    0    0  505  502 -0.00000000000E+00 -0.00000000000E+00 -0.21317632534E+03  0.21317632534E+03  0.00000000000E+00 0.  1.
         21    1    1    2  503  506  0.11551876855E+03 -0.10314272734E+03  0.42224672887E+01  0.15492203627E+03  0.00000000000E+00 0.  1.
         21    1    1    2  504  501 -0.79476741478E+02  0.66977623699E+01  0.24959741445E+03  0.26203107022E+03  0.00000000000E+00 0.  1.
         21    1    1    2  505  504 -0.15994774320E+02  0.72080803252E+02  0.79617892873E+01  0.74262137672E+02  0.00000000000E+00 0.  1.
         21    1    1    2  506  502 -0.20047252756E+02  0.24364161715E+02 -0.95931838741E+02  0.10098723881E+03  0.00000000000E+00 0.  1.
<scales pt_clust_3="14000.00000" pt_clust_4="80.96118" pt_clust_5="101.64977" pt_clust_6="31.55162"></scales>
<clustering>
<clus scale="   31.552">  2  6  1 -1</clus>
<clus scale="   80.961">  1  4  2 -1</clus>
<clus scale="  101.650">  2  5  1 -1</clus>
<clus scale="   80.961">  1  3  2 -1</clus>
</clustering>
</event>
<event>
 6    0  0.4227619E+002  0.1385720E+03  0.7546771E-02  0.1215263E+00
         21   -1    0    0  505  501  0.00000000000E+00  0.00000000000E+00  0.45010424445E+03  0.45010424445E+03  0.00000000000E+00 0. -1.
         21   -1    0    0  504  502 -0.00000000000E+00 -0.00000000000E+00 -0.96942379126E+03  0.96942379126E+03  0.00000000000E+00 0.  1.
         21    1    1    2  503  502  0.41174018214E+02  0.66803550349E+01 -0.61681432004E+03  0.61822312503E+03  0.00000000000E+00 0.  1.
         21    1    1    2  504  501  0.70200780635E+02 -0.19784167748E+01  0.16694483958E+03  0.18111499992E+03  0.00000000000E+00 0. -1.
         21    1    1    2  505  506  0.46750279828E+02  0.79784036263E+02  0.24297704084E+03  0.25997869813E+03  0.00000000000E+00 0. -1.
         21    1    1    2  506  503 -0.15812507868E+03 -0.84485974524E+02 -0.31242710719E+03  0.36021121263E+03  0.00000000000E+00 0.  1.
<scales pt_clust_3="41.71243" pt_clust_4="71.05369" pt_clust_5="14000.00000" pt_clust_6="138.57198"></scales>
<clustering>
<clus scale="   41.712">  2  3  1 -1</clus>
<clus scale="   71.054">  1  4  2 -1</clus>
<clus scale="  138.572">  2  6  1 -1</clus>
<clus scale="   71.054">  1  3  2 -1</clus>
</clustering>
</event>
<event>
 6    0  0.4227619E+002  0.1582694E+03  0.7546771E-02  0.1190664E+00
         21   -1    0    0  505  501  0.00000000000E+00  0.00000000000E+00  0.62542043989E+03  0.62542043989E+03  0.00000000000E+00 0.  1.
         21   -1    0    0  506  502 -0.00000000000E+00 -0.00000000000E+00 -0.47970808838E+03  0.47970808838E+03  0.00000000000E+00 0. -1.
         21    1    1    2  503  501 -0.97303269325E+01 -0.83895455714E+02  0.41679141633E+03  0.42526252066E+03  0.00000000000E+00 0.  1.
         21    1    1    2  504  503 -0.42617233861E+02 -0.92890758150E+02  0.11888112889E+03  0.15677258810E+03  0.00000000000E+00 0.  1.
         21    1    1    2  505  502 -0.41118052899E+02  0.13311454857E+02 -0.31891364976E+03  0.32182884443E+03  0.00000000000E+00 0. -1.
         21    1    1    2  506  504  0.93465613692E+02  0.16347475901E+03 -0.71046543955E+02  0.20126457508E+03  0.00000000000E+00 0. -1.
<scales pt_clust_3="84.23980" pt_clust_4="14000.00000" pt_clust_5="43.21908" pt_clust_6="158.26944"></scales>
<clustering>
<clus scale="   43.219">  2  5  1 -1</clus>
<clus scale="   84.240">  1  3  2 -1</clus>
<clus scale="  158.269">  2  6  1 -1</clus>
<clus scale="   84.240">  1  3  2 -1</clus>
</clustering>
</event>
<event>
 6    0  0.4227619E+002  0.2245050E+03  0.7546771E-02  0.1130568E+00
         21   -1    0    0  506  501  0.00000000000E+00  0.00000000000E+00  0.95219521516E+02  0.95219521516E+02  0.00000000000E+00 0.  1.
         21   -1    0    0  504  502 -0.00000000000E+00 -0.00000000000E+00 -0.71291169765E+03  0.71291169765E+03  0.00000000000E+00 0.  1.
         21    1    1    2  503  501  0.19778198090E+03 -0.44646033498E+02 -0.16909927411E+03  0.26401807662E+03  0.00000000000E+00 0.  1.
         21    1    1    2  504  505 -0.34199141812E+02  0.34434816362E+02 -0.18953518977E+03  0.19565000905E+03  0.00000000000E+00 0. -1.
         21    1    1    2  505  503  0.30415825723E+02  0.14924314901E+02 -0.68848070183E+02  0.76732746579E+02  0.00000000000E+00 0. -1.
         21    1    1    2  506  502 -0.19399866481E+03 -0.47130977643E+01 -0.19020964207E+03  0.27173038692E+03  0.00000000000E+00 0.  1.
<scales pt_clust_3="33.04387" pt_clust_4="48.53182" pt_clust_5="33.04387" pt_clust_6="209.44670"></scales>
<clustering>
<clus scale="   33.044">  3  5 -1 -1</clus>
<clus scale="   48.532">  2  4  1 -1</clus>
<clus scale="  209.447">  1  6  2 -1</clus>
<clus scale="  209.447">  1  3  2 -1</clus>
</clustering>
</event>
<event>
 6    0  0.4227619E+002  0.9717962E+02  0.7546771E-02  0.1286341E+00
         21   -1    0    0  505  501  0.00000000000E+00  0.00000000000E+00  0.32941817334E+03  0.32941817334E+03  0.00000000000E+00 0.  1.
         21   -1    0    0  506  502 -0.00000000000E+00 -0.00000000000E+00 -0.14307015561E+04  0.14307015561E+04  0.00000000000E+00 0.  1.
         21    1    1    2  503  504  0.10988629493E+03 -0.58980497833E+02  0.15252520749E+03  0.19702191720E+03  0.00000000000E+00 0.  1.
         21    1    1    2  504  501 -0.11962554300E+02  0.68997174415E+02  0.14342990973E+03  0.15961156533E+03  0.00000000000E+00 0. -1.
         21    1    1    2  505  502 -0.69308669228E+02 -0.32106395150E+02 -0.52801112819E+03  0.53350751047E+03  0.00000000000E+00 0.  1.
         21    1    1    2  506  503 -0.28615071402E+02  0.22089718568E+02 -0.86922737181E+03  0.86997873645E+03  0.00000000000E+00 0.  1.
<scales pt_clust_3="14000.00000" pt_clust_4="70.41173" pt_clust_5="97.17962" pt_clust_6="36.14938"></scales>
<clustering>
<clus scale="   36.149">  2  6  1 -1</clus>
<clus scale="   70.412">  1  4  2 -1</clus>
<clus scale="   97.180">  2  5  1 -1</clus>
<clus scale="   70.412">  1  3  2 -1</clus>
</clustering>
</event>
<event>
 6    0  0.4227619E+002  0.9498161E+02  0.7546771E-02  0.1291218E+00
         21   -1    0    0  505  501  0.00000000000E+00  0.00000000000E+00  0.51930132035E+03  0.51930132035E+03  0.00000000000E+00 0.  1.
         21   -1    0    0  503  502 -0.00000000000E+00 -0.00000000000E+00 -0.92345001434E+02  0.92345001434E+02  0.00000000000E+00 0.  1.
         21    1    1    2  503  504 -0.32353240760E+02 -0.88215089921E+02 -0.15751298380E+02  0.95271914425E+02  0.00000000000E+00 0.  1.
         21    1    1    2  504  506  0.20411511506E+02 -0.35390673670E+02  0.22093951125E+02  0.46446445086E+02  0.00000000000E+00 0.  1.
         21    1    1    2  505  502  0.27089941961E+02  0.93894171048E+02  0.76246428009E+02  0.12394957885E+03  0.00000000000E+00 0.  1.
         21    1    1    2  506  501 -0.15148212706E+02  0.29711592544E+02  0.34436723816E+03  0.34597838343E+03  0.00000000000E+00 0.  1.
<scales pt_clust_3="94.98161" pt_clust_4="34.30173" pt_clust_5="14000.00000" pt_clust_6="33.35037"></scales>
<clustering>
<clus scale="   33.350">  1  6  2 -1</clus>
<clus scale="   34.302">  1  4  2 -1</clus>
<clus scale="   94.982">  2  3  1 -1</clus>
<clus scale="   33.350">  1  3  2 -1</clus>
</clustering>
</event>
<event>
 6    0  0.4227619E+002  0.1081744E+03  0.7546771E-02  0.1263988E+00
         21   -1    0    0  506  501  0.00000000000E+00  0.00000000000E+00  0.23642100871E+03  0.23642100871E+03  0.00000000000E+00 0. -1.
         21   -1    0    0  505  502 -0.00000000000E+00 -0.00000000000E+00 -0.16112361304E+03  0.16112361304E+03  0.00000000000E+00 0. -1.
         21    1    1    2  503  504  0.18479730879E+02 -0.53911945685E+02  0.48434438911E+02  0.74792333923E+02  0.00000000000E+00 0.  1.
         21    1    1    2  504  501 -0.40395585870E+02 -0.65363064758E+02  0.38750272699E+02  0.86056476959E+02  0.00000000000E+00 0. -1.
         21    1    1    2  505  503 -0.35920058579E+02  0.80731378196E+02 -0.94071442107E+02  0.12906293912E+03  0.00000000000E+00 0. -1.
         21    1    1    2  506  502  0.57835913570E+02  0.38543632247E+02  0.82184126168E+02  0.10763287174E+03  0.00000000000E+00 0. -1.
<scales pt_clust_3="51.41668" pt_clust_4="51.41668" pt_clust_5="90.20738" pt_clust_6="69.50255"></scales>
<clustering>
<clus scale="   51.417">  3  4 -1 -1</clus>
<clus scale="   69.503">  1  6  2 -1</clus>
<clus scale="   90.207">  2  5  1 -1</clus>
<clus scale="   69.503">  1  3  2 -1</clus>
</clustering>
</event>
<event>
 6    0  0.4227619E+002  0.6743609E+02  0.7546771E-02  0.1369035E+00
         21   -1    0    0  506  501  0.00000000000E+00  0.00000000000E+00  0.70334205658E+02  0.70334205658E+02  0.00000000000E+00 0.  1.
         21   -1    0    0  503  502 -0.00000000000E+00 -0.00000000000E+00 -0.65416222014E+03  0.65416222014E+03  0.00000000000E+00 0.  1.
         21    1    1    2  503  505  0.90087820576E+02  0.18546063631E+02 -0.59466751588E+02  0.10952655585E+03  0.00000000000E+00 0.  1.
         21    1    1    2  504  502 -0.50223069574E+02 -0.18080052539E+01 -0.47373976897E+03  0.47639793693E+03  0.00000000000E+00 0.  1.
         21    1    1    2  505  501 -0.22835139492E+02 -0.69224408994E+02 -0.36949416573E+02  0.81723446949E+02  0.00000000000E+00 0.  1.
         21    1    1    2  506  504 -0.17029611510E+02  0.52486350617E+02 -0.13672077346E+02  0.56848486068E+02  0.00000000000E+00 0.  1.
<scales pt_clust_3="67.43609" pt_clust_4="50.25560" pt_clust_5="14000.00000" pt_clust_6="58.66972"></scales>
<clustering>
<clus scale="   50.256">  2  4  1 -1</clus>
<clus scale="   58.670">  1  6  2 -1</clus>
<clus scale="   67.436">  2  3  1 -1</clus>
<clus scale="   58.670">  1  3  2 -1</clus>
</clustering>
</event>
<event>
 6    0  0.4227619E+002  0.7632810E+02  0.7546771E-02  0.1339807E+00
         21   -1    0    0  505  501  0.00000000000E+00  0.00000000000E+00  0.45569142857E+03  0.45569142857E+03  0.00000000000E+00 0. -1.
         21   -1    0    0  506  502 -0.00000000000E+00 -0.00000000000E+00 -0.55478090134E+02  0.55478090134E+02  0.00000000000E+00 0. -1.
         21    1    1    2  503  502 -0.32797479465E+02 -0.71971214087E+02  0.28227912681E+02  0.83978243437E+02  0.00000000000E+00 0. -1.
         21    1    1    2  504  501  0.28672296483E+02  0.23827601320E+02  0.85646819092E+02  0.93408954554E+02  0.00000000000E+00 0. -1.
         21    1    1    2  505  503  0.40507771667E+02 -0.34823991022E+02  0.20561682284E+03  0.21244262225E+03  0.00000000000E+00 0. -1.
         21    1    1    2  506  504 -0.36382588686E+02  0.82967603790E+02  0.80721783824E+02  0.12133969846E+03  0.00000000000E+00 0. -1.
<scales pt_clust_3="76.32810" pt_clust_4="37.28076" pt_clust_5="60.70594" pt_clust_6="14000.00000"></scales>
<clustering>
<clus scale="   37.281">  1  4  2 -1</clus>
<clus scale="   60.706">  1  5  2 -1</clus>
<clus scale="   76.328">  2  3  1 -1</clus>
<clus scale="   37.281">  1  3  2 -1</clus>
</clustering>
</event>
<event>
 6    0  0.4227619E+002  0.1070740E+03  0.7546771E-02  0.1266086E+00
         21   -1    0    0  505  501  0.00000000000E+00  0.00000000000E+00  0.62530369930E+03  0.62530369930E+03  0.00000000000E+00 0.  1.
         21   -1    0    0  503  502 -0.00000000000E+00 -0.00000000000E+00 -0.38873461901E+02  0.38873461901E+02  0.00000000000E+00 0.  1.
         21    1    1    2  503  506 -0.95044194381E+00  0.43047389111E+02  0.16687804431E+02  0.46178608315E+02  0.00000000000E+00 0.  1.
         21    1    1    2  504  501  0.68115826750E+01 -0.13035215006E+03  0.31815766245E+03  0.34389297588E+03  0.00000000000E+00 0.  1.
         21    1    1    2  505  502  0.11676512055E+02  0.39704993765E+02  0.18932766023E+03  0.19379832402E+03  0.00000000000E+00 0.  1.
         21    1    1    2  506  504 -0.17537652786E+02  0.47599767185E+02  0.62257110292E+02  0.80307252993E+02  0.00000000000E+00 0.  1.
<scales pt_clust_3="32.01660" pt_clust_4="101.27772" pt_clust_5="41.38632" pt_clust_6="32.01660"></scales>
<clustering>
<clus scale="   32.017">  3  6 -1 -1</clus>
<clus scale="   41.386">  1  5  2 -1</clus>
<clus scale="  101.278">  1  4  2 -1</clus>
<clus scale="   41.386">  1  3  2 -1</clus>
</clustering>
</event>
<event>
 6    0  0.4227619E+002  0.3052612E+03  0.7546771E-02  0.1082640E+00
         21   -1    0    0  506  501  0.00000000000E+00  0.00000000000E+00  0.73507842740E+03  0.73507842740E+03  0.00000000000E+00 0. -1.
         21   -1    0    0  505  502 -0.00000000000E+00 -0.00000000000E+00 -0.66635840186E+03  0.66635840186E+03  0.00000000000E+00 0. -1.
         21    1    1    2  503  502 -0.13847807566E+02 -0.47066508857E+02 -0.22644488743E+02  0.54035089532E+02  0.00000000000E+00 0. -1.
         21    1    1    2  504  501 -0.12475771293E+03 -0.84993398632E+02 -0.35809825770E+03  0.38861642646E+03  0.00000000000E+00 0. -1.
         21    1    1    2  505  504 -0.36804666059E+01 -0.11202540349E+03 -0.21183591219E+03  0.23966161677E+03  0.00000000000E+00 0. -1.
         21    1    1    2  506  503  0.14228598710E+03  0.24408531098E+03  0.66129868418E+03  0.71912369649E+03  0.00000000000E+00 0. -1.
<scales pt_clust_3="49.06137" pt_clust_4="103.96903" pt_clust_5="103.96903" pt_clust_6="280.33701"></scales>
<clustering>
<clus scale="   49.061">  2  3  1 -1</clus>
<clus scale="  103.969">  4  5 -1 -1</clus>
<clus scale="  280.337">  1  6  2 -1</clus>
<clus scale="  280.337">  1  3  2 -1</clus>
</clustering>
</event>
<event>
 6    0  0.4227619E+002  0.7588767E+02  0.7546771E-02  0.1341144E+00
         21   -1    0    0  504  501  0.00000000000E+00  0.00000000000E+00  0.80732350097E+02  0.80732350097E+02  0.00000000000E+00 0.  1.
         21   -1    0    0  506  502 -0.00000000000E+00 -0.00000000000E+00 -0.49871571823E+03  0.49871571823E+03  0.00000000000E+00 0.  1.
         21    1    1    2  503  505 -0.10991023633E+03 -0.50040596928E+01 -0.96461803541E+02  0.14632217947E+03  0.00000000000E+00 0.  1.
         21    1    1    2  504  503  0.32065528516E+02 -0.37497980118E+02  0.29068114813E+02  0.57264752953E+02  0.00000000000E+00 0.  1.
         21    1    1    2  505  502  0.70068789465E+02  0.10013172251E+02 -0.32796107437E+03  0.33551209394E+03  0.00000000000E+00 0.  1.
         21    1    1    2  506  501  0.77759183495E+01  0.32488867560E+02 -0.22628605035E+02  0.40349041963E+02  0.00000000000E+00 0.  1.
<scales pt_clust_3="75.88767" pt_clust_4="40.90209" pt_clust_5="14000.00000" pt_clust_6="33.40646"></scales>
<clustering>
<clus scale="   33.406">  1  6  2 -1</clus>
<clus scale="   40.902">  1  4  2 -1</clus>
<clus scale="   75.888">  1  3  2 -1</clus>
<clus scale="   33.406">  1  3  2 -1</clus>
</clustering>
</event>
<event>
 6    0  0.4227619E+002  0.9952503E+02  0.7546771E-02  0.1281298E+00
         21   -1    0    0  506  501  0.00000000000E+00  0.00000000000E+00  0.37717769831E+03  0.37717769831E+03  0.00000000000E+00 0. -1.
         21   -1    0    0  503  502 -0.00000000000E+00 -0.00000000000E+00 -0.14724622453E+03  0.14724622453E+03  0.00000000000E+00 0.  1.
         21    1    1    2  503  501  0.39853817261E+02 -0.15068896351E+02  0.43871655174E+02  0.61156524715E+02  0.00000000000E+00 0. -1.
         21    1    1    2  504  505 -0.51097290086E+01  0.11451430739E+03 -0.46967395774E+02  0.12387724647E+03  0.00000000000E+00 0.  1.
         21    1    1    2  505  502  0.36105962220E+01 -0.85494082565E+02 -0.15989198873E+02  0.87051301193E+02  0.00000000000E+00 0. -1.
         21    1    1    2  506  504 -0.38354684474E+02 -0.13951328472E+02  0.24901641325E+03  0.25233885047E+03  0.00000000000E+00 0. -1.
<scales pt_clust_3="31.74717" pt_clust_4="99.52503" pt_clust_5="14000.00000" pt_clust_6="40.81325"></scales>
<clustering>
<clus scale="   40.813">  1  6  2 -1</clus>
<clus scale="   31.747">  1  3  2 -1</clus>
<clus scale="   99.525">  1  4  2 -1</clus>
<clus scale="   40.813">  1  3  2 -1</clus>
</clustering>
</event>
<event>
 6    0  0.4227619E+002  0.1414559E+03  0.7546771E-02  0.1211383E+00
         21   -1    0    0  503  501  0.00000000000E+00  0.00000000000E+00  0.29063856000E+03  0.29063856000E+03  0.00000000000E+00 0. -1.
         21   -1    0    0  504  502 -0.00000000000E+00 -0.00000000000E+00 -0.55387412720E+03  0.55387412720E+03  0.00000000000E+00 0. -1.
         21    1    1    2  503  506 -0.42766052617E+02 -0.74467006064E+02  0.20118628117E+03  0.21874686278E+03  0.00000000000E+00 0. -1.
         21    1    1    2  504  505  0.27378418014E+01  0.62593378841E+02 -0.25842303765E+03  0.26590955838E+03  0.00000000000E+00 0. -1.
         21    1    1    2  505  501  0.16450646615E+03  0.34760307743E+02 -0.10872828917E+03  0.20023110963E+03  0.00000000000E+00 0. -1.
         21    1    1    2  506  502 -0.12447825533E+03 -0.22886680520E+02 -0.97270521553E+02  0.15962515641E+03  0.00000000000E+00 0. -1.
<scales pt_clust_3="84.20321" pt_clust_4="62.65323" pt_clust_5="14000.00000" pt_clust_6="141.45592"></scales>
<clustering>
<clus scale="   62.653">  2  4  1 -1</clus>
<clus scale="   84.203">  1  3  2 -1</clus>
<clus scale="  141.456">  2  6  1 -1</clus>
<clus scale="   84.203">  1  3  2 -1</clus>
</clustering>
</event>
<event>
 6    0  0.4227619E+002  0.6175894E+02  0.7546771E-02  0.1390595E+00
         21   -1    0    0  505  501  0.00000000000E+00  0.00000000000E+00  0.13074390086E+04  0.13074390086E+04  0.00000000000E+00 0.  1.
         21   -1    0    0  504  502 -0.00000000000E+00 -0.00000000000E+00 -0.31141102407E+03  0.31141102407E+03  0.00000000000E+00 0.  1.
         21    1    1    2  503  506 -0.86890437924E+02  0.44755630690E+02  0.25185429125E+03  0.27015476806E+03  0.00000000000E+00 0. -1.
         21    1    1    2  504  503  0.47704991893E+02 -0.38574810169E+02 -0.29621826597E+03  0.30250461703E+03  0.00000000000E+00 0.  1.
         21    1    1    2  505  502  0.40611699584E+02  0.39404566184E+02  0.76097591111E+03  0.76307690783E+03  0.00000000000E+00 0.  1.
         21    1    1    2  506  501 -0.14262535533E+01 -0.45585386704E+02  0.27941604815E+03  0.28311373977E+03  0.00000000000E+00 0. -1.
<scales pt_clust_3="14000.00000" pt_clust_4="61.75894" pt_clust_5="39.94053" pt_clust_6="45.60769"></scales>
<clustering>
<clus scale="   45.608">  1  6  2 -1</clus>
<clus scale="   39.941">  1  5  2 -1</clus>
<clus scale="   61.759">  2  4  1 -1</clus>
<clus scale="   45.608">  1  3  2 -1</clus>
</clustering>
</event>
<event>
 6    0  0.4227619E+002  0.9685457E+02  0.7546771E-02  0.1287053E+00
         21   -1    0    0  506  501  0.00000000000E+00  0.00000000000E+00  0.24693741107E+03  0.24693741107E+03  0.00000000000E+00 0.  1.
         21   -1    0    0  503  502 -0.00000000000E+00 -0.00000000000E+00 -0.34044222788E+04  0.34044222788E+04  0.00000000000E+00 0. -1.
         21    1    1    2  503  504  0.29143021235E+02 -0.93003183299E+02 -0.33345265917E+04  0.33359506139E+04  0.00000000000E+00 0. -1.
         21    1    1    2  504  505 -0.13484243206E+02  0.71580160259E+02 -0.17485437844E+02  0.74908508823E+02  0.00000000000E+00 0. -1.
         21    1    1    2  505  501  0.60714259328E+02 -0.40256556430E+01  0.87535223586E+02  0.10660601558E+03  0.00000000000E+00 0.  1.
         21    1    1    2  506  502 -0.76373037356E+02  0.25448678683E+02  0.10699193824E+03  0.13389455153E+03  0.00000000000E+00 0.  1.
<scales pt_clust_3="14000.00000" pt_clust_4="96.85457" pt_clust_5="60.84757" pt_clust_6="35.41228"></scales>
<clustering>
<clus scale="   60.848">  1  5  2 -1</clus>
<clus scale="   35.412">  1  6  2 -1</clus>
<clus scale="   96.855">  1  4  2 -1</clus>
<clus scale="   60.848">  1  3  2 -1</clus>
</clustering>
</event>
<event>
 6    0  0.4227619E+002  0.1146017E+03  0.7546771E-02  0.1252278E+00
         21   -1    0    0  505  501  0.00000000000E+00  0.00000000000E+00  0.61033166987E+02  0.61033166987E+02  0.00000000000E+00 0. -1.
         21   -1    0    0  506  502 -0.00000000000E+00 -0.00000000000E+00 -0.18473427922E+04  0.18473427922E+04  0.00000000000E+00 0. -1.
         21    1    1    2  503  504  0.39854421842E+02  0.34330984347E+02 -0.27941722899E+02  0.59562834932E+02  0.00000000000E+00 0. -1.
         21    1    1    2  504  501 -0.14293178640E+02  0.46916376708E+02 -0.26685789813E+02  0.55835228459E+02  0.00000000000E+00 0. -1.
         21    1    1    2  505  502 -0.50021487671E+02 -0.11199662978E+03 -0.93265929532E+02  0.15409064839E+03  0.00000000000E+00 0. -1.
         21    1    1    2  506  503  0.24460244469E+02  0.30749268723E+02 -0.16384161830E+04  0.16388872474E+04  0.00000000000E+00 0. -1.
<scales pt_clust_3="52.24148" pt_clust_4="52.24148" pt_clust_5="100.27718" pt_clust_6="39.29149"></scales>
<clustering>
<clus scale="   39.291">  2  6  1 -1</clus>
<clus scale="   52.241">  3  4 -1 -1</clus>
<clus scale="  100.277">  2  5  1 -1</clus>
<clus scale="  114.602">  1  3  2 -1</clus>
</clustering>
</event>
<event>
 6    0  0.4227619E+002  0.9895136E+02  0.7546771E-02  0.1282517E+00
         21   -1    0    0  506  501  0.00000000000E+00  0.00000000000E+00  0.11615537497E+04  0.11615537497E+04  0.00000000000E+00 0.  1.
         21   -1    0    0  505  502 -0.00000000000E+00 -0.00000000000E+00 -0.12919098494E+03  0.12919098494E+03  0.00000000000E+00 0. -1.
         21    1    1    2  503  504 -0.12898371649E+03  0.64563450967E+02  0.12825590396E+03  0.19301506476E+03  0.00000000000E+00 0.  1.
         21    1    1    2  504  502  0.77099667831E+02  0.88354748873E+01 -0.68595721564E+02  0.10357508104E+03  0.00000000000E+00 0. -1.
         21    1    1    2  505  501  0.87264324414E+02 -0.28114817208E+02  0.88218279667E+03  0.88693404039E+03  0.00000000000E+00 0.  1.
         21    1    1    2  506  503 -0.35380275751E+02 -0.45284108646E+02  0.90519785687E+02  0.10722054845E+03  0.00000000000E+00 0.  1.
<scales pt_clust_3="14000.00000" pt_clust_4="76.94388" pt_clust_5="98.95136" pt_clust_6="57.46664"></scales>
<clustering>
<clus scale="   57.467">  1  6  2 -1</clus>
<clus scale="   76.944">  2  4  1 -1</clus>
<clus scale="   98.951">  1  5  2 -1</clus>
<clus scale="   57.467">  1  3  2 -1</clus>
</clustering>
</event>
<event>
 6    0  0.4227619E+002  0.1104055E+03  0.7546771E-02  0.1259821E+00
         21   -1    0    0  506  501  0.00000000000E+00  0.00000000000E+00  0.20782706869E+03  0.20782706869E+03  0.00000000000E+00 0. -1.
         21   -1    0    0  503  502 -0.00000000000E+00 -0.00000000000E+00 -0.28357573127E+03  0.28357573127E+03  0.00000000000E+00 0. -1.
         21    1    1    2  503  504 -0.35824180770E+02  0.36767145258E+02 -0.15276725331E+03  0.16116149845E+03  0.00000000000E+00 0. -1.
         21    1    1    2  504  501  0.90769820342E+02  0.82552417716E+02 -0.41199307542E+02  0.12942737306E+03  0.00000000000E+00 0. -1.
         21    1    1    2  505  502 -0.25850596139E+02 -0.95772543516E+02  0.27902152995E+02  0.10304932583E+03  0.00000000000E+00 0. -1.
         21    1    1    2  506  505 -0.29095043432E+02 -0.23547019458E+02  0.90315745283E+02  0.97764602611E+02  0.00000000000E+00 0. -1.
<scales pt_clust_3="51.47937" pt_clust_4="14000.00000" pt_clust_5="110.40554" pt_clust_6="37.42972"></scales>
<clustering>
<clus scale="   37.430">  1  6  2 -1</clus>
<clus scale="   51.479">  2  3  1 -1</clus>
<clus scale="  110.406">  1  5  2 -1</clus>
<clus scale="   37.430">  1  3  2 -1</clus>
</clustering>
</event>
<event>
 6    0  0.4227619E+002  0.9560509E+02  0.7546771E-02  0.1289819E+00
         21   -1    0    0  506  501  0.00000000000E+00  0.00000000000E+00  0.40880297171E+03  0.40880297171E+03  0.00000000000E+00 0.  1.
         21   -1    0    0  504  502 -0.00000000000E+00 -0.00000000000E+00 -0.68406532478E+02  0.68406532478E+02  0.00000000000E+00 0.  1.
         21    1    1    2  503  502 -0.87223985147E+02 -0.34937676703E+02  0.14609842339E+02  0.95090022250E+02  0.00000000000E+00 0.  1.
         21    1    1    2  504  505  0.87287799129E+02  0.47582765812E+02  0.89780204511E+02  0.13395433775E+03  0.00000000000E+00 0.  1.
         21    1    1    2  505  501 -0.19012048963E+02 -0.36788193979E+02  0.91483129533E+02  0.10041908290E+03  0.00000000000E+00 0.  1.
         21    1    1    2  506  503  0.18948234982E+02  0.24143104870E+02  0.14452326285E+03  0.14774606129E+03  0.00000000000E+00 0.  1.
<scales pt_clust_3="14000.00000" pt_clust_4="95.60509" pt_clust_5="30.47023" pt_clust_6="30.69080"></scales>
<clustering>
<clus scale="   30.691">  1  6  2 -1</clus>
<clus scale="   30.470">  1  5  2 -1</clus>
<clus scale="   95.605">  1  4  2 -1</clus>
<clus scale="   30.691">  1  3  2 -1</clus>
</clustering>
</event>
<event>
 6    0  0.4227619E+002  0.2221021E+03  0.7546771E-02  0.1132325E+00
         21   -1    0    0  504  501  0.00000000000E+00  0.00000000000E+00  0.10385138099E+03  0.10385138099E+03  0.00000000000E+00 0. -1.
         21   -1    0    0  506  502 -0.00000000000E+00 -0.00000000000E+00 -0.98490311685E+03  0.98490311685E+03  0.00000000000E+00 0. -1.
         21    1    1    2  503  502 -0.17647789108E+02 -0.70810475251E+02 -0.14672925038E+03  0.16387507676E+03  0.00000000000E+00 0. -1.
         21    1    1    2  504  503 -0.25007733847E+03  0.46263191042E+01 -0.26613976567E+03  0.36522657750E+03  0.00000000000E+00 0. -1.
         21    1    1    2  505  501  0.65507236347E+02 -0.37405957655E+02 -0.80680301180E+02  0.11045231858E+03  0.00000000000E+00 0. -1.
         21    1    1    2  506  505  0.20221789123E+03  0.10359011380E+03 -0.38750241863E+03  0.44920052500E+03  0.00000000000E+00 0. -1.
<scales pt_clust_3="72.97649" pt_clust_4="14000.00000" pt_clust_5="78.13433" pt_clust_6="222.10209"></scales>
<clustering>
<clus scale="   72.976">  2  3  1 -1</clus>
<clus scale="   78.134">  1  5  2 -1</clus>
<clus scale="  222.102">  2  6  1 -1</clus>
<clus scale="   78.134">  1  3  2 -1</clus>
</clustering>
</event>
<event>
 6    0  0.4227619E+002  0.7999355E+02  0.7546771E-02  0.1329070E+00
         21   -1    0    0  503  501  0.00000000000E+00  0.00000000000E+00  0.15430930854E+03  0.15430930854E+03  0.00000000000E+00 0.  1.
         21   -1    0    0  506  502 -0.00000000000E+00 -0.00000000000E+00 -0.41454818254E+03  0.41454818254E+03  0.00000000000E+00 0.  1.
         21    1    1    2  503  502 -0.47954638141E+02 -0.75289763315E+02  0.79583331477E+02  0.11958972543E+03  0.00000000000E+00 0.  1.
         21    1    1    2  504  505  0.10422716899E+03  0.75835806033E+02 -0.19363902973E+03  0.23261652149E+03  0.00000000000E+00 0.  1.
         21    1    1    2  505  501 -0.78107487030E+01  0.29388219635E+02  0.23005997141E+02  0.38130711416E+02  0.00000000000E+00 0.  1.
         21    1    1    2  506  504 -0.48461782150E+02 -0.29934262353E+02 -0.16918917289E+03  0.17852053275E+03  0.00000000000E+00 0.  1.
<scales pt_clust_3="79.99355" pt_clust_4="14000.00000" pt_clust_5="30.40847" pt_clust_6="56.64030"></scales>
<clustering>
<clus scale="   30.408">  1  5  2 -1</clus>
<clus scale="   56.640">  2  6  1 -1</clus>
<clus scale="   79.994">  1  3  2 -1</clus>
<clus scale="   30.408">  1  3  2 -1</clus>
</clustering>
</event>
<event>
 6    0  0.4227619E+002  0.1110579E+03  0.7546771E-02  0.1258623E+00
         21   -1    0    0  504  501  0.00000000000E+00  0.00000000000E+00  0.96357910352E+02  0.96357910352E+02  0.00000000000E+00 0. -1.
         21   -1    0    0  503  502 -0.00000000000E+00 -0.00000000000E+00 -0.32812525232E+03  0.32812525232E+03  0.00000000000E+00 0.  1.
         21    1    1    2  503  506 -0.85637668464E+01 -0.29316929047E+02 -0.96446574346E+02  0.10116700121E+03  0.00000000000E+00 0.  1.
         21    1    1    2  504  505  0.88833423305E+02 -0.54664117997E+02  0.63453679188E+01  0.10449787838E+03  0.00000000000E+00 0. -1.
         21    1    1    2  505  502 -0.11151947009E+03  0.70048344689E+02 -0.12102855373E+03  0.17886104556E+03  0.00000000000E+00 0.  1.
         21    1    1    2  506  501  0.31249813629E+02  0.13932702355E+02 -0.20637581813E+02  0.39957237515E+02  0.00000000000E+00 0. -1.
<scales pt_clust_3="30.54211" pt_clust_4="111.05792" pt_clust_5="14000.00000" pt_clust_6="31.75386"></scales>
<clustering>
<clus scale="   30.542">  2  3  1 -1</clus>
<clus scale="   31.754">  2  6  1 -1</clus>
<clus scale="  111.058">  1  4  2 -1</clus>
<clus scale="  111.058">  1  3  2 -1</clus>
</clustering>
</event>
<event>
 6    0  0.4227619E+002  0.7619847E+02  0.7546771E-02  0.1340199E+00
         21   -1    0    0  505  501  0.00000000000E+00  0.00000000000E+00  0.17035361384E+04  0.17035361384E+04  0.00000000000E+00 0.  1.
         21   -1    0    0  504  502 -0.00000000000E+00 -0.00000000000E+00 -0.16583360627E+02  0.16583360627E+02  0.00000000000E+00 0.  1.
         21    1    1    2  503  501  0.38861583175E+02 -0.83183545951E+00  0.23420828040E+03  0.23741194832E+03  0.00000000000E+00 0.  1.
         21    1    1    2  504  506 -0.20735205080E+02 -0.30573268575E+02  0.12675163219E+03  0.13202518603E+03  0.00000000000E+00 0.  1.
         21    1    1    2  505  502  0.16904777425E+02  0.10069715911E+03  0.22649644620E+03  0.24844784060E+03  0.00000000000E+00 0.  1.
         21    1    1    2  506  503 -0.35031155519E+02 -0.69292055078E+02  0.10994964190E+04  0.11022345241E+04  0.00000000000E+00 0.  1.
<scales pt_clust_3="36.73769" pt_clust_4="36.94149" pt_clust_5="76.19847" pt_clust_6="14000.00000"></scales>
<clustering>
<clus scale="   36.941">  2  4  1 -1</clus>
<clus scale="   36.738">  1  3  2 -1</clus>
<clus scale="   76.198">  2  5  1 -1</clus>
<clus scale="   36.738">  1  3  2 -1</clus>
</clustering>
</event>
<event>
 6    0  0.4227619E+002  0.6991372E+02  0.7546771E-02  0.1360387E+00
         21   -1    0    0  505  501  0.00000000000E+00  0.00000000000E+00  0.97798070689E+03  0.97798070689E+03  0.00000000000E+00 0. -1.
         21   -1    0    0  504  502 -0.00000000000E+00 -0.00000000000E+00 -0.57522568878E+02  0.57522568878E+02  0.00000000000E+00 0. -1.
         21    1    1    2  503  506 -0.30650688171E+02 -0.46108927731E+02  0.32574215115E+02  0.64238441702E+02  0.00000000000E+00 0.  1.
         21    1    1    2  504  501  0.49975111620E+02  0.93444107611E+02  0.69619660170E+03  0.70421518107E+03  0.00000000000E+00 0. -1.
         21    1    1    2  505  503  0.13724307925E+02 -0.55245708530E+02  0.21721308173E+03  0.22454836408E+03  0.00000000000E+00 0. -1.
         21    1    1    2  506  502 -0.33048731374E+02  0.79105286505E+01 -0.25525760529E+02  0.42501288916E+02  0.00000000000E+00 0. -1.
<scales pt_clust_3="14000.00000" pt_clust_4="69.91372" pt_clust_5="54.68701" pt_clust_6="33.98228"></scales>
<clustering>
<clus scale="   33.982">  2  6  1 -1</clus>
<clus scale="   54.687">  1  5  2 -1</clus>
<clus scale="   69.914">  1  4  2 -1</clus>
<clus scale="   54.687">  1  3  2 -1</clus>
</clustering>
</event>
<event>
 6    0  0.4227619E+002  0.6480026E+02  0.7546771E-02  0.1378724E+00
         21   -1    0    0  504  501  0.00000000000E+00  0.00000000000E+00  0.68325847355E+03  0.68325847355E+03  0.00000000000E+00 0.  1.
         21   -1    0    0  506  502 -0.00000000000E+00 -0.00000000000E+00 -0.34283309954E+03  0.34283309954E+03  0.00000000000E+00 0. -1.
         21    1    1    2  503  501  0.96328755928E+01  0.63682179961E+02  0.63580282438E+03  0.63905668280E+03  0.00000000000E+00 0.  1.
         21    1    1    2  504  505  0.22066489875E+02 -0.81925109280E+02 -0.21323146786E+02  0.87483313236E+02  0.00000000000E+00 0. -1.
         21    1    1    2  505  502  0.81203292000E+01 -0.38122847019E+02 -0.17194655061E+03  0.17630912477E+03  0.00000000000E+00 0. -1.
         21    1    1    2  506  503 -0.39819694668E+02  0.56365776338E+02 -0.10210775297E+03  0.12324245228E+03  0.00000000000E+00 0.  1.
<scales pt_clust_3="64.80026" pt_clust_4="14000.00000" pt_clust_5="38.97809" pt_clust_6="46.24041"></scales>
<clustering>
<clus scale="   38.978">  2  5  1 -1</clus>
<clus scale="   46.240">  2  6  1 -1</clus>
<clus scale="   64.800">  1  3  2 -1</clus>
<clus scale="   64.800">  1  3  2 -1</clus>
</clustering>
</event>
<event>
 6    0  0.4227619E+002  0.8869969E+02  0.7546771E-02  0.1306031E+00
         21   -1    0    0  505  501  0.00000000000E+00  0.00000000000E+00  0.10241025954E+03  0.10241025954E+03  0.00000000000E+00 0.  1.
         21   -1    0    0  504  502 -0.00000000000E+00 -0.00000000000E+00 -0.31031462330E+03  0.31031462330E+03  0.00000000000E+00 0.  1.
         21    1    1    2  503  502 -0.16821661863E+02 -0.24932964970E+02 -0.10575604909E+03  0.10994982023E+03  0.00000000000E+00 0.  1.
         21    1    1    2  504  506 -0.35175336823E+02 -0.37312695265E+01 -0.40599164040E+02  0.53847180183E+02  0.00000000000E+00 0.  1.
         21    1    1    2  505  503  0.71683360747E+02 -0.60243913245E+02 -0.11106888628E+03  0.14527260854E+03  0.00000000000E+00 0.  1.
         21    1    1    2  506  501 -0.19686362061E+02  0.88908147741E+02  0.49519735648E+02  0.10365527389E+03  0.00000000000E+00 0.  1.
<scales pt_clust_3="30.07692" pt_clust_4="40.24755" pt_clust_5="14000.00000" pt_clust_6="88.69969"></scales>
<clustering>
<clus scale="   30.077">  2  3  1 -1</clus>
<clus scale="   40.248">  2  4  1 -1</clus>
<clus scale="   88.700">  1  6  2 -1</clus>
<clus scale="   88.700">  1  3  2 -1</clus>
</clustering>
</event>
<event>
 6    0  0.4227619E+002  0.1683811E+03  0.7546771E-02  0.1179547E+00
         21   -1    0    0  503  501  0.00000000000E+00  0.00000000000E+00  0.93665182181E+03  0.93665182181E+03  0.00000000000E+00 0.  1.
         21   -1    0    0  505  502 -0.00000000000E+00 -0.00000000000E+00 -0.49422795137E+03  0.49422795137E+03  0.00000000000E+00 0. -1.
         21    1    1    2  503  502  0.80620224018E+01  0.51663151933E+02 -0.34205863006E+03  0.34603205614E+03  0.00000000000E+00 0. -1.
         21    1    1    2  504  506  0.50968068368E+02 -0.76224756492E+02  0.33939165162E+03  0.35156030874E+03  0.00000000000E+00 0.  1.
         21    1    1    2  505  504 -0.11413580006E+03  0.58925511263E+02 -0.11321233625E+03  0.17121982891E+03  0.00000000000E+00 0. -1.
         21    1    1    2  506  501  0.55105709286E+02 -0.34363906704E+02  0.55830318513E+03  0.56206757939E+03  0.00000000000E+00 0.  1.
<scales pt_clust_3="52.28841" pt_clust_4="62.12431" pt_clust_5="151.57104" pt_clust_6="62.12431"></scales>
<clustering>
<clus scale="   52.288">  2  3  1 -1</clus>
<clus scale="   62.124">  4  6 -1 -1</clus>
<clus scale="  151.571">  2  5  1 -1</clus>
<clus scale="  168.381">  1  3  2 -1</clus>
</clustering>
</event>
<event>
 6    0  0.4227619E+002  0.3832506E+03  0.7546771E-02  0.1049739E+00
         21   -1    0    0  505  501  0.00000000000E+00  0.00000000000E+00  0.19690568788E+04  0.19690568788E+04  0.00000000000E+00 0. -1.
         21   -1    0    0  503  502 -0.00000000000E+00 -0.00000000000E+00 -0.96721142267E+02  0.96721142267E+02  0.00000000000E+00 0. -1.
         21    1    1    2  503  506 -0.41273952067E+02  0.35490534412E+03  0.48843182755E+03  0.60516691298E+03  0.00000000000E+00 0. -1.
         21    1    1    2  504  501  0.37206943524E+02 -0.24792268647E+03  0.95558207224E+03  0.98792060000E+03  0.00000000000E+00 0. -1.
         21    1    1    2  505  502 -0.81915445772E+02 -0.45761199703E+02  0.21928498475E+03  0.23851652393E+03  0.00000000000E+00 0.  1.
         21    1    1    2  506  504  0.85982454315E+02 -0.61221457942E+02  0.20903685199E+03  0.23417398415E+03  0.00000000000E+00 0. -1.
<scales pt_clust_3="347.05741" pt_clust_4="98.78423" pt_clust_5="93.83085" pt_clust_6="98.78423"></scales>
<clustering>
<clus scale="   93.831">  1  5  2 -1</clus>
<clus scale="   98.784">  4  6 -1 -1</clus>
<clus scale="  347.057">  2  3  1 -1</clus>
<clus scale="   93.831">  1  3  2 -1</clus>
</clustering>
</event>
<event>
 6    0  0.4227619E+002  0.7424206E+02  0.7546771E-02  0.1346234E+00
         21   -1    0    0  505  501  0.00000000000E+00  0.00000000000E+00  0.24033451957E+04  0.24033451957E+04  0.00000000000E+00 0.  1.
         21   -1    0    0  503  502 -0.00000000000E+00 -0.00000000000E+00 -0.11450801524E+02  0.11450801524E+02  0.00000000000E+00 0.  1.
         21    1    1    2  503  504 -0.43424415806E+02  0.88544663208E+02  0.77791199128E+03  0.78413831908E+03  0.00000000000E+00 0.  1.
         21    1    1    2  504  501 -0.36761008425E+02 -0.33467162012E+02  0.45788493428E+03  0.46057576544E+03  0.00000000000E+00 0.  1.
         21    1    1    2  505  506  0.86602624451E+02  0.36043321185E+01  0.99035254629E+03  0.99413840672E+03  0.00000000000E+00 0.  1.
         21    1    1    2  506  502 -0.64172002199E+01 -0.58681833315E+02  0.16574492230E+03  0.17594350596E+03  0.00000000000E+00 0.  1.
<scales pt_clust_3="14000.00000" pt_clust_4="49.71341" pt_clust_5="74.24206" pt_clust_6="62.37350"></scales>
<clustering>
<clus scale="   49.713">  1  4  2 -1</clus>
<clus scale="   62.373">  2  6  1 -1</clus>
<clus scale="   74.242">  1  5  2 -1</clus>
<clus scale="   49.713">  1  3  2 -1</clus>
</clustering>
</event>
<event>
 6    0  0.4227619E+002  0.1017268E+03  0.7546771E-02  0.1276706E+00
         21   -1    0    0  504  501  0.00000000000E+00  0.00000000000E+00  0.45532689153E+02  0.45532689153E+02  0.00000000000E+00 0. -1.
         21   -1    0    0  505  502 -0.00000000000E+00 -0.00000000000E+00 -0.13911183497E+04  0.13911183497E+04  0.00000000000E+00 0. -1.
         21    1    1    2  503  501 -0.10759624394E+03  0.32731053338E+02 -0.39195462406E+02  0.11909894137E+03  0.00000000000E+00 0. -1.
         21    1    1    2  504  506  0.49576207883E+02 -0.47325431204E+02 -0.28728940781E+03  0.29535182523E+03  0.00000000000E+00 0. -1.
         21    1    1    2  505  503  0.35266021507E+02 -0.15421116167E+02 -0.66215157439E+03  0.66326933486E+03  0.00000000000E+00 0. -1.
         21    1    1    2  506  502  0.22754014545E+02  0.30015494033E+02 -0.35694921590E+03  0.35893093735E+03  0.00000000000E+00 0. -1.
<scales pt_clust_3="14000.00000" pt_clust_4="101.72678" pt_clust_5="50.00812" pt_clust_6="37.66530"></scales>
<clustering>
<clus scale="   37.665">  2  6  1 -1</clus>
<clus scale="   50.008">  2  5  1 -1</clus>
<clus scale="  101.727">  2  4  1 -1</clus>
<clus scale="  101.727">  1  3  2 -1</clus>
</clustering>
</event>
<event>
 6    0  0.4227619E+002  0.1743097E+03  0.7546771E-02  0.1173427E+00
         21   -1    0    0  505  501  0.00000000000E+00  0.00000000000E+00  0.22972672839E+03  0.22972672839E+03  0.00000000000E+00 0. -1.
         21   -1    0    0  503  502 -0.00000000000E+00 -0.00000000000E+00 -0.16654550944E+03  0.16654550944E+03  0.00000000000E+00 0.  1.
         21    1    1    2  503  506  0.19257044108E+01  0.34155209915E+02 -0.31274625998E+02  0.46350716641E+02  0.00000000000E+00 0.  1.
         21    1    1    2  504  502  0.35642812033E+00 -0.43570130693E+02  0.63706637367E+01  0.44034857625E+02  0.00000000000E+00 0.  1.
         21    1    1    2  505  504  0.10519063126E+03 -0.93894167364E+02  0.64131614081E+02  0.15490012103E+03  0.00000000000E+00 0. -1.
         21    1    1    2  506  501 -0.10747276379E+03  0.10330908814E+03  0.23953567138E+02  0.15098654254E+03  0.00000000000E+00 0.  1.
<scales pt_clust_3="34.20945" pt_clust_4="36.27760" pt_clust_5="36.27760" pt_clust_6="160.67333"></scales>
<clustering>
<clus scale="   34.209">  2  3  1 -1</clus>
<clus scale="   36.278">  4  5 -1 -1</clus>
<clus scale="  160.673">  2  6  1 -1</clus>
<clus scale="  174.310">  1  3  2 -1</clus>
</clustering>
</event>
<event>
 6    0  0.4227619E+002  0.9377329E+02  0.7546771E-02  0.1293963E+00
         21   -1    0    0  504  501  0.00000000000E+00  0.00000000000E+00  0.89305280396E+03  0.89305280396E+03  0.00000000000E+00 0.  1.
         21   -1    0    0  503  502 -0.00000000000E+00 -0.00000000000E+00 -0.59302757347E+02  0.59302757347E+02  0.00000000000E+00 0.  1.
         21    1    1    2  503  506 -0.47345668262E+01 -0.38422941822E+02  0.27281755172E+01  0.38809554532E+02  0.00000000000E+00 0. -1.
         21    1    1    2  504  502 -0.12269955143E+03 -0.29032133908E+02  0.14324945597E+03  0.19083618984E+03  0.00000000000E+00 0.  1.
         21    1    1    2  505  501  0.70204296365E+02  0.42947994672E+01  0.58491146056E+03  0.58912520335E+03  0.00000000000E+00 0.  1.
         21    1    1    2  506  505  0.57229821886E+02  0.63160276263E+02  0.10286095458E+03  0.13358461359E+03  0.00000000000E+00 0.  1.
<scales pt_clust_3="38.71355" pt_clust_4="93.77329" pt_clust_5="70.00143" pt_clust_6="14000.00000"></scales>
<clustering>
<clus scale="   38.714">  2  3  1 -1</clus>
<clus scale="   70.001">  1  5  2 -1</clus>
<clus scale="   93.773">  1  4  2 -1</clus>
<clus scale="   70.001">  1  3  2 -1</clus>
</clustering>
</event>
<event>
 6    0  0.4227619E+002  0.2036477E+03  0.7546771E-02  0.1146697E+00
         21   -1    0    0  503  501  0.00000000000E+00  0.00000000000E+00  0.42351215681E+03  0.42351215681E+03  0.00000000000E+00 0. -1.
         21   -1    0    0  505  502 -0.00000000000E+00 -0.00000000000E+00 -0.38550033855E+03  0.38550033855E+03  0.00000000000E+00 0. -1.
         21    1    1    2  503  504 -0.63127404522E+02 -0.87886895623E+02  0.25583312793E+03  0.27777646583E+03  0.00000000000E+00 0. -1.
         21    1    1    2  504  502  0.24814163775E+03  0.76339314295E+02 -0.15258625055E+03  0.30113871746E+03  0.00000000000E+00 0. -1.
         21    1    1    2  505  506 -0.29798006538E+02  0.42243201314E+01 -0.68344245627E+02  0.74677319077E+02  0.00000000000E+00 0. -1.
         21    1    1    2  506  501 -0.15521622669E+03  0.73232611961E+01  0.31091865176E+01  0.15541999300E+03  0.00000000000E+00 0. -1.
<scales pt_clust_3="108.70048" pt_clust_4="203.64766" pt_clust_5="30.09595" pt_clust_6="14000.00000"></scales>
<clustering>
<clus scale="   30.096">  2  5  1 -1</clus>
<clus scale="  108.700">  1  3  2 -1</clus>
<clus scale="  203.648">  2  4  1 -1</clus>
<clus scale="  108.700">  1  3  2 -1</clus>
</clustering>
</event>
<event>
 6    0  0.4227619E+002  0.8967396E+02  0.7546771E-02  0.1303643E+00
         21   -1    0    0  503  501  0.00000000000E+00  0.00000000000E+00  0.33592202363E+04  0.33592202363E+04  0.00000000000E+00 0.  1.
         21   -1    0    0  506  502 -0.00000000000E+00 -0.00000000000E+00 -0.24154135722E+03  0.24154135722E+03  0.00000000000E+00 0. -1.
         21    1    1    2  503  504 -0.35769600992E+02  0.28842571509E+01  0.37754588790E+03  0.37924751913E+03  0.00000000000E+00 0.  1.
         21    1    1    2  504  502  0.12829946847E+03  0.42891470063E+02  0.31788941931E+03  0.34547664859E+03  0.00000000000E+00 0.  1.
         21    1    1    2  505  501 -0.46204311344E+02 -0.35583078954E+02  0.26463366892E+04  0.26469791964E+04  0.00000000000E+00 0.  1.
         21    1    1    2  506  505 -0.46325556130E+02 -0.10192648261E+02 -0.22409311729E+03  0.22905822938E+03  0.00000000000E+00 0. -1.
<scales pt_clust_3="35.88570" pt_clust_4="14000.00000" pt_clust_5="89.67396" pt_clust_6="47.46219"></scales>
<clustering>
<clus scale="   35.886">  1  3  2 -1</clus>
<clus scale="   47.462">  2  6  1 -1</clus>
<clus scale="   89.674">  1  5  2 -1</clus>
<clus scale="   35.886">  1  3  2 -1</clus>
</clustering>
</event>
<event>
 6    0  0.4227619E+002  0.8536811E+02  0.7546771E-02  0.1314473E+00
         21   -1    0    0  506  501  0.00000000000E+00  0.00000000000E+00  0.83564308425E+02  0.83564308425E+02  0.00000000000E+00 0.  1.
         21   -1    0    0  504  502 -0.00000000000E+00 -0.00000000000E+00 -0.83210280491E+03  0.83210280491E+03  0.00000000000E+00 0.  1.
         21    1    1    2  503  502 -0.58188407223E+01  0.49955637293E+02 -0.13967267951E+03  0.14845161503E+03  0.00000000000E+00 0.  1.
         21    1    1    2  504  505  0.24483645114E+01 -0.12649671575E+03 -0.60449005893E+03  0.61758857254E+03  0.00000000000E+00 0.  1.
         21    1    1    2  505  501  0.14643494628E+01 -0.33491070622E+02 -0.19124115244E+02  0.38594402633E+02  0.00000000000E+00 0.  1.
         21    1    1    2  506  503  0.19061267480E+01  0.11003214908E+03  0.14748357209E+02  0.11103252312E+03  0.00000000000E+00 0.  1.
<scales pt_clust_3="48.30571" pt_clust_4="14000.00000" pt_clust_5="33.52307" pt_clust_6="85.36811"></scales>
<clustering>
<clus scale="   33.523">  1  5  2 -1</clus>
<clus scale="   48.306">  2  3  1 -1</clus>
<clus scale="   85.368">  1  6  2 -1</clus>
<clus scale="   33.523">  1  3  2 -1</clus>
</clustering>
</event>
<event>
 6    0  0.4227619E+002  0.1077090E+03  0.7546771E-02  0.1264872E+00
         21   -1    0    0  506  501  0.00000000000E+00  0.00000000000E+00  0.14862844660E+04  0.14862844660E+04  0.00000000000E+00 0.  1.
         21   -1    0    0  504  502 -0.00000000000E+00 -0.00000000000E+00 -0.42670115691E+03  0.42670115691E+03  0.00000000000E+00 0.  1.
         21    1    1    2  503  501 -0.11749976578E+03  0.19661790556E+02  0.11746725481E+04  0.11806982579E+04  0.00000000000E+00 0.  1.
         21    1    1    2  504  503  0.12719324839E+03 -0.62651898422E+02 -0.36900199212E+03  0.39530475964E+03  0.00000000000E+00 0.  1.
         21    1    1    2  505  502 -0.30289814453E+02  0.16673897297E+02 -0.33198183282E+02  0.47933402591E+02  0.00000000000E+00 0.  1.
         21    1    1    2  506  505  0.20596331841E+02  0.26316210570E+02  0.28711093636E+03  0.28904920273E+03  0.00000000000E+00 0.  1.
<scales pt_clust_3="14000.00000" pt_clust_4="107.70905" pt_clust_5="34.54357" pt_clust_6="33.41784"></scales>
<clustering>
<clus scale="   33.418">  1  6  2 -1</clus>
<clus scale="   34.544">  2  5  1 -1</clus>
<clus scale="  107.709">  2  4  1 -1</clus>
<clus scale="   33.418">  1  3  2 -1</clus>
</clustering>
</event>
<event>
 6    0  0.4227619E+002  0.1086614E+03  0.7546771E-02  0.1263069E+00
         21   -1    0    0  504  501  0.00000000000E+00  0.00000000000E+00  0.58829732802E+02  0.58829732802E+02  0.00000000000E+00 0.  1.
         21   -1    0    0  505  502 -0.00000000000E+00 -0.00000000000E+00 -0.63819261729E+03  0.63819261729E+03  0.00000000000E+00 0.  1.
         21    1    1    2  503  502  0.27363627126E+02 -0.24976387243E+02 -0.12554885636E+03  0.13090112048E+03  0.00000000000E+00 0.  1.
         21    1    1    2  504  503  0.31745130518E+02 -0.55923772984E+02 -0.15010075049E+02  0.66034264207E+02  0.00000000000E+00 0.  1.
         21    1    1    2  505  506  0.14324829471E+02  0.14113578798E+03 -0.30060852699E+03  0.33240035783E+03  0.00000000000E+00 0.  1.
         21    1    1    2  506  501 -0.73433587115E+02 -0.60235627755E+02 -0.13819542609E+03  0.16768660758E+03  0.00000000000E+00 0.  1.
<scales pt_clust_3="37.04845" pt_clust_4="67.11119" pt_clust_5="14000.00000" pt_clust_6="108.66137"></scales>
<clustering>
<clus scale="   37.048">  2  3  1 -1</clus>
<clus scale="   67.111">  1  4  2 -1</clus>
<clus scale="  108.661">  1  6  2 -1</clus>
<clus scale="   67.111">  1  3  2 -1</clus>
</clustering>
</event>
<event>
 6    0  0.4227619E+002  0.9709567E+02  0.7546771E-02  0.1286525E+00
         21   -1    0    0  506  501  0.00000000000E+00  0.00000000000E+00  0.25996413239E+03  0.25996413239E+03  0.00000000000E+00 0. -1.
         21   -1    0    0  503  502 -0.00000000000E+00 -0.00000000000E+00 -0.78915830111E+03  0.78915830111E+03  0.00000000000E+00 0.  1.
         21    1    1    2  503  505  0.47337075396E+02 -0.16974142241E+01 -0.48933300174E+03  0.49162024624E+03  0.00000000000E+00 0.  1.
         21    1    1    2  504  501 -0.10088477856E+03 -0.44644500218E+02  0.11429739915E+03  0.15885454163E+03  0.00000000000E+00 0. -1.
         21    1    1    2  505  504  0.40629361155E+02 -0.21334008669E+02 -0.26456060940E+03  0.26851108164E+03  0.00000000000E+00 0.  1.
         21    1    1    2  506  502  0.12918342009E+02  0.67675923110E+02  0.11040204327E+03  0.13013656399E+03  0.00000000000E+00 0. -1.
<scales pt_clust_3="33.74684" pt_clust_4="90.84080" pt_clust_5="33.74684" pt_clust_6="68.89785"></scales>
<clustering>
<clus scale="   33.747">  3  5 -1 -1</clus>
<clus scale="   68.898">  1  6  2 -1</clus>
<clus scale="   90.841">  1  4  2 -1</clus>
<clus scale="   68.898">  1  3  2 -1</clus>
</clustering>
</event>
<event>
 6    0  0.4227619E+002  0.7252536E+02  0.7546771E-02  0.1351710E+00
         21   -1    0    0  506  501  0.00000000000E+00  0.00000000000E+00  0.67371722515E+02  0.67371722515E+02  0.00000000000E+00 0.  1.
         21   -1    0    0  505  502 -0.00000000000E+00 -0.00000000000E+00 -0.32703842473E+03  0.32703842473E+03  0.00000000000E+00 0.  1.
         21    1    1    2  503  502  0.11575398766E+03 -0.10624185261E+02 -0.18274138116E+03  0.21657855702E+03  0.00000000000E+00 0.  1.
         21    1    1    2  504  501 -0.33345257067E+02 -0.37337306115E+02 -0.33809459389E+02  0.60407451039E+02  0.00000000000E+00 0.  1.
         21    1    1    2  505  504 -0.37857603982E+02  0.33689765689E+02 -0.48732578519E+02  0.70306917871E+02  0.00000000000E+00 0.  1.
         21    1    1    2  506  503 -0.44551126615E+02  0.14271725687E+02  0.56167168480E+01  0.47117221320E+02  0.00000000000E+00 0.  1.
<scales pt_clust_3="72.52536" pt_clust_4="57.91511" pt_clust_5="14000.00000" pt_clust_6="46.78125"></scales>
<clustering>
<clus scale="   46.781">  1  6  2 -1</clus>
<clus scale="   57.915">  1  4  2 -1</clus>
<clus scale="   72.525">  1  3  2 -1</clus>
<clus scale="   46.781">  1  3  2 -1</clus>
</clustering>
</event>
<event>
 6    0  0.4227619E+002  0.1052457E+03  0.7546771E-02  0.1269636E+00
         21   -1    0    0  503  501  0.00000000000E+00  0.00000000000E+00  0.44748527578E+03  0.44748527578E+03  0.00000000000E+00 0. -1.
         21   -1    0    0  504  502 -0.00000000000E+00 -0.00000000000E+00 -0.25411668052E+03  0.25411668052E+03  0.00000000000E+00 0. -1.
         21    1    1    2  503  506 -0.76931268223E+02  0.12279660184E+03  0.33394677671E+03  0.36403004701E+03  0.00000000000E+00 0. -1.
         21    1    1    2  504  505  0.19363195781E+02 -0.87038117309E+02 -0.17330123772E+03  0.19489455152E+03  0.00000000000E+00 0. -1.
         21    1    1    2  505  501  0.21129111653E+02 -0.34106893763E+02  0.76083904397E+02  0.86014417801E+02  0.00000000000E+00 0. -1.
         21    1    1    2  506  502  0.36438960789E+02 -0.16515907647E+01 -0.43360848127E+02  0.56662939967E+02  0.00000000000E+00 0. -1.
<scales pt_clust_3="105.24567" pt_clust_4="14000.00000" pt_clust_5="40.62890" pt_clust_6="36.47637"></scales>
<clustering>
<clus scale="   36.476">  2  6  1 -1</clus>
<clus scale="   40.629">  1  5  2 -1</clus>
<clus scale="  105.246">  1  3  2 -1</clus>
<clus scale="   40.629">  1  3  2 -1</clus>
</clustering>
</event>
<event>
 6    0  0.4227619E+002  0.8158266E+02  0.7546771E-02  0.1324619E+00
         21   -1    0    0  504  501  0.00000000000E+00  0.00000000000E+00  0.82158828917E+02  0.82158828917E+02  0.00000000000E+00 0. -1.
         21   -1    0    0  503  502 -0.00000000000E+00 -0.00000000000E+00 -0.48297575607E+03  0.48297575607E+03  0.00000000000E+00 0. -1.
         21    1    1    2  503  505  0.33359889578E+02  0.71611916994E+02 -0.34463472548E+03  0.35357353251E+03  0.00000000000E+00 0. -1.
         21    1    1    2  504  506  0.15547970519E+02 -0.30109095447E+02 -0.33525679351E+02  0.47668314338E+02  0.00000000000E+00 0.  1.
         21    1    1    2  505  501  0.13294174238E+02  0.49965847419E+02 -0.70690654046E+01  0.52185176656E+02  0.00000000000E+00 0. -1.
         21    1    1    2  506  502 -0.62202034335E+02 -0.91468668965E+02 -0.15587456915E+02  0.11170756148E+03  0.00000000000E+00 0. -1.
<scales pt_clust_3="81.58266" pt_clust_4="33.88653" pt_clust_5="44.69030" pt_clust_6="14000.00000"></scales>
<clustering>
<clus scale="   33.887">  1  4  2 -1</clus>
<clus scale="   44.690">  1  5  2 -1</clus>
<clus scale="   81.583">  2  3  1 -1</clus>
<clus scale="   33.887">  1  3  2 -1</clus>
</clustering>
</event>
<event>
 6    0  0.4227619E+002  0.6516595E+02  0.7546771E-02  0.1377348E+00
         21   -1    0    0  503  501  0.00000000000E+00  0.00000000000E+00  0.14805922252E+03  0.14805922252E+03  0.00000000000E+00 0. -1.
         21   -1    0    0  505  502 -0.00000000000E+00 -0.00000000000E+00 -0.17968932326E+03  0.17968932326E+03  0.00000000000E+00 0. -1.
         21    1    1    2  503  504  0.20641042994E+02  0.43795602330E+02  0.32867001161E+02  0.58517922080E+02  0.00000000000E+00 0. -1.
         21    1    1    2  504  502 -0.19797110209E+00  0.60625154307E+02 -0.10118520199E+03  0.11795716862E+03  0.00000000000E+00 0. -1.
         21    1    1    2  505  506  0.17228463857E+02 -0.10579521890E+03  0.37525223042E+02  0.11356755996E+03  0.00000000000E+00 0. -1.
         21    1    1    2  506  501 -0.37671535749E+02  0.13744622678E+01 -0.83712295052E+00  0.37705895124E+02  0.00000000000E+00 0. -1.
<scales pt_clust_3="44.88791" pt_clust_4="14000.00000" pt_clust_5="65.16595" pt_clust_6="37.69660"></scales>
<clustering>
<clus scale="   37.697">  1  6  2 -1</clus>
<clus scale="   44.888">  1  3  2 -1</clus>
<clus scale="   65.166">  1  5  2 -1</clus>
<clus scale="   37.697">  1  3  2 -1</clus>
</clustering>
</event>
<event>
 6    0  0.4227619E+002  0.1391843E+03  0.7546771E-02  0.1214431E+00
         21   -1    0    0  505  501  0.00000000000E+00  0.00000000000E+00  0.14291418077E+03  0.14291418077E+03  0.00000000000E+00 0.  1.
         21   -1    0    0  506  502 -0.00000000000E+00 -0.00000000000E+00 -0.13252062667E+04  0.13252062667E+04  0.00000000000E+00 0.  1.
         21    1    1    2  503  504 -0.44436416418E+02  0.85534279913E+02 -0.95839522060E+02  0.13592616427E+03  0.00000000000E+00 0.  1.
         21    1    1    2  504  502 -0.46621445559E+02  0.60456506630E+01 -0.90642017164E+03  0.90763849446E+03  0.00000000000E+00 0.  1.
         21    1    1    2  505  503  0.11929047137E+03 -0.10834758268E+03  0.67600857861E+02  0.17475494619E+03  0.00000000000E+00 0.  1.
         21    1    1    2  506  501 -0.28232609396E+02  0.16767652108E+02 -0.24763325007E+03  0.24980084254E+03  0.00000000000E+00 0.  1.
<scales pt_clust_3="14000.00000" pt_clust_4="73.24279" pt_clust_5="139.18431" pt_clust_6="32.83648"></scales>
<clustering>
<clus scale="   32.836">  2  6  1 -1</clus>
<clus scale="   73.243">  2  4  1 -1</clus>
<clus scale="  139.184">  1  5  2 -1</clus>
<clus scale="  139.184">  1  3  2 -1</clus>
</clustering>
</event>
<event>
 6    0  0.4227619E+002  0.1269958E+03  0.7546771E-02  0.1231983E+00
         21   -1    0    0  502  501  0.00000000000E+00  0.00000000000E+00  0.60726589665E+03  0.60726589665E+03  0.00000000000E+00 0. -1.
         21   -1    0    0  506  502 -0.00000000000E+00 -0.00000000000E+00 -0.10511420384E+04  0.10511420384E+04  0.00000000000E+00 0.  1.
         21    1    1    2  503  505  0.45126234391E+02  0.17588849433E+00  0.62447740784E+02  0.77046273732E+02  0.00000000000E+00 0. -1.
         21    1    1    2  504  503 -0.11441674252E+03  0.94828707160E+02 -0.38652687997E+02  0.15355033364E+03  0.00000000000E+00 0. -1.
         21    1    1    2  505  501 -0.28256653247E+02 -0.16148058873E+02  0.47536088810E+03  0.47647368468E+03  0.00000000000E+00 0. -1.
         21    1    1    2  506  504  0.97547161379E+02 -0.78856536781E+02 -0.94303208263E+03  0.95133764298E+03  0.00000000000E+00 0.  1.
<scales pt_clust_3="31.27077" pt_clust_4="126.99582" pt_clust_5="32.54533" pt_clust_6="14000.00000"></scales>
<clustering>
<clus scale="   32.545">  1  5  2 -1</clus>
<clus scale="   31.271">  1  3  2 -1</clus>
<clus scale="  126.996">  1  4  2 -1</clus>
<clus scale="   32.545">  1  3  2 -1</clus>
</clustering>
</event>
<event>
 6    0  0.4227619E+002  0.9183740E+02  0.7546771E-02  0.1298462E+00
         21   -1    0    0  506  501  0.00000000000E+00  0.00000000000E+00  0.67230117868E+02  0.67230117868E+02  0.00000000000E+00 0. -1.
         21   -1    0    0  503  502 -0.00000000000E+00 -0.00000000000E+00 -0.29473172623E+03  0.29473172623E+03  0.00000000000E+00 0. -1.
         21    1    1    2  503  501  0.21012650409E+02  0.88077116562E+02 -0.50330125028E+02  0.10359648365E+03  0.00000000000E+00 0. -1.
         21    1    1    2  504  502 -0.13825999046E+02  0.27029525386E+02 -0.77965367859E+02  0.83668106693E+02  0.00000000000E+00 0. -1.
         21    1    1    2  505  504  0.24185145915E+02 -0.10284438769E+03 -0.92351994865E+02  0.14032384087E+03  0.00000000000E+00 0. -1.
         21    1    1    2  506  505 -0.31371797279E+02 -0.12262254259E+02 -0.68541206139E+01  0.34373412886E+02  0.00000000000E+00 0. -1.
<scales pt_clust_3="91.83740" pt_clust_4="30.36039" pt_clust_5="14000.00000" pt_clust_6="34.10028"></scales>
<clustering>
<clus scale="   30.360">  2  4  1 -1</clus>
<clus scale="   34.100">  1  6  2 -1</clus>
<clus scale="   91.837">  1  3  2 -1</clus>
<clus scale="   34.100">  1  3  2 -1</clus>
</clustering>
</event>
<event>
 6    0  0.1054217E+003  0.1087332E+03  0.7546771E-02  0.1262934E+00
         21   -1    0    0  502  501  0.00000000000E+00  0.00000000000E+00  0.26139433252E+03  0.26139433252E+03  0.00000000000E+00 0. -1.
         21   -1    0    0  503  502 -0.00000000000E+00 -0.00000000000E+00 -0.34792307506E+04  0.34792307506E+04  0.00000000000E+00 0. -1.
         21    1    1    2  503  506  0.56173324597E+02  0.94792766159E+02 -0.30767925026E+04  0.30787648847E+04  0.00000000000E+00 0. -1.
         21    1    1    2  504  501 -0.34392452172E+02  0.68607461488E+01  0.24619096179E+03  0.24867629616E+03  0.00000000000E+00 0. -1.
         21    1    1    2  505  504  0.27408221233E+02 -0.24003915371E+02 -0.21394242736E+03  0.21702248909E+03  0.00000000000E+00 0. -1.
         21    1    1    2  506  505 -0.49189093658E+02 -0.77649596937E+02 -0.17329244991E+03  0.19616141322E+03  0.00000000000E+00 0. -1.
<scales pt_clust_3="14000.00000" pt_clust_4="35.07008" pt_clust_5="33.13705" pt_clust_6="108.73323"></scales>
<clustering>
<clus scale="   35.070">  1  4  2 -1</clus>
<clus scale="   33.137">  1  5  2 -1</clus>
<clus scale="  108.733">  1  6  2 -1</clus>
<clus scale="   35.070">  1  3  2 -1</clus>
</clustering>
</event>
<event>
 6    0  0.4227619E+002  0.7234078E+02  0.7546771E-02  0.1352309E+00
         21   -1    0    0  503  501  0.00000000000E+00  0.00000000000E+00  0.11476526703E+03  0.11476526703E+03  0.00000000000E+00 0. -1.
         21   -1    0    0  506  502 -0.00000000000E+00 -0.00000000000E+00 -0.15593149404E+03  0.15593149404E+03  0.00000000000E+00 0. -1.
         21    1    1    2  503  504 -0.64118264602E+01 -0.97718127659E+02  0.58288672801E+01  0.98101578405E+02  0.00000000000E+00 0. -1.
         21    1    1    2  504  502  0.53519536167E+02  0.50929985523E+02 -0.47941454640E+02  0.88071489427E+02  0.00000000000E+00 0. -1.
         21    1    1    2  505  501 -0.11885863274E+02  0.44234476783E+02  0.12305070693E+02  0.47427602161E+02  0.00000000000E+00 0. -1.
         21    1    1    2  506  505 -0.35221846433E+02  0.25536653530E+01 -0.11358710343E+02  0.37096091082E+02  0.00000000000E+00 0. -1.
<scales pt_clust_3="72.34078" pt_clust_4="14000.00000" pt_clust_5="47.55945" pt_clust_6="35.31430"></scales>
<clustering>
<clus scale="   35.314">  2  6  1 -1</clus>
<clus scale="   47.559">  1  5  2 -1</clus>
<clus scale="   72.341">  1  3  2 -1</clus>
<clus scale="   47.559">  1  3  2 -1</clus>
</clustering>
</event>
<event>
 6    0  0.4227619E+002  0.8869393E+02  0.7546771E-02  0.1306046E+00
         21   -1    0    0  505  501  0.00000000000E+00  0.00000000000E+00  0.19042588605E+03  0.19042588605E+03  0.00000000000E+00 0.  1.
         21   -1    0    0  504  502 -0.00000000000E+00 -0.00000000000E+00 -0.24295927105E+03  0.24295927105E+03  0.00000000000E+00 0.  1.
         21    1    1    2  503  506 -0.17356256563E+02 -0.10937842424E+03 -0.60016266141E+00  0.11074854187E+03  0.00000000000E+00 0.  1.
         21    1    1    2  504  503 -0.43804649185E+02  0.83521356778E+02 -0.85496898616E+01  0.94698265691E+02  0.00000000000E+00 0.  1.
         21    1    1    2  505  502  0.16809206645E+02 -0.37679391793E+02 -0.11515344015E+03  0.12232171014E+03  0.00000000000E+00 0.  1.
         21    1    1    2  506  501  0.44351699104E+02  0.63536459257E+02  0.71769907678E+02  0.10561663939E+03  0.00000000000E+00 0.  1.
<scales pt_clust_3="14000.00000" pt_clust_4="88.69393" pt_clust_5="41.25877" pt_clust_6="74.74211"></scales>
<clustering>
<clus scale="   41.259">  2  5  1 -1</clus>
<clus scale="   74.742">  1  6  2 -1</clus>
<clus scale="   88.694">  2  4  1 -1</clus>
<clus scale="   74.742">  1  3  2 -1</clus>
</clustering>
</event>
<event>
 6    0  0.4227619E+002  0.1082050E+03  0.7546771E-02  0.1263931E+00
         21   -1    0    0  506  501  0.00000000000E+00  0.00000000000E+00  0.37556389236E+03  0.37556389236E+03  0.00000000000E+00 0.  1.
         21   -1    0    0  503  502 -0.00000000000E+00 -0.00000000000E+00 -0.26901177414E+03  0.26901177414E+03  0.00000000000E+00 0.  1.
         21    1    1    2  503  504  0.48998954194E+02  0.44117960892E+02 -0.14198796816E+03  0.15654991245E+03  0.00000000000E+00 0.  1.
         21    1    1    2  504  501 -0.39056410292E+01  0.97168698416E+02 -0.77182531579E+01  0.97552967231E+02  0.00000000000E+00 0.  1.
         21    1    1    2  505  502 -0.10040351698E+03 -0.10307128839E+03  0.20533272674E+02  0.14534845028E+03  0.00000000000E+00 0.  1.
         21    1    1    2  506  505  0.55310203814E+02 -0.38215370916E+02  0.23572506686E+03  0.24512433654E+03  0.00000000000E+00 0.  1.
<scales pt_clust_3="65.93400" pt_clust_4="14000.00000" pt_clust_5="108.20497" pt_clust_6="67.87283"></scales>
<clustering>
<clus scale="   65.934">  2  3  1 -1</clus>
<clus scale="   67.873">  1  6  2 -1</clus>
<clus scale="  108.205">  2  5  1 -1</clus>
<clus scale="   67.873">  1  3  2 -1</clus>
</clustering>
</event>
<event>
 6    0  0.4227619E+002  0.7791099E+02  0.7546771E-02  0.1335086E+00
         21   -1    0    0  505  501  0.00000000000E+00  0.00000000000E+00  0.83009924331E+03  0.83009924331E+03  0.00000000000E+00 0.  1.
         21   -1    0    0  506  502 -0.00000000000E+00 -0.00000000000E+00 -0.44402496267E+03  0.44402496267E+03  0.00000000000E+00 0.  1.
         21    1    1    2  503  501  0.27231650133E+01 -0.35204265401E+02  0.32763269606E+03  0.32952987643E+03  0.00000000000E+00 0.  1.
         21    1    1    2  504  502 -0.43649270038E+02  0.12512684854E+02 -0.96648217080E+02  0.10678344404E+03  0.00000000000E+00 0.  1.
         21    1    1    2  505  504 -0.68374030113E+02 -0.68706591754E+01  0.48456979845E+03  0.48941812749E+03  0.00000000000E+00 0.  1.
         21    1    1    2  506  503  0.10930013514E+03  0.29562239722E+02 -0.32947999679E+03  0.34839275802E+03  0.00000000000E+00 0.  1.
<scales pt_clust_3="35.30943" pt_clust_4="45.28409" pt_clust_5="77.91099" pt_clust_6="14000.00000"></scales>
<clustering>
<clus scale="   35.309">  1  3  2 -1</clus>
<clus scale="   45.284">  2  4  1 -1</clus>
<clus scale="   77.911">  1  5  2 -1</clus>
<clus scale="   35.309">  1  3  2 -1</clus>
</clustering>
</event>
<event>
 6    0  0.4227619E+002  0.1302550E+03  0.7546771E-02  0.1227078E+00
         21   -1    0    0  504  501  0.00000000000E+00  0.00000000000E+00  0.47133859796E+03  0.47133859796E+03  0.00000000000E+00 0. -1.
         21   -1    0    0  505  502 -0.00000000000E+00 -0.00000000000E+00 -0.54849027960E+03  0.54849027960E+03  0.00000000000E+00 0.  1.
         21    1    1    2  503  506 -0.63233248881E+02 -0.45727971740E+02 -0.38704547854E+03  0.39483375441E+03  0.00000000000E+00 0.  1.
         21    1    1    2  504  502  0.99974061885E+02  0.57226900252E+02  0.40998191273E+03  0.42585784005E+03  0.00000000000E+00 0. -1.
         21    1    1    2  505  503 -0.13136261928E+02 -0.46188865073E+02 -0.13579869138E+03  0.14403908225E+03  0.00000000000E+00 0.  1.
         21    1    1    2  506  501 -0.23604551076E+02  0.34689936561E+02  0.35710575557E+02  0.55098200849E+02  0.00000000000E+00 0.  1.
<scales pt_clust_3="41.03910" pt_clust_4="119.28737" pt_clust_5="41.03910" pt_clust_6="41.95911"></scales>
<clustering>
<clus scale="   41.039">  3  5 -1 -1</clus>
<clus scale="   41.959">  1  6  2 -1</clus>
<clus scale="  119.287">  1  4  2 -1</clus>
<clus scale="   41.959">  1  3  2 -1</clus>
</clustering>
</event>
<event>
 6    0  0.4227619E+002  0.1077493E+03  0.7546771E-02  0.1264795E+00
         21   -1    0    0  503  501  0.00000000000E+00  0.00000000000E+00  0.50379229831E+03  0.50379229831E+03  0.00000000000E+00 0.  1.
         21   -1    0    0  504  502 -0.00000000000E+00 -0.00000000000E+00 -0.27149887569E+03  0.27149887569E+03  0.00000000000E+00 0.  1.
         21    1    1    2  503  502 -0.57192408482E+02  0.23113445342E+02  0.10257321652E+03  0.11969322324E+03  0.00000000000E+00 0.  1.
         21    1    1    2  504  506  0.42725517002E+01  0.54512162681E+02 -0.13054544341E+03  0.14153424806E+03  0.00000000000E+00 0.  1.
         21    1    1    2  505  501  0.80572522257E+01  0.72771982153E+02  0.33309215822E+03  0.34104408303E+03  0.00000000000E+00 0.  1.
         21    1    1    2  506  505  0.44862604556E+02 -0.15039759018E+03 -0.72826508711E+02  0.17301961967E+03  0.00000000000E+00 0.  1.
<scales pt_clust_3="62.81321" pt_clust_4="54.67934" pt_clust_5="14000.00000" pt_clust_6="107.74931"></scales>
<clustering>
<clus scale="   54.679">  2  4  1 -1</clus>
<clus scale="   62.813">  1  3  2 -1</clus>
<clus scale="  107.749">  2  6  1 -1</clus>
<clus scale="   62.813">  1  3  2 -1</clus>
</clustering>
</event>
<event>
 6    0  0.4227619E+002  0.9698316E+02  0.7546771E-02  0.1286771E+00
         21   -1    0    0  505  501  0.00000000000E+00  0.00000000000E+00  0.20478329757E+03  0.20478329757E+03  0.00000000000E+00 0.  1.
         21   -1    0    0  504  502 -0.00000000000E+00 -0.00000000000E+00 -0.20529966056E+03  0.20529966056E+03  0.00000000000E+00 0.  1.
         21    1    1    2  503  502 -0.10957910342E+03 -0.70286359003E+02  0.95756404804E+02  0.16160767689E+03  0.00000000000E+00 0.  1.
         21    1    1    2  504  506  0.28490604652E+02  0.31120254412E+02 -0.89763679581E+02  0.99185195267E+02  0.00000000000E+00 0.  1.
         21    1    1    2  505  503  0.32613148885E+02  0.36874544515E+02  0.53110592579E+02  0.72416051794E+02  0.00000000000E+00 0.  1.
         21    1    1    2  506  501  0.48475349885E+02  0.22915600761E+01 -0.59619680784E+02  0.76874034178E+02  0.00000000000E+00 0.  1.
<scales pt_clust_3="88.11570" pt_clust_4="37.77591" pt_clust_5="49.22753" pt_clust_6="37.77591"></scales>
<clustering>
<clus scale="   37.776">  4  6 -1 -1</clus>
<clus scale="   49.228">  1  5  2 -1</clus>
<clus scale="   88.116">  1  3  2 -1</clus>
<clus scale="   49.228">  1  3  2 -1</clus>
</clustering>
</event>
<event>
 6    0  0.4227619E+002  0.8809501E+02  0.7546771E-02  0.1307532E+00
         21   -1    0    0  504  501  0.00000000000E+00  0.00000000000E+00  0.65454670855E+02  0.65454670855E+02  0.00000000000E+00 0.  1.
         21   -1    0    0  503  502 -0.00000000000E+00 -0.00000000000E+00 -0.58742413033E+03  0.58742413033E+03  0.00000000000E+00 0. -1.
         21    1    1    2  503  505 -0.11580669333E+02 -0.63359384647E+02 -0.15581375809E+03  0.16860145532E+03  0.00000000000E+00 0.  1.
         21    1    1    2  504  502  0.81277194433E+00  0.13048502136E+03 -0.36904416231E+03  0.39143402399E+03  0.00000000000E+00 0. -1.
         21    1    1    2  505  506  0.29880701628E+02 -0.33722288659E+02 -0.18624582052E+02  0.48753708975E+02  0.00000000000E+00 0.  1.
         21    1    1    2  506  501 -0.19112804239E+02 -0.33403348054E+02  0.21513042986E+02  0.44089612900E+02  0.00000000000E+00 0.  1.
<scales pt_clust_3="88.09501" pt_clust_4="14000.00000" pt_clust_5="53.45737" pt_clust_6="38.48484"></scales>
<clustering>
<clus scale="   38.485">  1  6  2 -1</clus>
<clus scale="   53.457">  1  5  2 -1</clus>
<clus scale="   88.095">  2  3  1 -1</clus>
<clus scale="   38.485">  1  3  2 -1</clus>
</clustering>
</event>
<event>
 6    0  0.4227619E+002  0.9787829E+02  0.7546771E-02  0.1284822E+00
         21   -1    0    0  502  501  0.00000000000E+00  0.00000000000E+00  0.10708328073E+03  0.10708328073E+03  0.00000000000E+00 0. -1.
         21   -1    0    0  504  502 -0.00000000000E+00 -0.00000000000E+00 -0.21223531659E+03  0.21223531659E+03  0.00000000000E+00 0. -1.
         21    1    1    2  503  506 -0.42024966293E+02  0.68453485551E+02 -0.65702995627E+02  0.10377312326E+03  0.00000000000E+00 0. -1.
         21    1    1    2  504  503  0.19938073011E+01 -0.51543829188E+02 -0.45364665028E+02  0.68692753824E+02  0.00000000000E+00 0. -1.
         21    1    1    2  505  501  0.78951956139E+02 -0.21735655276E+02  0.43333031687E+02  0.92647729188E+02  0.00000000000E+00 0. -1.
         21    1    1    2  506  505 -0.38920797147E+02  0.48259989122E+01 -0.37417406899E+02  0.54204991054E+02  0.00000000000E+00 0.  1.
<scales pt_clust_3="34.24014" pt_clust_4="51.58238" pt_clust_5="84.72894" pt_clust_6="34.24014"></scales>
<clustering>
<clus scale="   34.240">  3  6 -1 -1</clus>
<clus scale="   51.582">  2  4  1 -1</clus>
<clus scale="   84.729">  1  5  2 -1</clus>
<clus scale="   84.729">  1  3  2 -1</clus>
</clustering>
</event>
<event>
 6    0  0.4227619E+002  0.1071637E+03  0.7546771E-02  0.1265914E+00
         21   -1    0    0  505  501  0.00000000000E+00  0.00000000000E+00  0.68001096829E+03  0.68001096829E+03  0.00000000000E+00 0. -1.
         21   -1    0    0  504  502 -0.00000000000E+00 -0.00000000000E+00 -0.40804342437E+02  0.40804342437E+02  0.00000000000E+00 0. -1.
         21    1    1    2  503  502  0.44853547069E+02 -0.30792984700E+02  0.71335023983E+02  0.89714738132E+02  0.00000000000E+00 0. -1.
         21    1    1    2  504  506 -0.13802746021E+02  0.27090527767E+02  0.55062102656E+02  0.62898709377E+02  0.00000000000E+00 0. -1.
         21    1    1    2  505  503  0.97544678902E+02  0.18111060833E+02  0.32740143938E+03  0.34210331395E+03  0.00000000000E+00 0. -1.
         21    1    1    2  506  501 -0.12859547995E+03 -0.14408603900E+02  0.18540805983E+03  0.22609854927E+03  0.00000000000E+00 0. -1.
<scales pt_clust_3="47.88812" pt_clust_4="30.40415" pt_clust_5="107.16368" pt_clust_6="14000.00000"></scales>
<clustering>
<clus scale="   30.404">  2  4  1 -1</clus>
<clus scale="   47.888">  2  3  1 -1</clus>
<clus scale="  107.164">  1  5  2 -1</clus>
<clus scale="  107.164">  1  3  2 -1</clus>
</clustering>
</event>
<event>
 6    0  0.4227619E+002  0.9550711E+02  0.7546771E-02  0.1290038E+00
         21   -1    0    0  505  501  0.00000000000E+00  0.00000000000E+00  0.28388869802E+03  0.28388869802E+03  0.00000000000E+00 0. -1.
         21   -1    0    0  506  502 -0.00000000000E+00 -0.00000000000E+00 -0.14074144194E+04  0.14074144194E+04  0.00000000000E+00 0.  1.
         21    1    1    2  503  504  0.62803991754E+02 -0.46144694990E+02 -0.92552585674E+03  0.92880126278E+03  0.00000000000E+00 0.  1.
         21    1    1    2  504  501 -0.10098040701E+03 -0.41244307290E+02  0.21836693540E+03  0.24409476430E+03  0.00000000000E+00 0. -1.
         21    1    1    2  505  502  0.65207153974E+01  0.60664724645E+02  0.31474297778E+02  0.68653914427E+02  0.00000000000E+00 0. -1.
         21    1    1    2  506  503  0.31655699858E+02  0.26724277635E+02 -0.44784109781E+03  0.44975317591E+03  0.00000000000E+00 0.  1.
<scales pt_clust_3="14000.00000" pt_clust_4="95.50711" pt_clust_5="61.59755" pt_clust_6="41.42789"></scales>
<clustering>
<clus scale="   41.428">  2  6  1 -1</clus>
<clus scale="   61.598">  1  5  2 -1</clus>
<clus scale="   95.507">  1  4  2 -1</clus>
<clus scale="   61.598">  1  3  2 -1</clus>
</clustering>
</event>
<event>
 6    0  0.4227619E+002  0.2155890E+03  0.7546771E-02  0.1137215E+00
         21   -1    0    0  503  501  0.00000000000E+00  0.00000000000E+00  0.31497662807E+03  0.31497662807E+03  0.00000000000E+00 0. -1.
         21   -1    0    0  504  502 -0.00000000000E+00 -0.00000000000E+00 -0.36978939822E+03  0.36978939822E+03  0.00000000000E+00 0. -1.
         21    1    1    2  503  505 -0.13076048199E+03  0.71614386020E+02 -0.12505422409E+03  0.19459055192E+03  0.00000000000E+00 0. -1.
         21    1    1    2  504  506  0.20829249081E+03 -0.31729890692E+02 -0.84862768650E+01  0.21086622439E+03  0.00000000000E+00 0. -1.
         21    1    1    2  505  502 -0.60688807319E+02 -0.68642366546E+01 -0.88774174844E+02  0.10775482912E+03  0.00000000000E+00 0. -1.
         21    1    1    2  506  501 -0.16843201504E+02 -0.33020258673E+02  0.16750190566E+03  0.17155442086E+03  0.00000000000E+00 0. -1.
<scales pt_clust_3="45.04544" pt_clust_4="204.04384" pt_clust_5="45.04544" pt_clust_6="37.06792"></scales>
<clustering>
<clus scale="   37.068">  1  6  2 -1</clus>
<clus scale="   45.045">  3  5 -1 -1</clus>
<clus scale="  204.044">  1  4  2 -1</clus>
<clus scale="   37.068">  1  3  2 -1</clus>
</clustering>
</event>
<event>
 6    0  0.4227619E+002  0.9463881E+02  0.7546771E-02  0.1291992E+00
         21   -1    0    0  505  501  0.00000000000E+00  0.00000000000E+00  0.10177402854E+04  0.10177402854E+04  0.00000000000E+00 0.  1.
         21   -1    0    0  506  502 -0.00000000000E+00 -0.00000000000E+00 -0.12883662980E+03  0.12883662980E+03  0.00000000000E+00 0. -1.
         21    1    1    2  503  504  0.26932676975E+02 -0.69893991543E+02  0.55222760001E+02  0.93059617262E+02  0.00000000000E+00 0.  1.
         21    1    1    2  504  501 -0.91246196726E+01  0.97321222762E+02  0.90168623859E+03  0.90696899172E+03  0.00000000000E+00 0.  1.
         21    1    1    2  505  502  0.23496038927E+02 -0.41510521851E+02 -0.86793297960E+02  0.99036679268E+02  0.00000000000E+00 0. -1.
         21    1    1    2  506  503 -0.41304096230E+02  0.14083290632E+02  0.18787954922E+02  0.47511626898E+02  0.00000000000E+00 0.  1.
<scales pt_clust_3="14000.00000" pt_clust_4="94.63881" pt_clust_5="31.70749" pt_clust_6="43.63906"></scales>
<clustering>
<clus scale="   43.639">  2  6  1 -1</clus>
<clus scale="   31.707">  2  5  1 -1</clus>
<clus scale="   94.639">  1  4  2 -1</clus>
<clus scale="   94.639">  1  3  2 -1</clus>
</clustering>
</event>
<event>
 6    0  0.4227619E+002  0.1285180E+03  0.7546771E-02  0.1229671E+00
         21   -1    0    0  506  501  0.00000000000E+00  0.00000000000E+00  0.17846389691E+03  0.17846389691E+03  0.00000000000E+00 0.  1.
         21   -1    0    0  501  502 -0.00000000000E+00 -0.00000000000E+00 -0.15725976511E+03  0.15725976511E+03  0.00000000000E+00 0.  1.
         21    1    1    2  503  502 -0.15891683160E+02 -0.53212878313E+02 -0.45648019133E+02  0.71888091244E+02  0.00000000000E+00 0.  1.
         21    1    1    2  504  503 -0.84342821877E+02 -0.50235795553E+02 -0.14162895400E+01  0.98180204894E+02  0.00000000000E+00 0.  1.
         21    1    1    2  505  504  0.57266440053E+02  0.52591535387E+02  0.12384562801E+02  0.78731773424E+02  0.00000000000E+00 0.  1.
         21    1    1    2  506  505  0.42968064984E+02  0.50857138478E+02  0.55883877668E+02  0.86923592458E+02  0.00000000000E+00 0.  1.
<scales pt_clust_3="55.53518" pt_clust_4="120.35091" pt_clust_5="41.71878" pt_clust_6="41.71878"></scales>
<clustering>
<clus scale="   41.719">  5  6 -1 -1</clus>
<clus scale="   55.535">  2  3  1 -1</clus>
<clus scale="  120.351">  2  4  1 -1</clus>
<clus scale="  128.518">  1  3  2 -1</clus>
</clustering>
</event>
<event>
 6    0  0.4227619E+002  0.1050374E+03  0.7546771E-02  0.1270046E+00
         21   -1    0    0  505  501  0.00000000000E+00  0.00000000000E+00  0.13106924941E+04  0.13106924941E+04  0.00000000000E+00 0.  1.
         21   -1    0    0  503  502 -0.00000000000E+00 -0.00000000000E+00 -0.97486672049E+02  0.97486672049E+02  0.00000000000E+00 0. -1.
         21    1    1    2  503  506  0.34869404757E+02 -0.14586870600E+02 -0.20259977432E+00  0.37798058531E+02  0.00000000000E+00 0.  1.
         21    1    1    2  504  501 -0.59993615238E+02 -0.62783980137E+02  0.43066323406E+03  0.43933117713E+03  0.00000000000E+00 0.  1.
         21    1    1    2  505  502 -0.17242336112E+02 -0.47824897021E+02 -0.59635240024E+02  0.78363772129E+02  0.00000000000E+00 0. -1.
         21    1    1    2  506  504  0.42366546592E+02  0.12519574776E+03  0.84238042775E+03  0.85268615831E+03  0.00000000000E+00 0.  1.
<scales pt_clust_3="37.79752" pt_clust_4="105.03737" pt_clust_5="62.11397" pt_clust_6="14000.00000"></scales>
<clustering>
<clus scale="   37.798">  2  3  1 -1</clus>
<clus scale="   62.114">  2  5  1 -1</clus>
<clus scale="  105.037">  1  4  2 -1</clus>
<clus scale="  105.037">  1  3  2 -1</clus>
</clustering>
</event>
<event>
 6    0  0.4227619E+002  0.7778459E+02  0.7546771E-02  0.1335459E+00
         21   -1    0    0  504  501  0.00000000000E+00  0.00000000000E+00  0.85638652688E+03  0.85638652688E+03  0.00000000000E+00 0. -1.
         21   -1    0    0  506  502 -0.00000000000E+00 -0.00000000000E+00 -0.25246373995E+03  0.25246373995E+03  0.00000000000E+00 0.  1.
         21    1    1    2  503  501 -0.14199885321E+02  0.40596053664E+02  0.53212503491E+03  0.53386021494E+03  0.00000000000E+00 0. -1.
         21    1    1    2  504  505 -0.11557634872E+03 -0.83632214677E+01  0.26729685143E+03  0.29133390232E+03  0.00000000000E+00 0. -1.
         21    1    1    2  505  502  0.76785711701E+02 -0.35472818063E+01 -0.20832129852E+03  0.22205042704E+03  0.00000000000E+00 0.  1.
         21    1    1    2  506  503  0.52990522344E+02 -0.28685550390E+02  0.12822199111E+02  0.61605722539E+02  0.00000000000E+00 0. -1.
<scales pt_clust_3="43.00786" pt_clust_4="77.78459" pt_clust_5="14000.00000" pt_clust_6="56.69359"></scales>
<clustering>
<clus scale="   43.008">  1  3  2 -1</clus>
<clus scale="   56.694">  1  6  2 -1</clus>
<clus scale="   77.785">  1  4  2 -1</clus>
<clus scale="   43.008">  1  3  2 -1</clus>
</clustering>
</event>
<event>
 6    0  0.6842876E+002  0.9555023E+02  0.7546771E-02  0.1289942E+00
         21   -1    0    0  505  501  0.00000000000E+00  0.00000000000E+00  0.30630065478E+03  0.30630065478E+03  0.00000000000E+00 0. -1.
         21   -1    0    0  504  502 -0.00000000000E+00 -0.00000000000E+00 -0.13656652521E+04  0.13656652521E+04  0.00000000000E+00 0.  1.
         21    1    1    2  503  502  0.40825675581E+02 -0.84642848167E+02 -0.10547359420E+04  0.10589140923E+04  0.00000000000E+00 0.  1.
         21    1    1    2  504  506  0.28665641587E+02  0.90375413786E+01 -0.22891189413E+03  0.23087670180E+03  0.00000000000E+00 0.  1.
         21    1    1    2  505  503  0.95912853617E+01  0.68840559580E+02  0.27785485266E+03  0.28641636571E+03  0.00000000000E+00 0. -1.
         21    1    1    2  506  501 -0.79082602530E+02  0.67647472078E+01 -0.53571613855E+02  0.95758747061E+02  0.00000000000E+00 0.  1.
<scales pt_clust_3="14000.00000" pt_clust_4="30.05655" pt_clust_5="69.55423" pt_clust_6="95.55023"></scales>
<clustering>
<clus scale="   30.057">  2  4  1 -1</clus>
<clus scale="   69.554">  1  5  2 -1</clus>
<clus scale="   95.550">  1  6  2 -1</clus>
<clus scale="   69.554">  1  3  2 -1</clus>
</clustering>
</event>
<event>
 6    0  0.4227619E+002  0.9492314E+02  0.7546771E-02  0.1291349E+00
         21   -1    0    0  503  501  0.00000000000E+00  0.00000000000E+00  0.65675423899E+03  0.65675423899E+03  0.00000000000E+00 0.  1.
         21   -1    0    0  505  502 -0.00000000000E+00 -0.00000000000E+00 -0.21946648585E+03  0.21946648585E+03  0.00000000000E+00 0. -1.
         21    1    1    2  503  506  0.73370638161E+02 -0.23477671956E+02  0.42748090801E+03  0.43436664046E+03  0.00000000000E+00 0.  1.
         21    1    1    2  504  501  0.22675712894E+02  0.35006915547E+02  0.18419499139E+03  0.18885832506E+03  0.00000000000E+00 0.  1.
         21    1    1    2  505  504  0.11697093726E+02 -0.53027421100E+02 -0.15282867995E+02  0.56411837803E+02  0.00000000000E+00 0.  1.
         21    1    1    2  506  502 -0.10774344478E+03  0.41498177508E+02 -0.15910527826E+03  0.19658392152E+03  0.00000000000E+00 0. -1.
<scales pt_clust_3="14000.00000" pt_clust_4="41.70938" pt_clust_5="53.03669" pt_clust_6="94.92314"></scales>
<clustering>
<clus scale="   41.709">  1  4  2 -1</clus>
<clus scale="   53.037">  2  5  1 -1</clus>
<clus scale="   94.923">  2  6  1 -1</clus>
<clus scale="   41.709">  1  3  2 -1</clus>
</clustering>
</event>
<event>
 6    0  0.4227619E+002  0.1392328E+03  0.7546771E-02  0.1214365E+00
         21   -1    0    0  503  501  0.00000000000E+00  0.00000000000E+00  0.75392173468E+02  0.75392173468E+02  0.00000000000E+00 0. -1.
         21   -1    0    0  505  502 -0.00000000000E+00 -0.00000000000E+00 -0.34351404231E+03  0.34351404231E+03  0.00000000000E+00 0. -1.
         21    1    1    2  503  506  0.25341363148E+01 -0.34267960565E+02  0.43178566038E+01  0.34631760767E+02  0.00000000000E+00 0. -1.
         21    1    1    2  504  502 -0.69161959903E+02  0.41973058014E+02 -0.93282912608E+02  0.12347799837E+03  0.00000000000E+00 0. -1.
         21    1    1    2  505  501  0.87235599975E+02 -0.74252906601E+02 -0.80464895304E+02  0.13999336919E+03  0.00000000000E+00 0. -1.
         21    1    1    2  506  504 -0.20607776387E+02  0.66547809152E+02 -0.98691917535E+02  0.12080308745E+03  0.00000000000E+00 0. -1.
<scales pt_clust_3="34.36153" pt_clust_4="49.79118" pt_clust_5="128.07123" pt_clust_6="49.79118"></scales>
<clustering>
<clus scale="   34.362">  1  3  2 -1</clus>
<clus scale="   49.791">  4  6 -1 -1</clus>
<clus scale="  128.071">  1  5  2 -1</clus>
<clus scale="   34.362">  1  3  2 -1</clus>
</clustering>
</event>
<event>
 6    0  0.4227619E+002  0.1129265E+03  0.7546771E-02  0.1255244E+00
         21   -1    0    0  505  501  0.00000000000E+00  0.00000000000E+00  0.15717871600E+03  0.15717871600E+03  0.00000000000E+00 0.  1.
         21   -1    0    0  501  502 -0.00000000000E+00 -0.00000000000E+00 -0.25073439074E+03  0.25073439074E+03  0.00000000000E+00 0.  1.
         21    1    1    2  503  504 -0.41211207890E+02  0.10377164013E+03  0.14397472136E+01  0.11166463103E+03  0.00000000000E+00 0.  1.
         21    1    1    2  504  502  0.99934268298E+02 -0.66434439509E+02 -0.11364411173E+03  0.16527364237E+03  0.00000000000E+00 0.  1.
         21    1    1    2  505  506  0.28197968847E+02  0.10815253862E+02  0.61963092377E+01  0.30830008294E+02  0.00000000000E+00 0. -1.
         21    1    1    2  506  503 -0.86921029256E+02 -0.48152454487E+02  0.12452380534E+02  0.10014482503E+03  0.00000000000E+00 0.  1.
<scales pt_clust_3="112.92650" pt_clust_4="14000.00000" pt_clust_5="30.20091" pt_clust_6="87.24203"></scales>
<clustering>
<clus scale="   30.201">  1  5  2 -1</clus>
<clus scale="   87.242">  1  6  2 -1</clus>
<clus scale="  112.926">  1  3  2 -1</clus>
<clus scale="   30.201">  1  3  2 -1</clus>
</clustering>
</event>
<event>
 6    0  0.4227619E+002  0.1331159E+03  0.7546771E-02  0.1222904E+00
         21   -1    0    0  506  501  0.00000000000E+00  0.00000000000E+00  0.22663104174E+03  0.22663104174E+03  0.00000000000E+00 0.  1.
         21   -1    0    0  503  502 -0.00000000000E+00 -0.00000000000E+00 -0.22071121832E+04  0.22071121832E+04  0.00000000000E+00 0.  1.
         21    1    1    2  503  501 -0.60887537663E+02 -0.16687966777E+02 -0.17834128874E+04  0.17845299962E+04  0.00000000000E+00 0.  1.
         21    1    1    2  504  502 -0.69775906242E+02 -0.72569904260E+02 -0.34310314317E+03  0.35756794452E+03  0.00000000000E+00 0.  1.
         21    1    1    2  505  504  0.85137698106E+02  0.71015590991E+02 -0.25055916188E+02  0.11366371778E+03  0.00000000000E+00 0.  1.
         21    1    1    2  506  505  0.45525745798E+02  0.18242280046E+02  0.17109080532E+03  0.17798156639E+03  0.00000000000E+00 0.  1.
<scales pt_clust_3="62.61061" pt_clust_4="14000.00000" pt_clust_5="133.11587" pt_clust_6="49.04462"></scales>
<clustering>
<clus scale="   49.045">  1  6  2 -1</clus>
<clus scale="   62.611">  2  3  1 -1</clus>
<clus scale="  133.116">  1  5  2 -1</clus>
<clus scale="   49.045">  1  3  2 -1</clus>
</clustering>
</event>
<event>
 6    0  0.4227619E+002  0.2934227E+03  0.7546771E-02  0.1088576E+00
         21   -1    0    0  504  501  0.00000000000E+00  0.00000000000E+00  0.78178980061E+02  0.78178980061E+02  0.00000000000E+00 0. -1.
         21   -1    0    0  505  502 -0.00000000000E+00 -0.00000000000E+00 -0.20561355561E+04  0.20561355561E+04  0.00000000000E+00 0. -1.
         21    1    1    2  503  502 -0.57268242880E+01  0.45170890807E+02 -0.53152729430E+03  0.53347396420E+03  0.00000000000E+00 0.  1.
         21    1    1    2  504  503 -0.13751533576E+02 -0.31917561652E+02 -0.53513037830E+02  0.63808154928E+02  0.00000000000E+00 0.  1.
         21    1    1    2  505  506 -0.22600633784E+03  0.15439137990E+03 -0.10409304655E+04  0.10763139862E+04  0.00000000000E+00 0. -1.
         21    1    1    2  506  501  0.24548469571E+03 -0.16764470905E+03 -0.35198577847E+03  0.46071843087E+03  0.00000000000E+00 0. -1.
<scales pt_clust_3="45.13413" pt_clust_4="34.75393" pt_clust_5="293.42267" pt_clust_6="14000.00000"></scales>
<clustering>
<clus scale="   34.754">  1  4  2 -1</clus>
<clus scale="   45.134">  2  3  1 -1</clus>
<clus scale="  293.423">  2  5  1 -1</clus>
<clus scale="   34.754">  1  3  2 -1</clus>
</clustering>
</event>
<event>
 6    0  0.4227619E+002  0.1622810E+03  0.7546771E-02  0.1186145E+00
         21   -1    0    0  503  501  0.00000000000E+00  0.00000000000E+00  0.16533817226E+04  0.16533817226E+04  0.00000000000E+00 0. -1.
         21   -1    0    0  505  502 -0.00000000000E+00 -0.00000000000E+00 -0.66970823188E+02  0.66970823188E+02  0.00000000000E+00 0.  1.
         21    1    1    2  503  502 -0.19000005831E+03  0.47278714313E+02  0.47189791897E+03  0.51090404668E+03  0.00000000000E+00 0.  1.
         21    1    1    2  504  506  0.74859403500E+02  0.36047013212E+01  0.41943430681E+02  0.85884664180E+02  0.00000000000E+00 0. -1.
         21    1    1    2  505  504  0.73026850752E+02 -0.27870950775E+02  0.36297848587E+02  0.86181463436E+02  0.00000000000E+00 0. -1.
         21    1    1    2  506  501  0.42113804060E+02 -0.23012464859E+02  0.10362717012E+04  0.10373823715E+04  0.00000000000E+00 0. -1.
<scales pt_clust_3="159.08882" pt_clust_4="31.36270" pt_clust_5="31.36270" pt_clust_6="47.99110"></scales>
<clustering>
<clus scale="   31.363">  4  5 -1 -1</clus>
<clus scale="   47.991">  1  6  2 -1</clus>
<clus scale="  159.089">  1  3  2 -1</clus>
<clus scale="   47.991">  1  3  2 -1</clus>
</clustering>
</event>
<event>
 6    0  0.4227619E+002  0.7231523E+02  0.7546771E-02  0.1352392E+00
         21   -1    0    0  506  501  0.00000000000E+00  0.00000000000E+00  0.10029671429E+03  0.10029671429E+03  0.00000000000E+00 0.  1.
         21   -1    0    0  505  502 -0.00000000000E+00 -0.00000000000E+00 -0.12705505141E+04  0.12705505141E+04  0.00000000000E+00 0.  1.
         21    1    1    2  503  504 -0.12399612550E+03  0.60155552611E+01 -0.12320243113E+03  0.17490015746E+03  0.00000000000E+00 0.  1.
         21    1    1    2  504  502  0.68116743335E+02 -0.16180885456E+02 -0.10254427097E+04  0.10278299775E+04  0.00000000000E+00 0.  1.
         21    1    1    2  505  501  0.43224137188E+02  0.69055052023E+02  0.31956439889E+02  0.87510801025E+02  0.00000000000E+00 0.  1.
         21    1    1    2  506  503  0.12655244980E+02 -0.58889721828E+02 -0.53565098965E+02  0.80606292494E+02  0.00000000000E+00 0.  1.
<scales pt_clust_3="14000.00000" pt_clust_4="72.31523" pt_clust_5="59.24987" pt_clust_6="60.23416"></scales>
<clustering>
<clus scale="   60.234">  1  6  2 -1</clus>
<clus scale="   59.250">  1  5  2 -1</clus>
<clus scale="   72.315">  2  4  1 -1</clus>
<clus scale="   60.234">  1  3  2 -1</clus>
</clustering>
</event>
<event>
 6    0  0.4227619E+002  0.1205005E+03  0.7546771E-02  0.1242274E+00
         21   -1    0    0  503  501  0.00000000000E+00  0.00000000000E+00  0.12410523232E+04  0.12410523232E+04  0.00000000000E+00 0. -1.
         21   -1    0    0  506  502 -0.00000000000E+00 -0.00000000000E+00 -0.13006893585E+03  0.13006893585E+03  0.00000000000E+00 0. -1.
         21    1    1    2  503  502 -0.39438677139E+02  0.17284161946E+02 -0.20363514071E+02  0.47632176246E+02  0.00000000000E+00 0. -1.
         21    1    1    2  504  501 -0.29081025174E+02 -0.10210669888E+02  0.99561388128E+03  0.99609084144E+03  0.00000000000E+00 0. -1.
         21    1    1    2  505  504 -0.75013029096E+02 -0.59076375849E+02  0.14593367029E+03  0.17439497941E+03  0.00000000000E+00 0. -1.
         21    1    1    2  506  505  0.14353273141E+03  0.52002883791E+02 -0.10200650144E+02  0.15300326196E+03  0.00000000000E+00 0. -1.
<scales pt_clust_3="44.32844" pt_clust_4="30.82148" pt_clust_5="120.50049" pt_clust_6="14000.00000"></scales>
<clustering>
<clus scale="   30.821">  1  4  2 -1</clus>
<clus scale="   44.328">  2  3  1 -1</clus>
<clus scale="  120.500">  1  5  2 -1</clus>
<clus scale="   30.821">  1  3  2 -1</clus>
</clustering>
</event>
<event>
 6    0  0.4227619E+002  0.8923845E+02  0.7546771E-02  0.1304706E+00
         21   -1    0    0  503  501  0.00000000000E+00  0.00000000000E+00  0.11450568201E+03  0.11450568201E+03  0.00000000000E+00 0. -1.
         21   -1    0    0  504  502 -0.00000000000E+00 -0.00000000000E+00 -0.71012455533E+03  0.71012455533E+03  0.00000000000E+00 0.  1.
         21    1    1    2  503  506  0.11751772308E+02 -0.47580657919E+02  0.17771528610E+02  0.52133006719E+02  0.00000000000E+00 0.  1.
         21    1    1    2  504  505 -0.15286592290E+02 -0.28656825615E+02 -0.53524045366E+03  0.53622498710E+03  0.00000000000E+00 0.  1.
         21    1    1    2  505  501  0.92626158964E+02  0.62943128053E+01 -0.80649794097E+02  0.12297809962E+03  0.00000000000E+00 0.  1.
         21    1    1    2  506  502 -0.89091338982E+02  0.69943170729E+02  0.24998458216E+01  0.11329414390E+03  0.00000000000E+00 0. -1.
<scales pt_clust_3="51.43468" pt_clust_4="32.47912" pt_clust_5="14000.00000" pt_clust_6="89.23845"></scales>
<clustering>
<clus scale="   32.479">  2  4  1 -1</clus>
<clus scale="   51.435">  1  3  2 -1</clus>
<clus scale="   89.238">  1  6  2 -1</clus>
<clus scale="   51.435">  1  3  2 -1</clus>
</clustering>
</event>
<event>
 6    0  0.4227619E+002  0.1302589E+03  0.7546771E-02  0.1227072E+00
         21   -1    0    0  506  501  0.00000000000E+00  0.00000000000E+00  0.40158033082E+03  0.40158033082E+03  0.00000000000E+00 0.  1.
         21   -1    0    0  501  502 -0.00000000000E+00 -0.00000000000E+00 -0.13962159175E+03  0.13962159175E+03  0.00000000000E+00 0.  1.
         21    1    1    2  503  505  0.15418395311E+03 -0.55502640692E+02  0.27376441726E+03  0.31906142148E+03  0.00000000000E+00 0.  1.
         21    1    1    2  504  502 -0.32106213051E+02 -0.19071254845E+01 -0.48008782578E+02  0.57786583640E+02  0.00000000000E+00 0. -1.
         21    1    1    2  505  504 -0.97716404756E+02  0.33188239435E+02 -0.13348836364E+02  0.10405837990E+03  0.00000000000E+00 0.  1.
         21    1    1    2  506  503 -0.24361335299E+02  0.24221526742E+02  0.49551940759E+02  0.60295537548E+02  0.00000000000E+00 0.  1.
<scales pt_clust_3="14000.00000" pt_clust_4="32.16281" pt_clust_5="130.25895" pt_clust_6="35.71132"></scales>
<clustering>
<clus scale="   32.163">  2  4  1 -1</clus>
<clus scale="   35.711">  1  6  2 -1</clus>
<clus scale="  130.259">  2  5  1 -1</clus>
<clus scale="   35.711">  1  3  2 -1</clus>
</clustering>
</event>
<event>
 6    0  0.4227619E+002  0.9425687E+02  0.7546771E-02  0.1292859E+00
         21   -1    0    0  506  501  0.00000000000E+00  0.00000000000E+00  0.12604522854E+04  0.12604522854E+04  0.00000000000E+00 0.  1.
         21   -1    0    0  504  502 -0.00000000000E+00 -0.00000000000E+00 -0.26359329526E+03  0.26359329526E+03  0.00000000000E+00 0.  1.
         21    1    1    2  503  501  0.10062815911E+02 -0.76919403136E+02  0.10851370626E+04  0.10879063836E+04  0.00000000000E+00 0.  1.
         21    1    1    2  504  503 -0.56623956619E+02  0.84370311643E+02 -0.18057986586E+03  0.20720451227E+03  0.00000000000E+00 0.  1.
         21    1    1    2  505  502  0.16543827229E+02 -0.80550866923E+02 -0.26372410459E+02  0.86357654061E+02  0.00000000000E+00 0.  1.
         21    1    1    2  506  505  0.30017313479E+02  0.73099958416E+02  0.11867420388E+03  0.14257703074E+03  0.00000000000E+00 0.  1.
<scales pt_clust_3="77.57483" pt_clust_4="14000.00000" pt_clust_5="94.25687" pt_clust_6="40.58230"></scales>
<clustering>
<clus scale="   77.575">  1  3  2 -1</clus>
<clus scale="   40.582">  1  6  2 -1</clus>
<clus scale="   94.257">  1  5  2 -1</clus>
<clus scale="   77.575">  1  3  2 -1</clus>
</clustering>
</event>
<event>
 6    0  0.4227619E+002  0.7892684E+02  0.7546771E-02  0.1332125E+00
         21   -1    0    0  503  501  0.00000000000E+00  0.00000000000E+00  0.58496782548E+03  0.58496782548E+03  0.00000000000E+00 0. -1.
         21   -1    0    0  504  502 -0.00000000000E+00 -0.00000000000E+00 -0.48262745984E+03  0.48262745984E+03  0.00000000000E+00 0.  1.
         21    1    1    2  503  502  0.74058787983E+02  0.15338812434E+02  0.21570303082E+02  0.78646431702E+02  0.00000000000E+00 0. -1.
         21    1    1    2  504  506 -0.27630265341E+02 -0.38581600598E+02 -0.40500161524E+03  0.40777233822E+03  0.00000000000E+00 0.  1.
         21    1    1    2  505  501  0.36927647072E+02 -0.24845536634E+02  0.48285256099E+03  0.48489952306E+03  0.00000000000E+00 0. -1.
         21    1    1    2  506  505 -0.83356169714E+02  0.48088324798E+02  0.29191168048E+01  0.96276992340E+02  0.00000000000E+00 0.  1.
<scales pt_clust_3="14000.00000" pt_clust_4="47.44103" pt_clust_5="44.50788" pt_clust_6="78.92684"></scales>
<clustering>
<clus scale="   44.508">  1  5  2 -1</clus>
<clus scale="   47.441">  2  4  1 -1</clus>
<clus scale="   78.927">  1  6  2 -1</clus>
<clus scale="   44.508">  1  3  2 -1</clus>
</clustering>
</event>
<event>
 6    0  0.4227619E+002  0.8636149E+02  0.7546771E-02  0.1311910E+00
         21   -1    0    0  505  501  0.00000000000E+00  0.00000000000E+00  0.31796554061E+03  0.31796554061E+03  0.00000000000E+00 0. -1.
         21   -1    0    0  504  502 -0.00000000000E+00 -0.00000000000E+00 -0.43516524128E+03  0.43516524128E+03  0.00000000000E+00 0.  1.
         21    1    1    2  503  502 -0.51957810687E+02  0.50933787628E+01 -0.35961492576E+03  0.36338471546E+03  0.00000000000E+00 0.  1.
         21    1    1    2  504  506  0.41204415675E+02  0.37127773788E+02 -0.30542063311E+02  0.63317399574E+02  0.00000000000E+00 0.  1.
         21    1    1    2  505  503  0.40338761169E+02 -0.97661980229E+02  0.22072985423E+03  0.24471768751E+03  0.00000000000E+00 0. -1.
         21    1    1    2  506  501 -0.29585366156E+02  0.55440827678E+02  0.52227434175E+02  0.81710979340E+02  0.00000000000E+00 0.  1.
<scales pt_clust_3="52.20686" pt_clust_4="41.17789" pt_clust_5="14000.00000" pt_clust_6="86.36149"></scales>
<clustering>
<clus scale="   52.207">  2  3  1 -1</clus>
<clus scale="   41.178">  2  4  1 -1</clus>
<clus scale="   86.361">  2  6  1 -1</clus>
<clus scale="   86.361">  1  3  2 -1</clus>
</clustering>
</event>
<event>
 6    0  0.4227619E+002  0.8834769E+02  0.7546771E-02  0.1306903E+00
         21   -1    0    0  503  501  0.00000000000E+00  0.00000000000E+00  0.38610667438E+03  0.38610667438E+03  0.00000000000E+00 0. -1.
         21   -1    0    0  506  502 -0.00000000000E+00 -0.00000000000E+00 -0.29680171978E+03  0.29680171978E+03  0.00000000000E+00 0.  1.
         21    1    1    2  503  505 -0.65835192029E+02 -0.10266031772E+03  0.31820742239E+03  0.34077760638E+03  0.00000000000E+00 0. -1.
         21    1    1    2  504  501  0.43036893748E+02  0.12830390254E+02  0.35123954479E+02  0.57013027597E+02  0.00000000000E+00 0.  1.
         21    1    1    2  505  502 -0.14846063209E+02  0.46662690276E+02 -0.14461940559E+03  0.15268459231E+03  0.00000000000E+00 0.  1.
         21    1    1    2  506  504  0.37644361490E+02  0.43167237194E+02 -0.11940701668E+03  0.13243316787E+03  0.00000000000E+00 0.  1.
<scales pt_clust_3="14000.00000" pt_clust_4="44.90872" pt_clust_5="48.96061" pt_clust_6="88.34769"></scales>
<clustering>
<clus scale="   44.909">  1  4  2 -1</clus>
<clus scale="   48.961">  2  5  1 -1</clus>
<clus scale="   88.348">  2  6  1 -1</clus>
<clus scale="   44.909">  1  3  2 -1</clus>
</clustering>
</event>
<event>
 6    0  0.4227619E+002  0.7986317E+02  0.7546771E-02  0.1329440E+00
         21   -1    0    0  504  501  0.00000000000E+00  0.00000000000E+00  0.20577248261E+03  0.20577248261E+03  0.00000000000E+00 0.  1.
         21   -1    0    0  506  502 -0.00000000000E+00 -0.00000000000E+00 -0.55755168820E+03  0.55755168820E+03  0.00000000000E+00 0.  1.
         21    1    1    2  503  502  0.56295022759E+02 -0.10979548710E+03 -0.34870786957E+03  0.36989371024E+03  0.00000000000E+00 0.  1.
         21    1    1    2  504  505 -0.36525345499E+02 -0.31973177535E+02  0.14706755655E+03  0.15487172478E+03  0.00000000000E+00 0.  1.
         21    1    1    2  505  503  0.77105871586E+00  0.92499268715E+02 -0.15588828004E+02  0.93806827060E+02  0.00000000000E+00 0.  1.
         21    1    1    2  506  501 -0.20540735975E+02  0.49269395916E+02 -0.13455006456E+03  0.14475190873E+03  0.00000000000E+00 0.  1.
<scales pt_clust_3="14000.00000" pt_clust_4="48.54261" pt_clust_5="79.86317" pt_clust_6="52.11740"></scales>
<clustering>
<clus scale="   48.543">  1  4  2 -1</clus>
<clus scale="   52.117">  2  6  1 -1</clus>
<clus scale="   79.863">  1  5  2 -1</clus>
<clus scale="   48.543">  1  3  2 -1</clus>
</clustering>
</event>
<event>
 6    0  0.4227619E+002  0.1114468E+03  0.7546771E-02  0.1257914E+00
         21   -1    0    0  506  501  0.00000000000E+00  0.00000000000E+00  0.31363100659E+03  0.31363100659E+03  0.00000000000E+00 0.  1.
         21   -1    0    0  504  502 -0.00000000000E+00 -0.00000000000E+00 -0.26439371103E+03  0.26439371103E+03  0.00000000000E+00 0. -1.
         21    1    1    2  503  505 -0.13131612940E+03  0.11086425422E+03 -0.17535596840E+01  0.17186588863E+03  0.00000000000E+00 0. -1.
         21    1    1    2  504  503  0.76715365281E+02 -0.64852433903E+02 -0.14752406622E+03  0.17847810949E+03  0.00000000000E+00 0. -1.
         21    1    1    2  505  501  0.40051346273E+02 -0.19225004657E+02  0.19125220135E+03  0.19634438027E+03  0.00000000000E+00 0.  1.
         21    1    1    2  506  502  0.14549417848E+02 -0.26786815659E+02  0.72627201167E+01  0.31336339230E+02  0.00000000000E+00 0. -1.
<scales pt_clust_3="14000.00000" pt_clust_4="111.44677" pt_clust_5="61.82307" pt_clust_6="30.48309"></scales>
<clustering>
<clus scale="   30.483">  1  6  2 -1</clus>
<clus scale="   61.823">  1  5  2 -1</clus>
<clus scale="  111.447">  2  4  1 -1</clus>
<clus scale="   30.483">  1  3  2 -1</clus>
</clustering>
</event>
<event>
 6    0  0.4227619E+002  0.6474682E+02  0.7546771E-02  0.1378926E+00
         21   -1    0    0  505  501  0.00000000000E+00  0.00000000000E+00  0.21884813066E+03  0.21884813066E+03  0.00000000000E+00 0. -1.
         21   -1    0    0  504  502 -0.00000000000E+00 -0.00000000000E+00 -0.67823200248E+03  0.67823200248E+03  0.00000000000E+00 0. -1.
         21    1    1    2  503  502  0.45475560010E+02  0.48297569796E+02 -0.16962477652E+03  0.18213524265E+03  0.00000000000E+00 0. -1.
         21    1    1    2  504  506  0.19185632552E+02 -0.62366629129E+02 -0.48117865569E+03  0.48558272582E+03  0.00000000000E+00 0. -1.
         21    1    1    2  505  503  0.15693431038E+02  0.32897418635E+02  0.98788584722E+02  0.10529818803E+03  0.00000000000E+00 0. -1.
         21    1    1    2  506  501 -0.80354623600E+02 -0.18828359301E+02  0.92630975662E+02  0.12406397664E+03  0.00000000000E+00 0. -1.
<scales pt_clust_3="64.64735" pt_clust_4="64.74682" pt_clust_5="36.44892" pt_clust_6="14000.00000"></scales>
<clustering>
<clus scale="   36.449">  1  5  2 -1</clus>
<clus scale="   64.747">  2  4  1 -1</clus>
<clus scale="   64.647">  2  3  1 -1</clus>
<clus scale="   36.449">  1  3  2 -1</clus>
</clustering>
</event>
<event>
 6    0  0.4227619E+002  0.9027605E+02  0.7546771E-02  0.1302185E+00
         21   -1    0    0  503  501  0.00000000000E+00  0.00000000000E+00  0.69213868821E+03  0.69213868821E+03  0.00000000000E+00 0.  1.
         21   -1    0    0  506  502 -0.00000000000E+00 -0.00000000000E+00 -0.20939775911E+03  0.20939775911E+03  0.00000000000E+00 0.  1.
         21    1    1    2  503  504  0.26142438014E+02 -0.60851932609E+02  0.37302242289E+03  0.37885632204E+03  0.00000000000E+00 0.  1.
         21    1    1    2  504  505  0.82876677491E+02  0.40795600709E+02  0.55691960662E+02  0.10786296487E+03  0.00000000000E+00 0.  1.
         21    1    1    2  505  502 -0.90338564805E+02 -0.84194245984E+01 -0.16760359275E+03  0.19058569544E+03  0.00000000000E+00 0.  1.
         21    1    1    2  506  501 -0.18680550700E+02  0.28475756498E+02  0.22163013829E+03  0.22423146497E+03  0.00000000000E+00 0.  1.
<scales pt_clust_3="39.64421" pt_clust_4="90.27605" pt_clust_5="14000.00000" pt_clust_6="34.05630"></scales>
<clustering>
<clus scale="   34.056">  1  6  2 -1</clus>
<clus scale="   39.644">  1  3  2 -1</clus>
<clus scale="   90.276">  1  4  2 -1</clus>
<clus scale="   34.056">  1  3  2 -1</clus>
</clustering>
</event>
<event>
 6    0  0.4227619E+002  0.1036878E+03  0.7546771E-02  0.1272727E+00
         21   -1    0    0  503  501  0.00000000000E+00  0.00000000000E+00  0.43474894223E+03  0.43474894223E+03  0.00000000000E+00 0.  1.
         21   -1    0    0  504  502 -0.00000000000E+00 -0.00000000000E+00 -0.16480953225E+03  0.16480953225E+03  0.00000000000E+00 0.  1.
         21    1    1    2  503  505 -0.29856310741E+02 -0.36414882015E+02  0.46139461254E+02  0.65926419651E+02  0.00000000000E+00 0.  1.
         21    1    1    2  504  506  0.69108145649E+02 -0.36110057045E+02  0.11684320252E+03  0.14047137072E+03  0.00000000000E+00 0.  1.
         21    1    1    2  505  502 -0.97109090653E+02  0.46999931490E+02 -0.11776458268E+03  0.15971119554E+03  0.00000000000E+00 0.  1.
         21    1    1    2  506  501  0.57857255745E+02  0.25525007570E+02  0.22472132889E+03  0.23344948857E+03  0.00000000000E+00 0. -1.
<scales pt_clust_3="47.08973" pt_clust_4="14000.00000" pt_clust_5="103.68776" pt_clust_6="39.95057"></scales>
<clustering>
<clus scale="   47.090">  1  3  2 -1</clus>
<clus scale="   39.951">  1  6  2 -1</clus>
<clus scale="  103.688">  2  5  1 -1</clus>
<clus scale="   47.090">  1  3  2 -1</clus>
</clustering>
</event>
<event>
 6    0  0.4227619E+002  0.1546812E+03  0.7546771E-02  0.1194836E+00
         21   -1    0    0  504  501  0.00000000000E+00  0.00000000000E+00  0.26206976406E+03  0.26206976406E+03  0.00000000000E+00 0. -1.
         21   -1    0    0  503  502 -0.00000000000E+00 -0.00000000000E+00 -0.12006543519E+04  0.12006543519E+04  0.00000000000E+00 0. -1.
         21    1    1    2  503  506 -0.24308352178E+02  0.53275962945E+02 -0.73004484770E+03  0.73238972130E+03  0.00000000000E+00 0. -1.
         21    1    1    2  504  502 -0.60350182382E+02  0.43741885668E+00  0.18719423404E+03  0.19668252873E+03  0.00000000000E+00 0. -1.
         21    1    1    2  505  501 -0.67609880148E+02 -0.11485256141E+03 -0.35674372447E+02  0.13796690765E+03  0.00000000000E+00 0. -1.
         21    1    1    2  506  505  0.15226841471E+03  0.61139179612E+02 -0.36005960172E+03  0.39568495826E+03  0.00000000000E+00 0. -1.
<scales pt_clust_3="58.55958" pt_clust_4="60.60370" pt_clust_5="14000.00000" pt_clust_6="154.68116"></scales>
<clustering>
<clus scale="   58.560">  2  3  1 -1</clus>
<clus scale="   60.604">  1  4  2 -1</clus>
<clus scale="  154.681">  2  6  1 -1</clus>
<clus scale="   60.604">  1  3  2 -1</clus>
</clustering>
</event>
<event>
 6    0  0.4227619E+002  0.2349525E+03  0.7546771E-02  0.1123202E+00
         21   -1    0    0  503  501  0.00000000000E+00  0.00000000000E+00  0.44177054388E+03  0.44177054388E+03  0.00000000000E+00 0. -1.
         21   -1    0    0  505  502 -0.00000000000E+00 -0.00000000000E+00 -0.17227798649E+03  0.17227798649E+03  0.00000000000E+00 0. -1.
         21    1    1    2  503  506 -0.28284940078E+02 -0.39971180039E+02  0.57059254924E+02  0.75189704357E+02  0.00000000000E+00 0. -1.
         21    1    1    2  504  501  0.45486277304E+02  0.96580481552E+00  0.55341213804E+01  0.45831874295E+02  0.00000000000E+00 0. -1.
         21    1    1    2  505  504  0.19206578618E+03  0.68971776632E+02  0.19345831762E+03  0.28119831587E+03  0.00000000000E+00 0. -1.
         21    1    1    2  506  502 -0.20926712341E+03 -0.29966401409E+02  0.13440863468E+02  0.21182863584E+03  0.00000000000E+00 0. -1.
<scales pt_clust_3="48.96665" pt_clust_4="36.66061" pt_clust_5="36.66061" pt_clust_6="221.75253"></scales>
<clustering>
<clus scale="   36.661">  4  5 -1 -1</clus>
<clus scale="   48.967">  1  3  2 -1</clus>
<clus scale="  221.753">  2  6  1 -1</clus>
<clus scale="   48.967">  1  3  2 -1</clus>
</clustering>
</event>
<event>
 6    0  0.4227619E+002  0.1327800E+03  0.7546771E-02  0.1223388E+00
         21   -1    0    0  504  501  0.00000000000E+00  0.00000000000E+00  0.12170117458E+03  0.12170117458E+03  0.00000000000E+00 0.  1.
         21   -1    0    0  506  502 -0.00000000000E+00 -0.00000000000E+00 -0.24057175959E+03  0.24057175959E+03  0.00000000000E+00 0.  1.
         21    1    1    2  503  505 -0.56918787970E+02 -0.40538621068E+02 -0.18603198393E+02  0.72313257516E+02  0.00000000000E+00 0.  1.
         21    1    1    2  504  502  0.34979898509E+02  0.14128234699E+03 -0.26110890262E+02  0.14787181429E+03  0.00000000000E+00 0.  1.
         21    1    1    2  505  501 -0.21800178382E+02 -0.47154952586E+02 -0.29284864857E+02  0.59635900602E+02  0.00000000000E+00 0.  1.
         21    1    1    2  506  503  0.43739067843E+02 -0.53588773341E+02 -0.44871631504E+02  0.82451961758E+02  0.00000000000E+00 0.  1.
<scales pt_clust_3="30.24517" pt_clust_4="128.06269" pt_clust_5="30.24517" pt_clust_6="69.17270"></scales>
<clustering>
<clus scale="   30.245">  3  5 -1 -1</clus>
<clus scale="   69.173">  2  6  1 -1</clus>
<clus scale="  128.063">  2  4  1 -1</clus>
<clus scale="  132.780">  1  3  2 -1</clus>
</clustering>
</event>
<event>
 6    0  0.4227619E+002  0.1085867E+03  0.7546771E-02  0.1263210E+00
         21   -1    0    0  504  501  0.00000000000E+00  0.00000000000E+00  0.44204559262E+03  0.44204559262E+03  0.00000000000E+00 0. -1.
         21   -1    0    0  503  502 -0.00000000000E+00 -0.00000000000E+00 -0.54988049605E+03  0.54988049605E+03  0.00000000000E+00 0. -1.
         21    1    1    2  503  505 -0.10403037588E+03  0.39959073071E+02 -0.44862849125E+03  0.46226244688E+03  0.00000000000E+00 0. -1.
         21    1    1    2  504  506  0.10177864260E+03 -0.38810811615E+02  0.17982037694E+03  0.21023924265E+03  0.00000000000E+00 0. -1.
         21    1    1    2  505  501 -0.94445193455E+02  0.81823432079E+01  0.19473089484E+03  0.21658016232E+03  0.00000000000E+00 0. -1.
         21    1    1    2  506  502  0.96696926732E+02 -0.93306046632E+01 -0.33757683949E+02  0.10284423683E+03  0.00000000000E+00 0.  1.
<scales pt_clust_3="14000.00000" pt_clust_4="39.96326" pt_clust_5="94.79897" pt_clust_6="108.58669"></scales>
<clustering>
<clus scale="   94.799">  1  5  2 -1</clus>
<clus scale="   39.963">  1  4  2 -1</clus>
<clus scale="  108.587">  1  6  2 -1</clus>
<clus scale="   94.799">  1  3  2 -1</clus>
</clustering>
</event>
<event>
 6    0  0.4227619E+002  0.1382053E+03  0.7546771E-02  0.1215764E+00
         21   -1    0    0  506  501  0.00000000000E+00  0.00000000000E+00  0.96676321401E+03  0.96676321401E+03  0.00000000000E+00 0. -1.
         21   -1    0    0  504  502 -0.00000000000E+00 -0.00000000000E+00 -0.71818733834E+03  0.71818733834E+03  0.00000000000E+00 0. -1.
         21    1    1    2  503  501 -0.17650069707E+03  0.20874842411E+02 -0.25202777383E+02  0.17950887193E+03  0.00000000000E+00 0.  1.
         21    1    1    2  504  503 -0.16461345809E+02  0.35543402753E+02 -0.77104082863E+02  0.86483229468E+02  0.00000000000E+00 0.  1.
         21    1    1    2  505  502  0.63173314689E+02 -0.14686924293E+02 -0.52678627251E+03  0.53076393090E+03  0.00000000000E+00 0. -1.
         21    1    1    2  506  505  0.12978872819E+03 -0.41731320871E+02  0.87766900842E+03  0.88819452005E+03  0.00000000000E+00 0. -1.
<scales pt_clust_3="14000.00000" pt_clust_4="39.17026" pt_clust_5="51.67420" pt_clust_6="138.20530"></scales>
<clustering>
<clus scale="   39.170">  2  4  1 -1</clus>
<clus scale="   51.674">  2  5  1 -1</clus>
<clus scale="  138.205">  1  6  2 -1</clus>
<clus scale="  138.205">  1  3  2 -1</clus>
</clustering>
</event>
<event>
 6    0  0.4227619E+002  0.1246161E+03  0.7546771E-02  0.1235670E+00
         21   -1    0    0  503  501  0.00000000000E+00  0.00000000000E+00  0.25472166721E+04  0.25472166721E+04  0.00000000000E+00 0. -1.
         21   -1    0    0  506  502 -0.00000000000E+00 -0.00000000000E+00 -0.19206520137E+02  0.19206520137E+02  0.00000000000E+00 0. -1.
         21    1    1    2  503  504  0.12248504595E+02  0.29318689494E+02  0.96149333058E+03  0.96201820990E+03  0.00000000000E+00 0.  1.
         21    1    1    2  504  505 -0.12407513246E+03  0.30392257697E+02  0.11150888690E+04  0.11223820711E+04  0.00000000000E+00 0. -1.
         21    1    1    2  505  502 -0.95327970131E+01 -0.42539858891E+02  0.16083739590E+03  0.16664087654E+03  0.00000000000E+00 0.  1.
         21    1    1    2  506  501  0.12135942488E+03 -0.17171088301E+02  0.29059055651E+03  0.31538203470E+03  0.00000000000E+00 0. -1.
<scales pt_clust_3="31.77438" pt_clust_4="14000.00000" pt_clust_5="40.36771" pt_clust_6="124.61609"></scales>
<clustering>
<clus scale="   31.774">  1  3  2 -1</clus>
<clus scale="   40.368">  2  5  1 -1</clus>
<clus scale="  124.616">  2  6  1 -1</clus>
<clus scale="   31.774">  1  3  2 -1</clus>
</clustering>
</event>
<event>
 6    0  0.4227619E+002  0.1507662E+03  0.7546771E-02  0.1199535E+00
         21   -1    0    0  506  501  0.00000000000E+00  0.00000000000E+00  0.12465763800E+03  0.12465763800E+03  0.00000000000E+00 0.  1.
         21   -1    0    0  505  502 -0.00000000000E+00 -0.00000000000E+00 -0.48084409750E+03  0.48084409750E+03  0.00000000000E+00 0.  1.
         21    1    1    2  503  501  0.12854655927E+02 -0.27968018539E+02  0.29019034262E+02  0.42303151059E+02  0.00000000000E+00 0.  1.
         21    1    1    2  504  502  0.24326729859E+02  0.31111308849E+02 -0.23409496863E+03  0.23740294367E+03  0.00000000000E+00 0.  1.
         21    1    1    2  505  503 -0.32841584412E+02 -0.11686107145E+03  0.17223376626E+02  0.12260393301E+03  0.00000000000E+00 0.  1.
         21    1    1    2  506  504 -0.43398013745E+01  0.11371778114E+03 -0.16833390176E+03  0.20319170777E+03  0.00000000000E+00 0.  1.
<scales pt_clust_3="30.55179" pt_clust_4="39.49308" pt_clust_5="30.55179" pt_clust_6="138.01960"></scales>
<clustering>
<clus scale="   30.552">  3  5 -1 -1</clus>
<clus scale="   39.493">  2  4  1 -1</clus>
<clus scale="  138.020">  2  6  1 -1</clus>
<clus scale="  150.766">  1  3  2 -1</clus>
</clustering>
</event>
<event>
 6    0  0.4227619E+002  0.1118633E+03  0.7546771E-02  0.1257158E+00
         21   -1    0    0  503  501  0.00000000000E+00  0.00000000000E+00  0.21760500500E+03  0.21760500500E+03  0.00000000000E+00 0.  1.
         21   -1    0    0  504  502 -0.00000000000E+00 -0.00000000000E+00 -0.20309644046E+03  0.20309644046E+03  0.00000000000E+00 0.  1.
         21    1    1    2  503  505  0.83474401917E+02 -0.88224695034E+02 -0.45697688753E+02  0.12976845282E+03  0.00000000000E+00 0.  1.
         21    1    1    2  504  506  0.35823013328E+02  0.11676512625E+02 -0.32730294884E+02  0.49908931407E+02  0.00000000000E+00 0. -1.
         21    1    1    2  505  502 -0.21273536413E+02  0.24652857291E+02 -0.50266359186E+02  0.59891849111E+02  0.00000000000E+00 0.  1.
         21    1    1    2  506  501 -0.98023878832E+02  0.51895325117E+02  0.14320290736E+03  0.18113221212E+03  0.00000000000E+00 0.  1.
<scales pt_clust_3="14000.00000" pt_clust_4="35.17805" pt_clust_5="32.56266" pt_clust_6="111.86332"></scales>
<clustering>
<clus scale="   32.563">  2  5  1 -1</clus>
<clus scale="   35.178">  2  4  1 -1</clus>
<clus scale="  111.863">  1  6  2 -1</clus>
<clus scale="  111.863">  1  3  2 -1</clus>
</clustering>
</event>
<event>
 6    0  0.4227619E+002  0.1642728E+03  0.7546771E-02  0.1183956E+00
         21   -1    0    0  506  501  0.00000000000E+00  0.00000000000E+00  0.14213346259E+04  0.14213346259E+04  0.00000000000E+00 0.  1.
         21   -1    0    0  503  502 -0.00000000000E+00 -0.00000000000E+00 -0.22026460131E+03  0.22026460131E+03  0.00000000000E+00 0.  1.
         21    1    1    2  503  504 -0.18138491464E+02 -0.39863265424E+02  0.14793375647E+03  0.15428052731E+03  0.00000000000E+00 0.  1.
         21    1    1    2  504  501  0.55071553125E+01  0.34734768773E+02  0.84751660896E+03  0.84824597576E+03  0.00000000000E+00 0.  1.
         21    1    1    2  505  502  0.39338051717E+02 -0.15932839545E+03 -0.16500402042E+03  0.23272160765E+03  0.00000000000E+00 0.  1.
         21    1    1    2  506  505 -0.26706715565E+02  0.16445689210E+03  0.37062367961E+03  0.40635111653E+03  0.00000000000E+00 0.  1.
<scales pt_clust_3="34.95144" pt_clust_4="35.16864" pt_clust_5="164.27282" pt_clust_6="14000.00000"></scales>
<clustering>
<clus scale="   35.169">  1  4  2 -1</clus>
<clus scale="   34.951">  1  3  2 -1</clus>
<clus scale="  164.273">  2  5  1 -1</clus>
<clus scale="   35.169">  1  3  2 -1</clus>
</clustering>
</event>
<event>
 6    0  0.4227619E+002  0.1676221E+03  0.7546771E-02  0.1180350E+00
         21   -1    0    0  503  501  0.00000000000E+00  0.00000000000E+00  0.15609599594E+04  0.15609599594E+04  0.00000000000E+00 0.  1.
         21   -1    0    0  505  502 -0.00000000000E+00 -0.00000000000E+00 -0.37201295833E+03  0.37201295833E+03  0.00000000000E+00 0. -1.
         21    1    1    2  503  506 -0.94016516314E+02  0.26320108097E+02  0.45787048000E+03  0.46816367852E+03  0.00000000000E+00 0.  1.
         21    1    1    2  504  501  0.12787238968E+03  0.13704419307E+03  0.10542182952E+04  0.10707514524E+04  0.00000000000E+00 0.  1.
         21    1    1    2  505  504 -0.63283868278E+02 -0.18038463022E+03 -0.28202028911E+03  0.34070354602E+03  0.00000000000E+00 0. -1.
         21    1    1    2  506  502  0.29427994913E+02  0.17020329045E+02 -0.41121484984E+02  0.53354240813E+02  0.00000000000E+00 0.  1.
<scales pt_clust_3="97.25562" pt_clust_4="14000.00000" pt_clust_5="167.62215" pt_clust_6="33.99557"></scales>
<clustering>
<clus scale="   33.996">  2  6  1 -1</clus>
<clus scale="   97.256">  1  3  2 -1</clus>
<clus scale="  167.622">  2  5  1 -1</clus>
<clus scale="   97.256">  1  3  2 -1</clus>
</clustering>
</event>
<event>
 6    0  0.4227619E+002  0.9820268E+02  0.7546771E-02  0.1284122E+00
         21   -1    0    0  505  501  0.00000000000E+00  0.00000000000E+00  0.48597037460E+03  0.48597037460E+03  0.00000000000E+00 0. -1.
         21   -1    0    0  504  502 -0.00000000000E+00 -0.00000000000E+00 -0.42641115799E+02  0.42641115799E+02  0.00000000000E+00 0.  1.
         21    1    1    2  503  502  0.55295555065E+01  0.59809383807E+02  0.28349739476E+02  0.66418718023E+02  0.00000000000E+00 0.  1.
         21    1    1    2  504  506 -0.40403314869E+02 -0.81754007076E+01  0.10830053849E+03  0.11588041968E+03  0.00000000000E+00 0. -1.
         21    1    1    2  505  503  0.85398353359E+02 -0.12586209430E+02  0.23480919092E+03  0.25017323511E+03  0.00000000000E+00 0.  1.
         21    1    1    2  506  501 -0.50524593997E+02 -0.39047773670E+02  0.71869789920E+02  0.96139117586E+02  0.00000000000E+00 0. -1.
<scales pt_clust_3="60.06445" pt_clust_4="35.86939" pt_clust_5="87.46852" pt_clust_6="35.86939"></scales>
<clustering>
<clus scale="   35.869">  4  6 -1 -1</clus>
<clus scale="   60.064">  2  3  1 -1</clus>
<clus scale="   87.469">  1  5  2 -1</clus>
<clus scale="   87.469">  1  3  2 -1</clus>
</clustering>
</event>
<event>
 6    0  0.4227619E+002  0.7193060E+02  0.7546771E-02  0.1353648E+00
         21   -1    0    0  506  501  0.00000000000E+00  0.00000000000E+00  0.42314128699E+02  0.42314128699E+02  0.00000000000E+00 0. -1.
         21   -1    0    0  503  502 -0.00000000000E+00 -0.00000000000E+00 -0.11869557559E+04  0.11869557559E+04  0.00000000000E+00 0. -1.
         21    1    1    2  503  505  0.57859955188E+02  0.31709913336E+02 -0.75169620094E+03  0.75458629163E+03  0.00000000000E+00 0. -1.
         21    1    1    2  504  502 -0.23544105504E+02 -0.92055713138E+02 -0.27411508047E+03  0.29011662580E+03  0.00000000000E+00 0. -1.
         21    1    1    2  505  501  0.88534158461E+01  0.68124715822E+02 -0.12878936810E+02  0.69894398140E+02  0.00000000000E+00 0. -1.
         21    1    1    2  506  504 -0.43169265530E+02 -0.77789160205E+01 -0.10595140897E+03  0.11467256901E+03  0.00000000000E+00 0. -1.
<scales pt_clust_3="64.39797" pt_clust_4="71.93060" pt_clust_5="14000.00000" pt_clust_6="43.86453"></scales>
<clustering>
<clus scale="   43.865">  1  6  2 -1</clus>
<clus scale="   64.398">  2  3  1 -1</clus>
<clus scale="   71.931">  2  4  1 -1</clus>
<clus scale="   43.865">  1  3  2 -1</clus>
</clustering>
</event>
<event>
 6    0  0.4227619E+002  0.1849840E+03  0.7546771E-02  0.1163065E+00
         21   -1    0    0  504  501  0.00000000000E+00  0.00000000000E+00  0.40485461968E+03  0.40485461968E+03  0.00000000000E+00 0. -1.
         21   -1    0    0  503  502 -0.00000000000E+00 -0.00000000000E+00 -0.14437222604E+04  0.14437222604E+04  0.00000000000E+00 0.  1.
         21    1    1    2  503  506 -0.38489510525E+02 -0.19423292430E+03 -0.11001384162E+04  0.11178159089E+04  0.00000000000E+00 0.  1.
         21    1    1    2  504  505 -0.94737419437E+02  0.78664313646E+01  0.28043367471E+03  0.29610826617E+03  0.00000000000E+00 0. -1.
         21    1    1    2  505  502 -0.66203752929E+02  0.11819293703E+03 -0.70813772356E+01  0.13565637903E+03  0.00000000000E+00 0.  1.
         21    1    1    2  506  501  0.19943068289E+03  0.68173555901E+02 -0.21208152195E+03  0.29899632599E+03  0.00000000000E+00 0.  1.
<scales pt_clust_3="184.98403" pt_clust_4="95.06345" pt_clust_5="170.41979" pt_clust_6="14000.00000"></scales>
<clustering>
<clus scale="   95.063">  1  4  2 -1</clus>
<clus scale="  170.420">  1  5  2 -1</clus>
<clus scale="  184.984">  2  3  1 -1</clus>
<clus scale="   95.063">  1  3  2 -1</clus>
</clustering>
</event>
<event>
 6    0  0.4227619E+002  0.1344399E+03  0.7546771E-02  0.1221013E+00
         21   -1    0    0  506  501  0.00000000000E+00  0.00000000000E+00  0.86879469491E+02  0.86879469491E+02  0.00000000000E+00 0.  1.
         21   -1    0    0  503  502 -0.00000000000E+00 -0.00000000000E+00 -0.48981490956E+03  0.48981490956E+03  0.00000000000E+00 0. -1.
         21    1    1    2  503  501  0.54497011538E+02  0.13670640440E+02 -0.26727695244E+03  0.27311861888E+03  0.00000000000E+00 0. -1.
         21    1    1    2  504  505 -0.20460730447E+02  0.50415250234E+02 -0.16258664995E+02  0.56786293540E+02  0.00000000000E+00 0.  1.
         21    1    1    2  505  502 -0.68714678387E+02 -0.12600111066E+03 -0.93279447087E+02  0.17116962979E+03  0.00000000000E+00 0.  1.
         21    1    1    2  506  504  0.34678397296E+02  0.61915219985E+02 -0.26120375552E+02  0.75619836840E+02  0.00000000000E+00 0.  1.
<scales pt_clust_3="56.18550" pt_clust_4="47.27598" pt_clust_5="123.12172" pt_clust_6="47.27598"></scales>
<clustering>
<clus scale="   47.276">  4  6 -1 -1</clus>
<clus scale="   56.186">  2  3  1 -1</clus>
<clus scale="  123.122">  2  5  1 -1</clus>
<clus scale="  134.440">  1  3  2 -1</clus>
</clustering>
</event>
<event>
 6    0  0.4227619E+002  0.7972099E+02  0.7546771E-02  0.1329845E+00
         21   -1    0    0  505  501  0.00000000000E+00  0.00000000000E+00  0.17990199189E+04  0.17990199189E+04  0.00000000000E+00 0. -1.
         21   -1    0    0  504  502 -0.00000000000E+00 -0.00000000000E+00 -0.23632839993E+03  0.23632839993E+03  0.00000000000E+00 0. -1.
         21    1    1    2  503  502 -0.16764808305E+01 -0.29994952108E+02 -0.10514369267E+03  0.10935128645E+03  0.00000000000E+00 0. -1.
         21    1    1    2  504  506  0.61764802507E+02  0.83245046465E+02 -0.10470290107E+03  0.14733406287E+03  0.00000000000E+00 0. -1.
         21    1    1    2  505  503  0.85071260717E+01 -0.63844567977E+02  0.12326333531E+04  0.12343149854E+04  0.00000000000E+00 0.  1.
         21    1    1    2  506  501 -0.68595447749E+02  0.10594473621E+02  0.53990475960E+03  0.54434798407E+03  0.00000000000E+00 0. -1.
<scales pt_clust_3="30.04177" pt_clust_4="79.72099" pt_clust_5="64.60109" pt_clust_6="14000.00000"></scales>
<clustering>
<clus scale="   30.042">  2  3  1 -1</clus>
<clus scale="   64.601">  1  5  2 -1</clus>
<clus scale="   79.721">  2  4  1 -1</clus>
<clus scale="   64.601">  1  3  2 -1</clus>
</clustering>
</event>
<event>
 6    0  0.4227619E+002  0.6610800E+02  0.7546771E-02  0.1373851E+00
         21   -1    0    0  504  501  0.00000000000E+00  0.00000000000E+00  0.25841921726E+03  0.25841921726E+03  0.00000000000E+00 0.  1.
         21   -1    0    0  506  502 -0.00000000000E+00 -0.00000000000E+00 -0.31251557853E+03  0.31251557853E+03  0.00000000000E+00 0.  1.
         21    1    1    2  503  502 -0.41076400910E+02  0.45411359484E+02 -0.13763436479E+03  0.15064089967E+03  0.00000000000E+00 0.  1.
         21    1    1    2  504  503  0.49834170466E+02  0.25874253480E+02  0.18872165266E+03  0.19689790177E+03  0.00000000000E+00 0.  1.
         21    1    1    2  505  501 -0.41610063847E+02 -0.92053699699E+02  0.10302440901E+02  0.10154516892E+03  0.00000000000E+00 0.  1.
         21    1    1    2  506  505  0.32852294292E+02  0.20768086735E+02 -0.11548609003E+03  0.12185082543E+03  0.00000000000E+00 0.  1.
<scales pt_clust_3="66.10800" pt_clust_4="56.96764" pt_clust_5="14000.00000" pt_clust_6="38.86627"></scales>
<clustering>
<clus scale="   38.866">  2  6  1 -1</clus>
<clus scale="   56.968">  1  4  2 -1</clus>
<clus scale="   66.108">  2  3  1 -1</clus>
<clus scale="   56.968">  1  3  2 -1</clus>
</clustering>
</event>
<event>
 6    0  0.4227619E+002  0.2218613E+03  0.7546771E-02  0.1132503E+00
         21   -1    0    0  506  501  0.00000000000E+00  0.00000000000E+00  0.86003371916E+03  0.86003371916E+03  0.00000000000E+00 0.  1.
         21   -1    0    0  503  502 -0.00000000000E+00 -0.00000000000E+00 -0.21662967382E+03  0.21662967382E+03  0.00000000000E+00 0. -1.
         21    1    1    2  503  504 -0.21305971691E+03 -0.17338481622E+03  0.22730184918E+03  0.35654294006E+03  0.00000000000E+00 0. -1.
         21    1    1    2  504  505  0.85422660376E+02  0.17730174245E+03  0.37313240621E+03  0.42185392181E+03  0.00000000000E+00 0.  1.
         21    1    1    2  505  501  0.39423749784E+02 -0.39427229392E+01  0.15253885142E+03  0.15760037533E+03  0.00000000000E+00 0.  1.
         21    1    1    2  506  502  0.88213306752E+02  0.25796713762E-01 -0.10956906146E+03  0.14066615578E+03  0.00000000000E+00 0. -1.
<scales pt_clust_3="221.86129" pt_clust_4="14000.00000" pt_clust_5="39.62041" pt_clust_6="89.08285"></scales>
<clustering>
<clus scale="   39.620">  1  5  2 -1</clus>
<clus scale="   89.083">  2  6  1 -1</clus>
<clus scale="  221.861">  2  3  1 -1</clus>
<clus scale="   39.620">  1  3  2 -1</clus>
</clustering>
</event>
<event>
 6    0  0.4227619E+002  0.3589555E+03  0.7546771E-02  0.1058998E+00
         21   -1    0    0  503  501  0.00000000000E+00  0.00000000000E+00  0.49412794159E+03  0.49412794159E+03  0.00000000000E+00 0.  1.
         21   -1    0    0  505  502 -0.00000000000E+00 -0.00000000000E+00 -0.90752152101E+03  0.90752152101E+03  0.00000000000E+00 0.  1.
         21    1    1    2  503  504 -0.36726029835E+03 -0.31094655441E+02  0.32925574697E+03  0.49422297726E+03  0.00000000000E+00 0.  1.
         21    1    1    2  504  502  0.29456259572E+03  0.12195218053E+03 -0.40011642266E+03  0.51159809305E+03  0.00000000000E+00 0.  1.
         21    1    1    2  505  506  0.97985770904E+01 -0.42850093117E+02 -0.30517830646E+03  0.30832765255E+03  0.00000000000E+00 0.  1.
         21    1    1    2  506  501  0.62899125537E+02 -0.48007431972E+02 -0.37354597259E+02  0.87500739736E+02  0.00000000000E+00 0. -1.
<scales pt_clust_3="358.95552" pt_clust_4="14000.00000" pt_clust_5="43.95614" pt_clust_6="82.68910"></scales>
<clustering>
<clus scale="   43.956">  2  5  1 -1</clus>
<clus scale="   82.689">  2  6  1 -1</clus>
<clus scale="  358.956">  1  3  2 -1</clus>
<clus scale="  358.956">  1  3  2 -1</clus>
</clustering>
</event>
<event>
 6    0  0.4227619E+002  0.1042593E+03  0.7546771E-02  0.1271586E+00
         21   -1    0    0  506  501  0.00000000000E+00  0.00000000000E+00  0.21101182863E+04  0.21101182863E+04  0.00000000000E+00 0.  1.
         21   -1    0    0  503  502 -0.00000000000E+00 -0.00000000000E+00 -0.52551965495E+03  0.52551965495E+03  0.00000000000E+00 0. -1.
         21    1    1    2  503  504 -0.93019145314E+02  0.27224520017E+02 -0.67517574705E+02  0.11812010320E+03  0.00000000000E+00 0. -1.
         21    1    1    2  504  501  0.79044257078E+02 -0.48850388247E+02  0.16590479036E+04  0.16616480678E+04  0.00000000000E+00 0.  1.
         21    1    1    2  505  502 -0.11871194722E+02 -0.38603047770E+02 -0.42791426812E+03  0.42981593901E+03  0.00000000000E+00 0. -1.
         21    1    1    2  506  505  0.25846082958E+02  0.60228916000E+02  0.42098257066E+03  0.42605383125E+03  0.00000000000E+00 0. -1.
<scales pt_clust_3="104.25926" pt_clust_4="14000.00000" pt_clust_5="40.38713" pt_clust_6="64.48703"></scales>
<clustering>
<clus scale="   40.387">  2  5  1 -1</clus>
<clus scale="   64.487">  1  6  2 -1</clus>
<clus scale="  104.259">  2  3  1 -1</clus>
<clus scale="   64.487">  1  3  2 -1</clus>
</clustering>
</event>
<event>
 6    0  0.4227619E+002  0.1767871E+03  0.7546771E-02  0.1170949E+00
         21   -1    0    0  504  501  0.00000000000E+00  0.00000000000E+00  0.89409126187E+03  0.89409126187E+03  0.00000000000E+00 0.  1.
         21   -1    0    0  506  502 -0.00000000000E+00 -0.00000000000E+00 -0.85512821705E+03  0.85512821705E+03  0.00000000000E+00 0. -1.
         21    1    1    2  503  502 -0.17643785449E+03 -0.12427017698E+03  0.47291156506E+02  0.22092950655E+03  0.00000000000E+00 0.  1.
         21    1    1    2  504  503  0.18925230211E+02  0.39305020595E+02  0.60471766991E+03  0.60628913010E+03  0.00000000000E+00 0.  1.
         21    1    1    2  505  501 -0.13762998259E+02  0.48729431723E+02  0.13999869980E+03  0.14887448936E+03  0.00000000000E+00 0.  1.
         21    1    1    2  506  505  0.17127562253E+03  0.36235724658E+02 -0.75304448139E+03  0.77312635291E+03  0.00000000000E+00 0. -1.
<scales pt_clust_3="176.78709" pt_clust_4="43.62395" pt_clust_5="68.53583" pt_clust_6="14000.00000"></scales>
<clustering>
<clus scale="   43.624">  1  4  2 -1</clus>
<clus scale="   68.536">  1  5  2 -1</clus>
<clus scale="  176.787">  1  3  2 -1</clus>
<clus scale="   43.624">  1  3  2 -1</clus>
</clustering>
</event>
<event>
 6    0  0.4227619E+002  0.1201645E+03  0.7546771E-02  0.1242826E+00
         21   -1    0    0  506  501  0.00000000000E+00  0.00000000000E+00  0.18082744547E+03  0.18082744547E+03  0.00000000000E+00 0. -1.
         21   -1    0    0  504  502 -0.00000000000E+00 -0.00000000000E+00 -0.11829178274E+04  0.11829178274E+04  0.00000000000E+00 0. -1.
         21    1    1    2  503  502  0.70365544436E+02  0.21747069230E+02  0.51225198720E+02  0.89712127651E+02  0.00000000000E+00 0. -1.
         21    1    1    2  504  505  0.50343948665E+02  0.29732637828E+02 -0.97882181108E+03  0.98056651012E+03  0.00000000000E+00 0. -1.
         21    1    1    2  505  501 -0.15280187686E+03 -0.51630462847E+02 -0.14443894520E+03  0.21651033961E+03  0.00000000000E+00 0. -1.
         21    1    1    2  506  503  0.32092383761E+02  0.15075578973E+00  0.69945175626E+02  0.76956295494E+02  0.00000000000E+00 0. -1.
<scales pt_clust_3="30.38646" pt_clust_4="58.46831" pt_clust_5="110.99800" pt_clust_6="30.38646"></scales>
<clustering>
<clus scale="   30.386">  3  6 -1 -1</clus>
<clus scale="   58.468">  2  4  1 -1</clus>
<clus scale="  110.998">  2  5  1 -1</clus>
<clus scale="  120.165">  1  3  2 -1</clus>
</clustering>
</event>
<event>
 6    0  0.4227619E+002  0.1389427E+03  0.7546771E-02  0.1214759E+00
         21   -1    0    0  504  501  0.00000000000E+00  0.00000000000E+00  0.97655779386E+03  0.97655779386E+03  0.00000000000E+00 0. -1.
         21   -1    0    0  505  502 -0.00000000000E+00 -0.00000000000E+00 -0.77990671998E+03  0.77990671998E+03  0.00000000000E+00 0. -1.
         21    1    1    2  503  502  0.55253905844E+02 -0.62465312661E+01 -0.13729671876E+03  0.14812968050E+03  0.00000000000E+00 0. -1.
         21    1    1    2  504  503  0.40741149776E+02  0.61201472571E+02  0.11879643074E+03  0.13970702733E+03  0.00000000000E+00 0. -1.
         21    1    1    2  505  506 -0.85673784272E+01  0.13633064458E+03 -0.60587934458E+03  0.62108713142E+03  0.00000000000E+00 0. -1.
         21    1    1    2  506  501 -0.87427677193E+02 -0.19128558589E+03  0.82103070648E+03  0.84754067460E+03  0.00000000000E+00 0. -1.
<scales pt_clust_3="55.60587" pt_clust_4="73.94337" pt_clust_5="138.94267" pt_clust_6="14000.00000"></scales>
<clustering>
<clus scale="   55.606">  2  3  1 -1</clus>
<clus scale="   73.943">  1  4  2 -1</clus>
<clus scale="  138.943">  2  5  1 -1</clus>
<clus scale="   73.943">  1  3  2 -1</clus>
</clustering>
</event>
<event>
 6    0  0.4227619E+002  0.1233739E+03  0.7546771E-02  0.1237633E+00
         21   -1    0    0  503  501  0.00000000000E+00  0.00000000000E+00  0.10053394485E+03  0.10053394485E+03  0.00000000000E+00 0. -1.
         21   -1    0    0  505  502 -0.00000000000E+00 -0.00000000000E+00 -0.11378111703E+04  0.11378111703E+04  0.00000000000E+00 0. -1.
         21    1    1    2  503  506  0.10258957177E+02  0.42010889554E+02 -0.48463945401E+02  0.64953175806E+02  0.00000000000E+00 0.  1.
         21    1    1    2  504  501 -0.63202413531E+02  0.74312573319E+02  0.48362959090E+02  0.10888470711E+03  0.00000000000E+00 0. -1.
         21    1    1    2  505  504 -0.78099094412E+02 -0.40447064125E+02 -0.35604731720E+03  0.36674940441E+03  0.00000000000E+00 0. -1.
         21    1    1    2  506  502  0.13104255077E+03 -0.75876398748E+02 -0.68112892198E+03  0.69775782787E+03  0.00000000000E+00 0. -1.
<scales pt_clust_3="43.24536" pt_clust_4="14000.00000" pt_clust_5="86.32360" pt_clust_6="123.37391"></scales>
<clustering>
<clus scale="   43.245">  1  3  2 -1</clus>
<clus scale="   86.324">  2  5  1 -1</clus>
<clus scale="  123.374">  2  6  1 -1</clus>
<clus scale="   43.245">  1  3  2 -1</clus>
</clustering>
</event>
<event>
 6    0  0.4227619E+002  0.9756973E+02  0.7546771E-02  0.1285491E+00
         21   -1    0    0  505  501  0.00000000000E+00  0.00000000000E+00  0.12838813163E+04  0.12838813163E+04  0.00000000000E+00 0. -1.
         21   -1    0    0  504  502 -0.00000000000E+00 -0.00000000000E+00 -0.76788923672E+02  0.76788923672E+02  0.00000000000E+00 0. -1.
         21    1    1    2  503  501 -0.66068269177E+02  0.42880305313E+02  0.97615694269E+03  0.97932942034E+03  0.00000000000E+00 0. -1.
         21    1    1    2  504  506  0.70725388555E+02 -0.18761964009E+02  0.33029972273E+01  0.73246171712E+02  0.00000000000E+00 0. -1.
         21    1    1    2  505  502 -0.97977245547E+02 -0.50704622102E+02  0.12886921161E+03  0.16964012806E+03  0.00000000000E+00 0. -1.
         21    1    1    2  506  503  0.93320126169E+02  0.26586280797E+02  0.98763241071E+02  0.13845451983E+03  0.00000000000E+00 0. -1.
<scales pt_clust_3="76.13088" pt_clust_4="73.17166" pt_clust_5="97.56973" pt_clust_6="14000.00000"></scales>
<clustering>
<clus scale="   73.172">  2  4  1 -1</clus>
<clus scale="   76.131">  1  3  2 -1</clus>
<clus scale="   97.570">  2  5  1 -1</clus>
<clus scale="   76.131">  1  3  2 -1</clus>
</clustering>
</event>
<event>
 6    0  0.4227619E+002  0.8959827E+02  0.7546771E-02  0.1303827E+00
         21   -1    0    0  506  501  0.00000000000E+00  0.00000000000E+00  0.61851540712E+03  0.61851540712E+03  0.00000000000E+00 0. -1.
         21   -1    0    0  503  502 -0.00000000000E+00 -0.00000000000E+00 -0.11529997099E+03  0.11529997099E+03  0.00000000000E+00 0.  1.
         21    1    1    2  503  501 -0.47342155523E+02  0.43697174884E+02 -0.11515580015E+02  0.65447164686E+02  0.00000000000E+00 0.  1.
         21    1    1    2  504  505 -0.32312945385E+02  0.71264658751E+02  0.13303640328E+03  0.15434203130E+03  0.00000000000E+00 0.  1.
         21    1    1    2  505  502  0.47267632467E+02 -0.12937917256E+03  0.72784445149E+01  0.13793540201E+03  0.00000000000E+00 0.  1.
         21    1    1    2  506  504  0.32387468440E+02  0.14417338930E+02  0.37441616834E+03  0.37609078012E+03  0.00000000000E+00 0. -1.
<scales pt_clust_3="62.97543" pt_clust_4="89.59827" pt_clust_5="14000.00000" pt_clust_6="35.45148"></scales>
<clustering>
<clus scale="   35.451">  1  6  2 -1</clus>
<clus scale="   62.975">  2  3  1 -1</clus>
<clus scale="   89.598">  1  4  2 -1</clus>
<clus scale="   35.451">  1  3  2 -1</clus>
</clustering>
</event>
<event>
 6    0  0.4227619E+002  0.1159125E+03  0.7546771E-02  0.1249997E+00
         21   -1    0    0  503  501  0.00000000000E+00  0.00000000000E+00  0.38687383636E+03  0.38687383636E+03  0.00000000000E+00 0. -1.
         21   -1    0    0  505  502 -0.00000000000E+00 -0.00000000000E+00 -0.17214815288E+03  0.17214815288E+03  0.00000000000E+00 0. -1.
         21    1    1    2  503  506 -0.39655465157E+02  0.32312975107E+02  0.64772341800E+02  0.82535692518E+02  0.00000000000E+00 0. -1.
         21    1    1    2  504  502  0.93694876895E+02 -0.12369106049E+02 -0.10809217818E+03  0.14358148810E+03  0.00000000000E+00 0. -1.
         21    1    1    2  505  501  0.76469365480E+02 -0.11740550242E+02  0.73398197857E+02  0.10664286111E+03  0.00000000000E+00 0. -1.
         21    1    1    2  506  504 -0.13050877722E+03 -0.82033188157E+01  0.18464732201E+03  0.22626194752E+03  0.00000000000E+00 0. -1.
<scales pt_clust_3="37.57192" pt_clust_4="99.13140" pt_clust_5="77.36540" pt_clust_6="37.57192"></scales>
<clustering>
<clus scale="   37.572">  3  6 -1 -1</clus>
<clus scale="   77.365">  1  5  2 -1</clus>
<clus scale="   99.131">  2  4  1 -1</clus>
<clus scale="   77.365">  1  3  2 -1</clus>
</clustering>
</event>
<event>
 6    0  0.4227619E+002  0.9604780E+02  0.7546771E-02  0.1288833E+00
         21   -1    0    0  504  501  0.00000000000E+00  0.00000000000E+00  0.76858153907E+03  0.76858153907E+03  0.00000000000E+00 0. -1.
         21   -1    0    0  503  502 -0.00000000000E+00 -0.00000000000E+00 -0.13314717573E+03  0.13314717573E+03  0.00000000000E+00 0. -1.
         21    1    1    2  503  506  0.67573349758E+02  0.79410914059E+02 -0.54144446234E+02  0.11748988011E+03  0.00000000000E+00 0. -1.
         21    1    1    2  504  505 -0.37729390461E+02  0.47707950427E+02  0.30908628239E+03  0.31501410350E+03  0.00000000000E+00 0. -1.
         21    1    1    2  505  502  0.40474546302E+02 -0.96613803205E+02  0.27906044274E+02  0.10840278214E+03  0.00000000000E+00 0. -1.
         21    1    1    2  506  501 -0.70318505600E+02 -0.30505061281E+02  0.35258648290E+03  0.36082194905E+03  0.00000000000E+00 0. -1.
<scales pt_clust_3="14000.00000" pt_clust_4="60.82397" pt_clust_5="96.03496" pt_clust_6="96.04780"></scales>
<clustering>
<clus scale="   60.824">  1  4  2 -1</clus>
<clus scale="   96.035">  2  5  1 -1</clus>
<clus scale="   96.048">  1  6  2 -1</clus>
<clus scale="   60.824">  1  3  2 -1</clus>
</clustering>
</event>
<event>
 6    0  0.4227619E+002  0.8155205E+02  0.7546771E-02  0.1324704E+00
         21   -1    0    0  505  501  0.00000000000E+00  0.00000000000E+00  0.19724103897E+03  0.19724103897E+03  0.00000000000E+00 0. -1.
         21   -1    0    0  506  502 -0.00000000000E+00 -0.00000000000E+00 -0.18631919441E+04  0.18631919441E+04  0.00000000000E+00 0. -1.
         21    1    1    2  503  502 -0.12154885287E+01  0.54064980276E+02 -0.25611428273E+03  0.26176139005E+03  0.00000000000E+00 0. -1.
         21    1    1    2  504  501 -0.38003220892E+02 -0.27693992005E+02  0.16614761374E+03  0.17267377202E+03  0.00000000000E+00 0. -1.
         21    1    1    2  505  503  0.10649379490E+03 -0.14842655622E+02 -0.95111405708E+02  0.14355282050E+03  0.00000000000E+00 0. -1.
         21    1    1    2  506  504 -0.67275085478E+02 -0.11528332649E+02 -0.14808728305E+04  0.14824450005E+04  0.00000000000E+00 0. -1.
<scales pt_clust_3="51.50552" pt_clust_4="47.02342" pt_clust_5="81.55205" pt_clust_6="14000.00000"></scales>
<clustering>
<clus scale="   47.023">  1  4  2 -1</clus>
<clus scale="   51.506">  2  3  1 -1</clus>
<clus scale="   81.552">  1  5  2 -1</clus>
<clus scale="   47.023">  1  3  2 -1</clus>
</clustering>
</event>
<event>
 6    0  0.4227619E+002  0.1134674E+03  0.7546771E-02  0.1254280E+00
         21   -1    0    0  505  501  0.00000000000E+00  0.00000000000E+00  0.13026968332E+03  0.13026968332E+03  0.00000000000E+00 0. -1.
         21   -1    0    0  504  502 -0.00000000000E+00 -0.00000000000E+00 -0.11966826924E+04  0.11966826924E+04  0.00000000000E+00 0.  1.
         21    1    1    2  503  502  0.50910487361E+02  0.31597366605E+02 -0.22915578295E+03  0.23685996740E+03  0.00000000000E+00 0. -1.
         21    1    1    2  504  506 -0.43855840313E+02  0.84554052784E+02 -0.86251235268E+03  0.86775588797E+03  0.00000000000E+00 0.  1.
         21    1    1    2  505  503  0.41631021880E+02  0.47329564910E+01 -0.55110077547E+02  0.69229065480E+02  0.00000000000E+00 0.  1.
         21    1    1    2  506  501 -0.48685668928E+02 -0.12088437588E+03  0.80365204126E+02  0.15310745483E+03  0.00000000000E+00 0. -1.
<scales pt_clust_3="61.10536" pt_clust_4="113.46735" pt_clust_5="41.89920" pt_clust_6="14000.00000"></scales>
<clustering>
<clus scale="   41.899">  1  5  2 -1</clus>
<clus scale="   61.105">  2  3  1 -1</clus>
<clus scale="  113.467">  2  4  1 -1</clus>
<clus scale="   41.899">  1  3  2 -1</clus>
</clustering>
</event>
<event>
 6    0  0.4227619E+002  0.1279066E+03  0.7546771E-02  0.1230595E+00
         21   -1    0    0  506  501  0.00000000000E+00  0.00000000000E+00  0.30893297887E+03  0.30893297887E+03  0.00000000000E+00 0. -1.
         21   -1    0    0  501  502 -0.00000000000E+00 -0.00000000000E+00 -0.16859145556E+03  0.16859145556E+03  0.00000000000E+00 0. -1.
         21    1    1    2  503  502  0.77074313915E+02 -0.16964748344E+02 -0.78834100468E+02  0.11154850043E+03  0.00000000000E+00 0. -1.
         21    1    1    2  504  503  0.34376900912E+02  0.23819344457E+02 -0.19982089236E+02  0.46351012685E+02  0.00000000000E+00 0. -1.
         21    1    1    2  505  504 -0.13786671672E+03 -0.23253004818E+02  0.87776410523E+02  0.16508371227E+03  0.00000000000E+00 0. -1.
         21    1    1    2  506  505  0.26415501895E+02  0.16398408705E+02  0.15138130249E+03  0.15454120904E+03  0.00000000000E+00 0. -1.
<scales pt_clust_3="38.41815" pt_clust_4="38.41815" pt_clust_5="116.87961" pt_clust_6="31.09158"></scales>
<clustering>
<clus scale="   31.092">  1  6  2 -1</clus>
<clus scale="   38.418">  3  4 -1 -1</clus>
<clus scale="  116.880">  1  5  2 -1</clus>
<clus scale="   31.092">  1  3  2 -1</clus>
</clustering>
</event>
<event>
 6    0  0.4227619E+002  0.1452562E+03  0.7546771E-02  0.1206426E+00
         21   -1    0    0  503  501  0.00000000000E+00  0.00000000000E+00  0.29812679415E+03  0.29812679415E+03  0.00000000000E+00 0.  1.
         21   -1    0    0  505  502 -0.00000000000E+00 -0.00000000000E+00 -0.14277317551E+03  0.14277317551E+03  0.00000000000E+00 0.  1.
         21    1    1    2  503  502 -0.40533945203E+02 -0.14416441119E+03 -0.35971874904E+02  0.15401413556E+03  0.00000000000E+00 0.  1.
         21    1    1    2  504  501  0.54580836283E+02  0.41865620040E+02  0.82318272844E+02  0.10727579352E+03  0.00000000000E+00 0.  1.
         21    1    1    2  505  506 -0.96707671416E+01  0.31902918070E+02 -0.15305519834E+02  0.36682132652E+02  0.00000000000E+00 0.  1.
         21    1    1    2  506  504 -0.43761239391E+01  0.70395873079E+02  0.12431274053E+03  0.14292790793E+03  0.00000000000E+00 0.  1.
<scales pt_clust_3="127.73800" pt_clust_4="67.72218" pt_clust_5="33.33647" pt_clust_6="67.72218"></scales>
<clustering>
<clus scale="   33.336">  2  5  1 -1</clus>
<clus scale="   67.722">  4  6 -1 -1</clus>
<clus scale="  127.738">  2  3  1 -1</clus>
<clus scale="  145.256">  1  3  2 -1</clus>
</clustering>
</event>
<event>
 6    0  0.4227619E+002  0.8647665E+02  0.7546771E-02  0.1311615E+00
         21   -1    0    0  504  501  0.00000000000E+00  0.00000000000E+00  0.27743063358E+03  0.27743063358E+03  0.00000000000E+00 0. -1.
         21   -1    0    0  501  502 -0.00000000000E+00 -0.00000000000E+00 -0.29290217362E+03  0.29290217362E+03  0.00000000000E+00 0.  1.
         21    1    1    2  503  506 -0.38950011181E+02  0.44989298836E+02  0.14970370798E+02  0.61361652378E+02  0.00000000000E+00 0. -1.
         21    1    1    2  504  505 -0.81901963900E+02  0.22335508109E+02  0.19060492203E+03  0.20865532084E+03  0.00000000000E+00 0. -1.
         21    1    1    2  505  503  0.87227288215E+02 -0.52481576913E+02 -0.30518475564E+02  0.10627461162E+03  0.00000000000E+00 0.  1.
         21    1    1    2  506  502  0.33624686866E+02 -0.14843230032E+02 -0.19052835730E+03  0.19404122237E+03  0.00000000000E+00 0.  1.
<scales pt_clust_3="51.97300" pt_clust_4="14000.00000" pt_clust_5="86.47665" pt_clust_6="36.75515"></scales>
<clustering>
<clus scale="   36.755">  2  6  1 -1</clus>
<clus scale="   51.973">  2  3  1 -1</clus>
<clus scale="   86.477">  2  5  1 -1</clus>
<clus scale="   86.477">  1  3  2 -1</clus>
</clustering>
</event>
<event>
 6    0  0.4227619E+002  0.8374507E+02  0.7546771E-02  0.1318747E+00
         21   -1    0    0  506  501  0.00000000000E+00  0.00000000000E+00  0.53884361126E+03  0.53884361126E+03  0.00000000000E+00 0.  1.
         21   -1    0    0  504  502 -0.00000000000E+00 -0.00000000000E+00 -0.10431086028E+04  0.10431086028E+04  0.00000000000E+00 0.  1.
         21    1    1    2  503  505 -0.53659243234E+02  0.27686431091E+02  0.26683393121E+02  0.66014061528E+02  0.00000000000E+00 0. -1.
         21    1    1    2  504  503  0.32811004042E+02 -0.78602110136E+02 -0.10156962802E+04  0.10192613930E+04  0.00000000000E+00 0.  1.
         21    1    1    2  505  501 -0.31707214572E+02  0.61726570576E+00  0.21353537633E+03  0.21587747779E+03  0.00000000000E+00 0.  1.
         21    1    1    2  506  502  0.52555453765E+02  0.50298413340E+02  0.27121251914E+03  0.28079928177E+03  0.00000000000E+00 0.  1.
<scales pt_clust_3="14000.00000" pt_clust_4="83.74507" pt_clust_5="31.71322" pt_clust_6="56.88773"></scales>
<clustering>
<clus scale="   31.713">  1  5  2 -1</clus>
<clus scale="   56.888">  1  6  2 -1</clus>
<clus scale="   83.745">  2  4  1 -1</clus>
<clus scale="   31.713">  1  3  2 -1</clus>
</clustering>
</event>
<event>
 6    0  0.4946933E+002  0.7699031E+02  0.7546771E-02  0.1337816E+00
         21   -1    0    0  505  501  0.00000000000E+00  0.00000000000E+00  0.16355722501E+04  0.16355722501E+04  0.00000000000E+00 0. -1.
         21   -1    0    0  504  502 -0.00000000000E+00 -0.00000000000E+00 -0.57809173186E+03  0.57809173186E+03  0.00000000000E+00 0.  1.
         21    1    1    2  503  502  0.63205249271E+01  0.52110493718E+02 -0.36789531842E+03  0.37162133672E+03  0.00000000000E+00 0.  1.
         21    1    1    2  504  501 -0.72222743550E+02 -0.64298499513E+02 -0.35526206173E+01  0.96762817440E+02  0.00000000000E+00 0.  1.
         21    1    1    2  505  506  0.20211654248E+02  0.74205510608E+02  0.15767324488E+04  0.15786070391E+04  0.00000000000E+00 0. -1.
         21    1    1    2  506  503  0.45690564375E+02 -0.62017504813E+02 -0.14780399154E+03  0.16667278870E+03  0.00000000000E+00 0.  1.
<scales pt_clust_3="52.49241" pt_clust_4="14000.00000" pt_clust_5="76.99031" pt_clust_6="55.32654"></scales>
<clustering>
<clus scale="   52.492">  2  3  1 -1</clus>
<clus scale="   55.327">  2  6  1 -1</clus>
<clus scale="   76.990">  1  5  2 -1</clus>
<clus scale="   76.990">  1  3  2 -1</clus>
</clustering>
</event>
<event>
 6    0  0.4227619E+002  0.1653280E+03  0.7546771E-02  0.1182809E+00
         21   -1    0    0  505  501  0.00000000000E+00  0.00000000000E+00  0.13703144975E+03  0.13703144975E+03  0.00000000000E+00 0.  1.
         21   -1    0    0  504  502 -0.00000000000E+00 -0.00000000000E+00 -0.87623531380E+03  0.87623531380E+03  0.00000000000E+00 0. -1.
         21    1    1    2  503  502  0.34888716696E+02 -0.19025572393E+02 -0.53247448491E+03  0.53395530902E+03  0.00000000000E+00 0. -1.
         21    1    1    2  504  506 -0.47950133471E+02  0.55875978299E+02 -0.10218837787E+03  0.12595159714E+03  0.00000000000E+00 0.  1.
         21    1    1    2  505  503 -0.79663411117E+02 -0.15711430745E+03 -0.14357923928E+02  0.17674081208E+03  0.00000000000E+00 0.  1.
         21    1    1    2  506  501  0.92724827893E+02  0.12026390154E+03 -0.90183077348E+02  0.17661904530E+03  0.00000000000E+00 0.  1.
<scales pt_clust_3="39.73909" pt_clust_4="61.45156" pt_clust_5="14000.00000" pt_clust_6="165.32803"></scales>
<clustering>
<clus scale="   39.739">  2  3  1 -1</clus>
<clus scale="   61.452">  2  4  1 -1</clus>
<clus scale="  165.328">  2  6  1 -1</clus>
<clus scale="  165.328">  1  3  2 -1</clus>
</clustering>
</event>
<event>
 6    0  0.4227619E+002  0.1299193E+03  0.7546771E-02  0.1227576E+00
         21   -1    0    0  505  501  0.00000000000E+00  0.00000000000E+00  0.52268375976E+03  0.52268375976E+03  0.00000000000E+00 0.  1.
         21   -1    0    0  503  502 -0.00000000000E+00 -0.00000000000E+00 -0.20729926645E+03  0.20729926645E+03  0.00000000000E+00 0.  1.
         21    1    1    2  503  504 -0.80864663175E+02  0.97486615833E+02 -0.78094704761E+02  0.14880025850E+03  0.00000000000E+00 0.  1.
         21    1    1    2  504  501  0.15706568696E+03  0.11255858503E+02  0.83334413229E+02  0.17815989672E+03  0.00000000000E+00 0.  1.
         21    1    1    2  505  506 -0.25705253082E+02 -0.27558170656E+02  0.30495531731E+03  0.30727505327E+03  0.00000000000E+00 0.  1.
         21    1    1    2  506  502 -0.50495770707E+02 -0.81184303680E+02  0.51894675279E+01  0.95747817711E+02  0.00000000000E+00 0.  1.
<scales pt_clust_3="129.91927" pt_clust_4="14000.00000" pt_clust_5="37.68571" pt_clust_6="104.23798"></scales>
<clustering>
<clus scale="   37.686">  1  5  2 -1</clus>
<clus scale="  104.238">  2  6  1 -1</clus>
<clus scale="  129.919">  2  3  1 -1</clus>
<clus scale="   37.686">  1  3  2 -1</clus>
</clustering>
</event>
<event>
 6    0  0.4227619E+002  0.1678385E+03  0.7546771E-02  0.1180121E+00
         21   -1    0    0  505  501  0.00000000000E+00  0.00000000000E+00  0.23475867089E+03  0.23475867089E+03  0.00000000000E+00 0. -1.
         21   -1    0    0  506  502 -0.00000000000E+00 -0.00000000000E+00 -0.25313923680E+03  0.25313923680E+03  0.00000000000E+00 0.  1.
         21    1    1    2  503  504 -0.15154667065E+02 -0.11817555137E+03 -0.40445870795E+01  0.11921192709E+03  0.00000000000E+00 0.  1.
         21    1    1    2  504  502 -0.81758116194E+01  0.33698185374E+02 -0.10096975514E+03  0.10675815213E+03  0.00000000000E+00 0.  1.
         21    1    1    2  505  503  0.39867488376E+02 -0.56310587222E+02 -0.32959099885E+02  0.76463070354E+02  0.00000000000E+00 0.  1.
         21    1    1    2  506  501 -0.16537009692E+02  0.14078795322E+03  0.11959287620E+03  0.18546475810E+03  0.00000000000E+00 0. -1.
<scales pt_clust_3="56.36268" pt_clust_4="34.67581" pt_clust_5="56.36268" pt_clust_6="149.35351"></scales>
<clustering>
<clus scale="   34.676">  2  4  1 -1</clus>
<clus scale="   56.363">  3  5 -1 -1</clus>
<clus scale="  149.354">  1  6  2 -1</clus>
<clus scale="  149.354">  1  3  2 -1</clus>
</clustering>
</event>
<event>
 6    0  0.4227619E+002  0.1418622E+03  0.7546771E-02  0.1210845E+00
         21   -1    0    0  504  501  0.00000000000E+00  0.00000000000E+00  0.73724943841E+03  0.73724943841E+03  0.00000000000E+00 0.  1.
         21   -1    0    0  506  502 -0.00000000000E+00 -0.00000000000E+00 -0.38009155789E+03  0.38009155789E+03  0.00000000000E+00 0.  1.
         21    1    1    2  503  501  0.11970882876E+03 -0.13241632988E+03  0.19976777773E+02  0.17962004274E+03  0.00000000000E+00 0.  1.
         21    1    1    2  504  505  0.82499461279E+01  0.14281427201E+03  0.58336222404E+03  0.60064587099E+03  0.00000000000E+00 0.  1.
         21    1    1    2  505  502 -0.12478765693E+03  0.23341691775E+02 -0.47535619620E+02  0.13555968807E+03  0.00000000000E+00 0.  1.
         21    1    1    2  506  503 -0.31711179490E+01 -0.33739633903E+02 -0.19864550167E+03  0.20151539450E+03  0.00000000000E+00 0.  1.
<scales pt_clust_3="141.86220" pt_clust_4="14000.00000" pt_clust_5="126.55151" pt_clust_6="33.88833"></scales>
<clustering>
<clus scale="   33.888">  2  6  1 -1</clus>
<clus scale="  126.552">  2  5  1 -1</clus>
<clus scale="  141.862">  2  3  1 -1</clus>
<clus scale="  141.862">  1  3  2 -1</clus>
</clustering>
</event>
<event>
 6    0  0.4227619E+002  0.6689153E+02  0.7546771E-02  0.1370994E+00
         21   -1    0    0  504  501  0.00000000000E+00  0.00000000000E+00  0.68792475432E+03  0.68792475432E+03  0.00000000000E+00 0.  1.
         21   -1    0    0  503  502 -0.00000000000E+00 -0.00000000000E+00 -0.76707233766E+02  0.76707233766E+02  0.00000000000E+00 0.  1.
         21    1    1    2  503  505  0.99417421708E+02 -0.47238663251E+01  0.38639781260E+02  0.10676690193E+03  0.00000000000E+00 0.  1.
         21    1    1    2  504  506  0.56114050408E+02  0.13504743862E+02  0.21779123569E+03  0.22530909237E+03  0.00000000000E+00 0.  1.
         21    1    1    2  505  501 -0.10340520416E+03 -0.22111250490E+02  0.36303679611E+03  0.37812333831E+03  0.00000000000E+00 0.  1.
         21    1    1    2  506  502 -0.52126267959E+02  0.13330372954E+02 -0.82502925185E+01  0.54432655466E+02  0.00000000000E+00 0.  1.
<scales pt_clust_3="66.89153" pt_clust_4="53.81588" pt_clust_5="14000.00000" pt_clust_6="53.80378"></scales>
<clustering>
<clus scale="   53.804">  2  6  1 -1</clus>
<clus scale="   53.816">  1  4  2 -1</clus>
<clus scale="   66.892">  2  3  1 -1</clus>
<clus scale="   53.816">  1  3  2 -1</clus>
</clustering>
</event>
<event>
 6    0  0.4227619E+002  0.1418675E+03  0.7546771E-02  0.1210838E+00
         21   -1    0    0  503  501  0.00000000000E+00  0.00000000000E+00  0.21464984891E+04  0.21464984891E+04  0.00000000000E+00 0. -1.
         21   -1    0    0  506  502 -0.00000000000E+00 -0.00000000000E+00 -0.87946338606E+03  0.87946338606E+03  0.00000000000E+00 0.  1.
         21    1    1    2  503  505  0.29388625909E+02  0.11332241973E+03  0.18569619680E+04  0.18606486538E+04  0.00000000000E+00 0. -1.
         21    1    1    2  504  502 -0.41067238639E+02 -0.10004913938E+02 -0.51051987544E+03  0.51226668797E+03  0.00000000000E+00 0.  1.
         21    1    1    2  505  504 -0.19336758643E+02 -0.11884759144E+03 -0.35521370966E+03  0.37506724698E+03  0.00000000000E+00 0.  1.
         21    1    1    2  506  501  0.31015371372E+02  0.15530085647E+02  0.27580672013E+03  0.27797928644E+03  0.00000000000E+00 0.  1.
<scales pt_clust_3="14000.00000" pt_clust_4="42.25259" pt_clust_5="141.86752" pt_clust_6="34.68626"></scales>
<clustering>
<clus scale="   34.686">  1  6  2 -1</clus>
<clus scale="   42.253">  2  4  1 -1</clus>
<clus scale="  141.868">  2  5  1 -1</clus>
<clus scale="   34.686">  1  3  2 -1</clus>
</clustering>
</event>
<event>
 6    0  0.4227619E+002  0.1067498E+03  0.7546771E-02  0.1266710E+00
         21   -1    0    0  506  501  0.00000000000E+00  0.00000000000E+00  0.98677797904E+03  0.98677797904E+03  0.00000000000E+00 0. -1.
         21   -1    0    0  505  502 -0.00000000000E+00 -0.00000000000E+00 -0.54805105262E+02  0.54805105262E+02  0.00000000000E+00 0. -1.
         21    1    1    2  503  501 -0.23153579833E+01 -0.47900248790E+02  0.45859736061E+03  0.46109796560E+03  0.00000000000E+00 0. -1.
         21    1    1    2  504  503  0.93188744778E+02 -0.82619285278E+01  0.31449223659E+03  0.32811243270E+03  0.00000000000E+00 0. -1.
         21    1    1    2  505  504  0.33195984599E+02  0.18363942518E+02 -0.10190275919E+02  0.39281668773E+02  0.00000000000E+00 0. -1.
         21    1    1    2  506  502 -0.12406937139E+03  0.37798234799E+02  0.16907355249E+03  0.21309101723E+03  0.00000000000E+00 0. -1.
<scales pt_clust_3="47.14593" pt_clust_4="106.74982" pt_clust_5="37.93689" pt_clust_6="14000.00000"></scales>
<clustering>
<clus scale="   37.937">  2  5  1 -1</clus>
<clus scale="   47.146">  1  3  2 -1</clus>
<clus scale="  106.750">  1  4  2 -1</clus>
<clus scale="   47.146">  1  3  2 -1</clus>
</clustering>
</event>
<event>
 6    0  0.4227619E+002  0.8521040E+02  0.7546771E-02  0.1314883E+00
         21   -1    0    0  506  501  0.00000000000E+00  0.00000000000E+00  0.24542423241E+03  0.24542423241E+03  0.00000000000E+00 0. -1.
         21   -1    0    0  503  502 -0.00000000000E+00 -0.00000000000E+00 -0.16654424491E+03  0.16654424491E+03  0.00000000000E+00 0. -1.
         21    1    1    2  503  504  0.44691764322E+01 -0.98502116323E+02 -0.34440925650E+02  0.10444528624E+03  0.00000000000E+00 0. -1.
         21    1    1    2  504  501 -0.92893055307E+01  0.72731030182E+02  0.38075795343E+01  0.73420648393E+02  0.00000000000E+00 0. -1.
         21    1    1    2  505  502 -0.66274806001E+02  0.65523328140E+01 -0.32517943496E+02  0.74112749409E+02  0.00000000000E+00 0. -1.
         21    1    1    2  506  505  0.71094935099E+02  0.19218753327E+02  0.14203127711E+03  0.15998979328E+03  0.00000000000E+00 0. -1.
<scales pt_clust_3="14000.00000" pt_clust_4="85.21040" pt_clust_5="66.59792" pt_clust_6="68.73432"></scales>
<clustering>
<clus scale="   66.598">  2  5  1 -1</clus>
<clus scale="   68.734">  1  6  2 -1</clus>
<clus scale="   85.210">  1  4  2 -1</clus>
<clus scale="   68.734">  1  3  2 -1</clus>
</clustering>
</event>
<event>
 6    0  0.4227619E+002  0.1417538E+03  0.7546771E-02  0.1210988E+00
         21   -1    0    0  504  501  0.00000000000E+00  0.00000000000E+00  0.19138498476E+04  0.19138498476E+04  0.00000000000E+00 0.  1.
         21   -1    0    0  503  502 -0.00000000000E+00 -0.00000000000E+00 -0.28311611288E+03  0.28311611288E+03  0.00000000000E+00 0.  1.
         21    1    1    2  503  505 -0.72637000646E+02  0.80649790409E+02 -0.24507603965E+03  0.26803504951E+03  0.00000000000E+00 0.  1.
         21    1    1    2  504  502  0.76580341829E+02  0.51763568804E+02  0.66101655185E+02  0.11363733818E+03  0.00000000000E+00 0.  1.
         21    1    1    2  505  506  0.22496423096E+02 -0.57608894988E+02  0.68229432713E+03  0.68509154328E+03  0.00000000000E+00 0.  1.
         21    1    1    2  506  501 -0.26439764278E+02 -0.74804464225E+02  0.11274137920E+04  0.11302020295E+04  0.00000000000E+00 0.  1.
<scales pt_clust_3="131.89283" pt_clust_4="92.43385" pt_clust_5="45.86327" pt_clust_6="45.86327"></scales>
<clustering>
<clus scale="   45.863">  5  6 -1 -1</clus>
<clus scale="   92.434">  2  4  1 -1</clus>
<clus scale="  131.893">  2  3  1 -1</clus>
<clus scale="  141.754">  1  3  2 -1</clus>
</clustering>
</event>
<event>
 6    0  0.4227619E+002  0.1405103E+03  0.7546771E-02  0.1212644E+00
         21   -1    0    0  504  501  0.00000000000E+00  0.00000000000E+00  0.15837691442E+04  0.15837691442E+04  0.00000000000E+00 0.  1.
         21   -1    0    0  503  502 -0.00000000000E+00 -0.00000000000E+00 -0.23951548480E+02  0.23951548480E+02  0.00000000000E+00 0.  1.
         21    1    1    2  503  506 -0.10728073377E+03  0.10550519426E+03  0.68372118232E+03  0.70008225017E+03  0.00000000000E+00 0.  1.
         21    1    1    2  504  505  0.42794035365E+02 -0.37382624681E+01  0.12802268952E+03  0.13503745074E+03  0.00000000000E+00 0.  1.
         21    1    1    2  505  502  0.45197236581E+02 -0.71546930886E+02  0.14083862195E+03  0.16430846280E+03  0.00000000000E+00 0.  1.
         21    1    1    2  506  501  0.19289461822E+02 -0.30220000909E+02  0.60723510191E+03  0.60829252896E+03  0.00000000000E+00 0.  1.
<scales pt_clust_3="125.82482" pt_clust_4="44.68311" pt_clust_5="44.68311" pt_clust_6="35.85152"></scales>
<clustering>
<clus scale="   35.852">  1  6  2 -1</clus>
<clus scale="   44.683">  4  5 -1 -1</clus>
<clus scale="  125.825">  1  3  2 -1</clus>
<clus scale="   35.852">  1  3  2 -1</clus>
</clustering>
</event>
<event>
 6    0  0.4227619E+002  0.6254307E+02  0.7546771E-02  0.1387459E+00
         21   -1    0    0  503  501  0.00000000000E+00  0.00000000000E+00  0.34627643627E+03  0.34627643627E+03  0.00000000000E+00 0.  1.
         21   -1    0    0  504  502 -0.00000000000E+00 -0.00000000000E+00 -0.25888554010E+03  0.25888554010E+03  0.00000000000E+00 0. -1.
         21    1    1    2  503  505  0.24275500848E+01 -0.51651336653E+02  0.66440576818E+02  0.84190877328E+02  0.00000000000E+00 0.  1.
         21    1    1    2  504  506 -0.19064216102E+02 -0.61036246918E+02 -0.14248683965E+03  0.15617735830E+03  0.00000000000E+00 0. -1.
         21    1    1    2  505  502 -0.31249116747E+02  0.65427781012E+02 -0.82491705508E+02  0.10982797141E+03  0.00000000000E+00 0. -1.
         21    1    1    2  506  501  0.47885782764E+02  0.47259802559E+02  0.24592886451E+03  0.25496576932E+03  0.00000000000E+00 0.  1.
<scales pt_clust_3="51.70835" pt_clust_4="14000.00000" pt_clust_5="62.54307" pt_clust_6="50.13186"></scales>
<clustering>
<clus scale="   51.708">  1  3  2 -1</clus>
<clus scale="   50.132">  1  6  2 -1</clus>
<clus scale="   62.543">  1  5  2 -1</clus>
<clus scale="   51.708">  1  3  2 -1</clus>
</clustering>
</event>
<event>
 6    0  0.4227619E+002  0.2434166E+03  0.7546771E-02  0.1117538E+00
         21   -1    0    0  505  501  0.00000000000E+00  0.00000000000E+00  0.88145048809E+03  0.88145048809E+03  0.00000000000E+00 0. -1.
         21   -1    0    0  506  502 -0.00000000000E+00 -0.00000000000E+00 -0.22396698912E+03  0.22396698912E+03  0.00000000000E+00 0. -1.
         21    1    1    2  503  504 -0.19138353117E+03  0.18171550822E+03  0.16870919728E+03  0.31322671530E+03  0.00000000000E+00 0. -1.
         21    1    1    2  504  501  0.17405151300E+03 -0.16082953396E+03  0.59547635577E+03  0.64089949170E+03  0.00000000000E+00 0. -1.
         21    1    1    2  505  502  0.25506641808E+02  0.22839905080E+02  0.15321307877E+01  0.34272400924E+02  0.00000000000E+00 0.  1.
         21    1    1    2  506  503 -0.81746236381E+01 -0.43725879335E+02 -0.10823418487E+03  0.11701886929E+03  0.00000000000E+00 0. -1.
<scales pt_clust_3="243.41659" pt_clust_4="14000.00000" pt_clust_5="34.23814" pt_clust_6="31.84234"></scales>
<clustering>
<clus scale="   34.238">  2  5  1 -1</clus>
<clus scale="   31.842">  2  6  1 -1</clus>
<clus scale="  243.417">  2  3  1 -1</clus>
<clus scale="  243.417">  1  3  2 -1</clus>
</clustering>
</event>
<event>
 6    0  0.4227619E+002  0.1281391E+03  0.7546771E-02  0.1230243E+00
         21   -1    0    0  504  501  0.00000000000E+00  0.00000000000E+00  0.48298146503E+03  0.48298146503E+03  0.00000000000E+00 0.  1.
         21   -1    0    0  503  502 -0.00000000000E+00 -0.00000000000E+00 -0.14050153932E+03  0.14050153932E+03  0.00000000000E+00 0.  1.
         21    1    1    2  503  506  0.36157448237E+02 -0.48279437757E+00 -0.21091531007E+01  0.36222129703E+02  0.00000000000E+00 0.  1.
         21    1    1    2  504  505 -0.23737121486E+02  0.63198674713E+02  0.15704529483E+03  0.17094077352E+03  0.00000000000E+00 0.  1.
         21    1    1    2  505  502 -0.15120678976E+03 -0.23402878195E+02 -0.29391981929E+02  0.15580461026E+03  0.00000000000E+00 0.  1.
         21    1    1    2  506  501  0.13878646301E+03 -0.39313002140E+02  0.21693576591E+03  0.26051549087E+03  0.00000000000E+00 0.  1.
<scales pt_clust_3="36.16067" pt_clust_4="66.78343" pt_clust_5="14000.00000" pt_clust_6="128.13914"></scales>
<clustering>
<clus scale="   36.161">  2  3  1 -1</clus>
<clus scale="   66.783">  1  4  2 -1</clus>
<clus scale="  128.139">  1  6  2 -1</clus>
<clus scale="   66.783">  1  3  2 -1</clus>
</clustering>
</event>
<event>
 6    0  0.4227619E+002  0.1560056E+03  0.7546771E-02  0.1193282E+00
         21   -1    0    0  502  501  0.00000000000E+00  0.00000000000E+00  0.12936504634E+04  0.12936504634E+04  0.00000000000E+00 0. -1.
         21   -1    0    0  503  502 -0.00000000000E+00 -0.00000000000E+00 -0.11366824645E+04  0.11366824645E+04  0.00000000000E+00 0. -1.
         21    1    1    2  503  505  0.38487141773E+02  0.28536628499E+01 -0.10086638737E+04  0.10094019088E+04  0.00000000000E+00 0. -1.
         21    1    1    2  504  501  0.36752843697E+02 -0.31380318522E+01  0.10163400074E+04  0.10170091590E+04  0.00000000000E+00 0. -1.
         21    1    1    2  505  506  0.24022182275E+01 -0.15227950015E+03 -0.30876509439E+02  0.15539683282E+03  0.00000000000E+00 0. -1.
         21    1    1    2  506  504 -0.77642203698E+02  0.15256386915E+03  0.18016837462E+03  0.24852502727E+03  0.00000000000E+00 0. -1.
<scales pt_clust_3="38.64131" pt_clust_4="36.88657" pt_clust_5="14000.00000" pt_clust_6="156.00558"></scales>
<clustering>
<clus scale="   36.887">  1  4  2 -1</clus>
<clus scale="   38.641">  2  3  1 -1</clus>
<clus scale="  156.006">  1  6  2 -1</clus>
<clus scale="   36.887">  1  3  2 -1</clus>
</clustering>
</event>
<event>
 6    0  0.4227619E+002  0.1170352E+03  0.7546771E-02  0.1248070E+00
         21   -1    0    0  504  501  0.00000000000E+00  0.00000000000E+00  0.32941671587E+03  0.32941671587E+03  0.00000000000E+00 0. -1.
         21   -1    0    0  506  502 -0.00000000000E+00 -0.00000000000E+00 -0.14390812621E+04  0.14390812621E+04  0.00000000000E+00 0.  1.
         21    1    1    2  503  502  0.23666153406E+01 -0.38126737880E+02 -0.53867073830E+02  0.66037191435E+02  0.00000000000E+00 0.  1.
         21    1    1    2  504  505  0.11303824935E+03  0.35649682303E+01  0.16955922752E+03  0.20381532438E+03  0.00000000000E+00 0. -1.
         21    1    1    2  505  503 -0.13970516195E+03 -0.11339611762E+03  0.71155087861E+02  0.19349226934E+03  0.00000000000E+00 0. -1.
         21    1    1    2  506  501  0.24300297260E+02  0.14795788727E+03 -0.12965117877E+04  0.13051531928E+04  0.00000000000E+00 0.  1.
<scales pt_clust_3="38.20012" pt_clust_4="113.10990" pt_clust_5="117.03522" pt_clust_6="14000.00000"></scales>
<clustering>
<clus scale="   38.200">  2  3  1 -1</clus>
<clus scale="  113.110">  1  4  2 -1</clus>
<clus scale="  117.035">  1  5  2 -1</clus>
<clus scale="  113.110">  1  3  2 -1</clus>
</clustering>
</event>
<event>
 6    0  0.4227619E+002  0.1556464E+03  0.7546771E-02  0.1193701E+00
         21   -1    0    0  505  501  0.00000000000E+00  0.00000000000E+00  0.16229876142E+03  0.16229876142E+03  0.00000000000E+00 0.  1.
         21   -1    0    0  504  502 -0.00000000000E+00 -0.00000000000E+00 -0.92969531958E+03  0.92969531958E+03  0.00000000000E+00 0.  1.
         21    1    1    2  503  501  0.36158704492E+02  0.48619309935E+02  0.13408662590E+02  0.62057082122E+02  0.00000000000E+00 0.  1.
         21    1    1    2  504  503  0.14829024266E+03 -0.91195958692E+02 -0.43792359036E+03  0.47125764709E+03  0.00000000000E+00 0.  1.
         21    1    1    2  505  506 -0.32319307829E+02  0.42841878526E+02  0.87252433189E+02  0.10243510781E+03  0.00000000000E+00 0.  1.
         21    1    1    2  506  502 -0.15212963932E+03 -0.26522976874E+00 -0.43013406358E+03  0.45624424398E+03  0.00000000000E+00 0.  1.
<scales pt_clust_3="74.80202" pt_clust_4="14000.00000" pt_clust_5="53.66530" pt_clust_6="155.64644"></scales>
<clustering>
<clus scale="   53.665">  1  5  2 -1</clus>
<clus scale="   74.802">  1  3  2 -1</clus>
<clus scale="  155.646">  2  6  1 -1</clus>
<clus scale="   53.665">  1  3  2 -1</clus>
</clustering>
</event>
<event>
 6    0  0.4227619E+002  0.1252629E+03  0.7546771E-02  0.1234659E+00
         21   -1    0    0  504  501  0.00000000000E+00  0.00000000000E+00  0.75268790679E+03  0.75268790679E+03  0.00000000000E+00 0. -1.
         21   -1    0    0  503  502 -0.00000000000E+00 -0.00000000000E+00 -0.32803031705E+03  0.32803031705E+03  0.00000000000E+00 0.  1.
         21    1    1    2  503  506 -0.11395399792E+02 -0.12735026295E+03 -0.29022011518E+03  0.31713665802E+03  0.00000000000E+00 0.  1.
         21    1    1    2  504  505  0.87738422128E+01 -0.30796929512E+02  0.15777890055E+03  0.16099569135E+03  0.00000000000E+00 0. -1.
         21    1    1    2  505  502  0.54737619195E+02  0.90766484013E+02  0.13326815664E+03  0.17027966158E+03  0.00000000000E+00 0. -1.
         21    1    1    2  506  501 -0.52116061615E+02  0.67380708450E+02  0.42383064772E+03  0.43230621288E+03  0.00000000000E+00 0. -1.
<scales pt_clust_3="125.26290" pt_clust_4="32.02235" pt_clust_5="14000.00000" pt_clust_6="64.31028"></scales>
<clustering>
<clus scale="   32.022">  1  4  2 -1</clus>
<clus scale="   64.310">  1  6  2 -1</clus>
<clus scale="  125.263">  2  3  1 -1</clus>
<clus scale="   32.022">  1  3  2 -1</clus>
</clustering>
</event>
<event>
 6    0  0.4227619E+002  0.8299952E+02  0.7546771E-02  0.1320748E+00
         21   -1    0    0  502  501  0.00000000000E+00  0.00000000000E+00  0.17319027195E+03  0.17319027195E+03  0.00000000000E+00 0. -1.
         21   -1    0    0  503  502 -0.00000000000E+00 -0.00000000000E+00 -0.13829123048E+03  0.13829123048E+03  0.00000000000E+00 0.  1.
         21    1    1    2  503  504 -0.59746821188E+02  0.57814637191E+02 -0.45381269687E+02  0.94718923949E+02  0.00000000000E+00 0.  1.
         21    1    1    2  504  505  0.75395667436E+02 -0.39100767101E+02 -0.98630586552E+01  0.85502377640E+02  0.00000000000E+00 0. -1.
         21    1    1    2  505  506  0.17329304852E+02 -0.46282988144E+02  0.31706779771E+02  0.58717456362E+02  0.00000000000E+00 0. -1.
         21    1    1    2  506  501 -0.32978151101E+02  0.27569118053E+02  0.58436590049E+02  0.72542744480E+02  0.00000000000E+00 0.  1.
<scales pt_clust_3="82.99952" pt_clust_4="14000.00000" pt_clust_5="34.88417" pt_clust_6="42.98389"></scales>
<clustering>
<clus scale="   42.984">  1  6  2 -1</clus>
<clus scale="   34.884">  1  5  2 -1</clus>
<clus scale="   83.000">  2  3  1 -1</clus>
<clus scale="   42.984">  1  3  2 -1</clus>
</clustering>
</event>
<event>
 6    0  0.4227619E+002  0.2253557E+03  0.7546771E-02  0.1129952E+00
         21   -1    0    0  502  501  0.00000000000E+00  0.00000000000E+00  0.11284601353E+03  0.11284601353E+03  0.00000000000E+00 0. -1.
         21   -1    0    0  506  502 -0.00000000000E+00 -0.00000000000E+00 -0.17007861799E+04  0.17007861799E+04  0.00000000000E+00 0.  1.
         21    1    1    2  503  504  0.51386817186E+02 -0.95476007097E+02 -0.21308648254E+03  0.23908601371E+03  0.00000000000E+00 0.  1.
         21    1    1    2  504  505  0.47935046816E+02 -0.10045379065E+03 -0.31918270159E+03  0.33803303058E+03  0.00000000000E+00 0.  1.
         21    1    1    2  505  501 -0.53167582867E+02  0.21733467800E+03 -0.49623888527E+02  0.22918046261E+03  0.00000000000E+00 0. -1.
         21    1    1    2  506  503 -0.46154281135E+02 -0.21404880260E+02 -0.10060470937E+04  0.10073326866E+04  0.00000000000E+00 0.  1.
<scales pt_clust_3="38.25875" pt_clust_4="38.25875" pt_clust_5="221.99690" pt_clust_6="50.87619"></scales>
<clustering>
<clus scale="   38.259">  3  4 -1 -1</clus>
<clus scale="   50.876">  2  6  1 -1</clus>
<clus scale="  221.997">  1  5  2 -1</clus>
<clus scale="  221.997">  1  3  2 -1</clus>
</clustering>
</event>
<event>
 6    0  0.4227619E+002  0.8914113E+02  0.7546771E-02  0.1304945E+00
         21   -1    0    0  503  501  0.00000000000E+00  0.00000000000E+00  0.31070703525E+03  0.31070703525E+03  0.00000000000E+00 0.  1.
         21   -1    0    0  505  502 -0.00000000000E+00 -0.00000000000E+00 -0.33274898531E+03  0.33274898531E+03  0.00000000000E+00 0. -1.
         21    1    1    2  503  502 -0.26340075679E+02  0.24674047103E+02  0.70138660863E+02  0.78879908310E+02  0.00000000000E+00 0.  1.
         21    1    1    2  504  506  0.32482625803E+02 -0.53291035826E+02  0.37147470003E+02  0.72629126431E+02  0.00000000000E+00 0.  1.
         21    1    1    2  505  504 -0.52156789086E+01  0.93385136151E+02 -0.29743404534E+03  0.31179319795E+03  0.00000000000E+00 0. -1.
         21    1    1    2  506  501 -0.92687121625E+00 -0.64768147427E+02  0.16810596441E+03  0.18015378786E+03  0.00000000000E+00 0.  1.
<scales pt_clust_3="36.09166" pt_clust_4="14000.00000" pt_clust_5="89.14113" pt_clust_6="50.82751"></scales>
<clustering>
<clus scale="   36.092">  1  3  2 -1</clus>
<clus scale="   50.828">  1  6  2 -1</clus>
<clus scale="   89.141">  2  5  1 -1</clus>
<clus scale="   36.092">  1  3  2 -1</clus>
</clustering>
</event>
<event>
 6    0  0.4227619E+002  0.7514023E+02  0.7546771E-02  0.1343437E+00
         21   -1    0    0  503  501  0.00000000000E+00  0.00000000000E+00  0.21631001767E+04  0.21631001767E+04  0.00000000000E+00 0. -1.
         21   -1    0    0  506  502 -0.00000000000E+00 -0.00000000000E+00 -0.21613926233E+02  0.21613926233E+02  0.00000000000E+00 0. -1.
         21    1    1    2  503  504 -0.44528497245E+02  0.16187955972E+02  0.29324160128E+03  0.29704456519E+03  0.00000000000E+00 0. -1.
         21    1    1    2  504  502 -0.31974221416E+02  0.40527739441E+02  0.56280541775E+02  0.76369810016E+02  0.00000000000E+00 0. -1.
         21    1    1    2  505  501 -0.11908236411E+02  0.42165823553E+02  0.13286521156E+04  0.13293743668E+04  0.00000000000E+00 0. -1.
         21    1    1    2  506  505  0.88410955072E+02 -0.98881518966E+02  0.46331199184E+03  0.48192536098E+03  0.00000000000E+00 0. -1.
<scales pt_clust_3="75.14023" pt_clust_4="54.85724" pt_clust_5="43.81510" pt_clust_6="14000.00000"></scales>
<clustering>
<clus scale="   43.815">  1  5  2 -1</clus>
<clus scale="   54.857">  2  4  1 -1</clus>
<clus scale="   75.140">  1  3  2 -1</clus>
<clus scale="   43.815">  1  3  2 -1</clus>
</clustering>
</event>
<event>
 6    0  0.4227619E+002  0.1022809E+03  0.7546771E-02  0.1275571E+00
         21   -1    0    0  503  501  0.00000000000E+00  0.00000000000E+00  0.38276269517E+03  0.38276269517E+03  0.00000000000E+00 0.  1.
         21   -1    0    0  506  502 -0.00000000000E+00 -0.00000000000E+00 -0.78438524693E+03  0.78438524693E+03  0.00000000000E+00 0. -1.
         21    1    1    2  503  505  0.13449668639E+02  0.36498352710E+02  0.45471982425E+02  0.59839155431E+02  0.00000000000E+00 0.  1.
         21    1    1    2  504  502  0.69643103078E+02  0.69298471590E+02 -0.65584299717E+03  0.66316097360E+03  0.00000000000E+00 0. -1.
         21    1    1    2  505  504 -0.14030396037E+03 -0.14259390975E+03 -0.24169253022E+02  0.20150031559E+03  0.00000000000E+00 0.  1.
         21    1    1    2  506  501  0.57211188652E+02  0.36797085449E+02  0.23291771600E+03  0.24264749748E+03  0.00000000000E+00 0.  1.
<scales pt_clust_3="38.89760" pt_clust_4="102.28089" pt_clust_5="14000.00000" pt_clust_6="91.95406"></scales>
<clustering>
<clus scale="   38.898">  1  3  2 -1</clus>
<clus scale="   91.954">  1  6  2 -1</clus>
<clus scale="  102.281">  2  4  1 -1</clus>
<clus scale="   38.898">  1  3  2 -1</clus>
</clustering>
</event>
<event>
 6    0  0.4227619E+002  0.2731933E+03  0.7546771E-02  0.1099466E+00
         21   -1    0    0  506  501  0.00000000000E+00  0.00000000000E+00  0.31111820217E+03  0.31111820217E+03  0.00000000000E+00 0. -1.
         21   -1    0    0  505  502 -0.00000000000E+00 -0.00000000000E+00 -0.22078462088E+03  0.22078462088E+03  0.00000000000E+00 0.  1.
         21    1    1    2  503  502  0.14473415625E+03  0.13970055156E+02  0.32474970719E+02  0.14898913433E+03  0.00000000000E+00 0. -1.
         21    1    1    2  504  501 -0.15713245402E+03  0.29936558828E+02 -0.18540659885E+02  0.16102969207E+03  0.00000000000E+00 0.  1.
         21    1    1    2  505  504 -0.88059719395E+02 -0.18647421715E+02  0.76761165136E+02  0.11829842344E+03  0.00000000000E+00 0.  1.
         21    1    1    2  506  503  0.10045801717E+03 -0.25259192268E+02 -0.36189467875E+00  0.10358557320E+03  0.00000000000E+00 0. -1.
<scales pt_clust_3="250.52492" pt_clust_4="89.98007" pt_clust_5="89.98007" pt_clust_6="42.33687"></scales>
<clustering>
<clus scale="   42.337">  3  6 -1 -1</clus>
<clus scale="   89.980">  4  5 -1 -1</clus>
<clus scale="  250.525">  2  3  1 -1</clus>
<clus scale="  273.193">  1  3  2 -1</clus>
</clustering>
</event>
<event>
 6    0  0.4227619E+002  0.7265528E+02  0.7546771E-02  0.1351290E+00
         21   -1    0    0  503  501  0.00000000000E+00  0.00000000000E+00  0.33094444819E+03  0.33094444819E+03  0.00000000000E+00 0.  1.
         21   -1    0    0  504  502 -0.00000000000E+00 -0.00000000000E+00 -0.14620750833E+03  0.14620750833E+03  0.00000000000E+00 0.  1.
         21    1    1    2  503  502 -0.61774050889E+02  0.99292510194E+02  0.10906075888E+03  0.15990398704E+03  0.00000000000E+00 0.  1.
         21    1    1    2  504  505  0.58968982567E+02  0.13528829141E-01 -0.84553817804E+02  0.10308583411E+03  0.00000000000E+00 0.  1.
         21    1    1    2  505  506 -0.86073546028E+01 -0.55250236804E+02  0.95081080561E+01  0.56719303055E+02  0.00000000000E+00 0.  1.
         21    1    1    2  506  501  0.11412422925E+02 -0.44055802219E+02  0.15072189073E+03  0.15744283232E+03  0.00000000000E+00 0. -1.
<scales pt_clust_3="14000.00000" pt_clust_4="59.61107" pt_clust_5="72.65528" pt_clust_6="45.50997"></scales>
<clustering>
<clus scale="   45.510">  1  6  2 -1</clus>
<clus scale="   59.611">  2  4  1 -1</clus>
<clus scale="   72.655">  2  5  1 -1</clus>
<clus scale="   45.510">  1  3  2 -1</clus>
</clustering>
</event>
<event>
 6    0  0.4227619E+002  0.1125050E+03  0.7546771E-02  0.1256000E+00
         21   -1    0    0  504  501  0.00000000000E+00  0.00000000000E+00  0.42513048442E+04  0.42513048442E+04  0.00000000000E+00 0. -1.
         21   -1    0    0  503  502 -0.00000000000E+00 -0.00000000000E+00 -0.44761884245E+03  0.44761884245E+03  0.00000000000E+00 0. -1.
         21    1    1    2  503  505  0.21703753388E+02  0.86595830622E+02 -0.38209238063E+03  0.39238307574E+03  0.00000000000E+00 0. -1.
         21    1    1    2  504  506  0.42907681709E+02  0.49519954122E+02  0.23290867805E+03  0.24194988596E+03  0.00000000000E+00 0.  1.
         21    1    1    2  505  501  0.15262828748E+02 -0.14642586843E+03  0.39776145954E+04  0.39803380960E+04  0.00000000000E+00 0. -1.
         21    1    1    2  506  502 -0.79874263845E+02  0.10310083688E+02 -0.24744891084E+02  0.84252628951E+02  0.00000000000E+00 0. -1.
<scales pt_clust_3="112.50495" pt_clust_4="65.52324" pt_clust_5="14000.00000" pt_clust_6="80.26949"></scales>
<clustering>
<clus scale="   65.523">  1  4  2 -1</clus>
<clus scale="   80.269">  2  6  1 -1</clus>
<clus scale="  112.505">  2  3  1 -1</clus>
<clus scale="   65.523">  1  3  2 -1</clus>
</clustering>
</event>
<event>
 6    0  0.4227619E+002  0.1052216E+03  0.7546771E-02  0.1269684E+00
         21   -1    0    0  506  501  0.00000000000E+00  0.00000000000E+00  0.82778048437E+03  0.82778048437E+03  0.00000000000E+00 0.  1.
         21   -1    0    0  503  502 -0.00000000000E+00 -0.00000000000E+00 -0.49699993833E+03  0.49699993833E+03  0.00000000000E+00 0.  1.
         21    1    1    2  503  504 -0.91768360637E+02 -0.52023486924E+02 -0.48062651555E+03  0.49206678678E+03  0.00000000000E+00 0.  1.
         21    1    1    2  504  505  0.69637275459E+02  0.46894201032E+02  0.45686730696E+03  0.46451711744E+03  0.00000000000E+00 0.  1.
         21    1    1    2  505  501  0.34378222763E+01 -0.32387642168E+02  0.28605060044E+03  0.28789880861E+03  0.00000000000E+00 0.  1.
         21    1    1    2  506  502  0.18693262901E+02  0.37516928060E+02  0.68489154187E+02  0.80297709869E+02  0.00000000000E+00 0. -1.
<scales pt_clust_3="14000.00000" pt_clust_4="105.22163" pt_clust_5="32.56959" pt_clust_6="38.21539"></scales>
<clustering>
<clus scale="   32.570">  1  5  2 -1</clus>
<clus scale="   38.215">  1  6  2 -1</clus>
<clus scale="  105.222">  1  4  2 -1</clus>
<clus scale="   32.570">  1  3  2 -1</clus>
</clustering>
</event>
<event>
 6    0  0.4227619E+002  0.1402149E+03  0.7546771E-02  0.1213040E+00
         21   -1    0    0  505  501  0.00000000000E+00  0.00000000000E+00  0.21667631851E+04  0.21667631851E+04  0.00000000000E+00 0. -1.
         21   -1    0    0  504  502 -0.00000000000E+00 -0.00000000000E+00 -0.12191302310E+02  0.12191302310E+02  0.00000000000E+00 0. -1.
         21    1    1    2  503  501 -0.75324297087E+01 -0.43974114227E+02  0.52179999894E+03  0.52370382766E+03  0.00000000000E+00 0. -1.
         21    1    1    2  504  506 -0.63287923854E+02  0.88409886965E+02  0.45092085664E+03  0.46384403453E+03  0.00000000000E+00 0. -1.
         21    1    1    2  505  502  0.98123064926E+02 -0.62499190093E+02  0.84549991211E+03  0.85346610126E+03  0.00000000000E+00 0. -1.
         21    1    1    2  506  503 -0.27302711363E+02  0.18063417355E+02  0.33635111508E+03  0.33794052392E+03  0.00000000000E+00 0. -1.
<scales pt_clust_3="44.61457" pt_clust_4="32.54654" pt_clust_5="127.05168" pt_clust_6="32.54654"></scales>
<clustering>
<clus scale="   32.547">  4  6 -1 -1</clus>
<clus scale="   44.615">  1  3  2 -1</clus>
<clus scale="  127.052">  1  5  2 -1</clus>
<clus scale="   44.615">  1  3  2 -1</clus>
</clustering>
</event>
<event>
 6    0  0.4227619E+002  0.8134249E+02  0.7546771E-02  0.1325284E+00
         21   -1    0    0  503  501  0.00000000000E+00  0.00000000000E+00  0.24530816091E+03  0.24530816091E+03  0.00000000000E+00 0.  1.
         21   -1    0    0  506  502 -0.00000000000E+00 -0.00000000000E+00 -0.18494228253E+03  0.18494228253E+03  0.00000000000E+00 0. -1.
         21    1    1    2  503  502 -0.16964051319E+02 -0.39299561094E+02  0.72412794439E+02  0.84118055955E+02  0.00000000000E+00 0.  1.
         21    1    1    2  504  501  0.10198916242E+03 -0.20156710994E+02  0.11426798897E+03  0.15448383589E+03  0.00000000000E+00 0.  1.
         21    1    1    2  505  504 -0.44861330628E+02  0.34838616109E+02  0.37393922243E-01  0.56800260179E+02  0.00000000000E+00 0. -1.
         21    1    1    2  506  505 -0.40163780472E+02  0.24617655979E+02 -0.12635229895E+03  0.13484829142E+03  0.00000000000E+00 0. -1.
<scales pt_clust_3="42.80461" pt_clust_4="81.34249" pt_clust_5="14000.00000" pt_clust_6="46.96585"></scales>
<clustering>
<clus scale="   42.805">  1  3  2 -1</clus>
<clus scale="   46.966">  2  6  1 -1</clus>
<clus scale="   81.342">  1  4  2 -1</clus>
<clus scale="   42.805">  1  3  2 -1</clus>
</clustering>
</event>
<event>
 6    0  0.4227619E+002  0.1071091E+03  0.7546771E-02  0.1266019E+00
         21   -1    0    0  506  501  0.00000000000E+00  0.00000000000E+00  0.76960326106E+03  0.76960326106E+03  0.00000000000E+00 0.  1.
         21   -1    0    0  505  502 -0.00000000000E+00 -0.00000000000E+00 -0.27074451509E+03  0.27074451509E+03  0.00000000000E+00 0.  1.
         21    1    1    2  503  504 -0.44839027479E+02  0.67386927086E+02  0.13017582608E+02  0.81981667368E+02  0.00000000000E+00 0.  1.
         21    1    1    2  504  501 -0.14440925271E+02 -0.38531744690E+02  0.96031788785E+02  0.10447650515E+03  0.00000000000E+00 0.  1.
         21    1    1    2  505  503  0.28414318260E+02  0.51330639962E+02 -0.22529715110E+03  0.23281111308E+03  0.00000000000E+00 0.  1.
         21    1    1    2  506  502  0.30865634491E+02 -0.80185822359E+02  0.61510652567E+03  0.62107849055E+03  0.00000000000E+00 0.  1.
<scales pt_clust_3="107.10909" pt_clust_4="41.14894" pt_clust_5="58.44187" pt_clust_6="14000.00000"></scales>
<clustering>
<clus scale="   41.149">  1  4  2 -1</clus>
<clus scale="   58.442">  2  5  1 -1</clus>
<clus scale="  107.109">  2  3  1 -1</clus>
<clus scale="   41.149">  1  3  2 -1</clus>
</clustering>
</event>
<event>
 6    0  0.4227619E+002  0.8892366E+02  0.7546771E-02  0.1305479E+00
         21   -1    0    0  504  501  0.00000000000E+00  0.00000000000E+00  0.80484742700E+02  0.80484742700E+02  0.00000000000E+00 0.  1.
         21   -1    0    0  503  502 -0.00000000000E+00 -0.00000000000E+00 -0.13113701234E+04  0.13113701234E+04  0.00000000000E+00 0.  1.
         21    1    1    2  503  501  0.33983572062E+02  0.31270766382E+02 -0.55137981202E+02  0.71923160187E+02  0.00000000000E+00 0. -1.
         21    1    1    2  504  506 -0.17499441630E+02 -0.12025131221E+03  0.17046645088E+02  0.12270776933E+03  0.00000000000E+00 0.  1.
         21    1    1    2  505  502  0.17428490245E+02  0.26220470978E+02 -0.34453156717E+03  0.34596714605E+03  0.00000000000E+00 0. -1.
         21    1    1    2  506  505 -0.33912620677E+02  0.62760074848E+02 -0.84826247738E+03  0.85125679050E+03  0.00000000000E+00 0.  1.
<scales pt_clust_3="48.19503" pt_clust_4="88.92366" pt_clust_5="31.48437" pt_clust_6="14000.00000"></scales>
<clustering>
<clus scale="   31.484">  2  5  1 -1</clus>
<clus scale="   48.195">  1  3  2 -1</clus>
<clus scale="   88.924">  1  4  2 -1</clus>
<clus scale="   48.195">  1  3  2 -1</clus>
</clustering>
</event>
<event>
 6    0  0.4227619E+002  0.7888206E+02  0.7546771E-02  0.1332254E+00
         21   -1    0    0  505  501  0.00000000000E+00  0.00000000000E+00  0.19164753030E+04  0.19164753030E+04  0.00000000000E+00 0. -1.
         21   -1    0    0  503  502 -0.00000000000E+00 -0.00000000000E+00 -0.14907797164E+04  0.14907797164E+04  0.00000000000E+00 0. -1.
         21    1    1    2  503  504 -0.68063295919E+01  0.14072211606E+03 -0.50658495875E+03  0.52581114528E+03  0.00000000000E+00 0. -1.
         21    1    1    2  504  501 -0.12655608089E+02 -0.77766010807E+02  0.19042776288E+04  0.19059068719E+04  0.00000000000E+00 0. -1.
         21    1    1    2  505  506 -0.12651743822E+02 -0.43233785462E+02 -0.57002143258E+03  0.57179861877E+03  0.00000000000E+00 0. -1.
         21    1    1    2  506  502  0.32113681502E+02 -0.19722319795E+02 -0.40197565083E+03  0.40373838349E+03  0.00000000000E+00 0. -1.
<scales pt_clust_3="78.88206" pt_clust_4="14000.00000" pt_clust_5="53.74788" pt_clust_6="37.68632"></scales>
<clustering>
<clus scale="   37.686">  2  6  1 -1</clus>
<clus scale="   53.748">  2  5  1 -1</clus>
<clus scale="   78.882">  2  3  1 -1</clus>
<clus scale="   78.882">  1  3  2 -1</clus>
</clustering>
</event>
<event>
 6    0  0.4227619E+002  0.1161469E+03  0.7546771E-02  0.1249592E+00
         21   -1    0    0  506  501  0.00000000000E+00  0.00000000000E+00  0.31338949340E+03  0.31338949340E+03  0.00000000000E+00 0. -1.
         21   -1    0    0  505  502 -0.00000000000E+00 -0.00000000000E+00 -0.34534176570E+03  0.34534176570E+03  0.00000000000E+00 0. -1.
         21    1    1    2  503  502 -0.89841821469E+02 -0.10258559239E+03  0.67362683493E+01  0.13653107325E+03  0.00000000000E+00 0. -1.
         21    1    1    2  504  501  0.12154007927E+03  0.33379389537E+02  0.91182820517E+02  0.15556503872E+03  0.00000000000E+00 0. -1.
         21    1    1    2  505  504  0.28321607520E+02  0.11100778913E+03 -0.22151213830E+03  0.24938418176E+03  0.00000000000E+00 0. -1.
         21    1    1    2  506  503 -0.60019865316E+02 -0.41801586274E+02  0.91640777126E+02  0.11725096537E+03  0.00000000000E+00 0. -1.
<scales pt_clust_3="116.14692" pt_clust_4="86.53857" pt_clust_5="14000.00000" pt_clust_6="73.14203"></scales>
<clustering>
<clus scale="   73.142">  1  6  2 -1</clus>
<clus scale="   86.539">  1  4  2 -1</clus>
<clus scale="  116.147">  1  3  2 -1</clus>
<clus scale="   73.142">  1  3  2 -1</clus>
</clustering>
</event>
<event>
 6    0  0.4227619E+002  0.7032437E+02  0.7546771E-02  0.1358993E+00
         21   -1    0    0  505  501  0.00000000000E+00  0.00000000000E+00  0.15226138941E+03  0.15226138941E+03  0.00000000000E+00 0. -1.
         21   -1    0    0  503  502 -0.00000000000E+00 -0.00000000000E+00 -0.31479481031E+04  0.31479481031E+04  0.00000000000E+00 0.  1.
         21    1    1    2  503  506 -0.61234272180E+02  0.34452176812E+02 -0.29466819101E+04  0.29475194432E+04  0.00000000000E+00 0.  1.
         21    1    1    2  504  502  0.43881622043E+02 -0.82665786372E+02  0.17949058126E+02  0.95296367597E+02  0.00000000000E+00 0. -1.
         21    1    1    2  505  504  0.48082008326E+02  0.84252795098E+01  0.84625357054E+02  0.97695014796E+02  0.00000000000E+00 0. -1.
         21    1    1    2  506  501 -0.30729358188E+02  0.39788330050E+02 -0.15157921876E+03  0.15969866694E+03  0.00000000000E+00 0. -1.
<scales pt_clust_3="70.32437" pt_clust_4="14000.00000" pt_clust_5="48.81460" pt_clust_6="48.84802"></scales>
<clustering>
<clus scale="   48.815">  1  5  2 -1</clus>
<clus scale="   48.848">  1  6  2 -1</clus>
<clus scale="   70.324">  2  3  1 -1</clus>
<clus scale="   48.815">  1  3  2 -1</clus>
</clustering>
</event>
<event>
 6    0  0.4227619E+002  0.1330705E+03  0.7546771E-02  0.1222969E+00
         21   -1    0    0  504  501  0.00000000000E+00  0.00000000000E+00  0.55214631174E+03  0.55214631174E+03  0.00000000000E+00 0.  1.
         21   -1    0    0  506  502 -0.00000000000E+00 -0.00000000000E+00 -0.15627512933E+03  0.15627512933E+03  0.00000000000E+00 0. -1.
         21    1    1    2  503  505 -0.20432043869E+02 -0.25340746760E+02 -0.38626853908E+02  0.50513915962E+02  0.00000000000E+00 0. -1.
         21    1    1    2  504  503 -0.41979486692E+02 -0.11792060921E+03  0.28495987175E+03  0.31123893697E+03  0.00000000000E+00 0.  1.
         21    1    1    2  505  502 -0.24782028458E+02  0.20746997310E+02 -0.71996688982E+02  0.78918375910E+02  0.00000000000E+00 0. -1.
         21    1    1    2  506  501  0.87193559020E+02  0.12251435866E+03  0.22153485355E+03  0.26775021223E+03  0.00000000000E+00 0.  1.
<scales pt_clust_3="36.82300" pt_clust_4="14000.00000" pt_clust_5="32.32007" pt_clust_6="133.07054"></scales>
<clustering>
<clus scale="   32.320">  2  5  1 -1</clus>
<clus scale="   36.823">  2  3  1 -1</clus>
<clus scale="  133.071">  2  6  1 -1</clus>
<clus scale="  133.071">  1  3  2 -1</clus>
</clustering>
</event>
<event>
 6    0  0.4227619E+002  0.1042971E+03  0.7546771E-02  0.1271511E+00
         21   -1    0    0  506  501  0.00000000000E+00  0.00000000000E+00  0.64163387132E+02  0.64163387132E+02  0.00000000000E+00 0. -1.
         21   -1    0    0  504  502 -0.00000000000E+00 -0.00000000000E+00 -0.74947555926E+03  0.74947555926E+03  0.00000000000E+00 0. -1.
         21    1    1    2  503  502 -0.88773126275E+02 -0.13288719750E+03 -0.40804919803E+03  0.43822804933E+03  0.00000000000E+00 0. -1.
         21    1    1    2  504  505  0.19429021037E+02  0.54196943650E+02 -0.24613087380E+03  0.25277500390E+03  0.00000000000E+00 0. -1.
         21    1    1    2  505  501  0.20492994718E+02  0.31160588672E+02 -0.39075068827E+02  0.54016720770E+02  0.00000000000E+00 0.  1.
         21    1    1    2  506  503  0.48851110520E+02  0.47529665182E+02  0.79429685222E+01  0.68619172396E+02  0.00000000000E+00 0. -1.
<scales pt_clust_3="14000.00000" pt_clust_4="59.70055" pt_clust_5="37.29538" pt_clust_6="104.29713"></scales>
<clustering>
<clus scale="   37.295">  1  5  2 -1</clus>
<clus scale="   59.701">  2  4  1 -1</clus>
<clus scale="  104.297">  1  6  2 -1</clus>
<clus scale="   37.295">  1  3  2 -1</clus>
</clustering>
</event>
<event>
 6    0  0.4227619E+002  0.3030623E+03  0.7546771E-02  0.1083720E+00
         21   -1    0    0  506  501  0.00000000000E+00  0.00000000000E+00  0.73087742554E+03  0.73087742554E+03  0.00000000000E+00 0. -1.
         21   -1    0    0  505  502 -0.00000000000E+00 -0.00000000000E+00 -0.52147382981E+03  0.52147382981E+03  0.00000000000E+00 0.  1.
         21    1    1    2  503  501  0.29018695843E+03  0.42916374444E+02  0.80659262395E+02  0.30423050907E+03  0.00000000000E+00 0.  1.
         21    1    1    2  504  502 -0.48869705245E+02  0.30193813811E+02 -0.17596608887E+03  0.18510531844E+03  0.00000000000E+00 0.  1.
         21    1    1    2  505  503  0.51656100745E+02  0.22461900840E+02 -0.18001576002E+03  0.18862280771E+03  0.00000000000E+00 0.  1.
         21    1    1    2  506  504 -0.29297335394E+03 -0.95572089094E+02  0.48472618222E+03  0.57439262013E+03  0.00000000000E+00 0. -1.
<scales pt_clust_3="303.06229" pt_clust_4="47.24927" pt_clust_5="56.32841" pt_clust_6="14000.00000"></scales>
<clustering>
<clus scale="   56.328">  2  5  1 -1</clus>
<clus scale="   47.249">  2  4  1 -1</clus>
<clus scale="  303.062">  2  3  1 -1</clus>
<clus scale="  303.062">  1  3  2 -1</clus>
</clustering>
</event>
<event>
 6    0  0.4227619E+002  0.9611390E+02  0.7546771E-02  0.1288687E+00
         21   -1    0    0  503  501  0.00000000000E+00  0.00000000000E+00  0.11101880839E+03  0.11101880839E+03  0.00000000000E+00 0. -1.
         21   -1    0    0  505  502 -0.00000000000E+00 -0.00000000000E+00 -0.14761494023E+04  0.14761494023E+04  0.00000000000E+00 0. -1.
         21    1    1    2  503  504 -0.15236946979E+03  0.47608555282E+02 -0.10249130345E+03  0.18970370883E+03  0.00000000000E+00 0. -1.
         21    1    1    2  504  502  0.82678386058E+02 -0.43889748479E+02 -0.12192711782E+04  0.12228590399E+04  0.00000000000E+00 0. -1.
         21    1    1    2  505  506  0.53996135828E+02  0.34155906677E+02 -0.91360865953E+02  0.11148549894E+03  0.00000000000E+00 0. -1.
         21    1    1    2  506  501  0.15694947905E+02 -0.37874713479E+02  0.47992753742E+02  0.63119962948E+02  0.00000000000E+00 0. -1.
<scales pt_clust_3="96.11390" pt_clust_4="14000.00000" pt_clust_5="63.05265" pt_clust_6="40.99787"></scales>
<clustering>
<clus scale="   40.998">  1  6  2 -1</clus>
<clus scale="   63.053">  1  5  2 -1</clus>
<clus scale="   96.114">  1  3  2 -1</clus>
<clus scale="   40.998">  1  3  2 -1</clus>
</clustering>
</event>
<event>
 6    0  0.4227619E+002  0.9432839E+02  0.7546771E-02  0.1292696E+00
         21   -1    0    0  503  501  0.00000000000E+00  0.00000000000E+00  0.47306353773E+03  0.47306353773E+03  0.00000000000E+00 0.  1.
         21   -1    0    0  506  502 -0.00000000000E+00 -0.00000000000E+00 -0.51944916180E+03  0.51944916180E+03  0.00000000000E+00 0. -1.
         21    1    1    2  503  504 -0.93938222520E+02 -0.18657024542E+02  0.40643004113E+03  0.41756179488E+03  0.00000000000E+00 0.  1.
         21    1    1    2  504  502  0.53129304591E+01 -0.30867968183E+02 -0.44028504809E+03  0.44139775969E+03  0.00000000000E+00 0. -1.
         21    1    1    2  505  501  0.84393881257E+02  0.20813441838E+01 -0.48192098213E+00  0.84420918231E+02  0.00000000000E+00 0. -1.
         21    1    1    2  506  505  0.42314108040E+01  0.47443648541E+02 -0.12048696123E+02  0.49132226720E+02  0.00000000000E+00 0. -1.
<scales pt_clust_3="14000.00000" pt_clust_4="31.32186" pt_clust_5="94.32839" pt_clust_6="35.98684"></scales>
<clustering>
<clus scale="   31.322">  2  4  1 -1</clus>
<clus scale="   35.987">  2  6  1 -1</clus>
<clus scale="   94.328">  2  5  1 -1</clus>
<clus scale="   94.328">  1  3  2 -1</clus>
</clustering>
</event>
<event>
 6    0  0.4227619E+002  0.7283105E+02  0.7546771E-02  0.1350722E+00
         21   -1    0    0  503  501  0.00000000000E+00  0.00000000000E+00  0.33279047370E+03  0.33279047370E+03  0.00000000000E+00 0.  1.
         21   -1    0    0  505  502 -0.00000000000E+00 -0.00000000000E+00 -0.78232147610E+03  0.78232147610E+03  0.00000000000E+00 0. -1.
         21    1    1    2  503  506 -0.27384761198E+02  0.17262902987E+02  0.16116403887E+02  0.36161739998E+02  0.00000000000E+00 0. -1.
         21    1    1    2  504  501  0.50555193098E+02  0.51511997608E+02  0.28639278704E+03  0.29534749349E+03  0.00000000000E+00 0.  1.
         21    1    1    2  505  504 -0.50308006513E+02  0.24047598111E+02 -0.60528839171E+03  0.60785131376E+03  0.00000000000E+00 0. -1.
         21    1    1    2  506  502  0.27137574613E+02 -0.92822498706E+02 -0.14675180161E+03  0.17575140255E+03  0.00000000000E+00 0. -1.
<scales pt_clust_3="32.37179" pt_clust_4="14000.00000" pt_clust_5="55.89441" pt_clust_6="72.83105"></scales>
<clustering>
<clus scale="   32.372">  1  3  2 -1</clus>
<clus scale="   55.894">  2  5  1 -1</clus>
<clus scale="   72.831">  2  6  1 -1</clus>
<clus scale="   32.372">  1  3  2 -1</clus>
</clustering>
</event>
<event>
 6    0  0.4227619E+002  0.9000144E+02  0.7546771E-02  0.1302848E+00
         21   -1    0    0  504  501  0.00000000000E+00  0.00000000000E+00  0.39992661816E+03  0.39992661816E+03  0.00000000000E+00 0.  1.
         21   -1    0    0  503  502 -0.00000000000E+00 -0.00000000000E+00 -0.73452103961E+03  0.73452103961E+03  0.00000000000E+00 0. -1.
         21    1    1    2  503  506 -0.12152294217E+02  0.59333847779E+02 -0.95933750546E+02  0.11345249332E+03  0.00000000000E+00 0. -1.
         21    1    1    2  504  505  0.52289208861E+02 -0.73692169471E+02  0.37567369519E+03  0.38638765827E+03  0.00000000000E+00 0.  1.
         21    1    1    2  505  502 -0.40683981306E+02 -0.62404374533E+02 -0.20450127518E+03  0.21764710852E+03  0.00000000000E+00 0.  1.
         21    1    1    2  506  501  0.54706666275E+00  0.76762696225E+02 -0.40983309092E+03  0.41696039767E+03  0.00000000000E+00 0. -1.
<scales pt_clust_3="60.56553" pt_clust_4="14000.00000" pt_clust_5="61.73400" pt_clust_6="90.00144"></scales>
<clustering>
<clus scale="   60.566">  2  3  1 -1</clus>
<clus scale="   61.734">  2  5  1 -1</clus>
<clus scale="   90.001">  2  6  1 -1</clus>
<clus scale="   90.001">  1  3  2 -1</clus>
</clustering>
</event>
<event>
 6    0  0.4227619E+002  0.9396605E+02  0.7546771E-02  0.1293522E+00
         21   -1    0    0  505  501  0.00000000000E+00  0.00000000000E+00  0.23989802591E+03  0.23989802591E+03  0.00000000000E+00 0. -1.
         21   -1    0    0  504  502 -0.00000000000E+00 -0.00000000000E+00 -0.15328139219E+03  0.15328139219E+03  0.00000000000E+00 0.  1.
         21    1    1    2  503  501  0.34069522918E+02  0.17719953803E+02  0.12424722223E+03  0.13004653547E+03  0.00000000000E+00 0. -1.
         21    1    1    2  504  503 -0.12448004907E+03 -0.37139019921E+02 -0.43490429517E+02  0.13698907575E+03  0.00000000000E+00 0.  1.
         21    1    1    2  505  506  0.65891528821E+02  0.63772732242E+00  0.42355516431E+02  0.78333198828E+02  0.00000000000E+00 0.  1.
         21    1    1    2  506  502  0.24518997326E+02  0.18781338795E+02 -0.36495675428E+02  0.47810608046E+02  0.00000000000E+00 0.  1.
<scales pt_clust_3="39.19617" pt_clust_4="14000.00000" pt_clust_5="93.96605" pt_clust_6="30.88559"></scales>
<clustering>
<clus scale="   30.886">  2  6  1 -1</clus>
<clus scale="   39.196">  1  3  2 -1</clus>
<clus scale="   93.966">  1  5  2 -1</clus>
<clus scale="   39.196">  1  3  2 -1</clus>
</clustering>
</event>
<event>
 6    0  0.4227619E+002  0.1394988E+03  0.7546771E-02  0.1214005E+00
         21   -1    0    0  506  501  0.00000000000E+00  0.00000000000E+00  0.17910948060E+04  0.17910948060E+04  0.00000000000E+00 0.  1.
         21   -1    0    0  504  502 -0.00000000000E+00 -0.00000000000E+00 -0.11426617498E+03  0.11426617498E+03  0.00000000000E+00 0.  1.
         21    1    1    2  503  502  0.99563719726E+02  0.96110088653E+02 -0.52119796263E+02  0.14787344788E+03  0.00000000000E+00 0.  1.
         21    1    1    2  504  501  0.84402824557E+02 -0.60122620182E+02  0.54042984101E+03  0.55027536680E+03  0.00000000000E+00 0.  1.
         21    1    1    2  505  503 -0.16244353123E+03 -0.61243045021E+02  0.88356928690E+03  0.90046282330E+03  0.00000000000E+00 0.  1.
         21    1    1    2  506  505 -0.21523013056E+02  0.25255576551E+02  0.30494929934E+03  0.30674934296E+03  0.00000000000E+00 0.  1.
<scales pt_clust_3="139.49877" pt_clust_4="91.85804" pt_clust_5="14000.00000" pt_clust_6="33.18259"></scales>
<clustering>
<clus scale="   33.183">  1  6  2 -1</clus>
<clus scale="   91.858">  1  4  2 -1</clus>
<clus scale="  139.499">  2  3  1 -1</clus>
<clus scale="   33.183">  1  3  2 -1</clus>
</clustering>
</event>
<event>
 6    0  0.4227619E+002  0.7808956E+02  0.7546771E-02  0.1334562E+00
         21   -1    0    0  504  501  0.00000000000E+00  0.00000000000E+00  0.46026617700E+03  0.46026617700E+03  0.00000000000E+00 0.  1.
         21   -1    0    0  505  502 -0.00000000000E+00 -0.00000000000E+00 -0.48762919791E+03  0.48762919791E+03  0.00000000000E+00 0.  1.
         21    1    1    2  503  506 -0.40627710508E+02 -0.65806962484E+02  0.10789737880E+02  0.78087038719E+02  0.00000000000E+00 0.  1.
         21    1    1    2  504  502  0.60118551430E+01 -0.31091895636E+02  0.40181623362E+02  0.51160641439E+02  0.00000000000E+00 0.  1.
         21    1    1    2  505  503  0.69844406723E+02  0.36779710828E+02 -0.44168134525E+03  0.44867961734E+03  0.00000000000E+00 0.  1.
         21    1    1    2  506  501 -0.35228551358E+02  0.60119147292E+02  0.36334696311E+03  0.36996807741E+03  0.00000000000E+00 0.  1.
<scales pt_clust_3="14000.00000" pt_clust_4="31.66778" pt_clust_5="78.08956" pt_clust_6="44.25978"></scales>
<clustering>
<clus scale="   31.668">  1  4  2 -1</clus>
<clus scale="   44.260">  1  6  2 -1</clus>
<clus scale="   78.090">  2  5  1 -1</clus>
<clus scale="   31.668">  1  3  2 -1</clus>
</clustering>
</event>
<event>
 6    0  0.4227619E+002  0.8926275E+02  0.7546771E-02  0.1304647E+00
         21   -1    0    0  505  501  0.00000000000E+00  0.00000000000E+00  0.50873864486E+03  0.50873864486E+03  0.00000000000E+00 0. -1.
         21   -1    0    0  504  502 -0.00000000000E+00 -0.00000000000E+00 -0.41442832201E+03  0.41442832201E+03  0.00000000000E+00 0.  1.
         21    1    1    2  503  506  0.27332570708E+02 -0.26985517453E+02  0.22990132053E+02  0.44764201607E+02  0.00000000000E+00 0. -1.
         21    1    1    2  504  501 -0.11734070969E+03 -0.21972633376E+02  0.33186394276E+03  0.35268302380E+03  0.00000000000E+00 0. -1.
         21    1    1    2  505  503  0.56610513531E+02  0.36494542503E+02  0.12315423517E+03  0.14036939665E+03  0.00000000000E+00 0. -1.
         21    1    1    2  506  502  0.33397625456E+02  0.12463608325E+02 -0.38369798714E+03  0.38535034482E+03  0.00000000000E+00 0.  1.
<scales pt_clust_3="45.42561" pt_clust_4="14000.00000" pt_clust_5="89.26275" pt_clust_6="35.64748"></scales>
<clustering>
<clus scale="   35.647">  2  6  1 -1</clus>
<clus scale="   45.426">  2  3  1 -1</clus>
<clus scale="   89.263">  1  5  2 -1</clus>
<clus scale="   89.263">  1  3  2 -1</clus>
</clustering>
</event>
<event>
 6    0  0.1788735E+003  0.1184045E+03  0.7546771E-02  0.1245753E+00
         21   -1    0    0  504  501  0.00000000000E+00  0.00000000000E+00  0.11849647430E+04  0.11849647430E+04  0.00000000000E+00 0.  1.
         21   -1    0    0  503  502 -0.00000000000E+00 -0.00000000000E+00 -0.13576964990E+04  0.13576964990E+04  0.00000000000E+00 0. -1.
         21    1    1    2  503  505 -0.67566906230E+02 -0.35536901486E+02 -0.13057601511E+04  0.13079899580E+04  0.00000000000E+00 0. -1.
         21    1    1    2  504  502 -0.29944314752E+02 -0.32841864532E+02 -0.36405587327E+02  0.57450995121E+02  0.00000000000E+00 0.  1.
         21    1    1    2  505  506  0.87945331219E+02  0.29509572890E+02  0.70756457306E+03  0.71361952133E+03  0.00000000000E+00 0.  1.
         21    1    1    2  506  501  0.95658897622E+01  0.38869193127E+02  0.46186940935E+03  0.46360076759E+03  0.00000000000E+00 0.  1.
<scales pt_clust_3="14000.00000" pt_clust_4="43.93229" pt_clust_5="118.40452" pt_clust_6="40.02899"></scales>
<clustering>
<clus scale="   40.029">  1  6  2 -1</clus>
<clus scale="   43.932">  2  4  1 -1</clus>
<clus scale="  118.405">  1  5  2 -1</clus>
<clus scale="   40.029">  1  3  2 -1</clus>
</clustering>
</event>
<event>
 6    0  0.4227619E+002  0.7964778E+02  0.7546771E-02  0.1330054E+00
         21   -1    0    0  503  501  0.00000000000E+00  0.00000000000E+00  0.42404909157E+03  0.42404909157E+03  0.00000000000E+00 0. -1.
         21   -1    0    0  504  502 -0.00000000000E+00 -0.00000000000E+00 -0.85310457312E+02  0.85310457312E+02  0.00000000000E+00 0. -1.
         21    1    1    2  503  506 -0.93206801919E+02 -0.32426499187E+02  0.21537644072E+03  0.23690925898E+03  0.00000000000E+00 0. -1.
         21    1    1    2  504  505 -0.13450344699E+02  0.71498733375E+02  0.98509015739E+01  0.73416761768E+02  0.00000000000E+00 0. -1.
         21    1    1    2  505  501  0.43255847040E+02  0.37540812351E+02  0.70109082324E+02  0.90529908425E+02  0.00000000000E+00 0. -1.
         21    1    1    2  506  502  0.63401299578E+02 -0.76613046539E+02  0.43402209642E+02  0.10850361971E+03  0.00000000000E+00 0. -1.
<scales pt_clust_3="65.20794" pt_clust_4="14000.00000" pt_clust_5="57.27461" pt_clust_6="79.64778"></scales>
<clustering>
<clus scale="   57.275">  1  5  2 -1</clus>
<clus scale="   65.208">  1  3  2 -1</clus>
<clus scale="   79.648">  1  6  2 -1</clus>
<clus scale="   57.275">  1  3  2 -1</clus>
</clustering>
</event>
<event>
 6    0  0.4227619E+002  0.1005430E+03  0.7546771E-02  0.1279158E+00
         21   -1    0    0  505  501  0.00000000000E+00  0.00000000000E+00  0.10153846097E+04  0.10153846097E+04  0.00000000000E+00 0.  1.
         21   -1    0    0  506  502 -0.00000000000E+00 -0.00000000000E+00 -0.34723078670E+02  0.34723078670E+02  0.00000000000E+00 0.  1.
         21    1    1    2  503  502 -0.90354917269E+02  0.16460761426E+02  0.10039294612E+03  0.13606509976E+03  0.00000000000E+00 0.  1.
         21    1    1    2  504  501  0.13281439644E+02  0.37786965199E+02  0.18705670294E+03  0.19129678903E+03  0.00000000000E+00 0.  1.
         21    1    1    2  505  503 -0.58302211080E+02 -0.33287542886E+02  0.20795056987E+03  0.21851921618E+03  0.00000000000E+00 0.  1.
         21    1    1    2  506  504  0.13537568871E+03 -0.20960183739E+02  0.48526131212E+03  0.50422658343E+03  0.00000000000E+00 0.  1.
<scales pt_clust_3="100.54299" pt_clust_4="40.05311" pt_clust_5="59.70851" pt_clust_6="14000.00000"></scales>
<clustering>
<clus scale="   40.053">  1  4  2 -1</clus>
<clus scale="   59.709">  1  5  2 -1</clus>
<clus scale="  100.543">  2  3  1 -1</clus>
<clus scale="   40.053">  1  3  2 -1</clus>
</clustering>
</event>
<event>
 6    0  0.4227619E+002  0.1243588E+03  0.7546771E-02  0.1236075E+00
         21   -1    0    0  504  501  0.00000000000E+00  0.00000000000E+00  0.73920570303E+03  0.73920570303E+03  0.00000000000E+00 0. -1.
         21   -1    0    0  506  502 -0.00000000000E+00 -0.00000000000E+00 -0.11951959844E+04  0.11951959844E+04  0.00000000000E+00 0. -1.
         21    1    1    2  503  502 -0.38068398003E+02 -0.12618962807E+03 -0.11504405254E+04  0.11579665054E+04  0.00000000000E+00 0. -1.
         21    1    1    2  504  503  0.50777720886E+02  0.15635103021E+02  0.55837703365E+03  0.56089905071E+03  0.00000000000E+00 0. -1.
         21    1    1    2  505  501 -0.19656099871E+02  0.45355305738E+02  0.14136153148E+03  0.14975496187E+03  0.00000000000E+00 0. -1.
         21    1    1    2  506  505  0.69467769887E+01  0.65199219312E+02 -0.52883210556E+01  0.65781169410E+02  0.00000000000E+00 0. -1.
<scales pt_clust_3="14000.00000" pt_clust_4="66.70492" pt_clust_5="49.43143" pt_clust_6="124.35881"></scales>
<clustering>
<clus scale="   49.431">  1  5  2 -1</clus>
<clus scale="   66.705">  1  4  2 -1</clus>
<clus scale="  124.359">  1  6  2 -1</clus>
<clus scale="   49.431">  1  3  2 -1</clus>
</clustering>
</event>
<event>
 6    0  0.4227619E+002  0.9710184E+02  0.7546771E-02  0.1286511E+00
         21   -1    0    0  506  501  0.00000000000E+00  0.00000000000E+00  0.75920532736E+03  0.75920532736E+03  0.00000000000E+00 0. -1.
         21   -1    0    0  503  502 -0.00000000000E+00 -0.00000000000E+00 -0.25654222179E+03  0.25654222179E+03  0.00000000000E+00 0.  1.
         21    1    1    2  503  504 -0.84837349403E+02  0.47182504392E+02 -0.21533690076E+03  0.23620657358E+03  0.00000000000E+00 0.  1.
         21    1    1    2  504  501  0.82366122277E+01  0.91198744943E+02  0.41738975909E+03  0.42731635102E+03  0.00000000000E+00 0. -1.
         21    1    1    2  505  502  0.58613269471E+02 -0.92945129752E+02  0.11011846021E+03  0.15556473823E+03  0.00000000000E+00 0.  1.
         21    1    1    2  506  505  0.17987467704E+02 -0.45436119583E+02  0.19049178704E+03  0.19665988632E+03  0.00000000000E+00 0. -1.
<scales pt_clust_3="97.10184" pt_clust_4="61.23358" pt_clust_5="14000.00000" pt_clust_6="48.86706"></scales>
<clustering>
<clus scale="   48.867">  1  6  2 -1</clus>
<clus scale="   61.234">  1  4  2 -1</clus>
<clus scale="   97.102">  2  3  1 -1</clus>
<clus scale="   48.867">  1  3  2 -1</clus>
</clustering>
</event>
<event>
 6    0  0.4227619E+002  0.1043513E+03  0.7546771E-02  0.1271403E+00
         21   -1    0    0  503  501  0.00000000000E+00  0.00000000000E+00  0.40194697446E+02  0.40194697446E+02  0.00000000000E+00 0. -1.
         21   -1    0    0  504  502 -0.00000000000E+00 -0.00000000000E+00 -0.12383269895E+04  0.12383269895E+04  0.00000000000E+00 0. -1.
         21    1    1    2  503  505  0.28210054514E+02  0.30125788003E+02  0.25693515740E+01  0.41351805837E+02  0.00000000000E+00 0. -1.
         21    1    1    2  504  506 -0.99884423696E+02  0.61212803784E+02 -0.77555812000E+03  0.78435597974E+03  0.00000000000E+00 0. -1.
         21    1    1    2  505  502  0.50378723772E+02  0.94691495344E+01 -0.11244082873E+03  0.12357435239E+03  0.00000000000E+00 0. -1.
         21    1    1    2  506  501  0.21295645411E+02 -0.10080774132E+03 -0.31270269489E+03  0.32923954898E+03  0.00000000000E+00 0. -1.
<scales pt_clust_3="41.27191" pt_clust_4="104.35132" pt_clust_5="61.87391" pt_clust_6="14000.00000"></scales>
<clustering>
<clus scale="   41.272">  1  3  2 -1</clus>
<clus scale="   61.874">  1  5  2 -1</clus>
<clus scale="  104.351">  2  4  1 -1</clus>
<clus scale="   41.272">  1  3  2 -1</clus>
</clustering>
</event>
<event>
 6    0  0.4227619E+002  0.7360695E+02  0.7546771E-02  0.1348240E+00
         21   -1    0    0  505  501  0.00000000000E+00  0.00000000000E+00  0.13780809443E+04  0.13780809443E+04  0.00000000000E+00 0. -1.
         21   -1    0    0  503  502 -0.00000000000E+00 -0.00000000000E+00 -0.35282655057E+02  0.35282655057E+02  0.00000000000E+00 0. -1.
         21    1    1    2  503  504  0.29571668669E+02 -0.44842872054E+02  0.12168564610E+03  0.13301414672E+03  0.00000000000E+00 0. -1.
         21    1    1    2  504  501  0.30014922262E+02  0.13593637416E+02  0.34414822205E+03  0.34572197106E+03  0.00000000000E+00 0.  1.
         21    1    1    2  505  506 -0.75432486141E+02 -0.62217617526E+02  0.81617388187E+03  0.82201027812E+03  0.00000000000E+00 0. -1.
         21    1    1    2  506  502  0.15845895210E+02  0.93466852164E+02  0.60790539186E+02  0.11261720341E+03  0.00000000000E+00 0. -1.
<scales pt_clust_3="54.50138" pt_clust_4="32.94970" pt_clust_5="14000.00000" pt_clust_6="73.60695"></scales>
<clustering>
<clus scale="   32.950">  1  4  2 -1</clus>
<clus scale="   54.501">  2  3  1 -1</clus>
<clus scale="   73.607">  2  6  1 -1</clus>
<clus scale="   32.950">  1  3  2 -1</clus>
</clustering>
</event>
<event>
 6    0  0.4227619E+002  0.5844135E+02  0.7546771E-02  0.1404492E+00
         21   -1    0    0  503  501  0.00000000000E+00  0.00000000000E+00  0.73788158284E+03  0.73788158284E+03  0.00000000000E+00 0. -1.
         21   -1    0    0  506  502 -0.00000000000E+00 -0.00000000000E+00 -0.10278167290E+03  0.10278167290E+03  0.00000000000E+00 0.  1.
         21    1    1    2  503  505 -0.29393959159E+02 -0.19474937551E+02  0.36508303345E+03  0.36678181436E+03  0.00000000000E+00 0. -1.
         21    1    1    2  504  501  0.76438405325E+02  0.44470337494E+02  0.30792469679E+03  0.32037175222E+03  0.00000000000E+00 0. -1.
         21    1    1    2  505  502 -0.15940586348E+02 -0.72904004193E+02  0.14463338382E+02  0.76015026656E+02  0.00000000000E+00 0.  1.
         21    1    1    2  506  504 -0.31103859819E+02  0.47908604250E+02 -0.52371158685E+02  0.77494662518E+02  0.00000000000E+00 0.  1.
<scales pt_clust_3="35.26015" pt_clust_4="58.44135" pt_clust_5="14000.00000" pt_clust_6="57.12124"></scales>
<clustering>
<clus scale="   35.260">  1  3  2 -1</clus>
<clus scale="   57.121">  2  6  1 -1</clus>
<clus scale="   58.441">  1  4  2 -1</clus>
<clus scale="   35.260">  1  3  2 -1</clus>
</clustering>
</event>
<event>
 6    0  0.4227619E+002  0.8173124E+02  0.7546771E-02  0.1324209E+00
         21   -1    0    0  504  501  0.00000000000E+00  0.00000000000E+00  0.85202701154E+03  0.85202701154E+03  0.00000000000E+00 0. -1.
         21   -1    0    0  505  502 -0.00000000000E+00 -0.00000000000E+00 -0.13174481429E+04  0.13174481429E+04  0.00000000000E+00 0.  1.
         21    1    1    2  503  502  0.18549737623E+02 -0.27554869494E+02 -0.12036084443E+04  0.12040667136E+04  0.00000000000E+00 0.  1.
         21    1    1    2  504  506  0.21626854554E+02 -0.66005943576E+02  0.13964237674E+03  0.15596313285E+03  0.00000000000E+00 0.  1.
         21    1    1    2  505  501  0.50679433628E+02  0.10242897409E+03  0.67852219417E+03  0.68807882376E+03  0.00000000000E+00 0. -1.
         21    1    1    2  506  503 -0.90856025805E+02 -0.88681610203E+01 -0.79977257952E+02  0.12136648423E+03  0.00000000000E+00 0.  1.
<scales pt_clust_3="33.21692" pt_clust_4="71.75728" pt_clust_5="81.73124" pt_clust_6="14000.00000"></scales>
<clustering>
<clus scale="   33.217">  2  3  1 -1</clus>
<clus scale="   71.757">  1  4  2 -1</clus>
<clus scale="   81.731">  1  5  2 -1</clus>
<clus scale="   71.757">  1  3  2 -1</clus>
</clustering>
</event>
<event>
 6    0  0.4227619E+002  0.8395354E+02  0.7546771E-02  0.1318192E+00
         21   -1    0    0  503  501  0.00000000000E+00  0.00000000000E+00  0.13660833214E+03  0.13660833214E+03  0.00000000000E+00 0. -1.
         21   -1    0    0  506  502 -0.00000000000E+00 -0.00000000000E+00 -0.39649076587E+03  0.39649076587E+03  0.00000000000E+00 0. -1.
         21    1    1    2  503  505 -0.70596627798E+02  0.58499888340E+02  0.54164270462E+02  0.10648891486E+03  0.00000000000E+00 0. -1.
         21    1    1    2  504  501 -0.24878778207E+02 -0.34948601096E+02  0.21996276056E+02  0.48209900269E+02  0.00000000000E+00 0.  1.
         21    1    1    2  505  502  0.47931544150E+02 -0.50768994064E+02 -0.46893044323E+02  0.84106368895E+02  0.00000000000E+00 0.  1.
         21    1    1    2  506  504  0.47543861855E+02  0.27217706819E+02 -0.28914993592E+03  0.29429391399E+03  0.00000000000E+00 0. -1.
<scales pt_clust_3="14000.00000" pt_clust_4="42.89940" pt_clust_5="83.95354" pt_clust_6="53.79830"></scales>
<clustering>
<clus scale="   42.899">  1  4  2 -1</clus>
<clus scale="   53.798">  2  6  1 -1</clus>
<clus scale="   83.954">  2  5  1 -1</clus>
<clus scale="   42.899">  1  3  2 -1</clus>
</clustering>
</event>
<event>
 6    0  0.4227619E+002  0.1627195E+03  0.7546771E-02  0.1185660E+00
         21   -1    0    0  506  501  0.00000000000E+00  0.00000000000E+00  0.29684707868E+04  0.29684707868E+04  0.00000000000E+00 0. -1.
         21   -1    0    0  503  502 -0.00000000000E+00 -0.00000000000E+00 -0.52470064933E+02  0.52470064933E+02  0.00000000000E+00 0. -1.
         21    1    1    2  503  501  0.78390195774E+01  0.70955879126E+02  0.17663832180E+04  0.17678251779E+04  0.00000000000E+00 0. -1.
         21    1    1    2  504  502  0.12269575777E+03 -0.14746603316E+03  0.17731855890E+03  0.26123237020E+03  0.00000000000E+00 0. -1.
         21    1    1    2  505  504 -0.80089747416E+02  0.80899642446E+02  0.36176683516E+03  0.37925501026E+03  0.00000000000E+00 0. -1.
         21    1    1    2  506  505 -0.50445029929E+02 -0.43894884117E+01  0.61053210981E+03  0.61262829331E+03  0.00000000000E+00 0. -1.
<scales pt_clust_3="74.01006" pt_clust_4="14000.00000" pt_clust_5="162.71951" pt_clust_6="50.63565"></scales>
<clustering>
<clus scale="   50.636">  1  6  2 -1</clus>
<clus scale="   74.010">  1  3  2 -1</clus>
<clus scale="  162.720">  1  5  2 -1</clus>
<clus scale="   50.636">  1  3  2 -1</clus>
</clustering>
</event>
<event>
 6    0  0.4227619E+002  0.1283091E+03  0.7546771E-02  0.1229987E+00
         21   -1    0    0  504  501  0.00000000000E+00  0.00000000000E+00  0.16751771039E+04  0.16751771039E+04  0.00000000000E+00 0.  1.
         21   -1    0    0  503  502 -0.00000000000E+00 -0.00000000000E+00 -0.32703828876E+02  0.32703828876E+02  0.00000000000E+00 0.  1.
         21    1    1    2  503  505 -0.10925184496E+03  0.47485851778E+02  0.82738249491E+03  0.83591426870E+03  0.00000000000E+00 0.  1.
         21    1    1    2  504  506  0.51461777718E+01  0.71151386952E+02  0.36139385598E+03  0.36836737390E+03  0.00000000000E+00 0.  1.
         21    1    1    2  505  501 -0.19484388057E+02 -0.75562306620E+02  0.24622280179E+03  0.25829241507E+03  0.00000000000E+00 0.  1.
         21    1    1    2  506  502  0.12359005524E+03 -0.43074932109E+02  0.20747412233E+03  0.24530687510E+03  0.00000000000E+00 0.  1.
<scales pt_clust_3="128.30909" pt_clust_4="71.33725" pt_clust_5="64.56937" pt_clust_6="14000.00000"></scales>
<clustering>
<clus scale="   71.337">  1  4  2 -1</clus>
<clus scale="   64.569">  1  5  2 -1</clus>
<clus scale="  128.309">  1  3  2 -1</clus>
<clus scale="   71.337">  1  3  2 -1</clus>
</clustering>
</event>
<event>
 6    0  0.4227619E+002  0.1228688E+03  0.7546771E-02  0.1238438E+00
         21   -1    0    0  504  501  0.00000000000E+00  0.00000000000E+00  0.17108334091E+04  0.17108334091E+04  0.00000000000E+00 0.  1.
         21   -1    0    0  506  502 -0.00000000000E+00 -0.00000000000E+00 -0.46111595130E+02  0.46111595130E+02  0.00000000000E+00 0.  1.
         21    1    1    2  503  502 -0.10185409702E+03  0.55686782258E+02  0.71261965568E+02  0.13621138915E+03  0.00000000000E+00 0.  1.
         21    1    1    2  504  503 -0.45551401301E+02  0.22257004246E+02  0.40465774406E+03  0.40782127731E+03  0.00000000000E+00 0.  1.
         21    1    1    2  505  501 -0.10956665454E+02 -0.33341178105E+02  0.61470312626E+03  0.61570416282E+03  0.00000000000E+00 0.  1.
         21    1    1    2  506  505  0.15836216378E+03 -0.44602608399E+02  0.57409897806E+03  0.59720817493E+03  0.00000000000E+00 0.  1.
<scales pt_clust_3="122.86884" pt_clust_4="50.59098" pt_clust_5="35.09534" pt_clust_6="14000.00000"></scales>
<clustering>
<clus scale="   35.095">  1  5  2 -1</clus>
<clus scale="   50.591">  1  4  2 -1</clus>
<clus scale="  122.869">  2  3  1 -1</clus>
<clus scale="   35.095">  1  3  2 -1</clus>
</clustering>
</event>
<event>
 6    0  0.4227619E+002  0.8713525E+02  0.7546771E-02  0.1309941E+00
         21   -1    0    0  504  501  0.00000000000E+00  0.00000000000E+00  0.18799983999E+03  0.18799983999E+03  0.00000000000E+00 0.  1.
         21   -1    0    0  503  502 -0.00000000000E+00 -0.00000000000E+00 -0.58465842790E+03  0.58465842790E+03  0.00000000000E+00 0.  1.
         21    1    1    2  503  505 -0.19448403723E+02  0.34087551943E+02 -0.43722420417E+02  0.58752460816E+02  0.00000000000E+00 0. -1.
         21    1    1    2  504  506  0.60187650424E+01 -0.86121921008E+02  0.32221380504E+02  0.92148945585E+02  0.00000000000E+00 0.  1.
         21    1    1    2  505  501  0.40087331282E+02  0.82900880499E+02  0.99392608504E+02  0.13549332361E+03  0.00000000000E+00 0.  1.
         21    1    1    2  506  502 -0.26657692602E+02 -0.30866511434E+02 -0.48455015651E+03  0.48626353788E+03  0.00000000000E+00 0.  1.
<scales pt_clust_3="39.24540" pt_clust_4="87.13525" pt_clust_5="14000.00000" pt_clust_6="44.35578"></scales>
<clustering>
<clus scale="   39.245">  2  3  1 -1</clus>
<clus scale="   44.356">  2  6  1 -1</clus>
<clus scale="   87.135">  2  4  1 -1</clus>
<clus scale="   87.135">  1  3  2 -1</clus>
</clustering>
</event>
<event>
 6    0  0.4227619E+002  0.1073709E+03  0.7546771E-02  0.1265517E+00
         21   -1    0    0  503  501  0.00000000000E+00  0.00000000000E+00  0.42154192292E+03  0.42154192292E+03  0.00000000000E+00 0.  1.
         21   -1    0    0  506  502 -0.00000000000E+00 -0.00000000000E+00 -0.74690949042E+03  0.74690949042E+03  0.00000000000E+00 0. -1.
         21    1    1    2  503  505  0.19080460216E+02 -0.47139992898E+02  0.76969813569E+02  0.92252886640E+02  0.00000000000E+00 0.  1.
         21    1    1    2  504  502  0.31590782522E+02 -0.87442612119E+02 -0.29004789827E+03  0.30458491631E+03  0.00000000000E+00 0. -1.
         21    1    1    2  505  504 -0.92155466530E+02  0.12585450775E+03  0.31008923865E+03  0.34711283908E+03  0.00000000000E+00 0.  1.
         21    1    1    2  506  501  0.41484223792E+02  0.87280972653E+01 -0.42237872145E+03  0.42450077130E+03  0.00000000000E+00 0. -1.
<scales pt_clust_3="51.04120" pt_clust_4="107.37091" pt_clust_5="14000.00000" pt_clust_6="42.39246"></scales>
<clustering>
<clus scale="   42.392">  2  6  1 -1</clus>
<clus scale="   51.041">  1  3  2 -1</clus>
<clus scale="  107.371">  2  4  1 -1</clus>
<clus scale="   51.041">  1  3  2 -1</clus>
</clustering>
</event>
<event>
 6    0  0.4227619E+002  0.1105991E+03  0.7546771E-02  0.1259464E+00
         21   -1    0    0  504  501  0.00000000000E+00  0.00000000000E+00  0.36044296906E+03  0.36044296906E+03  0.00000000000E+00 0. -1.
         21   -1    0    0  505  502 -0.00000000000E+00 -0.00000000000E+00 -0.26717802447E+03  0.26717802447E+03  0.00000000000E+00 0. -1.
         21    1    1    2  503  502 -0.29552722759E+02  0.57917810503E+02 -0.20949254572E+03  0.21935123183E+03  0.00000000000E+00 0. -1.
         21    1    1    2  504  503 -0.74793901556E+02  0.54880447607E+02  0.60052094203E+02  0.11050902795E+03  0.00000000000E+00 0. -1.
         21    1    1    2  505  506  0.10536727322E+03 -0.72734771542E+02  0.15295407197E+03  0.19946818641E+03  0.00000000000E+00 0. -1.
         21    1    1    2  506  501 -0.10206489090E+01 -0.40063486569E+02  0.89751324131E+02  0.98292547345E+02  0.00000000000E+00 0. -1.
<scales pt_clust_3="64.37110" pt_clust_4="110.59914" pt_clust_5="14000.00000" pt_clust_6="40.07649"></scales>
<clustering>
<clus scale="   40.076">  1  6  2 -1</clus>
<clus scale="   64.371">  2  3  1 -1</clus>
<clus scale="  110.599">  1  4  2 -1</clus>
<clus scale="   40.076">  1  3  2 -1</clus>
</clustering>
</event>
<event>
 6    0  0.4227619E+002  0.7844905E+02  0.7546771E-02  0.1333511E+00
         21   -1    0    0  505  501  0.00000000000E+00  0.00000000000E+00  0.24435479393E+03  0.24435479393E+03  0.00000000000E+00 0. -1.
         21   -1    0    0  506  502 -0.00000000000E+00 -0.00000000000E+00 -0.19010854724E+03  0.19010854724E+03  0.00000000000E+00 0. -1.
         21    1    1    2  503  502  0.80331349903E+02  0.53035734710E+02  0.52144944338E+02  0.10947607115E+03  0.00000000000E+00 0. -1.
         21    1    1    2  504  503 -0.69118117989E+02 -0.43125170529E+01  0.12262330298E+03  0.14082750609E+03  0.00000000000E+00 0. -1.
         21    1    1    2  505  504 -0.15025206433E+02  0.27008398464E+02  0.10614533456E+02  0.32678413922E+02  0.00000000000E+00 0. -1.
         21    1    1    2  506  501  0.38119745202E+01 -0.75731616121E+02 -0.13113653408E+03  0.15148135001E+03  0.00000000000E+00 0. -1.
<scales pt_clust_3="78.44905" pt_clust_4="14000.00000" pt_clust_5="30.90648" pt_clust_6="74.56353"></scales>
<clustering>
<clus scale="   30.906">  1  5  2 -1</clus>
<clus scale="   74.564">  2  6  1 -1</clus>
<clus scale="   78.449">  2  3  1 -1</clus>
<clus scale="   30.906">  1  3  2 -1</clus>
</clustering>
</event>
<event>
 6    0  0.4227619E+002  0.2635318E+03  0.7546771E-02  0.1105040E+00
         21   -1    0    0  504  501  0.00000000000E+00  0.00000000000E+00  0.20983645479E+03  0.20983645479E+03  0.00000000000E+00 0.  1.
         21   -1    0    0  506  502 -0.00000000000E+00 -0.00000000000E+00 -0.91350798152E+03  0.91350798152E+03  0.00000000000E+00 0.  1.
         21    1    1    2  503  505  0.16692126194E+03 -0.14971579755E+03 -0.65123593414E+03  0.68875668392E+03  0.00000000000E+00 0.  1.
         21    1    1    2  504  503 -0.31055632497E+02  0.26837256095E+01  0.30427934993E+02  0.43560462818E+02  0.00000000000E+00 0.  1.
         21    1    1    2  505  502 -0.70201590704E+01 -0.40486341630E+02 -0.14862161789E+03  0.15419731449E+03  0.00000000000E+00 0.  1.
         21    1    1    2  506  501 -0.12884547037E+03  0.18751841357E+03  0.65758090308E+02  0.23682997509E+03  0.00000000000E+00 0.  1.
<scales pt_clust_3="41.00325" pt_clust_4="31.17138" pt_clust_5="41.00325" pt_clust_6="245.75367"></scales>
<clustering>
<clus scale="   31.171">  1  4  2 -1</clus>
<clus scale="   41.003">  3  5 -1 -1</clus>
<clus scale="  245.754">  1  6  2 -1</clus>
<clus scale="   31.171">  1  3  2 -1</clus>
</clustering>
</event>
<event>
 6    0  0.4227619E+002  0.9715472E+02  0.7546771E-02  0.1286396E+00
         21   -1    0    0  504  501  0.00000000000E+00  0.00000000000E+00  0.99887638279E+02  0.99887638279E+02  0.00000000000E+00 0. -1.
         21   -1    0    0  503  502 -0.00000000000E+00 -0.00000000000E+00 -0.86981930281E+03  0.86981930281E+03  0.00000000000E+00 0. -1.
         21    1    1    2  503  501  0.12001621214E+02  0.51958843135E+02 -0.30388247006E+03  0.30852603764E+03  0.00000000000E+00 0. -1.
         21    1    1    2  504  506  0.78923685709E+02 -0.95406118763E+02  0.28906512245E+02  0.12714897606E+03  0.00000000000E+00 0. -1.
         21    1    1    2  505  502 -0.25904724652E+02  0.19354729020E+02 -0.45051129541E+03  0.45167033065E+03  0.00000000000E+00 0. -1.
         21    1    1    2  506  505 -0.65020582270E+02  0.24092546608E+02 -0.44444411300E+02  0.82361596734E+02  0.00000000000E+00 0. -1.
<scales pt_clust_3="66.47585" pt_clust_4="14000.00000" pt_clust_5="32.33667" pt_clust_6="97.15472"></scales>
<clustering>
<clus scale="   32.337">  2  5  1 -1</clus>
<clus scale="   66.476">  2  3  1 -1</clus>
<clus scale="   97.155">  2  6  1 -1</clus>
<clus scale="   97.155">  1  3  2 -1</clus>
</clustering>
</event>
<event>
 6    0  0.4227619E+002  0.1046782E+03  0.7546771E-02  0.1270755E+00
         21   -1    0    0  505  501  0.00000000000E+00  0.00000000000E+00  0.10543548622E+04  0.10543548622E+04  0.00000000000E+00 0.  1.
         21   -1    0    0  506  502 -0.00000000000E+00 -0.00000000000E+00 -0.60199797364E+02  0.60199797364E+02  0.00000000000E+00 0. -1.
         21    1    1    2  503  504  0.39797451538E+02  0.81907782615E+02  0.39566254016E+02  0.99288521284E+02  0.00000000000E+00 0. -1.
         21    1    1    2  504  502 -0.25100176993E+02  0.21291560402E+02 -0.86553440161E+01  0.34033283848E+02  0.00000000000E+00 0. -1.
         21    1    1    2  505  503 -0.80250136696E+01  0.39416100169E+02  0.13852730124E+03  0.14424923912E+03  0.00000000000E+00 0.  1.
         21    1    1    2  506  501 -0.66722608756E+01 -0.14261544319E+03  0.82471685362E+03  0.83698361534E+03  0.00000000000E+00 0.  1.
<scales pt_clust_3="14000.00000" pt_clust_4="32.91427" pt_clust_5="42.15629" pt_clust_6="104.67820"></scales>
<clustering>
<clus scale="   32.914">  2  4  1 -1</clus>
<clus scale="   42.156">  1  5  2 -1</clus>
<clus scale="  104.678">  1  6  2 -1</clus>
<clus scale="   42.156">  1  3  2 -1</clus>
</clustering>
</event>
<event>
 6    0  0.4227619E+002  0.9804283E+02  0.7546771E-02  0.1284466E+00
         21   -1    0    0  504  501  0.00000000000E+00  0.00000000000E+00  0.46605144380E+03  0.46605144380E+03  0.00000000000E+00 0. -1.
         21   -1    0    0  506  502 -0.00000000000E+00 -0.00000000000E+00 -0.28677377464E+03  0.28677377464E+03  0.00000000000E+00 0. -1.
         21    1    1    2  503  505 -0.37495729766E+02  0.39665313339E+02 -0.33953049829E+02  0.64281229186E+02  0.00000000000E+00 0.  1.
         21    1    1    2  504  502  0.10595526647E+03  0.20270823141E+02  0.33254406276E+03  0.34960403092E+03  0.00000000000E+00 0. -1.
         21    1    1    2  505  501 -0.42473494414E+02 -0.94907940248E+02  0.82340574238E+02  0.13263289568E+03  0.00000000000E+00 0. -1.
         21    1    1    2  506  503 -0.25986042289E+02  0.34971803769E+02 -0.20165391800E+03  0.20630706265E+03  0.00000000000E+00 0. -1.
<scales pt_clust_3="80.30770" pt_clust_4="14000.00000" pt_clust_5="98.04283" pt_clust_6="43.56950"></scales>
<clustering>
<clus scale="   43.570">  2  6  1 -1</clus>
<clus scale="   80.308">  2  3  1 -1</clus>
<clus scale="   98.043">  2  5  1 -1</clus>
<clus scale="   98.043">  1  3  2 -1</clus>
</clustering>
</event>
<event>
 6    0  0.4227619E+002  0.1670976E+03  0.7546771E-02  0.1180909E+00
         21   -1    0    0  503  501  0.00000000000E+00  0.00000000000E+00  0.24983089248E+03  0.24983089248E+03  0.00000000000E+00 0. -1.
         21   -1    0    0  506  502 -0.00000000000E+00 -0.00000000000E+00 -0.55200349824E+03  0.55200349824E+03  0.00000000000E+00 0. -1.
         21    1    1    2  503  502 -0.75604900506E+01 -0.15026222405E+03  0.79163788961E+02  0.17000824235E+03  0.00000000000E+00 0. -1.
         21    1    1    2  504  505  0.27865898054E+01  0.15592180152E+03 -0.25768093001E+03  0.30119567554E+03  0.00000000000E+00 0. -1.
         21    1    1    2  505  501 -0.28592954867E+02 -0.21096867028E+02  0.98883957091E+02  0.10507460129E+03  0.00000000000E+00 0. -1.
         21    1    1    2  506  504  0.33366855112E+02  0.15437289553E+02 -0.22253942180E+03  0.22555587153E+03  0.00000000000E+00 0. -1.
<scales pt_clust_3="167.09761" pt_clust_4="14000.00000" pt_clust_5="35.53357" pt_clust_6="36.40988"></scales>
<clustering>
<clus scale="   35.534">  1  5  2 -1</clus>
<clus scale="   36.410">  2  6  1 -1</clus>
<clus scale="  167.098">  1  3  2 -1</clus>
<clus scale="   35.534">  1  3  2 -1</clus>
</clustering>
</event>
<event>
 6    0  0.4227619E+002  0.1134973E+03  0.7546771E-02  0.1254227E+00
         21   -1    0    0  506  501  0.00000000000E+00  0.00000000000E+00  0.35065968019E+03  0.35065968019E+03  0.00000000000E+00 0.  1.
         21   -1    0    0  505  502 -0.00000000000E+00 -0.00000000000E+00 -0.15951134812E+03  0.15951134812E+03  0.00000000000E+00 0.  1.
         21    1    1    2  503  501 -0.10449372122E+03  0.10353454308E+03  0.12928963820E+03  0.19584215565E+03  0.00000000000E+00 0.  1.
         21    1    1    2  504  502 -0.36503148875E+02 -0.12907771694E+02  0.35701235311E+01  0.38882338277E+02  0.00000000000E+00 0.  1.
         21    1    1    2  505  503  0.56997086920E+02 -0.38942345562E+02 -0.79952522517E+02  0.10562944690E+03  0.00000000000E+00 0.  1.
         21    1    1    2  506  504  0.83999783177E+02 -0.51684425821E+02  0.13824109285E+03  0.16981708748E+03  0.00000000000E+00 0. -1.
<scales pt_clust_3="113.49731" pt_clust_4="38.71809" pt_clust_5="57.81262" pt_clust_6="14000.00000"></scales>
<clustering>
<clus scale="   38.718">  2  4  1 -1</clus>
<clus scale="   57.813">  2  5  1 -1</clus>
<clus scale="  113.497">  2  3  1 -1</clus>
<clus scale="  113.497">  1  3  2 -1</clus>
</clustering>
</event>
<event>
 6    0  0.4227619E+002  0.8712569E+02  0.7546771E-02  0.1309965E+00
         21   -1    0    0  504  501  0.00000000000E+00  0.00000000000E+00  0.83150867342E+02  0.83150867342E+02  0.00000000000E+00 0.  1.
         21   -1    0    0  505  502 -0.00000000000E+00 -0.00000000000E+00 -0.18213355987E+04  0.18213355987E+04  0.00000000000E+00 0. -1.
         21    1    1    2  503  502 -0.24703467461E+02 -0.31620614839E+02 -0.72594466515E+03  0.72705280513E+03  0.00000000000E+00 0. -1.
         21    1    1    2  504  503  0.11677222091E+03 -0.13085323048E+02  0.23251645931E+02  0.11978153570E+03  0.00000000000E+00 0.  1.
         21    1    1    2  505  506 -0.61167452472E+02  0.46995259909E+02 -0.10201753578E+04  0.10230873728E+04  0.00000000000E+00 0. -1.
         21    1    1    2  506  501 -0.30901300976E+02 -0.22893220219E+01 -0.15316354268E+02  0.34564752355E+02  0.00000000000E+00 0.  1.
<scales pt_clust_3="40.28368" pt_clust_4="14000.00000" pt_clust_5="87.12569" pt_clust_6="30.98599"></scales>
<clustering>
<clus scale="   30.986">  1  6  2 -1</clus>
<clus scale="   40.284">  2  3  1 -1</clus>
<clus scale="   87.126">  2  5  1 -1</clus>
<clus scale="   30.986">  1  3  2 -1</clus>
</clustering>
</event>
<event>
 6    0  0.4227619E+002  0.7593239E+02  0.7546771E-02  0.1341008E+00
         21   -1    0    0  506  501  0.00000000000E+00  0.00000000000E+00  0.79335513489E+03  0.79335513489E+03  0.00000000000E+00 0. -1.
         21   -1    0    0  503  502 -0.00000000000E+00 -0.00000000000E+00 -0.15904743211E+03  0.15904743211E+03  0.00000000000E+00 0. -1.
         21    1    1    2  503  505 -0.35610051441E+02  0.20002685782E+01 -0.59202755169E+02  0.69116156270E+02  0.00000000000E+00 0. -1.
         21    1    1    2  504  501  0.43223575080E+01  0.74938817880E+02  0.69259468524E+03  0.69665049144E+03  0.00000000000E+00 0. -1.
         21    1    1    2  505  504  0.38769613465E+02  0.33515769076E+02  0.44289647940E+02  0.67734500954E+02  0.00000000000E+00 0. -1.
         21    1    1    2  506  502 -0.74819195321E+01 -0.11045485553E+03 -0.43373875222E+02  0.11890141834E+03  0.00000000000E+00 0. -1.
<scales pt_clust_3="35.66619" pt_clust_4="14000.00000" pt_clust_5="48.17939" pt_clust_6="75.93239"></scales>
<clustering>
<clus scale="   35.666">  2  3  1 -1</clus>
<clus scale="   48.179">  2  5  1 -1</clus>
<clus scale="   75.932">  2  6  1 -1</clus>
<clus scale="   75.932">  1  3  2 -1</clus>
</clustering>
</event>
<event>
 6    0  0.4227619E+002  0.8819748E+02  0.7546771E-02  0.1307276E+00
         21   -1    0    0  504  501  0.00000000000E+00  0.00000000000E+00  0.42323905340E+02  0.42323905340E+02  0.00000000000E+00 0. -1.
         21   -1    0    0  505  502 -0.00000000000E+00 -0.00000000000E+00 -0.36460112251E+04  0.36460112251E+04  0.00000000000E+00 0.  1.
         21    1    1    2  503  502  0.44152482711E+02  0.22891307525E+02 -0.17505219972E+04  0.17512283451E+04  0.00000000000E+00 0.  1.
         21    1    1    2  504  506  0.62861129151E+02 -0.28013151372E+02 -0.46944493132E+03  0.47446264526E+03  0.00000000000E+00 0. -1.
         21    1    1    2  505  501 -0.81140649463E+02 -0.46838176294E+02 -0.17644938469E+02  0.95336056177E+02  0.00000000000E+00 0. -1.
         21    1    1    2  506  503 -0.25872962399E+02  0.51960020141E+02 -0.13660754527E+04  0.13673080839E+04  0.00000000000E+00 0.  1.
<scales pt_clust_3="49.73383" pt_clust_4="88.19748" pt_clust_5="14000.00000" pt_clust_6="68.72786"></scales>
<clustering>
<clus scale="   49.734">  2  3  1 -1</clus>
<clus scale="   68.728">  2  6  1 -1</clus>
<clus scale="   88.197">  2  4  1 -1</clus>
<clus scale="   88.197">  1  3  2 -1</clus>
</clustering>
</event>
<event>
 6    0  0.4227619E+002  0.7825102E+02  0.7546771E-02  0.1334089E+00
         21   -1    0    0  503  501  0.00000000000E+00  0.00000000000E+00  0.19866001701E+03  0.19866001701E+03  0.00000000000E+00 0. -1.
         21   -1    0    0  506  502 -0.00000000000E+00 -0.00000000000E+00 -0.75141250808E+03  0.75141250808E+03  0.00000000000E+00 0. -1.
         21    1    1    2  503  504  0.41945184341E+01 -0.76755403858E+02  0.12891195529E+03  0.15009089987E+03  0.00000000000E+00 0. -1.
         21    1    1    2  504  505 -0.76178508951E+02  0.33981160759E+02  0.15007410110E+02  0.84753211566E+02  0.00000000000E+00 0. -1.
         21    1    1    2  505  502  0.42457603017E+02  0.85354843190E+02 -0.57697173497E+03  0.58479439144E+03  0.00000000000E+00 0. -1.
         21    1    1    2  506  501  0.29526387499E+02 -0.42580600092E+02 -0.11970012150E+03  0.13043402221E+03  0.00000000000E+00 0. -1.
<scales pt_clust_3="77.61735" pt_clust_4="78.25102" pt_clust_5="14000.00000" pt_clust_6="51.81617"></scales>
<clustering>
<clus scale="   51.816">  2  6  1 -1</clus>
<clus scale="   77.617">  1  3  2 -1</clus>
<clus scale="   78.251">  1  4  2 -1</clus>
<clus scale="   77.617">  1  3  2 -1</clus>
</clustering>
</event>
<event>
 6    0  0.4227619E+002  0.1035510E+03  0.7546771E-02  0.1273001E+00
         21   -1    0    0  505  501  0.00000000000E+00  0.00000000000E+00  0.29014942838E+03  0.29014942838E+03  0.00000000000E+00 0.  1.
         21   -1    0    0  506  502 -0.00000000000E+00 -0.00000000000E+00 -0.66293652753E+03  0.66293652753E+03  0.00000000000E+00 0.  1.
         21    1    1    2  503  502 -0.37466097486E+02 -0.16141043765E+02 -0.14473040179E+03  0.15036998024E+03  0.00000000000E+00 0. -1.
         21    1    1    2  504  501 -0.27837364263E+02 -0.80002518611E+02  0.21507209708E+03  0.23115217666E+03  0.00000000000E+00 0.  1.
         21    1    1    2  505  503  0.61188781744E+02  0.17386233396E+03 -0.81282492064E+02  0.20144235328E+03  0.00000000000E+00 0.  1.
         21    1    1    2  506  504  0.41146800052E+01 -0.77718771579E+02 -0.36184630237E+03  0.37012144573E+03  0.00000000000E+00 0.  1.
<scales pt_clust_3="40.79512" pt_clust_4="85.13846" pt_clust_5="103.55104" pt_clust_6="14000.00000"></scales>
<clustering>
<clus scale="   40.795">  2  3  1 -1</clus>
<clus scale="   85.138">  1  4  2 -1</clus>
<clus scale="  103.551">  1  5  2 -1</clus>
<clus scale="   85.138">  1  3  2 -1</clus>
</clustering>
</event>
<event>
 6    0  0.4227619E+002  0.7260341E+02  0.7546771E-02  0.1351457E+00
         21   -1    0    0  506  501  0.00000000000E+00  0.00000000000E+00  0.31642008408E+03  0.31642008408E+03  0.00000000000E+00 0.  1.
         21   -1    0    0  504  502 -0.00000000000E+00 -0.00000000000E+00 -0.26507558574E+03  0.26507558574E+03  0.00000000000E+00 0. -1.
         21    1    1    2  503  501  0.12292626199E+03  0.24618962772E+02 -0.11251310968E+03  0.16845224565E+03  0.00000000000E+00 0. -1.
         21    1    1    2  504  503 -0.50315879854E+02  0.56082967479E+02 -0.18561272163E+02  0.77598375183E+02  0.00000000000E+00 0. -1.
         21    1    1    2  505  502 -0.80179558410E+01 -0.51659566348E+02 -0.61926890025E+02  0.81042816580E+02  0.00000000000E+00 0. -1.
         21    1    1    2  506  505 -0.64592426293E+02 -0.29042363903E+02  0.24434577020E+03  0.25440223240E+03  0.00000000000E+00 0.  1.
<scales pt_clust_3="14000.00000" pt_clust_4="67.87383" pt_clust_5="52.27809" pt_clust_6="72.60341"></scales>
<clustering>
<clus scale="   52.278">  2  5  1 -1</clus>
<clus scale="   67.874">  2  4  1 -1</clus>
<clus scale="   72.603">  1  6  2 -1</clus>
<clus scale="   72.603">  1  3  2 -1</clus>
</clustering>
</event>
<event>
 6    0  0.4227619E+002  0.9583705E+02  0.7546771E-02  0.1289302E+00
         21   -1    0    0  505  501  0.00000000000E+00  0.00000000000E+00  0.87638879034E+02  0.87638879034E+02  0.00000000000E+00 0.  1.
         21   -1    0    0  503  502 -0.00000000000E+00 -0.00000000000E+00 -0.10429618821E+04  0.10429618821E+04  0.00000000000E+00 0. -1.
         21    1    1    2  503  501  0.10546136460E+03 -0.48816686631E+02 -0.48878332756E+02  0.12607243842E+03  0.00000000000E+00 0.  1.
         21    1    1    2  504  506 -0.74028996818E+02  0.32348109183E+01 -0.12560094488E+03  0.14582987940E+03  0.00000000000E+00 0. -1.
         21    1    1    2  505  504  0.17595195619E+01  0.35562217736E+02  0.30336977142E+02  0.46777124981E+02  0.00000000000E+00 0.  1.
         21    1    1    2  506  502 -0.33191887344E+02  0.10019657977E+02 -0.81118070260E+03  0.81192131835E+03  0.00000000000E+00 0. -1.
<scales pt_clust_3="14000.00000" pt_clust_4="95.83705" pt_clust_5="35.92282" pt_clust_6="34.67124"></scales>
<clustering>
<clus scale="   34.671">  2  6  1 -1</clus>
<clus scale="   35.923">  1  5  2 -1</clus>
<clus scale="   95.837">  2  4  1 -1</clus>
<clus scale="   35.923">  1  3  2 -1</clus>
</clustering>
</event>
<event>
 6    0  0.4227619E+002  0.2231340E+03  0.7546771E-02  0.1131568E+00
         21   -1    0    0  506  501  0.00000000000E+00  0.00000000000E+00  0.30289872775E+03  0.30289872775E+03  0.00000000000E+00 0.  1.
         21   -1    0    0  505  502 -0.00000000000E+00 -0.00000000000E+00 -0.26219322105E+03  0.26219322105E+03  0.00000000000E+00 0. -1.
         21    1    1    2  503  501 -0.20339843652E+03  0.21125217297E+02  0.12698813371E+03  0.24071390672E+03  0.00000000000E+00 0.  1.
         21    1    1    2  504  502  0.10651531536E+03  0.28902910786E+02 -0.28134380179E+02  0.11389659348E+03  0.00000000000E+00 0. -1.
         21    1    1    2  505  503 -0.36084664871E+02 -0.27465222120E+02 -0.60479967313E+02  0.75592776845E+02  0.00000000000E+00 0. -1.
         21    1    1    2  506  504  0.13296778603E+03 -0.22562905963E+02  0.23317204799E+01  0.13488867176E+03  0.00000000000E+00 0. -1.
<scales pt_clust_3="214.36610" pt_clust_4="54.09370" pt_clust_5="45.34800" pt_clust_6="54.09370"></scales>
<clustering>
<clus scale="   45.348">  2  5  1 -1</clus>
<clus scale="   54.094">  4  6 -1 -1</clus>
<clus scale="  214.366">  1  3  2 -1</clus>
<clus scale="  214.366">  1  3  2 -1</clus>
</clustering>
</event>
<event>
 6    0  0.4227619E+002  0.9060623E+02  0.7546771E-02  0.1301390E+00
         21   -1    0    0  504  501  0.00000000000E+00  0.00000000000E+00  0.34693652582E+03  0.34693652582E+03  0.00000000000E+00 0. -1.
         21   -1    0    0  503  502 -0.00000000000E+00 -0.00000000000E+00 -0.20893098029E+04  0.20893098029E+04  0.00000000000E+00 0. -1.
         21    1    1    2  503  505 -0.21601770115E+01 -0.34289515014E+02 -0.17562210731E+04  0.17565571140E+04  0.00000000000E+00 0. -1.
         21    1    1    2  504  506  0.57853441132E+02 -0.39834066166E+02  0.77467698856E+02  0.10457063567E+03  0.00000000000E+00 0.  1.
         21    1    1    2  505  501 -0.50434282073E+02  0.10484887560E+03  0.24168193326E+03  0.26822949201E+03  0.00000000000E+00 0. -1.
         21    1    1    2  506  502 -0.52589820477E+01 -0.30725294418E+02 -0.30530183612E+03  0.30688908704E+03  0.00000000000E+00 0. -1.
<scales pt_clust_3="64.96857" pt_clust_4="14000.00000" pt_clust_5="90.60623" pt_clust_6="31.17211"></scales>
<clustering>
<clus scale="   31.172">  2  6  1 -1</clus>
<clus scale="   64.969">  2  3  1 -1</clus>
<clus scale="   90.606">  1  5  2 -1</clus>
<clus scale="   90.606">  1  3  2 -1</clus>
</clustering>
</event>
<event>
 6    0  0.4227619E+002  0.8053789E+02  0.7546771E-02  0.1327532E+00
         21   -1    0    0  504  501  0.00000000000E+00  0.00000000000E+00  0.17342537501E+03  0.17342537501E+03  0.00000000000E+00 0.  1.
         21   -1    0    0  503  502 -0.00000000000E+00 -0.00000000000E+00 -0.58196406214E+03  0.58196406214E+03  0.00000000000E+00 0. -1.
         21    1    1    2  503  506 -0.42052861221E+02 -0.20826646560E+02 -0.51094205617E+03  0.51309256193E+03  0.00000000000E+00 0. -1.
         21    1    1    2  504  505  0.89110558061E+01  0.29481749724E+02  0.27295822308E+02  0.41153886789E+02  0.00000000000E+00 0.  1.
         21    1    1    2  505  502 -0.68037994759E+02  0.17276936576E+02  0.65907635973E+02  0.96288513063E+02  0.00000000000E+00 0.  1.
         21    1    1    2  506  501  0.10117980017E+03 -0.25932039740E+02  0.91999107578E+01  0.10485447538E+03  0.00000000000E+00 0.  1.
<scales pt_clust_3="46.76509" pt_clust_4="30.79903" pt_clust_5="14000.00000" pt_clust_6="80.53789"></scales>
<clustering>
<clus scale="   30.799">  1  4  2 -1</clus>
<clus scale="   46.765">  2  3  1 -1</clus>
<clus scale="   80.538">  2  6  1 -1</clus>
<clus scale="   30.799">  1  3  2 -1</clus>
</clustering>
</event>
<event>
 6    0  0.4227619E+002  0.1019853E+03  0.7546771E-02  0.1276176E+00
         21   -1    0    0  505  501  0.00000000000E+00  0.00000000000E+00  0.61937222267E+02  0.61937222267E+02  0.00000000000E+00 0.  1.
         21   -1    0    0  501  502 -0.00000000000E+00 -0.00000000000E+00 -0.13823497411E+04  0.13823497411E+04  0.00000000000E+00 0. -1.
         21    1    1    2  503  504 -0.77986920633E+02  0.65148908678E+02 -0.37098741936E+03  0.38465309749E+03  0.00000000000E+00 0. -1.
         21    1    1    2  504  502 -0.55320793697E+02 -0.40849005337E+02 -0.80926164860E+03  0.81217821157E+03  0.00000000000E+00 0. -1.
         21    1    1    2  505  506  0.33971379464E+02 -0.17550700636E+02  0.31143951091E+02  0.49315589878E+02  0.00000000000E+00 0.  1.
         21    1    1    2  506  503  0.99336334866E+02 -0.67492027050E+01 -0.17130740197E+03  0.19814006443E+03  0.00000000000E+00 0.  1.
<scales pt_clust_3="101.98532" pt_clust_4="67.67166" pt_clust_5="38.23718" pt_clust_6="14000.00000"></scales>
<clustering>
<clus scale="   38.237">  1  5  2 -1</clus>
<clus scale="   67.672">  2  4  1 -1</clus>
<clus scale="  101.985">  2  3  1 -1</clus>
<clus scale="   38.237">  1  3  2 -1</clus>
</clustering>
</event>
<event>
 6    0  0.4227619E+002  0.1597434E+03  0.7546771E-02  0.1188987E+00
         21   -1    0    0  506  501  0.00000000000E+00  0.00000000000E+00  0.75417627282E+03  0.75417627282E+03  0.00000000000E+00 0.  1.
         21   -1    0    0  504  502 -0.00000000000E+00 -0.00000000000E+00 -0.12267767428E+04  0.12267767428E+04  0.00000000000E+00 0. -1.
         21    1    1    2  503  501 -0.12884976716E+03  0.92996979920E+01 -0.19699612426E+03  0.23557635673E+03  0.00000000000E+00 0.  1.
         21    1    1    2  504  503 -0.33691986866E+02  0.31366757977E+02 -0.97348856566E+03  0.97457632383E+03  0.00000000000E+00 0. -1.
         21    1    1    2  505  502  0.16337900079E+03  0.49905478718E+02  0.19252823285E+03  0.25739148228E+03  0.00000000000E+00 0. -1.
         21    1    1    2  506  505 -0.83724677258E+00 -0.90571934687E+02  0.50535598713E+03  0.51340885273E+03  0.00000000000E+00 0.  1.
<scales pt_clust_3="159.74337" pt_clust_4="46.03285" pt_clust_5="14000.00000" pt_clust_6="90.08271"></scales>
<clustering>
<clus scale="   46.033">  2  4  1 -1</clus>
<clus scale="   90.083">  1  6  2 -1</clus>
<clus scale="  159.743">  2  3  1 -1</clus>
<clus scale="   90.083">  1  3  2 -1</clus>
</clustering>
</event>
<event>
 6    0  0.4227619E+002  0.1284693E+03  0.7546771E-02  0.1229745E+00
         21   -1    0    0  503  501  0.00000000000E+00  0.00000000000E+00  0.69856345552E+03  0.69856345552E+03  0.00000000000E+00 0.  1.
         21   -1    0    0  504  502 -0.00000000000E+00 -0.00000000000E+00 -0.12065117606E+03  0.12065117606E+03  0.00000000000E+00 0. -1.
         21    1    1    2  503  502  0.45816152823E+02 -0.51632942014E+01  0.21369632965E+03  0.21861358780E+03  0.00000000000E+00 0.  1.
         21    1    1    2  504  506  0.22310076493E+02 -0.99791765697E+02  0.59289489076E+02  0.11820059022E+03  0.00000000000E+00 0.  1.
         21    1    1    2  505  501 -0.16584479607E+03  0.29504725574E+02  0.31636375594E+03  0.35841463599E+03  0.00000000000E+00 0.  1.
         21    1    1    2  506  505  0.97718566752E+02  0.75450334325E+02 -0.11437295212E+02  0.12398581757E+03  0.00000000000E+00 0. -1.
<scales pt_clust_3="46.10618" pt_clust_4="105.32678" pt_clust_5="14000.00000" pt_clust_6="128.46931"></scales>
<clustering>
<clus scale="   46.106">  1  3  2 -1</clus>
<clus scale="  105.327">  2  4  1 -1</clus>
<clus scale="  128.469">  2  6  1 -1</clus>
<clus scale="   46.106">  1  3  2 -1</clus>
</clustering>
</event>
<event>
 6    0  0.4227619E+002  0.2231759E+03  0.7546771E-02  0.1131537E+00
         21   -1    0    0  505  501  0.00000000000E+00  0.00000000000E+00  0.26312929665E+04  0.26312929665E+04  0.00000000000E+00 0. -1.
         21   -1    0    0  504  502 -0.00000000000E+00 -0.00000000000E+00 -0.85462641374E+03  0.85462641374E+03  0.00000000000E+00 0. -1.
         21    1    1    2  503  506  0.22802238703E+03 -0.71957385481E+02 -0.52319394827E+03  0.57524254173E+03  0.00000000000E+00 0. -1.
         21    1    1    2  504  501 -0.59579483195E+02 -0.12222338505E+03  0.52545354802E+02  0.14577134486E+03  0.00000000000E+00 0. -1.
         21    1    1    2  505  503 -0.15234171611E+03  0.16327608463E+03  0.24999373151E+04  0.25098911645E+04  0.00000000000E+00 0. -1.
         21    1    1    2  506  502 -0.16101187721E+02  0.30904685904E+02 -0.25262216888E+03  0.25501432914E+03  0.00000000000E+00 0. -1.
<scales pt_clust_3="223.17592" pt_clust_4="134.38125" pt_clust_5="14000.00000" pt_clust_6="34.84749"></scales>
<clustering>
<clus scale="   34.847">  2  6  1 -1</clus>
<clus scale="  134.381">  2  4  1 -1</clus>
<clus scale="  223.176">  2  3  1 -1</clus>
<clus scale="  223.176">  1  3  2 -1</clus>
</clustering>
</event>
<event>
 6    0  0.4227619E+002  0.9119770E+02  0.7546771E-02  0.1299977E+00
         21   -1    0    0  506  501  0.00000000000E+00  0.00000000000E+00  0.23256169327E+03  0.23256169327E+03  0.00000000000E+00 0. -1.
         21   -1    0    0  504  502 -0.00000000000E+00 -0.00000000000E+00 -0.34995076958E+03  0.34995076958E+03  0.00000000000E+00 0. -1.
         21    1    1    2  503  501  0.80925547713E+02 -0.45366414071E+02  0.17672021507E+03  0.19959231000E+03  0.00000000000E+00 0. -1.
         21    1    1    2  504  503 -0.27513443722E+02 -0.31591626399E+02 -0.41277397517E+02  0.58811937477E+02  0.00000000000E+00 0. -1.
         21    1    1    2  505  502 -0.22671709668E+02 -0.24285077804E+02 -0.20554935667E+03  0.20821697685E+03  0.00000000000E+00 0. -1.
         21    1    1    2  506  505 -0.30740394323E+02  0.10124311827E+03 -0.47282537197E+02  0.11589123852E+03  0.00000000000E+00 0. -1.
<scales pt_clust_3="91.19770" pt_clust_4="53.50887" pt_clust_5="33.22306" pt_clust_6="14000.00000"></scales>
<clustering>
<clus scale="   33.223">  2  5  1 -1</clus>
<clus scale="   53.509">  2  4  1 -1</clus>
<clus scale="   91.198">  1  3  2 -1</clus>
<clus scale="   91.198">  1  3  2 -1</clus>
</clustering>
</event>
<event>
 6    0  0.4227619E+002  0.8173016E+02  0.7546771E-02  0.1324212E+00
         21   -1    0    0  503  501  0.00000000000E+00  0.00000000000E+00  0.14729118693E+04  0.14729118693E+04  0.00000000000E+00 0. -1.
         21   -1    0    0  504  502 -0.00000000000E+00 -0.00000000000E+00 -0.21406650940E+02  0.21406650940E+02  0.00000000000E+00 0. -1.
         21    1    1    2  503  506  0.39074157803E+02 -0.49639161646E+02  0.40683608635E+03  0.41171159485E+03  0.00000000000E+00 0. -1.
         21    1    1    2  504  505  0.68099148773E+02  0.36451989261E+02  0.12233836202E+03  0.14468212193E+03  0.00000000000E+00 0. -1.
         21    1    1    2  505  501 -0.95130000679E+02 -0.14803681302E+02  0.88269385938E+03  0.88792866572E+03  0.00000000000E+00 0. -1.
         21    1    1    2  506  502 -0.12043305897E+02  0.27990853687E+02  0.39636910619E+02  0.49996137756E+02  0.00000000000E+00 0. -1.
<scales pt_clust_3="58.76169" pt_clust_4="14000.00000" pt_clust_5="81.73016" pt_clust_6="30.47178"></scales>
<clustering>
<clus scale="   30.472">  2  6  1 -1</clus>
<clus scale="   58.762">  1  3  2 -1</clus>
<clus scale="   81.730">  1  5  2 -1</clus>
<clus scale="   58.762">  1  3  2 -1</clus>
</clustering>
</event>
<event>
 6    0  0.4227619E+002  0.1420821E+03  0.7546771E-02  0.1210554E+00
         21   -1    0    0  506  501  0.00000000000E+00  0.00000000000E+00  0.47621249932E+03  0.47621249932E+03  0.00000000000E+00 0. -1.
         21   -1    0    0  504  502 -0.00000000000E+00 -0.00000000000E+00 -0.76007625071E+02  0.76007625071E+02  0.00000000000E+00 0.  1.
         21    1    1    2  503  501 -0.26265597257E+02 -0.10894955884E+03  0.15705883213E+03  0.19294394191E+03  0.00000000000E+00 0. -1.
         21    1    1    2  504  503  0.20893698183E+02 -0.48885843614E+02  0.11584847393E+03  0.12746466664E+03  0.00000000000E+00 0. -1.
         21    1    1    2  505  502 -0.54913920259E+00  0.12300414402E+03  0.27634636221E+02  0.12607138502E+03  0.00000000000E+00 0.  1.
         21    1    1    2  506  505  0.59210382760E+01  0.34831258431E+02  0.99662931969E+02  0.10574013082E+03  0.00000000000E+00 0. -1.
<scales pt_clust_3="38.60908" pt_clust_4="38.60908" pt_clust_5="130.17269" pt_clust_6="35.33094"></scales>
<clustering>
<clus scale="   35.331">  1  6  2 -1</clus>
<clus scale="   38.609">  3  4 -1 -1</clus>
<clus scale="  130.173">  2  5  1 -1</clus>
<clus scale="   35.331">  1  3  2 -1</clus>
</clustering>
</event>
<event>
 6    0  0.4227619E+002  0.1157484E+03  0.7546771E-02  0.1250280E+00
         21   -1    0    0  504  501  0.00000000000E+00  0.00000000000E+00  0.33929725251E+02  0.33929725251E+02  0.00000000000E+00 0. -1.
         21   -1    0    0  506  502 -0.00000000000E+00 -0.00000000000E+00 -0.86921675810E+03  0.86921675810E+03  0.00000000000E+00 0. -1.
         21    1    1    2  503  501 -0.10193259135E+03 -0.16177312318E+02 -0.93256256159E+02  0.13909956120E+03  0.00000000000E+00 0. -1.
         21    1    1    2  504  502  0.90919230875E+01 -0.36488770644E+02 -0.52218775047E+02  0.64349777901E+02  0.00000000000E+00 0. -1.
         21    1    1    2  505  503  0.72470761237E+02  0.15453948898E+02 -0.40147430306E+03  0.40825537570E+03  0.00000000000E+00 0. -1.
         21    1    1    2  506  505  0.20369907021E+02  0.37212134063E+02 -0.28833769858E+03  0.29144176855E+03  0.00000000000E+00 0. -1.
<scales pt_clust_3="105.14419" pt_clust_4="37.60443" pt_clust_5="36.62002" pt_clust_6="36.62002"></scales>
<clustering>
<clus scale="   36.620">  5  6 -1 -1</clus>
<clus scale="   37.604">  1  4  2 -1</clus>
<clus scale="  105.144">  1  3  2 -1</clus>
<clus scale="   37.604">  1  3  2 -1</clus>
</clustering>
</event>
<event>
 6    0  0.4227619E+002  0.1145450E+03  0.7546771E-02  0.1252377E+00
         21   -1    0    0  506  501  0.00000000000E+00  0.00000000000E+00  0.51113588875E+02  0.51113588875E+02  0.00000000000E+00 0. -1.
         21   -1    0    0  505  502 -0.00000000000E+00 -0.00000000000E+00 -0.18743999788E+04  0.18743999788E+04  0.00000000000E+00 0. -1.
         21    1    1    2  503  501 -0.16511813703E+02  0.34705492839E+02  0.21475465107E+02  0.44026206134E+02  0.00000000000E+00 0. -1.
         21    1    1    2  504  502 -0.31166626137E+02 -0.25391601955E+02 -0.54622918925E+03  0.54770650829E+03  0.00000000000E+00 0. -1.
         21    1    1    2  505  503  0.13385846638E+03 -0.35541759420E+02 -0.11618961142E+04  0.11701213125E+04  0.00000000000E+00 0. -1.
         21    1    1    2  506  504 -0.86180026538E+02  0.26227868536E+02 -0.13663655155E+03  0.16365954076E+03  0.00000000000E+00 0. -1.
<scales pt_clust_3="38.43320" pt_clust_4="39.86211" pt_clust_5="114.54501" pt_clust_6="14000.00000"></scales>
<clustering>
<clus scale="   38.433">  1  3  2 -1</clus>
<clus scale="   39.862">  2  4  1 -1</clus>
<clus scale="  114.545">  2  5  1 -1</clus>
<clus scale="   38.433">  1  3  2 -1</clus>
</clustering>
</event>
<event>
 6    0  0.4227619E+002  0.8711526E+02  0.7546771E-02  0.1309992E+00
         21   -1    0    0  503  501  0.00000000000E+00  0.00000000000E+00  0.38747257030E+03  0.38747257030E+03  0.00000000000E+00 0.  1.
         21   -1    0    0  504  502 -0.00000000000E+00 -0.00000000000E+00 -0.21253381785E+03  0.21253381785E+03  0.00000000000E+00 0.  1.
         21    1    1    2  503  506 -0.12287189386E+02 -0.46581403739E+02  0.20774415817E+03  0.21325674070E+03  0.00000000000E+00 0.  1.
         21    1    1    2  504  505  0.26752322031E+02 -0.37138992046E+02  0.20475456700E+01  0.45816851785E+02  0.00000000000E+00 0.  1.
         21    1    1    2  505  501 -0.77783225570E+02  0.23334127198E+02  0.13058831655E+03  0.15377912762E+03  0.00000000000E+00 0. -1.
         21    1    1    2  506  502  0.63318092925E+02  0.60386268586E+02 -0.16544126795E+03  0.18715366805E+03  0.00000000000E+00 0.  1.
<scales pt_clust_3="48.59792" pt_clust_4="45.77108" pt_clust_5="87.11526" pt_clust_6="14000.00000"></scales>
<clustering>
<clus scale="   45.771">  2  4  1 -1</clus>
<clus scale="   48.598">  1  3  2 -1</clus>
<clus scale="   87.115">  1  5  2 -1</clus>
<clus scale="   48.598">  1  3  2 -1</clus>
</clustering>
</event>
<event>
 6    0  0.4227619E+002  0.2239658E+03  0.7546771E-02  0.1130960E+00
         21   -1    0    0  505  501  0.00000000000E+00  0.00000000000E+00  0.15230430602E+03  0.15230430602E+03  0.00000000000E+00 0. -1.
         21   -1    0    0  503  502 -0.00000000000E+00 -0.00000000000E+00 -0.14161133576E+04  0.14161133576E+04  0.00000000000E+00 0.  1.
         21    1    1    2  503  504 -0.52300190104E+02 -0.38265032315E+02 -0.42489666823E+03  0.42981007580E+03  0.00000000000E+00 0.  1.
         21    1    1    2  504  501 -0.14007193741E+03 -0.15936142565E+03 -0.69563376524E+03  0.72727061468E+03  0.00000000000E+00 0.  1.
         21    1    1    2  505  506  0.94270003475E+02  0.17974946423E+03  0.36051943474E+02  0.20614666157E+03  0.00000000000E+00 0. -1.
         21    1    1    2  506  502  0.98102124041E+02  0.17876993730E+02 -0.17933056158E+03  0.20519031157E+03  0.00000000000E+00 0.  1.
<scales pt_clust_3="46.84265" pt_clust_4="46.84265" pt_clust_5="207.30811" pt_clust_6="99.71767"></scales>
<clustering>
<clus scale="   46.843">  3  4 -1 -1</clus>
<clus scale="   99.718">  2  6  1 -1</clus>
<clus scale="  207.308">  1  5  2 -1</clus>
<clus scale="  207.308">  1  3  2 -1</clus>
</clustering>
</event>
<event>
 6    0  0.4227619E+002  0.1635990E+03  0.7546771E-02  0.1184692E+00
         21   -1    0    0  505  501  0.00000000000E+00  0.00000000000E+00  0.17124777514E+04  0.17124777514E+04  0.00000000000E+00 0. -1.
         21   -1    0    0  506  502 -0.00000000000E+00 -0.00000000000E+00 -0.26417470662E+03  0.26417470662E+03  0.00000000000E+00 0.  1.
         21    1    1    2  503  502 -0.23930806610E+03  0.52713940453E+02  0.30817039432E+03  0.39372084267E+03  0.00000000000E+00 0. -1.
         21    1    1    2  504  501  0.11082955129E+03  0.90008619927E+01  0.16517917706E+03  0.19911897321E+03  0.00000000000E+00 0. -1.
         21    1    1    2  505  503  0.71006977929E+02 -0.71010104833E+02  0.11730489082E+04  0.11773394442E+04  0.00000000000E+00 0. -1.
         21    1    1    2  506  504  0.57471536885E+02  0.92953023875E+01 -0.19809543477E+03  0.20647319795E+03  0.00000000000E+00 0.  1.
<scales pt_clust_3="14000.00000" pt_clust_4="163.59901" pt_clust_5="101.61518" pt_clust_6="58.21838"></scales>
<clustering>
<clus scale="   58.218">  2  6  1 -1</clus>
<clus scale="  101.615">  1  5  2 -1</clus>
<clus scale="  163.599">  2  4  1 -1</clus>
<clus scale="  101.615">  1  3  2 -1</clus>
</clustering>
</event>
<event>
 6    0  0.4227619E+002  0.1181496E+03  0.7546771E-02  0.1246181E+00
         21   -1    0    0  504  501  0.00000000000E+00  0.00000000000E+00  0.10835840813E+04  0.10835840813E+04  0.00000000000E+00 0.  1.
         21   -1    0    0  503  502 -0.00000000000E+00 -0.00000000000E+00 -0.78297476635E+02  0.78297476635E+02  0.00000000000E+00 0.  1.
         21    1    1    2  503  505  0.41758905267E+02  0.40171151275E+02 -0.11328669762E+02  0.59041225618E+02  0.00000000000E+00 0.  1.
         21    1    1    2  504  506  0.65185444513E+02 -0.15447434818E+02  0.92047552790E+02  0.11384426816E+03  0.00000000000E+00 0.  1.
         21    1    1    2  505  501 -0.14517221336E+03  0.33514039243E+01  0.92998895392E+03  0.94125748754E+03  0.00000000000E+00 0.  1.
         21    1    1    2  506  502  0.38227863582E+02 -0.28075120381E+02 -0.54212322734E+01  0.47738576621E+02  0.00000000000E+00 0.  1.
<scales pt_clust_3="70.96667" pt_clust_4="118.14959" pt_clust_5="14000.00000" pt_clust_6="47.42976"></scales>
<clustering>
<clus scale="   47.430">  2  6  1 -1</clus>
<clus scale="   70.967">  2  3  1 -1</clus>
<clus scale="  118.150">  2  4  1 -1</clus>
<clus scale="  118.150">  1  3  2 -1</clus>
</clustering>
</event>
<event>
 6    0  0.4227619E+002  0.1168117E+03  0.7546771E-02  0.1248451E+00
         21   -1    0    0  505  501  0.00000000000E+00  0.00000000000E+00  0.70468822939E+03  0.70468822939E+03  0.00000000000E+00 0. -1.
         21   -1    0    0  503  502 -0.00000000000E+00 -0.00000000000E+00 -0.86995649890E+02  0.86995649890E+02  0.00000000000E+00 0.  1.
         21    1    1    2  503  504 -0.10581686525E+03 -0.38078981145E+02 -0.16596432242E+02  0.11367787533E+03  0.00000000000E+00 0.  1.
         21    1    1    2  504  501  0.48043323108E+02  0.48020296139E+02  0.52219385128E+03  0.52659332321E+03  0.00000000000E+00 0. -1.
         21    1    1    2  505  506  0.57883400915E+02  0.23604933004E+02  0.95103534872E+02  0.11380845008E+03  0.00000000000E+00 0. -1.
         21    1    1    2  506  502 -0.10985877384E+00 -0.33546247998E+02  0.16991625594E+02  0.37604230666E+02  0.00000000000E+00 0.  1.
<scales pt_clust_3="116.81175" pt_clust_4="14000.00000" pt_clust_5="61.07151" pt_clust_6="33.54643"></scales>
<clustering>
<clus scale="   33.546">  2  6  1 -1</clus>
<clus scale="   61.072">  1  5  2 -1</clus>
<clus scale="  116.812">  2  3  1 -1</clus>
<clus scale="   61.072">  1  3  2 -1</clus>
</clustering>
</event>
<event>
 6    0  0.4227619E+002  0.1427230E+03  0.7546771E-02  0.1209711E+00
         21   -1    0    0  504  501  0.00000000000E+00  0.00000000000E+00  0.24228765992E+03  0.24228765992E+03  0.00000000000E+00 0.  1.
         21   -1    0    0  506  502 -0.00000000000E+00 -0.00000000000E+00 -0.53575237699E+03  0.53575237699E+03  0.00000000000E+00 0.  1.
         21    1    1    2  503  505 -0.91952304443E+00 -0.58717089326E+02 -0.62049993182E+02  0.85432685521E+02  0.00000000000E+00 0.  1.
         21    1    1    2  504  502  0.78555454543E+02  0.35777005924E+02 -0.23328272354E+03  0.24874039217E+03  0.00000000000E+00 0.  1.
         21    1    1    2  505  501 -0.11343328840E+02  0.13113062544E+03  0.18133982266E+03  0.22407151385E+03  0.00000000000E+00 0.  1.
         21    1    1    2  506  503 -0.66292602658E+02 -0.10819054203E+03 -0.17947182300E+03  0.21979544537E+03  0.00000000000E+00 0.  1.
<scales pt_clust_3="33.71315" pt_clust_4="86.31891" pt_clust_5="133.84337" pt_clust_6="33.71315"></scales>
<clustering>
<clus scale="   33.713">  3  6 -1 -1</clus>
<clus scale="   86.319">  2  4  1 -1</clus>
<clus scale="  133.843">  1  5  2 -1</clus>
<clus scale="  133.843">  1  3  2 -1</clus>
</clustering>
</event>
<event>
 6    0  0.4227619E+002  0.7028124E+02  0.7546771E-02  0.1359139E+00
         21   -1    0    0  503  501  0.00000000000E+00  0.00000000000E+00  0.33828855462E+03  0.33828855462E+03  0.00000000000E+00 0.  1.
         21   -1    0    0  505  502 -0.00000000000E+00 -0.00000000000E+00 -0.25571160390E+03  0.25571160390E+03  0.00000000000E+00 0. -1.
         21    1    1    2  503  502 -0.96779104411E+02  0.46991252717E+02 -0.19484117114E+03  0.22257011222E+03  0.00000000000E+00 0. -1.
         21    1    1    2  504  501 -0.70021405701E+01  0.42543422550E+02  0.10786037025E+03  0.11615865118E+03  0.00000000000E+00 0.  1.
         21    1    1    2  505  506  0.49018265773E+02 -0.54673425490E+01 -0.93032896565E+01  0.50191965616E+02  0.00000000000E+00 0.  1.
         21    1    1    2  506  504  0.54762979208E+02 -0.84067332718E+02  0.17886104127E+03  0.20507942950E+03  0.00000000000E+00 0.  1.
<scales pt_clust_3="70.28124" pt_clust_4="43.11581" pt_clust_5="48.41285" pt_clust_6="14000.00000"></scales>
<clustering>
<clus scale="   43.116">  1  4  2 -1</clus>
<clus scale="   48.413">  2  5  1 -1</clus>
<clus scale="   70.281">  2  3  1 -1</clus>
<clus scale="   43.116">  1  3  2 -1</clus>
</clustering>
</event>
<event>
 6    0  0.4227619E+002  0.1068047E+03  0.7546771E-02  0.1266604E+00
         21   -1    0    0  503  501  0.00000000000E+00  0.00000000000E+00  0.19621283039E+03  0.19621283039E+03  0.00000000000E+00 0.  1.
         21   -1    0    0  506  502 -0.00000000000E+00 -0.00000000000E+00 -0.46098109323E+03  0.46098109323E+03  0.00000000000E+00 0. -1.
         21    1    1    2  503  505 -0.10759197716E+02 -0.46153655973E+02  0.14305917258E+03  0.15070450277E+03  0.00000000000E+00 0.  1.
         21    1    1    2  504  501 -0.41951113434E+02  0.95655761198E+02 -0.34096516666E+03  0.35660505527E+03  0.00000000000E+00 0. -1.
         21    1    1    2  505  502  0.85845434482E+02 -0.45940547579E+02 -0.34134165938E+02  0.10317516086E+03  0.00000000000E+00 0.  1.
         21    1    1    2  506  504 -0.33135123332E+02 -0.35615576461E+01 -0.32728102827E+02  0.46709204722E+02  0.00000000000E+00 0. -1.
<scales pt_clust_3="47.49174" pt_clust_4="106.80471" pt_clust_5="14000.00000" pt_clust_6="33.32598"></scales>
<clustering>
<clus scale="   33.326">  2  6  1 -1</clus>
<clus scale="   47.492">  1  3  2 -1</clus>
<clus scale="  106.805">  2  4  1 -1</clus>
<clus scale="   47.492">  1  3  2 -1</clus>
</clustering>
</event>
<event>
 6    0  0.4227619E+002  0.8783349E+02  0.7546771E-02  0.1308185E+00
         21   -1    0    0  503  501  0.00000000000E+00  0.00000000000E+00  0.82908715733E+02  0.82908715733E+02  0.00000000000E+00 0. -1.
         21   -1    0    0  504  502 -0.00000000000E+00 -0.00000000000E+00 -0.33412089577E+03  0.33412089577E+03  0.00000000000E+00 0. -1.
         21    1    1    2  503  506 -0.40220767224E+02 -0.10176967924E+02 -0.14412949019E+02  0.43920540658E+02  0.00000000000E+00 0. -1.
         21    1    1    2  504  505  0.37857943795E+02  0.96865267531E+02 -0.14435086735E+03  0.17791367814E+03  0.00000000000E+00 0. -1.
         21    1    1    2  505  501  0.53532353727E+02 -0.27866957966E+02  0.15241936874E+02  0.62246259980E+02  0.00000000000E+00 0. -1.
         21    1    1    2  506  502 -0.51169530298E+02 -0.58821341640E+02 -0.10769030054E+03  0.13294913273E+03  0.00000000000E+00 0. -1.
<scales pt_clust_3="41.48832" pt_clust_4="87.83349" pt_clust_5="45.53023" pt_clust_6="14000.00000"></scales>
<clustering>
<clus scale="   41.488">  1  3  2 -1</clus>
<clus scale="   45.530">  1  5  2 -1</clus>
<clus scale="   87.833">  1  4  2 -1</clus>
<clus scale="   41.488">  1  3  2 -1</clus>
</clustering>
</event>
<event>
 6    0  0.4227619E+002  0.1327445E+03  0.7546771E-02  0.1223439E+00
         21   -1    0    0  505  501  0.00000000000E+00  0.00000000000E+00  0.40970632950E+03  0.40970632950E+03  0.00000000000E+00 0. -1.
         21   -1    0    0  503  502 -0.00000000000E+00 -0.00000000000E+00 -0.44387697661E+03  0.44387697661E+03  0.00000000000E+00 0. -1.
         21    1    1    2  503  506  0.48282716959E+02 -0.31580484284E+02 -0.17011885201E+02  0.60149413818E+02  0.00000000000E+00 0. -1.
         21    1    1    2  504  502 -0.57802878083E+02 -0.99618348521E+02 -0.37114292510E+03  0.38860270062E+03  0.00000000000E+00 0. -1.
         21    1    1    2  505  504  0.16605569364E+02 -0.30292940345E+02  0.70133249298E+02  0.78179791671E+02  0.00000000000E+00 0.  1.
         21    1    1    2  506  501 -0.70854082407E+01  0.16149177315E+03  0.28385091390E+03  0.32665140001E+03  0.00000000000E+00 0. -1.
<scales pt_clust_3="59.66187" pt_clust_4="132.74448" pt_clust_5="34.54573" pt_clust_6="14000.00000"></scales>
<clustering>
<clus scale="   34.546">  1  5  2 -1</clus>
<clus scale="   59.662">  2  3  1 -1</clus>
<clus scale="  132.744">  2  4  1 -1</clus>
<clus scale="   34.546">  1  3  2 -1</clus>
</clustering>
</event>
<event>
 6    0  0.4227619E+002  0.8067032E+02  0.7546771E-02  0.1327160E+00
         21   -1    0    0  506  501  0.00000000000E+00  0.00000000000E+00  0.19669137835E+03  0.19669137835E+03  0.00000000000E+00 0.  1.
         21   -1    0    0  504  502 -0.00000000000E+00 -0.00000000000E+00 -0.32385041616E+03  0.32385041616E+03  0.00000000000E+00 0.  1.
         21    1    1    2  503  502 -0.13435477293E+02  0.42750610916E+02 -0.19470450520E+03  0.19979482258E+03  0.00000000000E+00 0.  1.
         21    1    1    2  504  501  0.88474027703E+02 -0.20507050040E+02 -0.48560933495E+02  0.10298716882E+03  0.00000000000E+00 0.  1.
         21    1    1    2  505  503 -0.73056521451E+02  0.34692187311E+02 -0.79326170439E+01  0.81263334907E+02  0.00000000000E+00 0.  1.
         21    1    1    2  506  505 -0.19820289592E+01 -0.56935748188E+02  0.12403901794E+03  0.13649646820E+03  0.00000000000E+00 0.  1.
<scales pt_clust_3="44.81213" pt_clust_4="80.67032" pt_clust_5="14000.00000" pt_clust_6="54.89609"></scales>
<clustering>
<clus scale="   44.812">  2  3  1 -1</clus>
<clus scale="   54.896">  1  6  2 -1</clus>
<clus scale="   80.670">  2  4  1 -1</clus>
<clus scale="   54.896">  1  3  2 -1</clus>
</clustering>
</event>
<event>
 6    0  0.4227619E+002  0.1458644E+03  0.7546771E-02  0.1205649E+00
         21   -1    0    0  503  501  0.00000000000E+00  0.00000000000E+00  0.13167536887E+04  0.13167536887E+04  0.00000000000E+00 0. -1.
         21   -1    0    0  504  502 -0.00000000000E+00 -0.00000000000E+00 -0.26691265117E+03  0.26691265117E+03  0.00000000000E+00 0. -1.
         21    1    1    2  503  505  0.33678675082E+02  0.54897769610E+02  0.88954607403E+02  0.10982231304E+03  0.00000000000E+00 0.  1.
         21    1    1    2  504  506 -0.97812210833E+01 -0.14513086098E+03 -0.60665499252E+02  0.15760374962E+03  0.00000000000E+00 0. -1.
         21    1    1    2  505  502 -0.80576712051E+01 -0.54876855415E+02 -0.13737869064E+03  0.14815296139E+03  0.00000000000E+00 0. -1.
         21    1    1    2  506  501 -0.15839782794E+02  0.14510994678E+03  0.11589306200E+04  0.11680873158E+04  0.00000000000E+00 0. -1.
<scales pt_clust_3="60.14770" pt_clust_4="145.86440" pt_clust_5="55.46526" pt_clust_6="14000.00000"></scales>
<clustering>
<clus scale="   55.465">  2  5  1 -1</clus>
<clus scale="   60.148">  2  3  1 -1</clus>
<clus scale="  145.864">  2  4  1 -1</clus>
<clus scale="  145.864">  1  3  2 -1</clus>
</clustering>
</event>
<event>
 6    0  0.4227619E+002  0.1017980E+03  0.7546771E-02  0.1276560E+00
         21   -1    0    0  505  501  0.00000000000E+00  0.00000000000E+00  0.23393832791E+02  0.23393832791E+02  0.00000000000E+00 0. -1.
         21   -1    0    0  504  502 -0.00000000000E+00 -0.00000000000E+00 -0.16317508058E+04  0.16317508058E+04  0.00000000000E+00 0.  1.
         21    1    1    2  503  506  0.10955589288E+03 -0.53653108705E+02 -0.27411086254E+03  0.30002985634E+03  0.00000000000E+00 0. -1.
         21    1    1    2  504  501 -0.42328493378E+02  0.17016627148E+02 -0.19807165281E+03  0.20325758682E+03  0.00000000000E+00 0.  1.
         21    1    1    2  505  503 -0.21048250785E+00 -0.36884409123E+02 -0.55656713988E+02  0.66769557069E+02  0.00000000000E+00 0.  1.
         21    1    1    2  506  502 -0.67016916992E+02  0.73520890681E+02 -0.10805177436E+04  0.10850876383E+04  0.00000000000E+00 0.  1.
<scales pt_clust_3="101.79802" pt_clust_4="43.93323" pt_clust_5="36.88501" pt_clust_6="14000.00000"></scales>
<clustering>
<clus scale="   36.885">  1  5  2 -1</clus>
<clus scale="   43.933">  1  4  2 -1</clus>
<clus scale="  101.798">  1  3  2 -1</clus>
<clus scale="   36.885">  1  3  2 -1</clus>
</clustering>
</event>
<event>
 6    0  0.4227619E+002  0.1941949E+03  0.7546771E-02  0.1154731E+00
         21   -1    0    0  506  501  0.00000000000E+00  0.00000000000E+00  0.26906161223E+04  0.26906161223E+04  0.00000000000E+00 0. -1.
         21   -1    0    0  505  502 -0.00000000000E+00 -0.00000000000E+00 -0.95251311643E+02  0.95251311643E+02  0.00000000000E+00 0. -1.
         21    1    1    2  503  501  0.17793674082E+03 -0.71936138981E+02  0.17726424583E+04  0.17830024052E+04  0.00000000000E+00 0. -1.
         21    1    1    2  504  502  0.18212270946E+02 -0.30039475119E+02 -0.36832434619E+02  0.50898773250E+02  0.00000000000E+00 0.  1.
         21    1    1    2  505  503 -0.23716858693E+03 -0.43332709554E+02  0.38776691025E+03  0.45660687580E+03  0.00000000000E+00 0. -1.
         21    1    1    2  506  504  0.41019575162E+02  0.14530832365E+03  0.47178787672E+03  0.49535937973E+03  0.00000000000E+00 0. -1.
<scales pt_clust_3="14000.00000" pt_clust_4="35.12915" pt_clust_5="194.19489" pt_clust_6="145.61053"></scales>
<clustering>
<clus scale="   35.129">  2  4  1 -1</clus>
<clus scale="  145.611">  2  6  1 -1</clus>
<clus scale="  194.195">  2  5  1 -1</clus>
<clus scale="  194.195">  1  3  2 -1</clus>
</clustering>
</event>
<event>
 6    0  0.4227619E+002  0.1246076E+03  0.7546771E-02  0.1235684E+00
         21   -1    0    0  503  501  0.00000000000E+00  0.00000000000E+00  0.80482120195E+03  0.80482120195E+03  0.00000000000E+00 0.  1.
         21   -1    0    0  506  502 -0.00000000000E+00 -0.00000000000E+00 -0.21017798905E+03  0.21017798905E+03  0.00000000000E+00 0.  1.
         21    1    1    2  503  502  0.12841516445E+03  0.66050974709E+01 -0.36060749053E+02  0.13354572024E+03  0.00000000000E+00 0.  1.
         21    1    1    2  504  505 -0.13281734857E+03  0.24640057249E+01 -0.11267152730E+02  0.13331717119E+03  0.00000000000E+00 0.  1.
         21    1    1    2  505  501  0.34061403178E+02  0.13694544589E+02  0.68791962256E+03  0.68889848805E+03  0.00000000000E+00 0.  1.
         21    1    1    2  506  504 -0.29659219059E+02 -0.22763647785E+02 -0.45948507884E+02  0.59237811510E+02  0.00000000000E+00 0.  1.
<scales pt_clust_3="14000.00000" pt_clust_4="124.60765" pt_clust_5="36.71130" pt_clust_6="35.37416"></scales>
<clustering>
<clus scale="   36.711">  1  5  2 -1</clus>
<clus scale="   35.374">  2  6  1 -1</clus>
<clus scale="  124.608">  1  4  2 -1</clus>
<clus scale="   36.711">  1  3  2 -1</clus>
</clustering>
</event>
<event>
 6    0  0.4227619E+002  0.1741599E+03  0.7546771E-02  0.1173578E+00
         21   -1    0    0  504  501  0.00000000000E+00  0.00000000000E+00  0.82215373483E+02  0.82215373483E+02  0.00000000000E+00 0.  1.
         21   -1    0    0  506  502 -0.00000000000E+00 -0.00000000000E+00 -0.10653783132E+04  0.10653783132E+04  0.00000000000E+00 0.  1.
         21    1    1    2  503  501  0.61535399250E+02 -0.15003067919E+03 -0.48148686539E+03  0.50806044089E+03  0.00000000000E+00 0.  1.
         21    1    1    2  504  505  0.66242060222E+02  0.27600994242E+02 -0.21886905961E+02  0.75025742770E+02  0.00000000000E+00 0.  1.
         21    1    1    2  505  502 -0.11011728794E+03  0.14894237716E+03 -0.16485216100E+03  0.24796347272E+03  0.00000000000E+00 0.  1.
         21    1    1    2  506  503 -0.17660171531E+02 -0.26512692214E+02 -0.31493700733E+03  0.31654403026E+03  0.00000000000E+00 0.  1.
<scales pt_clust_3="174.15988" pt_clust_4="70.05873" pt_clust_5="14000.00000" pt_clust_6="31.85600"></scales>
<clustering>
<clus scale="   31.856">  2  6  1 -1</clus>
<clus scale="   70.059">  1  4  2 -1</clus>
<clus scale="  174.160">  2  3  1 -1</clus>
<clus scale="   70.059">  1  3  2 -1</clus>
</clustering>
</event>
<event>
 6    0  0.4227619E+002  0.8191200E+02  0.7546771E-02  0.1323711E+00
         21   -1    0    0  503  501  0.00000000000E+00  0.00000000000E+00  0.22155774934E+03  0.22155774934E+03  0.00000000000E+00 0.  1.
         21   -1    0    0  504  502 -0.00000000000E+00 -0.00000000000E+00 -0.60291173592E+03  0.60291173592E+03  0.00000000000E+00 0. -1.
         21    1    1    2  503  502 -0.61231510035E+02 -0.34589923923E+02 -0.52645238133E+03  0.53112886428E+03  0.00000000000E+00 0. -1.
         21    1    1    2  504  506 -0.19195632847E+02  0.31138143203E+02 -0.28679622594E+02  0.46482007644E+02  0.00000000000E+00 0.  1.
         21    1    1    2  505  501 -0.23861842127E+02 -0.49912620359E+02  0.77514129199E+02  0.95231808794E+02  0.00000000000E+00 0.  1.
         21    1    1    2  506  505  0.10428898501E+03  0.53364401079E+02  0.96263888139E+02  0.15162680454E+03  0.00000000000E+00 0.  1.
<scales pt_clust_3="81.91200" pt_clust_4="36.57945" pt_clust_5="55.01484" pt_clust_6="14000.00000"></scales>
<clustering>
<clus scale="   36.579">  2  4  1 -1</clus>
<clus scale="   55.015">  1  5  2 -1</clus>
<clus scale="   81.912">  2  3  1 -1</clus>
<clus scale="   55.015">  1  3  2 -1</clus>
</clustering>
</event>
<event>
 6    0  0.4227619E+002  0.1393188E+03  0.7546771E-02  0.1214249E+00
         21   -1    0    0  503  501  0.00000000000E+00  0.00000000000E+00  0.53018676375E+03  0.53018676375E+03  0.00000000000E+00 0.  1.
         21   -1    0    0  506  502 -0.00000000000E+00 -0.00000000000E+00 -0.84639580494E+03  0.84639580494E+03  0.00000000000E+00 0.  1.
         21    1    1    2  503  505  0.17866768157E+02 -0.46540657197E+02  0.89306607684E+02  0.10227866030E+03  0.00000000000E+00 0.  1.
         21    1    1    2  504  501  0.85842682287E+02 -0.48899165534E+02  0.42042614456E+03  0.43187757238E+03  0.00000000000E+00 0.  1.
         21    1    1    2  505  502 -0.10318313972E+03  0.52566979059E+02 -0.69669075026E+03  0.70624928256E+03  0.00000000000E+00 0.  1.
         21    1    1    2  506  504 -0.52631072523E+00  0.42872843671E+02 -0.12925104317E+03  0.13617705345E+03  0.00000000000E+00 0.  1.
<scales pt_clust_3="49.48704" pt_clust_4="139.31875" pt_clust_5="14000.00000" pt_clust_6="42.87607"></scales>
<clustering>
<clus scale="   42.876">  2  6  1 -1</clus>
<clus scale="   49.487">  1  3  2 -1</clus>
<clus scale="  139.319">  1  4  2 -1</clus>
<clus scale="   49.487">  1  3  2 -1</clus>
</clustering>
</event>
<event>
 6    0  0.4227619E+002  0.9262358E+02  0.7546771E-02  0.1296620E+00
         21   -1    0    0  504  501  0.00000000000E+00  0.00000000000E+00  0.13339056420E+04  0.13339056420E+04  0.00000000000E+00 0. -1.
         21   -1    0    0  506  502 -0.00000000000E+00 -0.00000000000E+00 -0.42119527467E+03  0.42119527467E+03  0.00000000000E+00 0. -1.
         21    1    1    2  503  502 -0.45810210500E+02  0.25701364036E+02 -0.22800464747E+03  0.23397703897E+03  0.00000000000E+00 0. -1.
         21    1    1    2  504  503 -0.39330287089E+02  0.11520659843E+02  0.68772801347E+02  0.80058074489E+02  0.00000000000E+00 0. -1.
         21    1    1    2  505  501  0.12479565928E+03  0.26679705745E+02  0.12454443552E+04  0.12519654169E+04  0.00000000000E+00 0. -1.
         21    1    1    2  506  505 -0.39655161692E+02 -0.63901729623E+02 -0.17350214176E+03  0.18910038628E+03  0.00000000000E+00 0. -1.
<scales pt_clust_3="52.62217" pt_clust_4="40.98289" pt_clust_5="92.62358" pt_clust_6="14000.00000"></scales>
<clustering>
<clus scale="   40.983">  1  4  2 -1</clus>
<clus scale="   52.622">  2  3  1 -1</clus>
<clus scale="   92.624">  1  5  2 -1</clus>
<clus scale="   40.983">  1  3  2 -1</clus>
</clustering>
</event>
<event>
 6    0  0.4227619E+002  0.8346074E+02  0.7546771E-02  0.1319508E+00
         21   -1    0    0  503  501  0.00000000000E+00  0.00000000000E+00  0.46786391670E+02  0.46786391670E+02  0.00000000000E+00 0. -1.
         21   -1    0    0  506  502 -0.00000000000E+00 -0.00000000000E+00 -0.43889078036E+03  0.43889078036E+03  0.00000000000E+00 0.  1.
         21    1    1    2  503  505  0.39936167291E+02  0.79482560232E+02 -0.58612566643E+02  0.10652608980E+03  0.00000000000E+00 0. -1.
         21    1    1    2  504  502 -0.42061892345E+02 -0.36115847965E+02 -0.93430703010E+02  0.10864093854E+03  0.00000000000E+00 0.  1.
         21    1    1    2  505  504  0.14945944871E+02 -0.81964767195E+02 -0.17427807440E+03  0.19316948917E+03  0.00000000000E+00 0.  1.
         21    1    1    2  506  501 -0.12820219817E+02  0.38598054927E+02 -0.65783044632E+02  0.77340654519E+02  0.00000000000E+00 0. -1.
<scales pt_clust_3="83.46074" pt_clust_4="52.23497" pt_clust_5="14000.00000" pt_clust_6="40.67146"></scales>
<clustering>
<clus scale="   40.671">  2  6  1 -1</clus>
<clus scale="   52.235">  2  4  1 -1</clus>
<clus scale="   83.461">  1  3  2 -1</clus>
<clus scale="   83.461">  1  3  2 -1</clus>
</clustering>
</event>
<event>
 6    0  0.4227619E+002  0.1135095E+03  0.7546771E-02  0.1254205E+00
         21   -1    0    0  504  501  0.00000000000E+00  0.00000000000E+00  0.83562216121E+03  0.83562216121E+03  0.00000000000E+00 0.  1.
         21   -1    0    0  503  502 -0.00000000000E+00 -0.00000000000E+00 -0.15776133756E+03  0.15776133756E+03  0.00000000000E+00 0.  1.
         21    1    1    2  503  505  0.11110130440E+03 -0.25126676972E+01 -0.10765581223E+03  0.15472422967E+03  0.00000000000E+00 0.  1.
         21    1    1    2  504  506  0.33273711708E+02  0.10260682511E+02  0.41026303212E+03  0.41173799560E+03  0.00000000000E+00 0.  1.
         21    1    1    2  505  501 -0.14627055329E+03 -0.54537106886E+02  0.30239697834E+03  0.34031353675E+03  0.00000000000E+00 0. -1.
         21    1    1    2  506  502  0.18955371798E+01  0.46789092073E+02  0.72856625416E+02  0.86607736752E+02  0.00000000000E+00 0. -1.
<scales pt_clust_3="14000.00000" pt_clust_4="34.81984" pt_clust_5="113.50954" pt_clust_6="49.39171"></scales>
<clustering>
<clus scale="   34.820">  1  4  2 -1</clus>
<clus scale="   49.392">  1  6  2 -1</clus>
<clus scale="  113.510">  1  5  2 -1</clus>
<clus scale="   34.820">  1  3  2 -1</clus>
</clustering>
</event>
<event>
 6    0  0.4227619E+002  0.1273943E+03  0.7546771E-02  0.1231374E+00
         21   -1    0    0  503  501  0.00000000000E+00  0.00000000000E+00  0.46936445487E+03  0.46936445487E+03  0.00000000000E+00 0.  1.
         21   -1    0    0  504  502 -0.00000000000E+00 -0.00000000000E+00 -0.59197967003E+02  0.59197967003E+02  0.00000000000E+00 0.  1.
         21    1    1    2  503  506  0.53713035332E+02 -0.11560257686E+03  0.12017062235E+03  0.17518568554E+03  0.00000000000E+00 0.  1.
         21    1    1    2  504  505 -0.44768199414E+02  0.49926425668E+02  0.17794111568E+03  0.19015751446E+03  0.00000000000E+00 0.  1.
         21    1    1    2  505  501  0.18094226618E+02  0.51119610795E+02  0.11984118610E+03  0.13153906466E+03  0.00000000000E+00 0.  1.
         21    1    1    2  506  502 -0.27039062535E+02  0.14556540396E+02 -0.77864362687E+01  0.31680157210E+02  0.00000000000E+00 0. -1.
<scales pt_clust_3="111.07079" pt_clust_4="54.75545" pt_clust_5="54.75545" pt_clust_6="30.70837"></scales>
<clustering>
<clus scale="   30.708">  2  6  1 -1</clus>
<clus scale="   54.755">  4  5 -1 -1</clus>
<clus scale="  111.071">  2  3  1 -1</clus>
<clus scale="  127.394">  1  3  2 -1</clus>
</clustering>
</event>
<event>
 6    0  0.4227619E+002  0.8680232E+02  0.7546771E-02  0.1310785E+00
         21   -1    0    0  503  501  0.00000000000E+00  0.00000000000E+00  0.11699670614E+03  0.11699670614E+03  0.00000000000E+00 0.  1.
         21   -1    0    0  505  502 -0.00000000000E+00 -0.00000000000E+00 -0.26184167809E+03  0.26184167809E+03  0.00000000000E+00 0.  1.
         21    1    1    2  503  504  0.28690491544E+01  0.55371428208E+02 -0.45917996131E+01  0.55635520385E+02  0.00000000000E+00 0.  1.
         21    1    1    2  504  502  0.58956976537E+02 -0.12235829552E+03 -0.11399783346E+02  0.13629905585E+03  0.00000000000E+00 0.  1.
         21    1    1    2  505  506  0.10285953720E+02  0.57175990373E+02 -0.81471110953E+02  0.10006216387E+03  0.00000000000E+00 0.  1.
         21    1    1    2  506  501 -0.72111979411E+02  0.98108769422E+01 -0.47382278039E+02  0.86841644118E+02  0.00000000000E+00 0.  1.
<scales pt_clust_3="55.44571" pt_clust_4="14000.00000" pt_clust_5="63.68727" pt_clust_6="86.80232"></scales>
<clustering>
<clus scale="   55.446">  1  3  2 -1</clus>
<clus scale="   63.687">  2  5  1 -1</clus>
<clus scale="   86.802">  2  6  1 -1</clus>
<clus scale="   55.446">  1  3  2 -1</clus>
</clustering>
</event>
<event>
 6    0  0.4227619E+002  0.6046322E+02  0.7546771E-02  0.1395898E+00
         21   -1    0    0  504  501  0.00000000000E+00  0.00000000000E+00  0.94993002487E+03  0.94993002487E+03  0.00000000000E+00 0. -1.
         21   -1    0    0  503  502 -0.00000000000E+00 -0.00000000000E+00 -0.12329387944E+03  0.12329387944E+03  0.00000000000E+00 0.  1.
         21    1    1    2  503  505 -0.51643442317E+02 -0.16290969916E+02  0.66049709569E+02  0.85410801245E+02  0.00000000000E+00 0. -1.
         21    1    1    2  504  506  0.78596415958E+02  0.95004905431E+02  0.15869308974E+03  0.20096473668E+03  0.00000000000E+00 0. -1.
         21    1    1    2  505  501  0.94757898988E+01 -0.34430852263E+02  0.68497201822E+03  0.68590228161E+03  0.00000000000E+00 0. -1.
         21    1    1    2  506  502 -0.36428763540E+02 -0.44283083252E+02 -0.83078672090E+02  0.10094608478E+03  0.00000000000E+00 0.  1.
<scales pt_clust_3="55.47937" pt_clust_4="60.46322" pt_clust_5="35.71098" pt_clust_6="14000.00000"></scales>
<clustering>
<clus scale="   35.711">  1  5  2 -1</clus>
<clus scale="   55.479">  1  3  2 -1</clus>
<clus scale="   60.463">  1  4  2 -1</clus>
<clus scale="   35.711">  1  3  2 -1</clus>
</clustering>
</event>
<event>
 6    0  0.4227619E+002  0.6156161E+02  0.7546771E-02  0.1391393E+00
         21   -1    0    0  504  501  0.00000000000E+00  0.00000000000E+00  0.70696552090E+03  0.70696552090E+03  0.00000000000E+00 0. -1.
         21   -1    0    0  505  502 -0.00000000000E+00 -0.00000000000E+00 -0.11277112988E+03  0.11277112988E+03  0.00000000000E+00 0. -1.
         21    1    1    2  503  506 -0.17253896158E+02  0.66025982207E+02  0.12994013705E+03  0.14677045505E+03  0.00000000000E+00 0. -1.
         21    1    1    2  504  502  0.37551477515E+01 -0.68138187651E+02  0.66764525206E+02  0.95469448395E+02  0.00000000000E+00 0. -1.
         21    1    1    2  505  503 -0.23159154757E+02  0.50822927758E+02 -0.79206879609E+02  0.96917729092E+02  0.00000000000E+00 0. -1.
         21    1    1    2  506  501  0.36657903163E+02 -0.48710722314E+02  0.47669660837E+03  0.48057901824E+03  0.00000000000E+00 0. -1.
<scales pt_clust_3="61.56161" pt_clust_4="39.81591" pt_clust_5="55.85084" pt_clust_6="14000.00000"></scales>
<clustering>
<clus scale="   55.851">  2  5  1 -1</clus>
<clus scale="   39.816">  2  4  1 -1</clus>
<clus scale="   61.562">  2  3  1 -1</clus>
<clus scale="   61.562">  1  3  2 -1</clus>
</clustering>
</event>
<event>
 6    0  0.4227619E+002  0.8064137E+02  0.7546771E-02  0.1327241E+00
         21   -1    0    0  504  501  0.00000000000E+00  0.00000000000E+00  0.22546570039E+02  0.22546570039E+02  0.00000000000E+00 0. -1.
         21   -1    0    0  506  502 -0.00000000000E+00 -0.00000000000E+00 -0.12917862668E+04  0.12917862668E+04  0.00000000000E+00 0. -1.
         21    1    1    2  503  502  0.69193485737E+02 -0.22557488885E+02 -0.72539977520E+03  0.72904143410E+03  0.00000000000E+00 0. -1.
         21    1    1    2  504  505 -0.41230579119E+02 -0.61884180168E+02 -0.17095865228E+03  0.18643088048E+03  0.00000000000E+00 0. -1.
         21    1    1    2  505  503 -0.63380636023E+02  0.33104843980E+02 -0.13299467207E+03  0.15099873680E+03  0.00000000000E+00 0. -1.
         21    1    1    2  506  501  0.35417729405E+02  0.51336825072E+02 -0.23988659726E+03  0.24786178549E+03  0.00000000000E+00 0. -1.
<scales pt_clust_3="80.64137" pt_clust_4="63.72756" pt_clust_5="14000.00000" pt_clust_6="62.36894"></scales>
<clustering>
<clus scale="   62.369">  2  6  1 -1</clus>
<clus scale="   63.728">  1  4  2 -1</clus>
<clus scale="   80.641">  2  3  1 -1</clus>
<clus scale="   63.728">  1  3  2 -1</clus>
</clustering>
</event>
<event>
 6    0  0.4227619E+002  0.1227666E+03  0.7546771E-02  0.1238602E+00
         21   -1    0    0  505  501  0.00000000000E+00  0.00000000000E+00  0.11254135306E+04  0.11254135306E+04  0.00000000000E+00 0.  1.
         21   -1    0    0  506  502 -0.00000000000E+00 -0.00000000000E+00 -0.66071938307E+03  0.66071938307E+03  0.00000000000E+00 0. -1.
         21    1    1    2  503  504  0.42600171129E+02 -0.75106447398E+02  0.39781290889E+01  0.86438293204E+02  0.00000000000E+00 0.  1.
         21    1    1    2  504  502  0.94402572825E+01  0.35627410640E+02 -0.54739254380E+02  0.65991035880E+02  0.00000000000E+00 0.  1.
         21    1    1    2  505  503  0.14186261478E+02  0.12677224547E+03  0.10653694835E+04  0.10729793048E+04  0.00000000000E+00 0.  1.
         21    1    1    2  506  501 -0.66226689890E+02 -0.87293208709E+02 -0.54991421070E+03  0.56072427972E+03  0.00000000000E+00 0. -1.
<scales pt_clust_3="14000.00000" pt_clust_4="36.85690" pt_clust_5="122.76663" pt_clust_6="79.10932"></scales>
<clustering>
<clus scale="   36.857">  2  4  1 -1</clus>
<clus scale="   79.109">  2  6  1 -1</clus>
<clus scale="  122.767">  1  5  2 -1</clus>
<clus scale="  122.767">  1  3  2 -1</clus>
</clustering>
</event>
<event>
 6    0  0.4227619E+002  0.1031280E+03  0.7546771E-02  0.1273852E+00
         21   -1    0    0  506  501  0.00000000000E+00  0.00000000000E+00  0.12038758021E+04  0.12038758021E+04  0.00000000000E+00 0.  1.
         21   -1    0    0  504  502 -0.00000000000E+00 -0.00000000000E+00 -0.67961494583E+02  0.67961494583E+02  0.00000000000E+00 0.  1.
         21    1    1    2  503  505 -0.82560187634E+02 -0.22416193397E+02  0.83032950655E+02  0.11921887939E+03  0.00000000000E+00 0.  1.
         21    1    1    2  504  501  0.91877856063E+02 -0.25764926108E+02  0.44723905717E+03  0.45730530951E+03  0.00000000000E+00 0.  1.
         21    1    1    2  505  502 -0.36906143772E+02  0.76398120498E+02 -0.34772168930E+01  0.84916590258E+02  0.00000000000E+00 0.  1.
         21    1    1    2  506  503  0.27588475343E+02 -0.28217000993E+02  0.60911951654E+03  0.61039651747E+03  0.00000000000E+00 0.  1.
<scales pt_clust_3="14000.00000" pt_clust_4="103.12797" pt_clust_5="82.28599" pt_clust_6="39.46293"></scales>
<clustering>
<clus scale="   39.463">  1  6  2 -1</clus>
<clus scale="   82.286">  2  5  1 -1</clus>
<clus scale="  103.128">  1  4  2 -1</clus>
<clus scale="   39.463">  1  3  2 -1</clus>
</clustering>
</event>
<event>
 6    0  0.4227619E+002  0.1248423E+03  0.7546771E-02  0.1235316E+00
         21   -1    0    0  505  501  0.00000000000E+00  0.00000000000E+00  0.51614986395E+03  0.51614986395E+03  0.00000000000E+00 0. -1.
         21   -1    0    0  503  502 -0.00000000000E+00 -0.00000000000E+00 -0.54904242993E+02  0.54904242993E+02  0.00000000000E+00 0. -1.
         21    1    1    2  503  501  0.34279282977E+02 -0.50650977076E+01  0.10639499625E+02  0.36248081446E+02  0.00000000000E+00 0.  1.
         21    1    1    2  504  502 -0.62865413130E+02  0.11009977949E+03  0.93434339361E+02  0.15749284867E+03  0.00000000000E+00 0. -1.
         21    1    1    2  505  506  0.41706397041E+02 -0.60801037758E+02  0.24965488941E+03  0.26031472020E+03  0.00000000000E+00 0. -1.
         21    1    1    2  506  504 -0.13120266889E+02 -0.44233644022E+02  0.10751689256E+03  0.11699845662E+03  0.00000000000E+00 0. -1.
<scales pt_clust_3="34.65147" pt_clust_4="112.43438" pt_clust_5="41.88398" pt_clust_6="41.88398"></scales>
<clustering>
<clus scale="   34.651">  2  3  1 -1</clus>
<clus scale="   41.884">  5  6 -1 -1</clus>
<clus scale="  112.434">  2  4  1 -1</clus>
<clus scale="  124.842">  1  3  2 -1</clus>
</clustering>
</event>
<event>
 6    0  0.4227619E+002  0.1012730E+03  0.7546771E-02  0.1277642E+00
         21   -1    0    0  506  501  0.00000000000E+00  0.00000000000E+00  0.99128844386E+02  0.99128844386E+02  0.00000000000E+00 0.  1.
         21   -1    0    0  504  502 -0.00000000000E+00 -0.00000000000E+00 -0.34192519313E+03  0.34192519313E+03  0.00000000000E+00 0.  1.
         21    1    1    2  503  501 -0.33411392333E+02  0.19996741290E+02  0.37342016658E+02  0.53950134457E+02  0.00000000000E+00 0.  1.
         21    1    1    2  504  503 -0.33270297800E+02 -0.23769573815E+02 -0.86386674233E+02  0.95574906959E+02  0.00000000000E+00 0. -1.
         21    1    1    2  505  502  0.13913124911E+03 -0.74177010181E+01 -0.15568303298E+03  0.20892518643E+03  0.00000000000E+00 0.  1.
         21    1    1    2  506  505 -0.72449558973E+02  0.11190533543E+02 -0.38068658189E+02  0.82603809674E+02  0.00000000000E+00 0.  1.
<scales pt_clust_3="38.93829" pt_clust_4="42.33682" pt_clust_5="14000.00000" pt_clust_6="101.27301"></scales>
<clustering>
<clus scale="   38.938">  1  3  2 -1</clus>
<clus scale="   42.337">  2  4  1 -1</clus>
<clus scale="  101.273">  1  6  2 -1</clus>
<clus scale="   38.938">  1  3  2 -1</clus>
</clustering>
</event>
<event>
 6    0  0.4227619E+002  0.7620067E+02  0.7546771E-02  0.1340193E+00
         21   -1    0    0  503  501  0.00000000000E+00  0.00000000000E+00  0.15242622551E+04  0.15242622551E+04  0.00000000000E+00 0.  1.
         21   -1    0    0  505  502 -0.00000000000E+00 -0.00000000000E+00 -0.18960305804E+03  0.18960305804E+03  0.00000000000E+00 0. -1.
         21    1    1    2  503  502 -0.33216429993E+02  0.19626392364E+02  0.62828733345E+03  0.62947080938E+03  0.00000000000E+00 0.  1.
         21    1    1    2  504  501 -0.35655851651E+02 -0.45916341013E+02  0.48137257626E+03  0.48487029946E+03  0.00000000000E+00 0.  1.
         21    1    1    2  505  506 -0.25669726368E+02 -0.38923574059E+02 -0.17617118599E+03  0.18223684107E+03  0.00000000000E+00 0. -1.
         21    1    1    2  506  504  0.94542008011E+02  0.65213522708E+02  0.40117047336E+03  0.41728736323E+03  0.00000000000E+00 0.  1.
<scales pt_clust_3="38.58143" pt_clust_4="76.20067" pt_clust_5="46.63258" pt_clust_6="14000.00000"></scales>
<clustering>
<clus scale="   38.581">  1  3  2 -1</clus>
<clus scale="   46.633">  2  5  1 -1</clus>
<clus scale="   76.201">  1  4  2 -1</clus>
<clus scale="   38.581">  1  3  2 -1</clus>
</clustering>
</event>
<event>
 6    0  0.4227619E+002  0.5876710E+02  0.7546771E-02  0.1403080E+00
         21   -1    0    0  503  501  0.00000000000E+00  0.00000000000E+00  0.11463210065E+04  0.11463210065E+04  0.00000000000E+00 0.  1.
         21   -1    0    0  506  502 -0.00000000000E+00 -0.00000000000E+00 -0.59664907973E+02  0.59664907973E+02  0.00000000000E+00 0.  1.
         21    1    1    2  503  504 -0.52857926126E+02  0.23604363243E+02  0.91015312725E+03  0.91199223756E+03  0.00000000000E+00 0.  1.
         21    1    1    2  504  502  0.95854401799E+02  0.18847682691E+02  0.79944823557E+02  0.12623183553E+03  0.00000000000E+00 0.  1.
         21    1    1    2  505  501 -0.57947571325E+02  0.11435698761E+02  0.94941674456E+02  0.11181510532E+03  0.00000000000E+00 0.  1.
         21    1    1    2  506  505  0.14951095652E+02 -0.53887744695E+02  0.16164732460E+01  0.55946736056E+02  0.00000000000E+00 0.  1.
<scales pt_clust_3="14000.00000" pt_clust_4="58.76710" pt_clust_5="54.12662" pt_clust_6="55.92338"></scales>
<clustering>
<clus scale="   55.923">  2  6  1 -1</clus>
<clus scale="   54.127">  2  5  1 -1</clus>
<clus scale="   58.767">  2  4  1 -1</clus>
<clus scale="   58.767">  1  3  2 -1</clus>
</clustering>
</event>
<event>
 6    0  0.4227619E+002  0.1156945E+03  0.7546771E-02  0.1250374E+00
         21   -1    0    0  503  501  0.00000000000E+00  0.00000000000E+00  0.58636176322E+02  0.58636176322E+02  0.00000000000E+00 0.  1.
         21   -1    0    0  506  502 -0.00000000000E+00 -0.00000000000E+00 -0.70808228479E+03  0.70808228479E+03  0.00000000000E+00 0. -1.
         21    1    1    2  503  504 -0.16404927693E+02 -0.93285883995E+02 -0.16205862830E+03  0.18770822254E+03  0.00000000000E+00 0. -1.
         21    1    1    2  504  505  0.56993375915E+02 -0.50923606940E+02 -0.22078527600E+03  0.23363988688E+03  0.00000000000E+00 0. -1.
         21    1    1    2  505  502  0.34605133399E+02  0.19339811595E+02 -0.15986457522E+03  0.16470648433E+03  0.00000000000E+00 0. -1.
         21    1    1    2  506  501 -0.75193581621E+02  0.12486967934E+03 -0.10673762895E+03  0.18066386736E+03  0.00000000000E+00 0.  1.
<scales pt_clust_3="14000.00000" pt_clust_4="83.28216" pt_clust_5="39.64270" pt_clust_6="115.69448"></scales>
<clustering>
<clus scale="   39.643">  2  5  1 -1</clus>
<clus scale="   83.282">  2  4  1 -1</clus>
<clus scale="  115.694">  1  6  2 -1</clus>
<clus scale="  115.694">  1  3  2 -1</clus>
</clustering>
</event>
<event>
 6    0  0.4227619E+002  0.1706436E+03  0.7546771E-02  0.1177178E+00
         21   -1    0    0  503  501  0.00000000000E+00  0.00000000000E+00  0.39859726417E+03  0.39859726417E+03  0.00000000000E+00 0.  1.
         21   -1    0    0  504  502 -0.00000000000E+00 -0.00000000000E+00 -0.11057914058E+04  0.11057914058E+04  0.00000000000E+00 0.  1.
         21    1    1    2  503  506  0.19327305123E+02 -0.11102885987E+03  0.26326207129E+03  0.28637016365E+03  0.00000000000E+00 0.  1.
         21    1    1    2  504  501  0.30851684374E+02  0.91984053946E+01 -0.79798442864E+02  0.86047827247E+02  0.00000000000E+00 0.  1.
         21    1    1    2  505  502 -0.18588833959E+02  0.14976138388E+03 -0.99847968488E+03  0.10098196363E+04  0.00000000000E+00 0.  1.
         21    1    1    2  506  505 -0.31590155538E+02 -0.47930929401E+02  0.10782191482E+03  0.12215104272E+03  0.00000000000E+00 0. -1.
<scales pt_clust_3="43.75002" pt_clust_4="32.19374" pt_clust_5="159.22178" pt_clust_6="43.75002"></scales>
<clustering>
<clus scale="   32.194">  2  4  1 -1</clus>
<clus scale="   43.750">  3  6 -1 -1</clus>
<clus scale="  159.222">  2  5  1 -1</clus>
<clus scale="  170.644">  1  3  2 -1</clus>
</clustering>
</event>
<event>
 6    0  0.4227619E+002  0.1404995E+03  0.7546771E-02  0.1212658E+00
         21   -1    0    0  505  501  0.00000000000E+00  0.00000000000E+00  0.31852132915E+03  0.31852132915E+03  0.00000000000E+00 0. -1.
         21   -1    0    0  503  502 -0.00000000000E+00 -0.00000000000E+00 -0.21678081327E+04  0.21678081327E+04  0.00000000000E+00 0.  1.
         21    1    1    2  503  501  0.11636990204E+01 -0.31135835547E+02  0.18277614044E+01  0.31211138435E+02  0.00000000000E+00 0.  1.
         21    1    1    2  504  506 -0.12286509470E+03 -0.58757426708E+02  0.53447880260E+01  0.13629685781E+03  0.00000000000E+00 0.  1.
         21    1    1    2  505  504  0.40121630981E+02 -0.25367299217E+02  0.22632821410E+03  0.23125247164E+03  0.00000000000E+00 0. -1.
         21    1    1    2  506  502  0.81579764698E+02  0.11526056147E+03 -0.20827875671E+04  0.20875689940E+04  0.00000000000E+00 0.  1.
<scales pt_clust_3="31.15757" pt_clust_4="14000.00000" pt_clust_5="63.85822" pt_clust_6="140.49950"></scales>
<clustering>
<clus scale="   31.158">  1  3  2 -1</clus>
<clus scale="   63.858">  1  5  2 -1</clus>
<clus scale="  140.499">  2  6  1 -1</clus>
<clus scale="   31.158">  1  3  2 -1</clus>
</clustering>
</event>
<event>
 6    0  0.4227619E+002  0.2096733E+03  0.7546771E-02  0.1141825E+00
         21   -1    0    0  505  501  0.00000000000E+00  0.00000000000E+00  0.16839798490E+03  0.16839798490E+03  0.00000000000E+00 0. -1.
         21   -1    0    0  503  502 -0.00000000000E+00 -0.00000000000E+00 -0.32060144631E+03  0.32060144631E+03  0.00000000000E+00 0. -1.
         21    1    1    2  503  504  0.68819165932E+02 -0.96162986578E+02 -0.58890511723E+02  0.13210408759E+03  0.00000000000E+00 0. -1.
         21    1    1    2  504  501  0.91995719413E+02 -0.25243779001E+02 -0.98160751821E+02  0.13687948702E+03  0.00000000000E+00 0. -1.
         21    1    1    2  505  506 -0.17634612565E+01  0.39132380044E+02  0.11487593830E+02  0.40821780651E+02  0.00000000000E+00 0. -1.
         21    1    1    2  506  502 -0.15905142409E+03  0.82274385535E+02 -0.66397917020E+01  0.17919407594E+03  0.00000000000E+00 0. -1.
<scales pt_clust_3="77.79465" pt_clust_4="77.79465" pt_clust_5="39.17209" pt_clust_6="192.03350"></scales>
<clustering>
<clus scale="   39.172">  1  5  2 -1</clus>
<clus scale="   77.795">  3  4 -1 -1</clus>
<clus scale="  192.034">  1  6  2 -1</clus>
<clus scale="   39.172">  1  3  2 -1</clus>
</clustering>
</event>
<event>
 6    0  0.4227619E+002  0.1036568E+03  0.7546771E-02  0.1272789E+00
         21   -1    0    0  504  501  0.00000000000E+00  0.00000000000E+00  0.58449393106E+03  0.58449393106E+03  0.00000000000E+00 0.  1.
         21   -1    0    0  503  502 -0.00000000000E+00 -0.00000000000E+00 -0.27371736087E+03  0.27371736087E+03  0.00000000000E+00 0. -1.
         21    1    1    2  503  505 -0.87459613760E+02 -0.57159577462E+02 -0.18993658818E+03  0.21677709488E+03  0.00000000000E+00 0. -1.
         21    1    1    2  504  506  0.35099886368E+00  0.31179446128E+02  0.30390892325E+03  0.30550436116E+03  0.00000000000E+00 0.  1.
         21    1    1    2  505  501  0.10167024333E+03 -0.54119185930E+02 -0.80833091015E+01  0.11546022930E+03  0.00000000000E+00 0.  1.
         21    1    1    2  506  502 -0.14561628432E+02  0.80099317264E+02  0.20488754422E+03  0.22046960658E+03  0.00000000000E+00 0.  1.
<scales pt_clust_3="103.65676" pt_clust_4="31.18142" pt_clust_5="14000.00000" pt_clust_6="98.17640"></scales>
<clustering>
<clus scale="   31.181">  1  4  2 -1</clus>
<clus scale="  103.657">  2  3  1 -1</clus>
<clus scale="   98.176">  1  6  2 -1</clus>
<clus scale="   31.181">  1  3  2 -1</clus>
</clustering>
</event>
<event>
 6    0  0.4227619E+002  0.2095640E+03  0.7546771E-02  0.1141912E+00
         21   -1    0    0  503  501  0.00000000000E+00  0.00000000000E+00  0.92478062238E+02  0.92478062238E+02  0.00000000000E+00 0.  1.
         21   -1    0    0  506  502 -0.00000000000E+00 -0.00000000000E+00 -0.17302993503E+04  0.17302993503E+04  0.00000000000E+00 0.  1.
         21    1    1    2  503  502 -0.12502085874E+02 -0.28227325240E+02 -0.83702271773E+03  0.83759185409E+03  0.00000000000E+00 0.  1.
         21    1    1    2  504  505 -0.18906442311E+03  0.38778553709E+02 -0.13638974040E+03  0.23632878284E+03  0.00000000000E+00 0.  1.
         21    1    1    2  505  501 -0.23692560392E+02 -0.43438549883E+02 -0.32297837536E+01  0.49585043481E+02  0.00000000000E+00 0.  1.
         21    1    1    2  506  504  0.22525906937E+03  0.32887321415E+02 -0.66117904614E+03  0.69927173209E+03  0.00000000000E+00 0.  1.
<scales pt_clust_3="30.87206" pt_clust_4="209.56397" pt_clust_5="50.38965" pt_clust_6="14000.00000"></scales>
<clustering>
<clus scale="   30.872">  2  3  1 -1</clus>
<clus scale="   50.390">  1  5  2 -1</clus>
<clus scale="  209.564">  1  4  2 -1</clus>
<clus scale="   50.390">  1  3  2 -1</clus>
</clustering>
</event>
<event>
 6    0  0.4227619E+002  0.1230911E+03  0.7546771E-02  0.1238083E+00
         21   -1    0    0  503  501  0.00000000000E+00  0.00000000000E+00  0.20218782208E+04  0.20218782208E+04  0.00000000000E+00 0.  1.
         21   -1    0    0  505  502 -0.00000000000E+00 -0.00000000000E+00 -0.11325626457E+03  0.11325626457E+03  0.00000000000E+00 0. -1.
         21    1    1    2  503  502  0.17488253704E+02  0.12921501069E+03 -0.61092145452E+02  0.14399516743E+03  0.00000000000E+00 0. -1.
         21    1    1    2  504  506  0.66730290705E+01 -0.10124240952E+03  0.10088182867E+04  0.10139077327E+04  0.00000000000E+00 0.  1.
         21    1    1    2  505  504  0.39828014757E+02 -0.16169638915E+02  0.59034717766E+02  0.73026199982E+02  0.00000000000E+00 0. -1.
         21    1    1    2  506  501 -0.63989297532E+02 -0.11802962261E+02  0.90186109718E+03  0.90420538525E+03  0.00000000000E+00 0.  1.
<scales pt_clust_3="123.09106" pt_clust_4="14000.00000" pt_clust_5="42.98521" pt_clust_6="64.66954"></scales>
<clustering>
<clus scale="   42.985">  2  5  1 -1</clus>
<clus scale="   64.670">  1  6  2 -1</clus>
<clus scale="  123.091">  2  3  1 -1</clus>
<clus scale="   64.670">  1  3  2 -1</clus>
</clustering>
</event>
<event>
 6    0  0.4227619E+002  0.1416526E+03  0.7546771E-02  0.1211122E+00
         21   -1    0    0  504  501  0.00000000000E+00  0.00000000000E+00  0.24182625444E+04  0.24182625444E+04  0.00000000000E+00 0. -1.
         21   -1    0    0  505  502 -0.00000000000E+00 -0.00000000000E+00 -0.33142290942E+02  0.33142290942E+02  0.00000000000E+00 0. -1.
         21    1    1    2  503  501 -0.12148855003E+02 -0.31217228191E+02  0.96970535817E+03  0.97028376864E+03  0.00000000000E+00 0. -1.
         21    1    1    2  504  506  0.45784644506E+01  0.81533875362E+02  0.10611629098E+03  0.13390071837E+03  0.00000000000E+00 0. -1.
         21    1    1    2  505  503  0.43200478750E+02 -0.96216680789E+02  0.12757950237E+04  0.12801472078E+04  0.00000000000E+00 0. -1.
         21    1    1    2  506  502 -0.35630088197E+02  0.45900033618E+02  0.33503580566E+02  0.67073140539E+02  0.00000000000E+00 0. -1.
<scales pt_clust_3="33.49791" pt_clust_4="51.84522" pt_clust_5="127.95424" pt_clust_6="51.84522"></scales>
<clustering>
<clus scale="   33.498">  1  3  2 -1</clus>
<clus scale="   51.845">  4  6 -1 -1</clus>
<clus scale="  127.954">  1  5  2 -1</clus>
<clus scale="   33.498">  1  3  2 -1</clus>
</clustering>
</event>
<event>
 6    0  0.4227619E+002  0.1234948E+03  0.7546771E-02  0.1237441E+00
         21   -1    0    0  506  501  0.00000000000E+00  0.00000000000E+00  0.33315318358E+03  0.33315318358E+03  0.00000000000E+00 0. -1.
         21   -1    0    0  503  502 -0.00000000000E+00 -0.00000000000E+00 -0.10590169840E+03  0.10590169840E+03  0.00000000000E+00 0.  1.
         21    1    1    2  503  501  0.31304384399E+02  0.32032052750E+01 -0.41695165459E+02  0.52237073322E+02  0.00000000000E+00 0.  1.
         21    1    1    2  504  505 -0.44118940716E+02  0.54234705356E+02  0.66180173895E+01  0.70225937866E+02  0.00000000000E+00 0.  1.
         21    1    1    2  505  502 -0.24516626462E+02  0.49826896989E+02  0.45393582267E+02  0.71724207543E+02  0.00000000000E+00 0.  1.
         21    1    1    2  506  504  0.37331182779E+02 -0.10726480762E+03  0.21693505098E+03  0.24486766325E+03  0.00000000000E+00 0. -1.
<scales pt_clust_3="31.46784" pt_clust_4="40.46526" pt_clust_5="40.46526" pt_clust_6="115.52486"></scales>
<clustering>
<clus scale="   31.468">  2  3  1 -1</clus>
<clus scale="   40.465">  4  5 -1 -1</clus>
<clus scale="  115.525">  1  6  2 -1</clus>
<clus scale="  115.525">  1  3  2 -1</clus>
</clustering>
</event>
<event>
 6    0  0.4227619E+002  0.1908393E+03  0.7546771E-02  0.1157707E+00
         21   -1    0    0  505  501  0.00000000000E+00  0.00000000000E+00  0.68146821758E+03  0.68146821758E+03  0.00000000000E+00 0. -1.
         21   -1    0    0  503  502 -0.00000000000E+00 -0.00000000000E+00 -0.24956399630E+03  0.24956399630E+03  0.00000000000E+00 0. -1.
         21    1    1    2  503  501  0.73900431280E+02  0.10045365051E+03  0.57108074927E+03  0.58453864871E+03  0.00000000000E+00 0. -1.
         21    1    1    2  504  506 -0.32736216938E+02 -0.15008832225E+03 -0.12563962331E+03  0.19845271306E+03  0.00000000000E+00 0. -1.
         21    1    1    2  505  504 -0.74811472376E+01  0.67378321782E+02  0.42707394516E+02  0.80123201112E+02  0.00000000000E+00 0. -1.
         21    1    1    2  506  502 -0.33683067104E+02 -0.17743650042E+02 -0.56244299192E+02  0.67917651005E+02  0.00000000000E+00 0.  1.
<scales pt_clust_3="176.42932" pt_clust_4="36.21591" pt_clust_5="67.79237" pt_clust_6="36.21591"></scales>
<clustering>
<clus scale="   36.216">  4  6 -1 -1</clus>
<clus scale="   67.792">  1  5  2 -1</clus>
<clus scale="  176.429">  1  3  2 -1</clus>
<clus scale="   67.792">  1  3  2 -1</clus>
</clustering>
</event>
<event>
 6    0  0.4227619E+002  0.1337605E+03  0.7546771E-02  0.1221980E+00
         21   -1    0    0  502  501  0.00000000000E+00  0.00000000000E+00  0.29639648079E+03  0.29639648079E+03  0.00000000000E+00 0. -1.
         21   -1    0    0  505  502 -0.00000000000E+00 -0.00000000000E+00 -0.29163388174E+03  0.29163388174E+03  0.00000000000E+00 0. -1.
         21    1    1    2  503  506 -0.34888632564E+02 -0.13298935452E+03 -0.98951407835E+02  0.16939529571E+03  0.00000000000E+00 0. -1.
         21    1    1    2  504  501 -0.47500578870E+01 -0.40446220188E+02  0.16757045137E+03  0.17244800941E+03  0.00000000000E+00 0. -1.
         21    1    1    2  505  503 -0.33125627213E+02  0.36274620332E+02 -0.75947871884E+02  0.90450176905E+02  0.00000000000E+00 0. -1.
         21    1    1    2  506  504  0.72764317664E+02  0.13716095437E+03  0.12091427392E+02  0.15573688050E+03  0.00000000000E+00 0. -1.
<scales pt_clust_3="133.76053" pt_clust_4="40.72419" pt_clust_5="47.62687" pt_clust_6="14000.00000"></scales>
<clustering>
<clus scale="   40.724">  1  4  2 -1</clus>
<clus scale="   47.627">  2  5  1 -1</clus>
<clus scale="  133.761">  2  3  1 -1</clus>
<clus scale="   40.724">  1  3  2 -1</clus>
</clustering>
</event>
<event>
 6    0  0.4227619E+002  0.8529553E+02  0.7546771E-02  0.1314661E+00
         21   -1    0    0  503  501  0.00000000000E+00  0.00000000000E+00  0.50204563678E+03  0.50204563678E+03  0.00000000000E+00 0.  1.
         21   -1    0    0  506  502 -0.00000000000E+00 -0.00000000000E+00 -0.73694560438E+02  0.73694560438E+02  0.00000000000E+00 0.  1.
         21    1    1    2  503  504 -0.29725786532E+02 -0.96264740209E+02  0.17387826441E+03  0.20095813849E+03  0.00000000000E+00 0.  1.
         21    1    1    2  504  502  0.21900254006E+02 -0.23316474636E+02  0.27726954499E+02  0.42332766514E+02  0.00000000000E+00 0.  1.
         21    1    1    2  505  501  0.64976108966E+02  0.27894728373E+02  0.21190929895E+03  0.22339552723E+03  0.00000000000E+00 0.  1.
         21    1    1    2  506  505 -0.57150576441E+02  0.91686486471E+02  0.14836558490E+02  0.10905376498E+03  0.00000000000E+00 0.  1.
<scales pt_clust_3="14000.00000" pt_clust_4="31.98873" pt_clust_5="71.70307" pt_clust_6="85.29553"></scales>
<clustering>
<clus scale="   31.989">  2  4  1 -1</clus>
<clus scale="   71.703">  1  5  2 -1</clus>
<clus scale="   85.296">  2  6  1 -1</clus>
<clus scale="   71.703">  1  3  2 -1</clus>
</clustering>
</event>
<event>
 6    0  0.4227619E+002  0.1005552E+03  0.7546771E-02  0.1279133E+00
         21   -1    0    0  506  501  0.00000000000E+00  0.00000000000E+00  0.19604581728E+04  0.19604581728E+04  0.00000000000E+00 0. -1.
         21   -1    0    0  505  502 -0.00000000000E+00 -0.00000000000E+00 -0.24463814010E+02  0.24463814010E+02  0.00000000000E+00 0. -1.
         21    1    1    2  503  501  0.33088699188E+02  0.42794260189E+02  0.62594489832E+03  0.62827798501E+03  0.00000000000E+00 0.  1.
         21    1    1    2  504  502 -0.27431256927E+02  0.87240362135E+02  0.25429039176E+03  0.27023500510E+03  0.00000000000E+00 0. -1.
         21    1    1    2  505  503  0.43826706539E+02  0.45651570387E+01  0.36804986255E+02  0.57412784970E+02  0.00000000000E+00 0. -1.
         21    1    1    2  506  504 -0.49484148800E+02 -0.13459977936E+03  0.10189540824E+04  0.10289962117E+04  0.00000000000E+00 0. -1.
<scales pt_clust_3="56.66143" pt_clust_4="14000.00000" pt_clust_5="44.06383" pt_clust_6="100.55519"></scales>
<clustering>
<clus scale="   44.064">  2  5  1 -1</clus>
<clus scale="   56.661">  1  3  2 -1</clus>
<clus scale="  100.555">  1  6  2 -1</clus>
<clus scale="   56.661">  1  3  2 -1</clus>
</clustering>
</event>
<event>
 6    0  0.4227619E+002  0.9064977E+02  0.7546771E-02  0.1301286E+00
         21   -1    0    0  503  501  0.00000000000E+00  0.00000000000E+00  0.40546417376E+03  0.40546417376E+03  0.00000000000E+00 0.  1.
         21   -1    0    0  506  502 -0.00000000000E+00 -0.00000000000E+00 -0.73444183065E+02  0.73444183065E+02  0.00000000000E+00 0.  1.
         21    1    1    2  503  502 -0.49632506868E+02 -0.63298894797E+02  0.16860614884E+03  0.18681051696E+03  0.00000000000E+00 0.  1.
         21    1    1    2  504  501  0.60664227464E+02  0.11282387244E+03  0.95109264924E+02  0.15954669210E+03  0.00000000000E+00 0.  1.
         21    1    1    2  505  504  0.22500178211E+02 -0.70527784032E+02  0.44295102616E+02  0.86269823552E+02  0.00000000000E+00 0.  1.
         21    1    1    2  506  505 -0.33531898807E+02  0.21002806392E+02  0.24009474313E+02  0.46281324211E+02  0.00000000000E+00 0.  1.
<scales pt_clust_3="90.64977" pt_clust_4="14000.00000" pt_clust_5="64.43522" pt_clust_6="39.56648"></scales>
<clustering>
<clus scale="   39.566">  2  6  1 -1</clus>
<clus scale="   64.435">  2  5  1 -1</clus>
<clus scale="   90.650">  1  3  2 -1</clus>
<clus scale="   90.650">  1  3  2 -1</clus>
</clustering>
</event>
<event>
 6    0  0.4227619E+002  0.1114555E+03  0.7546771E-02  0.1257898E+00
         21   -1    0    0  506  501  0.00000000000E+00  0.00000000000E+00  0.29075295223E+03  0.29075295223E+03  0.00000000000E+00 0.  1.
         21   -1    0    0  505  502 -0.00000000000E+00 -0.00000000000E+00 -0.11693562294E+04  0.11693562294E+04  0.00000000000E+00 0. -1.
         21    1    1    2  503  501 -0.62329250680E+02  0.57326242191E+02  0.12295777523E+03  0.14929785003E+03  0.00000000000E+00 0.  1.
         21    1    1    2  504  502  0.28038654287E+02  0.24897632694E+02 -0.14787222148E+03  0.15255245699E+03  0.00000000000E+00 0. -1.
         21    1    1    2  505  503  0.74649744963E+02 -0.72062018130E+02 -0.10003961794E+04  0.10057624146E+04  0.00000000000E+00 0. -1.
         21    1    1    2  506  504 -0.40359148570E+02 -0.10161856755E+02  0.14670734849E+03  0.15249645998E+03  0.00000000000E+00 0.  1.
<scales pt_clust_3="14000.00000" pt_clust_4="37.49744" pt_clust_5="111.45551" pt_clust_6="41.52433"></scales>
<clustering>
<clus scale="   37.497">  2  4  1 -1</clus>
<clus scale="   41.524">  1  6  2 -1</clus>
<clus scale="  111.456">  2  5  1 -1</clus>
<clus scale="   41.524">  1  3  2 -1</clus>
</clustering>
</event>
<event>
 6    0  0.4227619E+002  0.1347302E+03  0.7546771E-02  0.1220601E+00
         21   -1    0    0  504  501  0.00000000000E+00  0.00000000000E+00  0.12195252932E+04  0.12195252932E+04  0.00000000000E+00 0.  1.
         21   -1    0    0  505  502 -0.00000000000E+00 -0.00000000000E+00 -0.56913826380E+02  0.56913826380E+02  0.00000000000E+00 0.  1.
         21    1    1    2  503  501  0.15461126026E+02 -0.61672196453E+02  0.34415003042E+03  0.34997392713E+03  0.00000000000E+00 0.  1.
         21    1    1    2  504  502 -0.56349178476E+02  0.24834230239E+02  0.10279960278E+03  0.11983207934E+03  0.00000000000E+00 0. -1.
         21    1    1    2  505  506 -0.93014599570E+02 -0.65970225447E+01  0.18074388452E+02  0.94983787867E+02  0.00000000000E+00 0.  1.
         21    1    1    2  506  503  0.13390265202E+03  0.43434988759E+02  0.69758744518E+03  0.71164932526E+03  0.00000000000E+00 0.  1.
<scales pt_clust_3="61.37665" pt_clust_4="61.57896" pt_clust_5="134.73017" pt_clust_6="14000.00000"></scales>
<clustering>
<clus scale="   61.579">  2  4  1 -1</clus>
<clus scale="   61.377">  1  3  2 -1</clus>
<clus scale="  134.730">  2  5  1 -1</clus>
<clus scale="   61.377">  1  3  2 -1</clus>
</clustering>
</event>
<event>
 6    0  0.4227619E+002  0.1456154E+03  0.7546771E-02  0.1205967E+00
         21   -1    0    0  503  501  0.00000000000E+00  0.00000000000E+00  0.36975147542E+03  0.36975147542E+03  0.00000000000E+00 0. -1.
         21   -1    0    0  506  502 -0.00000000000E+00 -0.00000000000E+00 -0.55697378880E+03  0.55697378880E+03  0.00000000000E+00 0. -1.
         21    1    1    2  503  502 -0.75482473208E+02  0.10501642232E+03 -0.46374112707E+03  0.48143731228E+03  0.00000000000E+00 0. -1.
         21    1    1    2  504  501 -0.16611231624E+02 -0.66089248712E+02  0.25263173715E+03  0.26166107167E+03  0.00000000000E+00 0. -1.
         21    1    1    2  505  504  0.73385992101E+02 -0.83221091757E+02  0.57490674726E+02  0.12496572182E+03  0.00000000000E+00 0. -1.
         21    1    1    2  506  505  0.18707712731E+02  0.44293918145E+02 -0.33603598180E+02  0.58661158452E+02  0.00000000000E+00 0.  1.
<scales pt_clust_3="145.61542" pt_clust_4="67.72494" pt_clust_5="14000.00000" pt_clust_6="48.08253"></scales>
<clustering>
<clus scale="   48.083">  2  6  1 -1</clus>
<clus scale="   67.725">  1  4  2 -1</clus>
<clus scale="  145.615">  2  3  1 -1</clus>
<clus scale="   67.725">  1  3  2 -1</clus>
</clustering>
</event>
<event>
 6    0  0.4227619E+002  0.2264217E+03  0.7546771E-02  0.1129184E+00
         21   -1    0    0  506  501  0.00000000000E+00  0.00000000000E+00  0.11682258655E+04  0.11682258655E+04  0.00000000000E+00 0.  1.
         21   -1    0    0  505  502 -0.00000000000E+00 -0.00000000000E+00 -0.19585710036E+03  0.19585710036E+03  0.00000000000E+00 0. -1.
         21    1    1    2  503  501 -0.29027780930E+02 -0.22546935008E+03  0.92183274775E+03  0.94944965887E+03  0.00000000000E+00 0.  1.
         21    1    1    2  504  502  0.27925053715E+02 -0.68928541163E+02  0.20872518144E+02  0.77243863352E+02  0.00000000000E+00 0. -1.
         21    1    1    2  505  503 -0.17110420311E+02  0.22087518446E+03 -0.50374924050E+02  0.22719209178E+03  0.00000000000E+00 0. -1.
         21    1    1    2  506  504  0.18213147525E+02  0.73522706782E+02  0.80038423321E+02  0.11019735189E+03  0.00000000000E+00 0.  1.
<scales pt_clust_3="226.42169" pt_clust_4="74.37037" pt_clust_5="14000.00000" pt_clust_6="70.44133"></scales>
<clustering>
<clus scale="   74.370">  2  4  1 -1</clus>
<clus scale="   70.441">  2  6  1 -1</clus>
<clus scale="  226.422">  1  3  2 -1</clus>
<clus scale="  226.422">  1  3  2 -1</clus>
</clustering>
</event>
<event>
 6    0  0.4227619E+002  0.8272318E+02  0.7546771E-02  0.1321496E+00
         21   -1    0    0  503  501  0.00000000000E+00  0.00000000000E+00  0.44936321379E+03  0.44936321379E+03  0.00000000000E+00 0. -1.
         21   -1    0    0  505  502 -0.00000000000E+00 -0.00000000000E+00 -0.33441667323E+03  0.33441667323E+03  0.00000000000E+00 0. -1.
         21    1    1    2  503  506 -0.59010995548E+02  0.39069494901E+02  0.22325690673E+03  0.23420582706E+03  0.00000000000E+00 0. -1.
         21    1    1    2  504  501  0.75426447289E+02 -0.38003104035E+02  0.12678213956E+03  0.15233875337E+03  0.00000000000E+00 0. -1.
         21    1    1    2  505  504  0.68080213659E+01  0.82259305597E+02 -0.28544952663E+03  0.29714369381E+03  0.00000000000E+00 0. -1.
         21    1    1    2  506  502 -0.23223473107E+02 -0.83325696464E+02  0.50357020911E+02  0.10009161278E+03  0.00000000000E+00 0. -1.
<scales pt_clust_3="70.77233" pt_clust_4="40.35045" pt_clust_5="82.72318" pt_clust_6="14000.00000"></scales>
<clustering>
<clus scale="   70.772">  1  3  2 -1</clus>
<clus scale="   40.350">  1  4  2 -1</clus>
<clus scale="   82.723">  2  5  1 -1</clus>
<clus scale="   70.772">  1  3  2 -1</clus>
</clustering>
</event>
<event>
 6    0  0.4227619E+002  0.1206778E+03  0.7546771E-02  0.1241983E+00
         21   -1    0    0  504  501  0.00000000000E+00  0.00000000000E+00  0.90465842642E+03  0.90465842642E+03  0.00000000000E+00 0.  1.
         21   -1    0    0  503  502 -0.00000000000E+00 -0.00000000000E+00 -0.55646594075E+03  0.55646594075E+03  0.00000000000E+00 0. -1.
         21    1    1    2  503  501  0.43757668709E+01 -0.29917860617E+02 -0.80665233752E+02  0.86145839458E+02  0.00000000000E+00 0.  1.
         21    1    1    2  504  506 -0.72941850751E+02 -0.36191723626E+02  0.57706533077E+03  0.58278190640E+03  0.00000000000E+00 0.  1.
         21    1    1    2  505  502  0.10355323678E+03  0.48792676864E+02 -0.46200746408E+03  0.47597783040E+03  0.00000000000E+00 0. -1.
         21    1    1    2  506  505 -0.34987152903E+02  0.17316907379E+02  0.31379985273E+03  0.31621879091E+03  0.00000000000E+00 0.  1.
<scales pt_clust_3="30.23617" pt_clust_4="34.97773" pt_clust_5="109.57457" pt_clust_6="34.97773"></scales>
<clustering>
<clus scale="   30.236">  2  3  1 -1</clus>
<clus scale="   34.978">  4  6 -1 -1</clus>
<clus scale="  109.575">  2  5  1 -1</clus>
<clus scale="  120.678">  1  3  2 -1</clus>
</clustering>
</event>
<event>
 6    0  0.4227619E+002  0.1369655E+03  0.7546771E-02  0.1217471E+00
         21   -1    0    0  506  501  0.00000000000E+00  0.00000000000E+00  0.19027603899E+04  0.19027603899E+04  0.00000000000E+00 0. -1.
         21   -1    0    0  503  502 -0.00000000000E+00 -0.00000000000E+00 -0.17876274249E+02  0.17876274249E+02  0.00000000000E+00 0. -1.
         21    1    1    2  503  501  0.11799024496E+02  0.12515499621E+03  0.84551451301E+03  0.85480862288E+03  0.00000000000E+00 0. -1.
         21    1    1    2  504  505 -0.44375999980E+02 -0.57848454075E+02  0.25673245047E+03  0.26688428979E+03  0.00000000000E+00 0. -1.
         21    1    1    2  505  502  0.28772806141E+01 -0.55780466499E+02  0.92386778839E+02  0.10795858507E+03  0.00000000000E+00 0. -1.
         21    1    1    2  506  504  0.29699694871E+02 -0.11526075638E+02  0.69025037334E+03  0.69098516640E+03  0.00000000000E+00 0. -1.
<scales pt_clust_3="121.53309" pt_clust_4="56.46983" pt_clust_5="56.46983" pt_clust_6="31.85785"></scales>
<clustering>
<clus scale="   31.858">  1  6  2 -1</clus>
<clus scale="   56.470">  4  5 -1 -1</clus>
<clus scale="  121.533">  1  3  2 -1</clus>
<clus scale="   31.858">  1  3  2 -1</clus>
</clustering>
</event>
<event>
 6    0  0.4227619E+002  0.2403911E+03  0.7546771E-02  0.1119533E+00
         21   -1    0    0  504  501  0.00000000000E+00  0.00000000000E+00  0.50983968445E+03  0.50983968445E+03  0.00000000000E+00 0. -1.
         21   -1    0    0  503  502 -0.00000000000E+00 -0.00000000000E+00 -0.72478151268E+03  0.72478151268E+03  0.00000000000E+00 0.  1.
         21    1    1    2  503  506 -0.15617619563E+03 -0.75039705442E+02 -0.52807056305E+03  0.55577016925E+03  0.00000000000E+00 0.  1.
         21    1    1    2  504  505 -0.34119519233E+02 -0.58836608353E+01  0.19824945779E+03  0.20125010949E+03  0.00000000000E+00 0. -1.
         21    1    1    2  505  502  0.22539953417E+03  0.13044373844E+03  0.23000572278E+03  0.34745237287E+03  0.00000000000E+00 0. -1.
         21    1    1    2  506  501 -0.35103819306E+02 -0.49520372159E+02 -0.11512644575E+03  0.13014854551E+03  0.00000000000E+00 0. -1.
<scales pt_clust_3="40.51108" pt_clust_4="34.62310" pt_clust_5="230.45405" pt_clust_6="40.51108"></scales>
<clustering>
<clus scale="   34.623">  1  4  2 -1</clus>
<clus scale="   40.511">  3  6 -1 -1</clus>
<clus scale="  230.454">  1  5  2 -1</clus>
<clus scale="   34.623">  1  3  2 -1</clus>
</clustering>
</event>
<event>
 6    0  0.4227619E+002  0.7243590E+02  0.7546771E-02  0.1352000E+00
         21   -1    0    0  505  501  0.00000000000E+00  0.00000000000E+00  0.25066898460E+04  0.25066898460E+04  0.00000000000E+00 0. -1.
         21   -1    0    0  501  502 -0.00000000000E+00 -0.00000000000E+00 -0.59128881606E+03  0.59128881606E+03  0.00000000000E+00 0. -1.
         21    1    1    2  503  506 -0.48953213684E+02 -0.20045703003E+02 -0.11844651400E+01  0.52911721732E+02  0.00000000000E+00 0.  1.
         21    1    1    2  504  502 -0.70792049409E+02  0.16160135073E+02 -0.54299951267E+03  0.54783312695E+03  0.00000000000E+00 0. -1.
         21    1    1    2  505  503  0.45534558929E+02 -0.25891641804E+02  0.23918939946E+04  0.23924674825E+04  0.00000000000E+00 0. -1.
         21    1    1    2  506  504  0.74210704164E+02  0.29777209734E+02  0.67691013125E+02  0.10476633090E+03  0.00000000000E+00 0.  1.
<scales pt_clust_3="46.53752" pt_clust_4="72.43590" pt_clust_5="52.38104" pt_clust_6="14000.00000"></scales>
<clustering>
<clus scale="   52.381">  1  5  2 -1</clus>
<clus scale="   46.538">  1  3  2 -1</clus>
<clus scale="   72.436">  2  4  1 -1</clus>
<clus scale="   52.381">  1  3  2 -1</clus>
</clustering>
</event>
<event>
 6    0  0.4227619E+002  0.7515766E+02  0.7546771E-02  0.1343384E+00
         21   -1    0    0  503  501  0.00000000000E+00  0.00000000000E+00  0.27493393626E+03  0.27493393626E+03  0.00000000000E+00 0.  1.
         21   -1    0    0  504  502 -0.00000000000E+00 -0.00000000000E+00 -0.11229858091E+04  0.11229858091E+04  0.00000000000E+00 0. -1.
         21    1    1    2  503  506  0.48001097378E+02 -0.84859067311E+02  0.24651254024E+03  0.26509168065E+03  0.00000000000E+00 0.  1.
         21    1    1    2  504  505 -0.77228712317E+02 -0.36068606514E+01 -0.72338206817E+03  0.72750182131E+03  0.00000000000E+00 0. -1.
         21    1    1    2  505  501 -0.27558004160E+02  0.14703021608E+02 -0.10697519336E+02  0.33016046972E+02  0.00000000000E+00 0.  1.
         21    1    1    2  506  502  0.56785619098E+02  0.73762906354E+02 -0.36048482557E+03  0.37231019642E+03  0.00000000000E+00 0.  1.
<scales pt_clust_3="73.73664" pt_clust_4="14000.00000" pt_clust_5="31.23496" pt_clust_6="75.15766"></scales>
<clustering>
<clus scale="   31.235">  1  5  2 -1</clus>
<clus scale="   73.737">  1  3  2 -1</clus>
<clus scale="   75.158">  1  6  2 -1</clus>
<clus scale="   31.235">  1  3  2 -1</clus>
</clustering>
</event>
<event>
 6    0  0.4227619E+002  0.8562490E+02  0.7546771E-02  0.1313806E+00
         21   -1    0    0  503  501  0.00000000000E+00  0.00000000000E+00  0.25828693990E+02  0.25828693990E+02  0.00000000000E+00 0.  1.
         21   -1    0    0  504  502 -0.00000000000E+00 -0.00000000000E+00 -0.10110382993E+04  0.10110382993E+04  0.00000000000E+00 0.  1.
         21    1    1    2  503  506 -0.15217012222E+02 -0.35153056928E+02 -0.87965465974E+02  0.95943827714E+02  0.00000000000E+00 0. -1.
         21    1    1    2  504  501 -0.65517305483E+02  0.24676992386E+02 -0.20915689013E+03  0.22056308839E+03  0.00000000000E+00 0.  1.
         21    1    1    2  505  502 -0.29510977439E+02 -0.29296772969E+02 -0.47789865866E+03  0.47970441591E+03  0.00000000000E+00 0.  1.
         21    1    1    2  506  505  0.11024529514E+03  0.39772837512E+02 -0.21018859051E+03  0.24065566123E+03  0.00000000000E+00 0.  1.
<scales pt_clust_3="38.30529" pt_clust_4="14000.00000" pt_clust_5="43.05798" pt_clust_6="85.62490"></scales>
<clustering>
<clus scale="   38.305">  1  3  2 -1</clus>
<clus scale="   43.058">  2  5  1 -1</clus>
<clus scale="   85.625">  1  6  2 -1</clus>
<clus scale="   38.305">  1  3  2 -1</clus>
</clustering>
</event>
<event>
 6    0  0.4227619E+002  0.6743027E+02  0.7546771E-02  0.1369056E+00
         21   -1    0    0  503  501  0.00000000000E+00  0.00000000000E+00  0.28517049226E+03  0.28517049226E+03  0.00000000000E+00 0. -1.
         21   -1    0    0  506  502 -0.00000000000E+00 -0.00000000000E+00 -0.14433392930E+03  0.14433392930E+03  0.00000000000E+00 0. -1.
         21    1    1    2  503  504 -0.39350507441E+02  0.10388012616E+02  0.11143273049E+03  0.11863231712E+03  0.00000000000E+00 0. -1.
         21    1    1    2  504  505 -0.53815666710E+02  0.79522167904E+02 -0.66825586466E+02  0.11698529898E+03  0.00000000000E+00 0. -1.
         21    1    1    2  505  502  0.21136270012E+02 -0.33732792648E+02 -0.21209065750E+02  0.45105073771E+02  0.00000000000E+00 0. -1.
         21    1    1    2  506  501  0.72029904138E+02 -0.56177387871E+02  0.11743848469E+03  0.14878173169E+03  0.00000000000E+00 0. -1.
<scales pt_clust_3="39.76785" pt_clust_4="67.43027" pt_clust_5="39.80758" pt_clust_6="14000.00000"></scales>
<clustering>
<clus scale="   39.808">  2  5  1 -1</clus>
<clus scale="   39.768">  1  3  2 -1</clus>
<clus scale="   67.430">  2  4  1 -1</clus>
<clus scale="   39.768">  1  3  2 -1</clus>
</clustering>
</event>
<event>
 6    0  0.4227619E+002  0.6564755E+02  0.7546771E-02  0.1375552E+00
         21   -1    0    0  505  501  0.00000000000E+00  0.00000000000E+00  0.19625972548E+04  0.19625972548E+04  0.00000000000E+00 0.  1.
         21   -1    0    0  506  502 -0.00000000000E+00 -0.00000000000E+00 -0.12482050465E+02  0.12482050465E+02  0.00000000000E+00 0.  1.
         21    1    1    2  503  501  0.42513466745E+02  0.19629246620E+02  0.50506709313E+03  0.50723315225E+03  0.00000000000E+00 0.  1.
         21    1    1    2  504  502 -0.20105189569E+02 -0.34932000149E+02  0.19598785810E+03  0.20008923961E+03  0.00000000000E+00 0.  1.
         21    1    1    2  505  504 -0.93357472331E+02  0.36778199872E+01  0.10801398016E+04  0.10841730190E+04  0.00000000000E+00 0.  1.
         21    1    1    2  506  503  0.70949195155E+02  0.11624933542E+02  0.16892045150E+03  0.18358389447E+03  0.00000000000E+00 0.  1.
<scales pt_clust_3="43.47809" pt_clust_4="40.30463" pt_clust_5="65.64755" pt_clust_6="14000.00000"></scales>
<clustering>
<clus scale="   40.305">  2  4  1 -1</clus>
<clus scale="   43.478">  1  3  2 -1</clus>
<clus scale="   65.648">  1  5  2 -1</clus>
<clus scale="   43.478">  1  3  2 -1</clus>
</clustering>
</event>
<event>
 6    0  0.4227619E+002  0.1164519E+03  0.7546771E-02  0.1249068E+00
         21   -1    0    0  505  501  0.00000000000E+00  0.00000000000E+00  0.46412882778E+03  0.46412882778E+03  0.00000000000E+00 0.  1.
         21   -1    0    0  503  502 -0.00000000000E+00 -0.00000000000E+00 -0.18707425884E+03  0.18707425884E+03  0.00000000000E+00 0.  1.
         21    1    1    2  503  506  0.11096116668E+02 -0.29394848354E+02 -0.10201250420E+03  0.10674142555E+03  0.00000000000E+00 0.  1.
         21    1    1    2  504  501 -0.16174051838E+02 -0.10516842692E+03  0.28400119934E+03  0.30327986943E+03  0.00000000000E+00 0. -1.
         21    1    1    2  505  502  0.36993863427E+02  0.15382540341E+03  0.11803936138E+03  0.19739324077E+03  0.00000000000E+00 0.  1.
         21    1    1    2  506  504 -0.31915928256E+02 -0.19262128133E+02 -0.22973487576E+02  0.43788550879E+02  0.00000000000E+00 0.  1.
<scales pt_clust_3="31.41944" pt_clust_4="116.45191" pt_clust_5="14000.00000" pt_clust_6="41.49342"></scales>
<clustering>
<clus scale="   31.419">  2  3  1 -1</clus>
<clus scale="   41.493">  2  6  1 -1</clus>
<clus scale="  116.452">  1  4  2 -1</clus>
<clus scale="  116.452">  1  3  2 -1</clus>
</clustering>
</event>
<event>
 6    0  0.4227619E+002  0.8453036E+02  0.7546771E-02  0.1316665E+00
         21   -1    0    0  504  501  0.00000000000E+00  0.00000000000E+00  0.22977573570E+03  0.22977573570E+03  0.00000000000E+00 0. -1.
         21   -1    0    0  505  502 -0.00000000000E+00 -0.00000000000E+00 -0.46111380398E+03  0.46111380398E+03  0.00000000000E+00 0.  1.
         21    1    1    2  503  501 -0.87104309401E+02  0.24642433204E+02  0.19655739546E+03  0.21640060060E+03  0.00000000000E+00 0. -1.
         21    1    1    2  504  502 -0.23854000488E+02 -0.29916352207E+02 -0.54707955233E+02  0.66760481083E+02  0.00000000000E+00 0. -1.
         21    1    1    2  505  506  0.69848373603E+02  0.39862413351E+02 -0.32741869290E+03  0.33715101624E+03  0.00000000000E+00 0.  1.
         21    1    1    2  506  503  0.41109936286E+02 -0.34588494348E+02 -0.45768815608E+02  0.70577441757E+02  0.00000000000E+00 0.  1.
<scales pt_clust_3="84.53036" pt_clust_4="38.26227" pt_clust_5="52.26052" pt_clust_6="14000.00000"></scales>
<clustering>
<clus scale="   38.262">  2  4  1 -1</clus>
<clus scale="   52.261">  2  5  1 -1</clus>
<clus scale="   84.530">  1  3  2 -1</clus>
<clus scale="   84.530">  1  3  2 -1</clus>
</clustering>
</event>
<event>
 6    0  0.4227619E+002  0.1058749E+03  0.7546771E-02  0.1268405E+00
         21   -1    0    0  505  501  0.00000000000E+00  0.00000000000E+00  0.19380028155E+03  0.19380028155E+03  0.00000000000E+00 0. -1.
         21   -1    0    0  504  502 -0.00000000000E+00 -0.00000000000E+00 -0.36397060094E+03  0.36397060094E+03  0.00000000000E+00 0.  1.
         21    1    1    2  503  502  0.52687310862E+02  0.55498339135E+01 -0.11499352917E+03  0.12661068333E+03  0.00000000000E+00 0.  1.
         21    1    1    2  504  501 -0.25606683830E+02 -0.63931807601E+02  0.69640545690E+02  0.97942758201E+02  0.00000000000E+00 0. -1.
         21    1    1    2  505  506 -0.74651291110E+02  0.39247224903E+02  0.83500346970E+02  0.11868221379E+03  0.00000000000E+00 0. -1.
         21    1    1    2  506  503  0.47570664078E+02  0.19134748784E+02 -0.20831768288E+03  0.21453522716E+03  0.00000000000E+00 0.  1.
<scales pt_clust_3="33.92856" pt_clust_4="68.86928" pt_clust_5="100.10044" pt_clust_6="33.92856"></scales>
<clustering>
<clus scale="   33.929">  3  6 -1 -1</clus>
<clus scale="   68.869">  1  4  2 -1</clus>
<clus scale="  100.100">  1  5  2 -1</clus>
<clus scale="   68.869">  1  3  2 -1</clus>
</clustering>
</event>
<event>
 6    0  0.4227619E+002  0.9487708E+02  0.7546771E-02  0.1291453E+00
         21   -1    0    0  503  501  0.00000000000E+00  0.00000000000E+00  0.13577587067E+04  0.13577587067E+04  0.00000000000E+00 0. -1.
         21   -1    0    0  505  502 -0.00000000000E+00 -0.00000000000E+00 -0.12853425947E+03  0.12853425947E+03  0.00000000000E+00 0.  1.
         21    1    1    2  503  506  0.58474674205E+01  0.45789306010E+02  0.10857936035E+04  0.10867744029E+04  0.00000000000E+00 0. -1.
         21    1    1    2  504  502 -0.95106789790E+01  0.65310528699E+02 -0.66986984620E+02  0.94038153332E+02  0.00000000000E+00 0.  1.
         21    1    1    2  505  501  0.73121728626E+02 -0.13027457939E+03  0.14088544104E+03  0.20534595377E+03  0.00000000000E+00 0. -1.
         21    1    1    2  506  504 -0.69458517067E+02  0.19174744681E+02  0.69532387354E+02  0.10013445620E+03  0.00000000000E+00 0.  1.
<scales pt_clust_3="46.16117" pt_clust_4="68.21772" pt_clust_5="94.87708" pt_clust_6="14000.00000"></scales>
<clustering>
<clus scale="   46.161">  1  3  2 -1</clus>
<clus scale="   68.218">  2  4  1 -1</clus>
<clus scale="   94.877">  2  5  1 -1</clus>
<clus scale="   46.161">  1  3  2 -1</clus>
</clustering>
</event>
<event>
 6    0  0.4227619E+002  0.9026003E+02  0.7546771E-02  0.1302223E+00
         21   -1    0    0  503  501  0.00000000000E+00  0.00000000000E+00  0.24774796490E+02  0.24774796490E+02  0.00000000000E+00 0.  1.
         21   -1    0    0  504  502 -0.00000000000E+00 -0.00000000000E+00 -0.19190646014E+04  0.19190646014E+04  0.00000000000E+00 0. -1.
         21    1    1    2  503  505 -0.22564477321E+02  0.20229700689E+02 -0.11731826105E+03  0.12116918256E+03  0.00000000000E+00 0.  1.
         21    1    1    2  504  506 -0.79128037135E+02 -0.61815764349E+02 -0.11010635160E+04  0.11056325344E+04  0.00000000000E+00 0. -1.
         21    1    1    2  505  502  0.99518476578E+02 -0.44063087806E+02 -0.57247363327E+03  0.58272767540E+03  0.00000000000E+00 0.  1.
         21    1    1    2  506  501  0.21740378782E+01  0.85649151466E+02 -0.10343439461E+03  0.13431000550E+03  0.00000000000E+00 0.  1.
<scales pt_clust_3="30.30506" pt_clust_4="90.26003" pt_clust_5="14000.00000" pt_clust_6="100.17352"></scales>
<clustering>
<clus scale="   30.305">  1  3  2 -1</clus>
<clus scale="  100.174">  1  6  2 -1</clus>
<clus scale="   90.260">  2  4  1 -1</clus>
<clus scale="   30.305">  1  3  2 -1</clus>
</clustering>
</event>
<event>
 6    0  0.4227619E+002  0.1233541E+03  0.7546771E-02  0.1237664E+00
         21   -1    0    0  506  501  0.00000000000E+00  0.00000000000E+00  0.29683389172E+03  0.29683389172E+03  0.00000000000E+00 0.  1.
         21   -1    0    0  503  502 -0.00000000000E+00 -0.00000000000E+00 -0.79949539416E+03  0.79949539416E+03  0.00000000000E+00 0.  1.
         21    1    1    2  503  501  0.75371990626E+02  0.67689006055E+02  0.65388827874E+02  0.12057544245E+03  0.00000000000E+00 0.  1.
         21    1    1    2  504  505 -0.27687349586E+02  0.32253129390E+02  0.45235990234E+02  0.62073734341E+02  0.00000000000E+00 0. -1.
         21    1    1    2  505  502 -0.79704583249E+02 -0.95796653231E+02 -0.75658992407E+03  0.76678428034E+03  0.00000000000E+00 0.  1.
         21    1    1    2  506  504  0.32019942209E+02 -0.41454822138E+01  0.14330360352E+03  0.14689582875E+03  0.00000000000E+00 0.  1.
<scales pt_clust_3="123.35412" pt_clust_4="34.86631" pt_clust_5="14000.00000" pt_clust_6="32.28718"></scales>
<clustering>
<clus scale="   32.287">  1  6  2 -1</clus>
<clus scale="   34.866">  1  4  2 -1</clus>
<clus scale="  123.354">  1  3  2 -1</clus>
<clus scale="   32.287">  1  3  2 -1</clus>
</clustering>
</event>
<event>
 6    0  0.4227619E+002  0.1187482E+03  0.7546771E-02  0.1245176E+00
         21   -1    0    0  505  501  0.00000000000E+00  0.00000000000E+00  0.12047035234E+02  0.12047035234E+02  0.00000000000E+00 0.  1.
         21   -1    0    0  503  502 -0.00000000000E+00 -0.00000000000E+00 -0.17658559969E+04  0.17658559969E+04  0.00000000000E+00 0.  1.
         21    1    1    2  503  501 -0.36099152215E+02  0.11622894515E+02 -0.23498755540E+03  0.23802813208E+03  0.00000000000E+00 0.  1.
         21    1    1    2  504  502 -0.71266909445E+02 -0.61414724848E+02 -0.10523617542E+04  0.10565585655E+04  0.00000000000E+00 0.  1.
         21    1    1    2  505  506  0.51418619116E+02  0.12132781570E+01 -0.22167364149E+03  0.22756218879E+03  0.00000000000E+00 0.  1.
         21    1    1    2  506  504  0.55947442544E+02  0.48578552175E+02 -0.24478601057E+03  0.25575414567E+03  0.00000000000E+00 0.  1.
<scales pt_clust_3="37.92414" pt_clust_4="109.98984" pt_clust_5="37.29141" pt_clust_6="37.29141"></scales>
<clustering>
<clus scale="   37.291">  5  6 -1 -1</clus>
<clus scale="   37.924">  2  3  1 -1</clus>
<clus scale="  109.990">  2  4  1 -1</clus>
<clus scale="  118.748">  1  3  2 -1</clus>
</clustering>
</event>
<event>
 6    0  0.4227619E+002  0.2380464E+03  0.7546771E-02  0.1121101E+00
         21   -1    0    0  504  501  0.00000000000E+00  0.00000000000E+00  0.45555644475E+03  0.45555644475E+03  0.00000000000E+00 0.  1.
         21   -1    0    0  503  502 -0.00000000000E+00 -0.00000000000E+00 -0.22859032444E+03  0.22859032444E+03  0.00000000000E+00 0. -1.
         21    1    1    2  503  505 -0.40970227030E+00  0.52690340154E+02 -0.49050907351E+02  0.71989105520E+02  0.00000000000E+00 0.  1.
         21    1    1    2  504  502  0.19744213561E+03  0.75800296960E+02 -0.37190708973E+02  0.21473758583E+03  0.00000000000E+00 0. -1.
         21    1    1    2  505  506 -0.20812458576E+02 -0.38759335500E+02  0.83003574905E+02  0.93941673220E+02  0.00000000000E+00 0.  1.
         21    1    1    2  506  501 -0.17621997476E+03 -0.89731301614E+02  0.23020416173E+03  0.30347840462E+03  0.00000000000E+00 0.  1.
<scales pt_clust_3="52.69193" pt_clust_4="228.37269" pt_clust_5="31.68265" pt_clust_6="31.68265"></scales>
<clustering>
<clus scale="   31.683">  5  6 -1 -1</clus>
<clus scale="   52.692">  2  3  1 -1</clus>
<clus scale="  228.373">  2  4  1 -1</clus>
<clus scale="  238.046">  1  3  2 -1</clus>
</clustering>
</event>
<event>
 6    0  0.4227619E+002  0.8763831E+02  0.7546771E-02  0.1308674E+00
         21   -1    0    0  506  501  0.00000000000E+00  0.00000000000E+00  0.81006031360E+02  0.81006031360E+02  0.00000000000E+00 0. -1.
         21   -1    0    0  505  502 -0.00000000000E+00 -0.00000000000E+00 -0.14410548313E+04  0.14410548313E+04  0.00000000000E+00 0.  1.
         21    1    1    2  503  501  0.50831472765E+02 -0.66509774186E+02  0.20527895893E+02  0.86190389229E+02  0.00000000000E+00 0. -1.
         21    1    1    2  504  503 -0.94123244848E+02  0.40064037932E+02 -0.26940532487E+03  0.28817276316E+03  0.00000000000E+00 0. -1.
         21    1    1    2  505  504  0.57778262438E+01 -0.35994874709E+02 -0.10552116778E+04  0.10558412282E+04  0.00000000000E+00 0.  1.
         21    1    1    2  506  502  0.37513945839E+02  0.62440610963E+02 -0.55959693110E+02  0.91856481986E+02  0.00000000000E+00 0. -1.
<scales pt_clust_3="14000.00000" pt_clust_4="87.63831" pt_clust_5="36.45565" pt_clust_6="67.64864"></scales>
<clustering>
<clus scale="   36.456">  2  5  1 -1</clus>
<clus scale="   67.649">  1  6  2 -1</clus>
<clus scale="   87.638">  2  4  1 -1</clus>
<clus scale="   67.649">  1  3  2 -1</clus>
</clustering>
</event>
<event>
 6    0  0.4227619E+002  0.1790663E+03  0.7546771E-02  0.1168710E+00
         21   -1    0    0  505  501  0.00000000000E+00  0.00000000000E+00  0.42800007797E+03  0.42800007797E+03  0.00000000000E+00 0. -1.
         21   -1    0    0  503  502 -0.00000000000E+00 -0.00000000000E+00 -0.26866884237E+03  0.26866884237E+03  0.00000000000E+00 0. -1.
         21    1    1    2  503  506  0.10001957560E+03 -0.16441659308E+02  0.23662255445E+03  0.25741887448E+03  0.00000000000E+00 0. -1.
         21    1    1    2  504  502 -0.15575235432E+03  0.70117090787E+02 -0.20736092069E+03  0.26865173315E+03  0.00000000000E+00 0. -1.
         21    1    1    2  505  504  0.40192529362E+02 -0.16676098959E+02  0.10908477870E+02  0.44861192387E+02  0.00000000000E+00 0. -1.
         21    1    1    2  506  501  0.15540249353E+02 -0.36999332520E+02  0.11916112398E+03  0.12573712032E+03  0.00000000000E+00 0. -1.
<scales pt_clust_3="39.87696" pt_clust_4="167.47615" pt_clust_5="43.51473" pt_clust_6="39.87696"></scales>
<clustering>
<clus scale="   39.877">  3  6 -1 -1</clus>
<clus scale="   43.515">  1  5  2 -1</clus>
<clus scale="  167.476">  2  4  1 -1</clus>
<clus scale="   43.515">  1  3  2 -1</clus>
</clustering>
</event>
<event>
 6    0  0.4227619E+002  0.1223877E+03  0.7546771E-02  0.1239209E+00
         21   -1    0    0  506  501  0.00000000000E+00  0.00000000000E+00  0.73379331012E+03  0.73379331012E+03  0.00000000000E+00 0.  1.
         21   -1    0    0  503  502 -0.00000000000E+00 -0.00000000000E+00 -0.31680370223E+03  0.31680370223E+03  0.00000000000E+00 0.  1.
         21    1    1    2  503  505  0.50790938604E+02 -0.79001983806E+02 -0.19618413549E+03  0.21750689164E+03  0.00000000000E+00 0.  1.
         21    1    1    2  504  502 -0.56623625600E+01  0.81018050382E+02 -0.55548880801E+02  0.98395452109E+02  0.00000000000E+00 0.  1.
         21    1    1    2  505  501  0.17359606816E+00 -0.12243124820E+03  0.53617698648E+03  0.54997745545E+03  0.00000000000E+00 0.  1.
         21    1    1    2  506  504 -0.45302172112E+02  0.12041518162E+03  0.13254563771E+03  0.18471721316E+03  0.00000000000E+00 0.  1.
<scales pt_clust_3="46.80586" pt_clust_4="81.21568" pt_clust_5="14000.00000" pt_clust_6="122.38770"></scales>
<clustering>
<clus scale="   81.216">  2  4  1 -1</clus>
<clus scale="   46.806">  2  3  1 -1</clus>
<clus scale="  122.388">  2  6  1 -1</clus>
<clus scale="  122.388">  1  3  2 -1</clus>
</clustering>
</event>
<event>
 6    0  0.4227619E+002  0.1063033E+03  0.7546771E-02  0.1267573E+00
         21   -1    0    0  506  501  0.00000000000E+00  0.00000000000E+00  0.65163124244E+02  0.65163124244E+02  0.00000000000E+00 0.  1.
         21   -1    0    0  503  502 -0.00000000000E+00 -0.00000000000E+00 -0.40610817014E+03  0.40610817014E+03  0.00000000000E+00 0.  1.
         21    1    1    2  503  504  0.79016614792E+02 -0.78893762692E+02 -0.27677158345E+03  0.29844657915E+03  0.00000000000E+00 0.  1.
         21    1    1    2  504  505 -0.45847961743E+02  0.36569731338E+02 -0.86309800949E+01  0.59277944157E+02  0.00000000000E+00 0.  1.
         21    1    1    2  505  501  0.25730348139E+01  0.44803437272E+02  0.29279472115E+01  0.44972673641E+02  0.00000000000E+00 0.  1.
         21    1    1    2  506  502 -0.35741687863E+02 -0.24794059179E+01 -0.58470429569E+02  0.68574097434E+02  0.00000000000E+00 0.  1.
<scales pt_clust_3="94.65219" pt_clust_4="41.29476" pt_clust_5="41.29476" pt_clust_6="35.82758"></scales>
<clustering>
<clus scale="   35.828">  2  6  1 -1</clus>
<clus scale="   41.295">  4  5 -1 -1</clus>
<clus scale="   94.652">  2  3  1 -1</clus>
<clus scale="  106.303">  1  3  2 -1</clus>
</clustering>
</event>
<event>
 6    0  0.4227619E+002  0.1176828E+03  0.7546771E-02  0.1246969E+00
         21   -1    0    0  503  501  0.00000000000E+00  0.00000000000E+00  0.14760405954E+03  0.14760405954E+03  0.00000000000E+00 0.  1.
         21   -1    0    0  504  502 -0.00000000000E+00 -0.00000000000E+00 -0.55238442659E+03  0.55238442659E+03  0.00000000000E+00 0.  1.
         21    1    1    2  503  502 -0.14352164000E+02  0.10829194037E+03 -0.96518801667E+02  0.14577039492E+03  0.00000000000E+00 0.  1.
         21    1    1    2  504  506  0.10188913024E+03  0.41302255511E+02 -0.26075077375E+03  0.28298098378E+03  0.00000000000E+00 0.  1.
         21    1    1    2  505  501  0.62459631252E+02 -0.80352320211E+02 -0.15238090405E+02  0.10290724123E+03  0.00000000000E+00 0.  1.
         21    1    1    2  506  505 -0.14999659749E+03 -0.69241875670E+02 -0.32272701237E+02  0.16832986619E+03  0.00000000000E+00 0.  1.
<scales pt_clust_3="89.22457" pt_clust_4="14000.00000" pt_clust_5="101.77279" pt_clust_6="117.68278"></scales>
<clustering>
<clus scale="  101.773">  1  5  2 -1</clus>
<clus scale="   89.225">  1  3  2 -1</clus>
<clus scale="  117.683">  1  6  2 -1</clus>
<clus scale="  101.773">  1  3  2 -1</clus>
</clustering>
</event>
<event>
 6    0  0.4227619E+002  0.9398583E+02  0.7546771E-02  0.1293477E+00
         21   -1    0    0  503  501  0.00000000000E+00  0.00000000000E+00  0.42677695170E+03  0.42677695170E+03  0.00000000000E+00 0.  1.
         21   -1    0    0  505  502 -0.00000000000E+00 -0.00000000000E+00 -0.15385211731E+03  0.15385211731E+03  0.00000000000E+00 0.  1.
         21    1    1    2  503  506  0.29958467671E+02  0.88298016960E+02  0.29715818785E+03  0.31144347511E+03  0.00000000000E+00 0.  1.
         21    1    1    2  504  501  0.20897724234E+02 -0.10644185448E+03  0.68878854572E+02  0.12849466865E+03  0.00000000000E+00 0.  1.
         21    1    1    2  505  504 -0.29604144252E+02 -0.63564128221E+01  0.10557186788E+02  0.32066548516E+02  0.00000000000E+00 0.  1.
         21    1    1    2  506  502 -0.21252047654E+02  0.24500250345E+02 -0.10366939483E+03  0.10862437673E+03  0.00000000000E+00 0.  1.
<scales pt_clust_3="93.98583" pt_clust_4="14000.00000" pt_clust_5="30.27886" pt_clust_6="47.52594"></scales>
<clustering>
<clus scale="   30.279">  2  5  1 -1</clus>
<clus scale="   47.526">  2  6  1 -1</clus>
<clus scale="   93.986">  1  3  2 -1</clus>
<clus scale="   93.986">  1  3  2 -1</clus>
</clustering>
</event>
<event>
 6    0  0.4227619E+002  0.1019636E+03  0.7546771E-02  0.1276220E+00
         21   -1    0    0  504  501  0.00000000000E+00  0.00000000000E+00  0.41680919677E+02  0.41680919677E+02  0.00000000000E+00 0.  1.
         21   -1    0    0  505  502 -0.00000000000E+00 -0.00000000000E+00 -0.13140283030E+04  0.13140283030E+04  0.00000000000E+00 0.  1.
         21    1    1    2  503  502  0.15316156397E+01  0.32739480209E+02 -0.20815713186E+03  0.21072164330E+03  0.00000000000E+00 0. -1.
         21    1    1    2  504  503  0.94164874097E+02  0.11254277673E+01 -0.51678676599E+03  0.52529691756E+03  0.00000000000E+00 0. -1.
         21    1    1    2  505  506 -0.11089425221E+03 -0.21583761252E+01 -0.56814341768E+03  0.57886884249E+03  0.00000000000E+00 0.  1.
         21    1    1    2  506  501  0.15197762473E+02 -0.31706531852E+02  0.20739932191E+02  0.40821819331E+02  0.00000000000E+00 0.  1.
<scales pt_clust_3="32.77529" pt_clust_4="14000.00000" pt_clust_5="101.96358" pt_clust_6="34.89865"></scales>
<clustering>
<clus scale="   32.775">  2  3  1 -1</clus>
<clus scale="   34.899">  1  6  2 -1</clus>
<clus scale="  101.964">  1  5  2 -1</clus>
<clus scale="   34.899">  1  3  2 -1</clus>
</clustering>
</event>
<event>
 6    0  0.4227619E+002  0.1003583E+03  0.7546771E-02  0.1279544E+00
         21   -1    0    0  506  501  0.00000000000E+00  0.00000000000E+00  0.39252614978E+03  0.39252614978E+03  0.00000000000E+00 0.  1.
         21   -1    0    0  505  502 -0.00000000000E+00 -0.00000000000E+00 -0.12000135199E+03  0.12000135199E+03  0.00000000000E+00 0.  1.
         21    1    1    2  503  502  0.84848496835E+02  0.60727378605E+02  0.80925297847E+01  0.10465453151E+03  0.00000000000E+00 0.  1.
         21    1    1    2  504  501  0.15574132210E+02  0.40169807238E+02  0.12593278827E+03  0.13309858815E+03  0.00000000000E+00 0.  1.
         21    1    1    2  505  504 -0.51006928061E+02 -0.87553950412E+02 -0.24229836094E+02  0.10418486406E+03  0.00000000000E+00 0.  1.
         21    1    1    2  506  503 -0.49415700983E+02 -0.13343235430E+02  0.16272931584E+03  0.17058951805E+03  0.00000000000E+00 0.  1.
<scales pt_clust_3="14000.00000" pt_clust_4="43.08326" pt_clust_5="100.35830" pt_clust_6="41.35983"></scales>
<clustering>
<clus scale="   43.083">  1  4  2 -1</clus>
<clus scale="   41.360">  1  6  2 -1</clus>
<clus scale="  100.358">  2  5  1 -1</clus>
<clus scale="   43.083">  1  3  2 -1</clus>
</clustering>
</event>
<event>
 6    0  0.4227619E+002  0.1986228E+03  0.7546771E-02  0.1150906E+00
         21   -1    0    0  505  501  0.00000000000E+00  0.00000000000E+00  0.27520550520E+03  0.27520550520E+03  0.00000000000E+00 0.  1.
         21   -1    0    0  506  502 -0.00000000000E+00 -0.00000000000E+00 -0.12989470212E+04  0.12989470212E+04  0.00000000000E+00 0.  1.
         21    1    1    2  503  502  0.60973354665E+02 -0.65206518232E+02 -0.41736257983E+03  0.42680342436E+03  0.00000000000E+00 0.  1.
         21    1    1    2  504  503  0.87654127218E+02 -0.61134091017E+02 -0.29124560417E+03  0.31023317851E+03  0.00000000000E+00 0.  1.
         21    1    1    2  505  504 -0.11369628426E+03  0.15326112854E+03  0.22509002023E+03  0.29509546893E+03  0.00000000000E+00 0.  1.
         21    1    1    2  506  501 -0.34931197617E+02 -0.26920519287E+02 -0.54022335221E+03  0.54202045459E+03  0.00000000000E+00 0.  1.
<scales pt_clust_3="51.68046" pt_clust_4="51.68046" pt_clust_5="190.80281" pt_clust_6="44.10105"></scales>
<clustering>
<clus scale="   44.101">  2  6  1 -1</clus>
<clus scale="   51.680">  3  4 -1 -1</clus>
<clus scale="  190.803">  1  5  2 -1</clus>
<clus scale="  190.803">  1  3  2 -1</clus>
</clustering>
</event>
<event>
 6    0  0.4227619E+002  0.1130387E+03  0.7546771E-02  0.1255044E+00
         21   -1    0    0  505  501  0.00000000000E+00  0.00000000000E+00  0.48417212956E+03  0.48417212956E+03  0.00000000000E+00 0. -1.
         21   -1    0    0  504  502 -0.00000000000E+00 -0.00000000000E+00 -0.49795642262E+03  0.49795642262E+03  0.00000000000E+00 0. -1.
         21    1    1    2  503  501 -0.57720767069E+00 -0.62305546698E+02  0.29645757688E+03  0.30293466161E+03  0.00000000000E+00 0. -1.
         21    1    1    2  504  503 -0.63962466658E+02  0.30816286379E+02 -0.41578437432E+03  0.42180266307E+03  0.00000000000E+00 0. -1.
         21    1    1    2  505  506  0.95679092463E+02 -0.83456191527E+01  0.15776677663E+03  0.18470109339E+03  0.00000000000E+00 0. -1.
         21    1    1    2  506  502 -0.31139418135E+02  0.39834879472E+02 -0.52224272253E+02  0.72690134108E+02  0.00000000000E+00 0.  1.
<scales pt_clust_3="62.01459" pt_clust_4="113.03871" pt_clust_5="14000.00000" pt_clust_6="50.56166"></scales>
<clustering>
<clus scale="   50.562">  2  6  1 -1</clus>
<clus scale="   62.015">  1  3  2 -1</clus>
<clus scale="  113.039">  2  4  1 -1</clus>
<clus scale="   62.015">  1  3  2 -1</clus>
</clustering>
</event>
<event>
 6    0  0.4227619E+002  0.1482537E+03  0.7546771E-02  0.1202635E+00
         21   -1    0    0  504  501  0.00000000000E+00  0.00000000000E+00  0.68893784424E+03  0.68893784424E+03  0.00000000000E+00 0. -1.
         21   -1    0    0  506  502 -0.00000000000E+00 -0.00000000000E+00 -0.40381260283E+03  0.40381260283E+03  0.00000000000E+00 0.  1.
         21    1    1    2  503  502  0.21760546272E+03 -0.39181641819E+02 -0.78266122739E+02  0.23454834135E+03  0.00000000000E+00 0.  1.
         21    1    1    2  504  503 -0.14328212159E+03  0.12799445936E+02  0.53194983670E+03  0.55105736630E+03  0.00000000000E+00 0. -1.
         21    1    1    2  505  501 -0.10241546986E+03  0.63795185813E+02  0.11406604738E+02  0.12119762717E+03  0.00000000000E+00 0.  1.
         21    1    1    2  506  505  0.28092128741E+02 -0.37412989930E+02 -0.17996507728E+03  0.18594711225E+03  0.00000000000E+00 0.  1.
<scales pt_clust_3="148.25368" pt_clust_4="14000.00000" pt_clust_5="109.89657" pt_clust_6="46.78568"></scales>
<clustering>
<clus scale="   46.786">  2  6  1 -1</clus>
<clus scale="  109.897">  2  5  1 -1</clus>
<clus scale="  148.254">  2  3  1 -1</clus>
<clus scale="  148.254">  1  3  2 -1</clus>
</clustering>
</event>
<event>
 6    0  0.4227619E+002  0.1111349E+03  0.7546771E-02  0.1258483E+00
         21   -1    0    0  506  501  0.00000000000E+00  0.00000000000E+00  0.11394466536E+04  0.11394466536E+04  0.00000000000E+00 0.  1.
         21   -1    0    0  503  502 -0.00000000000E+00 -0.00000000000E+00 -0.19469190269E+03  0.19469190269E+03  0.00000000000E+00 0.  1.
         21    1    1    2  503  504  0.69837423057E+00  0.32834917622E+02 -0.23421823567E+02  0.40338584023E+02  0.00000000000E+00 0.  1.
         21    1    1    2  504  505  0.78143570257E+02 -0.10967627159E+03 -0.12572914658E+03  0.18423658818E+03  0.00000000000E+00 0.  1.
         21    1    1    2  505  501 -0.40006272675E+02  0.11410202294E+03  0.90828654693E+03  0.91629920050E+03  0.00000000000E+00 0.  1.
         21    1    1    2  506  502 -0.38835671813E+02 -0.37260668969E+02  0.18561917409E+03  0.19326418356E+03  0.00000000000E+00 0.  1.
<scales pt_clust_3="32.84234" pt_clust_4="111.13486" pt_clust_5="14000.00000" pt_clust_6="53.27701"></scales>
<clustering>
<clus scale="   32.842">  2  3  1 -1</clus>
<clus scale="   53.277">  1  6  2 -1</clus>
<clus scale="  111.135">  2  4  1 -1</clus>
<clus scale="   53.277">  1  3  2 -1</clus>
</clustering>
</event>
<event>
 6    0  0.4227619E+002  0.7867301E+02  0.7546771E-02  0.1332860E+00
         21   -1    0    0  503  501  0.00000000000E+00  0.00000000000E+00  0.94730548569E+02  0.94730548569E+02  0.00000000000E+00 0. -1.
         21   -1    0    0  504  502 -0.00000000000E+00 -0.00000000000E+00 -0.43476143276E+03  0.43476143276E+03  0.00000000000E+00 0.  1.
         21    1    1    2  503  506  0.62888946886E+02  0.50193012950E+01 -0.90426549820E+02  0.11025957527E+03  0.00000000000E+00 0. -1.
         21    1    1    2  504  505 -0.74868389880E+02 -0.77658054272E+02 -0.93685875130E+02  0.14287439377E+03  0.00000000000E+00 0.  1.
         21    1    1    2  505  501 -0.22222873188E+02  0.49972605426E+02  0.45289627338E+02  0.71008927116E+02  0.00000000000E+00 0. -1.
         21    1    1    2  506  502  0.34202316181E+02  0.22666147551E+02 -0.20120808658E+03  0.20534908518E+03  0.00000000000E+00 0. -1.
<scales pt_clust_3="78.67301" pt_clust_4="14000.00000" pt_clust_5="55.11545" pt_clust_6="41.03112"></scales>
<clustering>
<clus scale="   41.031">  2  6  1 -1</clus>
<clus scale="   55.115">  1  5  2 -1</clus>
<clus scale="   78.673">  2  3  1 -1</clus>
<clus scale="   55.115">  1  3  2 -1</clus>
</clustering>
</event>
<event>
 6    0  0.4227619E+002  0.8382504E+02  0.7546771E-02  0.1318534E+00
         21   -1    0    0  506  501  0.00000000000E+00  0.00000000000E+00  0.26180175826E+02  0.26180175826E+02  0.00000000000E+00 0. -1.
         21   -1    0    0  505  502 -0.00000000000E+00 -0.00000000000E+00 -0.74003990947E+03  0.74003990947E+03  0.00000000000E+00 0. -1.
         21    1    1    2  503  504 -0.88582585714E+02  0.66683496635E+02 -0.29436998672E+03  0.31455882168E+03  0.00000000000E+00 0. -1.
         21    1    1    2  504  502  0.44287612152E+02 -0.57760472935E+02 -0.28817676103E+03  0.29722636226E+03  0.00000000000E+00 0. -1.
         21    1    1    2  505  501  0.17322171044E+02  0.28681081827E+02 -0.70114011143E+02  0.77708665044E+02  0.00000000000E+00 0. -1.
         21    1    1    2  506  503  0.26972802518E+02 -0.37604105526E+02 -0.61198974749E+02  0.76726236311E+02  0.00000000000E+00 0. -1.
<scales pt_clust_3="83.82504" pt_clust_4="14000.00000" pt_clust_5="33.50615" pt_clust_6="43.04186"></scales>
<clustering>
<clus scale="   33.506">  1  5  2 -1</clus>
<clus scale="   43.042">  1  6  2 -1</clus>
<clus scale="   83.825">  1  3  2 -1</clus>
<clus scale="   33.506">  1  3  2 -1</clus>
</clustering>
</event>
<event>
 6    0  0.4227619E+002  0.9683478E+02  0.7546771E-02  0.1287096E+00
         21   -1    0    0  505  501  0.00000000000E+00  0.00000000000E+00  0.24740545596E+03  0.24740545596E+03  0.00000000000E+00 0. -1.
         21   -1    0    0  506  502 -0.00000000000E+00 -0.00000000000E+00 -0.12166376960E+04  0.12166376960E+04  0.00000000000E+00 0.  1.
         21    1    1    2  503  502 -0.84562286622E+01 -0.10529610577E+03  0.16911376339E+03  0.19939469066E+03  0.00000000000E+00 0. -1.
         21    1    1    2  504  501  0.25490786134E+02  0.40849083374E+02  0.24867194974E+02  0.54192298126E+02  0.00000000000E+00 0.  1.
         21    1    1    2  505  503 -0.28385038847E+02 -0.31624527179E+02  0.72847740687E+00  0.42501197971E+02  0.00000000000E+00 0.  1.
         21    1    1    2  506  504  0.11350481375E+02  0.96071549574E+02 -0.11639416758E+04  0.11679549652E+04  0.00000000000E+00 0.  1.
<scales pt_clust_3="14000.00000" pt_clust_4="40.84235" pt_clust_5="42.49495" pt_clust_6="96.83478"></scales>
<clustering>
<clus scale="   42.495">  1  5  2 -1</clus>
<clus scale="   40.842">  1  4  2 -1</clus>
<clus scale="   96.835">  2  6  1 -1</clus>
<clus scale="   42.495">  1  3  2 -1</clus>
</clustering>
</event>
<event>
 6    0  0.4227619E+002  0.8764410E+02  0.7546771E-02  0.1308659E+00
         21   -1    0    0  506  501  0.00000000000E+00  0.00000000000E+00  0.25946098196E+03  0.25946098196E+03  0.00000000000E+00 0.  1.
         21   -1    0    0  504  502 -0.00000000000E+00 -0.00000000000E+00 -0.12942668327E+04  0.12942668327E+04  0.00000000000E+00 0. -1.
         21    1    1    2  503  501 -0.95476987234E+02  0.81369566076E+02 -0.17197815766E+03  0.21286932162E+03  0.00000000000E+00 0. -1.
         21    1    1    2  504  503  0.23363746565E+02 -0.82739514657E+02 -0.10199111293E+04  0.10235284088E+04  0.00000000000E+00 0. -1.
         21    1    1    2  505  502  0.99971007749E+02 -0.41454683939E+02 -0.38741731322E+02  0.11495048915E+03  0.00000000000E+00 0. -1.
         21    1    1    2  506  505 -0.27857767079E+02  0.42824632520E+02  0.19582516746E+03  0.20237959518E+03  0.00000000000E+00 0.  1.
<scales pt_clust_3="14000.00000" pt_clust_4="87.64410" pt_clust_5="83.63678" pt_clust_6="51.08820"></scales>
<clustering>
<clus scale="   51.088">  1  6  2 -1</clus>
<clus scale="   83.637">  1  5  2 -1</clus>
<clus scale="   87.644">  2  4  1 -1</clus>
<clus scale="   51.088">  1  3  2 -1</clus>
</clustering>
</event>
<event>
 6    0  0.4227619E+002  0.8624653E+02  0.7546771E-02  0.1312205E+00
         21   -1    0    0  505  501  0.00000000000E+00  0.00000000000E+00  0.44599496919E+03  0.44599496919E+03  0.00000000000E+00 0. -1.
         21   -1    0    0  503  502 -0.00000000000E+00 -0.00000000000E+00 -0.11343235434E+04  0.11343235434E+04  0.00000000000E+00 0. -1.
         21    1    1    2  503  506  0.18567200020E+02  0.25484649120E+02 -0.11528097584E+03  0.11951531972E+03  0.00000000000E+00 0. -1.
         21    1    1    2  504  502  0.59682537978E+02 -0.68331167963E+02 -0.98348119457E+03  0.98765703254E+03  0.00000000000E+00 0. -1.
         21    1    1    2  505  504 -0.59819556031E+01  0.76933505886E+02  0.37981930050E+03  0.38757870060E+03  0.00000000000E+00 0. -1.
         21    1    1    2  506  501 -0.72267782395E+02 -0.34086987043E+02  0.30614295724E+02  0.85567459707E+02  0.00000000000E+00 0. -1.
<scales pt_clust_3="31.53107" pt_clust_4="14000.00000" pt_clust_5="77.25720" pt_clust_6="86.24653"></scales>
<clustering>
<clus scale="   31.531">  2  3  1 -1</clus>
<clus scale="   77.257">  1  5  2 -1</clus>
<clus scale="   86.247">  1  6  2 -1</clus>
<clus scale="   77.257">  1  3  2 -1</clus>
</clustering>
</event>
<event>
 6    0  0.4227619E+002  0.2332379E+03  0.7546771E-02  0.1124381E+00
         21   -1    0    0  504  501  0.00000000000E+00  0.00000000000E+00  0.56996222898E+03  0.56996222898E+03  0.00000000000E+00 0.  1.
         21   -1    0    0  505  502 -0.00000000000E+00 -0.00000000000E+00 -0.31505267097E+03  0.31505267097E+03  0.00000000000E+00 0.  1.
         21    1    1    2  503  502  0.66521962323E+01 -0.70087113564E+02 -0.43920912265E+02  0.82978923449E+02  0.00000000000E+00 0.  1.
         21    1    1    2  504  506  0.52231802066E+02 -0.44133187469E+02  0.39841967371E+03  0.40424514317E+03  0.00000000000E+00 0.  1.
         21    1    1    2  505  501 -0.11475400480E+03  0.22212428863E+03 -0.11520477038E+03  0.27528134759E+03  0.00000000000E+00 0.  1.
         21    1    1    2  506  503  0.55870006500E+02 -0.10790398759E+03  0.15615566954E+02  0.12250948574E+03  0.00000000000E+00 0.  1.
<scales pt_clust_3="58.14145" pt_clust_4="68.38055" pt_clust_5="220.37574" pt_clust_6="58.14145"></scales>
<clustering>
<clus scale="   58.141">  3  6 -1 -1</clus>
<clus scale="   68.381">  1  4  2 -1</clus>
<clus scale="  220.376">  2  5  1 -1</clus>
<clus scale="   68.381">  1  3  2 -1</clus>
</clustering>
</event>
<event>
 6    0  0.4227619E+002  0.9435784E+02  0.7546771E-02  0.1292629E+00
         21   -1    0    0  506  501  0.00000000000E+00  0.00000000000E+00  0.17371518199E+03  0.17371518199E+03  0.00000000000E+00 0.  1.
         21   -1    0    0  504  502 -0.00000000000E+00 -0.00000000000E+00 -0.89921859062E+03  0.89921859062E+03  0.00000000000E+00 0. -1.
         21    1    1    2  503  501  0.42381343615E+02 -0.87903503132E+02  0.14837927120E+03  0.17759395336E+03  0.00000000000E+00 0.  1.
         21    1    1    2  504  503 -0.22959688636E+02  0.39161134682E+02 -0.32616292743E+03  0.32930684324E+03  0.00000000000E+00 0.  1.
         21    1    1    2  505  502  0.53690995641E+02  0.39894627316E+02 -0.31142119064E+03  0.31852388024E+03  0.00000000000E+00 0. -1.
         21    1    1    2  506  505 -0.73112650619E+02  0.88477411337E+01 -0.23629856175E+03  0.24750909577E+03  0.00000000000E+00 0. -1.
<scales pt_clust_3="94.35784" pt_clust_4="45.39539" pt_clust_5="73.91611" pt_clust_6="14000.00000"></scales>
<clustering>
<clus scale="   45.395">  2  4  1 -1</clus>
<clus scale="   73.916">  2  5  1 -1</clus>
<clus scale="   94.358">  1  3  2 -1</clus>
<clus scale="   94.358">  1  3  2 -1</clus>
</clustering>
</event>
<event>
 6    0  0.4227619E+002  0.6459414E+02  0.7546771E-02  0.1379505E+00
         21   -1    0    0  506  501  0.00000000000E+00  0.00000000000E+00  0.11632283142E+04  0.11632283142E+04  0.00000000000E+00 0.  1.
         21   -1    0    0  505  502 -0.00000000000E+00 -0.00000000000E+00 -0.47160460330E+02  0.47160460330E+02  0.00000000000E+00 0.  1.
         21    1    1    2  503  502  0.35206531640E+02 -0.54109683976E+02  0.11590016884E+02  0.65587241606E+02  0.00000000000E+00 0.  1.
         21    1    1    2  504  501  0.45177726693E+02 -0.18456118716E+02  0.79556064949E+03  0.79705608480E+03  0.00000000000E+00 0.  1.
         21    1    1    2  505  504 -0.79696657149E+02 -0.19089569242E+01  0.11421669522E+03  0.13928623315E+03  0.00000000000E+00 0.  1.
         21    1    1    2  506  503 -0.68760118467E+00  0.74474759616E+02  0.19470049230E+03  0.20845921500E+03  0.00000000000E+00 0.  1.
<scales pt_clust_3="14000.00000" pt_clust_4="48.80221" pt_clust_5="64.62337" pt_clust_6="64.59414"></scales>
<clustering>
<clus scale="   48.802">  1  4  2 -1</clus>
<clus scale="   64.623">  1  5  2 -1</clus>
<clus scale="   64.594">  1  6  2 -1</clus>
<clus scale="   48.802">  1  3  2 -1</clus>
</clustering>
</event>
<event>
 6    0  0.4227619E+002  0.8302488E+02  0.7546771E-02  0.1320680E+00
         21   -1    0    0  504  501  0.00000000000E+00  0.00000000000E+00  0.73457978567E+02  0.73457978567E+02  0.00000000000E+00 0. -1.
         21   -1    0    0  506  502 -0.00000000000E+00 -0.00000000000E+00 -0.10504899141E+04  0.10504899141E+04  0.00000000000E+00 0. -1.
         21    1    1    2  503  502  0.29471290854E+02  0.22312109022E+02 -0.66047763890E+02  0.75688138493E+02  0.00000000000E+00 0. -1.
         21    1    1    2  504  503 -0.34497710915E+02  0.34553914441E+02 -0.23209397711E+03  0.23717436471E+03  0.00000000000E+00 0. -1.
         21    1    1    2  505  501 -0.82095544141E+02  0.89858611902E+01  0.34414133843E+02  0.89469305783E+02  0.00000000000E+00 0. -1.
         21    1    1    2  506  505  0.87121964202E+02 -0.65851884654E+02 -0.71330432839E+03  0.72161608370E+03  0.00000000000E+00 0. -1.
<scales pt_clust_3="36.96467" pt_clust_4="48.42255" pt_clust_5="83.02488" pt_clust_6="14000.00000"></scales>
<clustering>
<clus scale="   36.965">  2  3  1 -1</clus>
<clus scale="   48.423">  2  4  1 -1</clus>
<clus scale="   83.025">  1  5  2 -1</clus>
<clus scale="   83.025">  1  3  2 -1</clus>
</clustering>
</event>
<event>
 6    0  0.4227619E+002  0.8970761E+02  0.7546771E-02  0.1303561E+00
         21   -1    0    0  504  501  0.00000000000E+00  0.00000000000E+00  0.40711868187E+02  0.40711868187E+02  0.00000000000E+00 0. -1.
         21   -1    0    0  505  502 -0.00000000000E+00 -0.00000000000E+00 -0.12819465713E+04  0.12819465713E+04  0.00000000000E+00 0. -1.
         21    1    1    2  503  506  0.26967990338E+02  0.61842325315E+02 -0.54234079239E+02  0.86562584609E+02  0.00000000000E+00 0. -1.
         21    1    1    2  504  502 -0.22768683549E+02  0.28652895857E+02 -0.50897481033E+03  0.51028889753E+03  0.00000000000E+00 0. -1.
         21    1    1    2  505  503  0.71080296576E+01 -0.11973781802E+03 -0.68353012358E+03  0.69397485472E+03  0.00000000000E+00 0. -1.
         21    1    1    2  506  501 -0.11307336447E+02  0.29242596849E+02  0.55043100420E+01  0.31832102617E+02  0.00000000000E+00 0. -1.
<scales pt_clust_3="89.70761" pt_clust_4="37.49095" pt_clust_5="14000.00000" pt_clust_6="31.35260"></scales>
<clustering>
<clus scale="   31.353">  1  6  2 -1</clus>
<clus scale="   37.491">  2  4  1 -1</clus>
<clus scale="   89.708">  1  3  2 -1</clus>
<clus scale="   31.353">  1  3  2 -1</clus>
</clustering>
</event>
<event>
 6    0  0.4227619E+002  0.1390528E+03  0.7546771E-02  0.1214609E+00
         21   -1    0    0  504  501  0.00000000000E+00  0.00000000000E+00  0.83580826908E+02  0.83580826908E+02  0.00000000000E+00 0. -1.
         21   -1    0    0  505  502 -0.00000000000E+00 -0.00000000000E+00 -0.22702002726E+04  0.22702002726E+04  0.00000000000E+00 0. -1.
         21    1    1    2  503  502  0.28296442740E+02 -0.29585405162E+02 -0.12011546323E+03  0.12690039156E+03  0.00000000000E+00 0. -1.
         21    1    1    2  504  503  0.12880082965E+03 -0.52082227468E+02  0.58844053682E+01  0.13905696085E+03  0.00000000000E+00 0. -1.
         21    1    1    2  505  506 -0.44577696617E+02 -0.12918841000E+02 -0.13413823906E+04  0.13421850786E+04  0.00000000000E+00 0. -1.
         21    1    1    2  506  501 -0.11251957577E+03  0.94586473630E+02 -0.73100599721E+03  0.74563866845E+03  0.00000000000E+00 0. -1.
<scales pt_clust_3="40.93879" pt_clust_4="14000.00000" pt_clust_5="41.34959" pt_clust_6="139.05285"></scales>
<clustering>
<clus scale="   40.939">  2  3  1 -1</clus>
<clus scale="   41.350">  2  5  1 -1</clus>
<clus scale="  139.053">  2  6  1 -1</clus>
<clus scale="  139.053">  1  3  2 -1</clus>
</clustering>
</event>
<event>
 6    0  0.4227619E+002  0.1046933E+03  0.7546771E-02  0.1270725E+00
         21   -1    0    0  505  501  0.00000000000E+00  0.00000000000E+00  0.55284584781E+03  0.55284584781E+03  0.00000000000E+00 0.  1.
         21   -1    0    0  501  502 -0.00000000000E+00 -0.00000000000E+00 -0.36878601337E+03  0.36878601337E+03  0.00000000000E+00 0.  1.
         21    1    1    2  503  502  0.39004821673E+02  0.31983868872E+02 -0.16220154775E+03  0.16986372796E+03  0.00000000000E+00 0.  1.
         21    1    1    2  504  503  0.81804954731E+02 -0.95246235323E+01 -0.90718461900E+01  0.82855702672E+02  0.00000000000E+00 0.  1.
         21    1    1    2  505  506  0.95182629639E+02  0.31186723747E+02  0.42426431069E+03  0.43592723022E+03  0.00000000000E+00 0.  1.
         21    1    1    2  506  504 -0.21599240604E+03 -0.53645969087E+02 -0.68931082309E+02  0.23298520034E+03  0.00000000000E+00 0.  1.
<scales pt_clust_3="50.44149" pt_clust_4="90.67579" pt_clust_5="104.69334" pt_clust_6="14000.00000"></scales>
<clustering>
<clus scale="   50.441">  2  3  1 -1</clus>
<clus scale="   90.676">  2  4  1 -1</clus>
<clus scale="  104.693">  1  5  2 -1</clus>
<clus scale="  104.693">  1  3  2 -1</clus>
</clustering>
</event>
<event>
 6    0  0.4227619E+002  0.1300558E+03  0.7546771E-02  0.1227373E+00
         21   -1    0    0  505  501  0.00000000000E+00  0.00000000000E+00  0.46564793838E+03  0.46564793838E+03  0.00000000000E+00 0. -1.
         21   -1    0    0  503  502 -0.00000000000E+00 -0.00000000000E+00 -0.89519362447E+02  0.89519362447E+02  0.00000000000E+00 0.  1.
         21    1    1    2  503  504  0.36195555212E+02 -0.93672744958E+02  0.83417940375E+02  0.13054981479E+03  0.00000000000E+00 0.  1.
         21    1    1    2  504  501  0.32520071905E+02 -0.10906521423E+02  0.28253612194E+03  0.28461055406E+03  0.00000000000E+00 0. -1.
         21    1    1    2  505  506 -0.49046671297E+02  0.20703823733E+02  0.79473839468E+01  0.53827364733E+02  0.00000000000E+00 0.  1.
         21    1    1    2  506  502 -0.19668955821E+02  0.83875442648E+02  0.22271296704E+01  0.86179567236E+02  0.00000000000E+00 0.  1.
<scales pt_clust_3="114.34492" pt_clust_4="34.30025" pt_clust_5="47.10895" pt_clust_6="47.10895"></scales>
<clustering>
<clus scale="   34.300">  1  4  2 -1</clus>
<clus scale="   47.109">  5  6 -1 -1</clus>
<clus scale="  114.345">  1  3  2 -1</clus>
<clus scale="   34.300">  1  3  2 -1</clus>
</clustering>
</event>
<event>
 6    0  0.4227619E+002  0.8651643E+02  0.7546771E-02  0.1311514E+00
         21   -1    0    0  505  501  0.00000000000E+00  0.00000000000E+00  0.85996938611E+03  0.85996938611E+03  0.00000000000E+00 0. -1.
         21   -1    0    0  506  502 -0.00000000000E+00 -0.00000000000E+00 -0.51451623010E+03  0.51451623010E+03  0.00000000000E+00 0. -1.
         21    1    1    2  503  502 -0.24452742465E+02 -0.18035970428E+02 -0.80637934329E+02  0.86172555354E+02  0.00000000000E+00 0. -1.
         21    1    1    2  504  501  0.96854539105E+02  0.80481975540E+02 -0.15069487160E+03  0.19638506679E+03  0.00000000000E+00 0. -1.
         21    1    1    2  505  503 -0.80574346330E+02 -0.30343429036E+02  0.83105857090E+03  0.83550661113E+03  0.00000000000E+00 0. -1.
         21    1    1    2  506  504  0.81725496903E+01 -0.32102576077E+02 -0.25427260896E+03  0.25642138294E+03  0.00000000000E+00 0. -1.
<scales pt_clust_3="30.38475" pt_clust_4="86.51643" pt_clust_5="14000.00000" pt_clust_6="43.24820"></scales>
<clustering>
<clus scale="   30.385">  2  3  1 -1</clus>
<clus scale="   43.248">  2  6  1 -1</clus>
<clus scale="   86.516">  2  4  1 -1</clus>
<clus scale="   86.516">  1  3  2 -1</clus>
</clustering>
</event>
<event>
 6    0  0.4227619E+002  0.8637849E+02  0.7546771E-02  0.1311867E+00
         21   -1    0    0  506  501  0.00000000000E+00  0.00000000000E+00  0.10207112135E+04  0.10207112135E+04  0.00000000000E+00 0.  1.
         21   -1    0    0  505  502 -0.00000000000E+00 -0.00000000000E+00 -0.39166810256E+02  0.39166810256E+02  0.00000000000E+00 0.  1.
         21    1    1    2  503  504  0.54919981964E+02 -0.27667078855E+02  0.26904682339E+03  0.27598526201E+03  0.00000000000E+00 0.  1.
         21    1    1    2  504  502  0.39650919249E+02  0.17126501721E+02  0.31841266648E+02  0.53659842715E+02  0.00000000000E+00 0.  1.
         21    1    1    2  505  501 -0.13142464180E+03 -0.28553411642E+02  0.17004024454E+03  0.21679810551E+03  0.00000000000E+00 0.  1.
         21    1    1    2  506  503  0.36853740588E+02  0.39093988777E+02  0.51061606868E+03  0.51343481353E+03  0.00000000000E+00 0.  1.
<scales pt_clust_3="86.37849" pt_clust_4="43.19158" pt_clust_5="14000.00000" pt_clust_6="55.71116"></scales>
<clustering>
<clus scale="   43.192">  2  4  1 -1</clus>
<clus scale="   55.711">  1  6  2 -1</clus>
<clus scale="   86.378">  1  3  2 -1</clus>
<clus scale="   55.711">  1  3  2 -1</clus>
</clustering>
</event>
<event>
 6    0  0.4227619E+002  0.1306308E+03  0.7546771E-02  0.1226523E+00
         21   -1    0    0  505  501  0.00000000000E+00  0.00000000000E+00  0.20216671452E+04  0.20216671452E+04  0.00000000000E+00 0. -1.
         21   -1    0    0  506  502 -0.00000000000E+00 -0.00000000000E+00 -0.10981661905E+03  0.10981661905E+03  0.00000000000E+00 0. -1.
         21    1    1    2  503  502 -0.13147410816E+03  0.78856935753E+02  0.10429333595E+04  0.10541412855E+04  0.00000000000E+00 0. -1.
         21    1    1    2  504  501 -0.18215113451E+02 -0.28807018054E+02  0.72741634534E+02  0.80330442809E+02  0.00000000000E+00 0.  1.
         21    1    1    2  505  503  0.54411421500E+02  0.38153836341E+02  0.85278487604E+03  0.85537030742E+03  0.00000000000E+00 0. -1.
         21    1    1    2  506  504  0.95277800117E+02 -0.88203754040E+02 -0.56609343967E+02  0.14164172848E+03  0.00000000000E+00 0. -1.
<scales pt_clust_3="130.63081" pt_clust_4="34.08276" pt_clust_5="52.95959" pt_clust_6="14000.00000"></scales>
<clustering>
<clus scale="   34.083">  1  4  2 -1</clus>
<clus scale="   52.960">  1  5  2 -1</clus>
<clus scale="  130.631">  1  3  2 -1</clus>
<clus scale="   34.083">  1  3  2 -1</clus>
</clustering>
</event>
<event>
 6    0  0.4227619E+002  0.2762772E+03  0.7546771E-02  0.1097740E+00
         21   -1    0    0  503  501  0.00000000000E+00  0.00000000000E+00  0.25389514351E+03  0.25389514351E+03  0.00000000000E+00 0.  1.
         21   -1    0    0  506  502 -0.00000000000E+00 -0.00000000000E+00 -0.11376466341E+04  0.11376466341E+04  0.00000000000E+00 0. -1.
         21    1    1    2  503  505 -0.22992281780E+02  0.28826200099E+02  0.25547073545E+02  0.44858085116E+02  0.00000000000E+00 0.  1.
         21    1    1    2  504  502 -0.21636473310E+03 -0.11835796317E+03 -0.58987060785E+03  0.63935095150E+03  0.00000000000E+00 0. -1.
         21    1    1    2  505  504 -0.18780403036E+03  0.36875912836E+01 -0.47556135017E+02  0.19376671057E+03  0.00000000000E+00 0.  1.
         21    1    1    2  506  501  0.42716104524E+03  0.85844171791E+02 -0.27187182124E+03  0.51356603041E+03  0.00000000000E+00 0.  1.
<scales pt_clust_3="36.87268" pt_clust_4="14000.00000" pt_clust_5="195.94348" pt_clust_6="276.27716"></scales>
<clustering>
<clus scale="   36.873">  1  3  2 -1</clus>
<clus scale="  195.943">  1  5  2 -1</clus>
<clus scale="  276.277">  1  6  2 -1</clus>
<clus scale="   36.873">  1  3  2 -1</clus>
</clustering>
</event>
<event>
 6    0  0.4227619E+002  0.9995593E+02  0.7546771E-02  0.1280389E+00
         21   -1    0    0  502  501  0.00000000000E+00  0.00000000000E+00  0.19725011771E+03  0.19725011771E+03  0.00000000000E+00 0.  1.
         21   -1    0    0  504  502 -0.00000000000E+00 -0.00000000000E+00 -0.73858536614E+03  0.73858536614E+03  0.00000000000E+00 0.  1.
         21    1    1    2  503  506 -0.71088384436E+01  0.64050917125E+02 -0.25843703603E+03  0.26635081596E+03  0.00000000000E+00 0.  1.
         21    1    1    2  504  505 -0.35757837913E+02  0.67109374736E+01 -0.86848895517E+02  0.94161511811E+02  0.00000000000E+00 0. -1.
         21    1    1    2  505  503  0.69049689971E+02  0.27900807933E+02 -0.36794334185E+03  0.37540460516E+03  0.00000000000E+00 0.  1.
         21    1    1    2  506  501 -0.26183013614E+02 -0.98662662532E+02  0.17189402497E+03  0.19991855091E+03  0.00000000000E+00 0.  1.
<scales pt_clust_3="99.95593" pt_clust_4="36.38213" pt_clust_5="58.00357" pt_clust_6="14000.00000"></scales>
<clustering>
<clus scale="   36.382">  2  4  1 -1</clus>
<clus scale="   58.004">  2  5  1 -1</clus>
<clus scale="   99.956">  2  3  1 -1</clus>
<clus scale="   99.956">  1  3  2 -1</clus>
</clustering>
</event>
<event>
 6    0  0.4227619E+002  0.1067931E+03  0.7546771E-02  0.1266626E+00
         21   -1    0    0  506  501  0.00000000000E+00  0.00000000000E+00  0.12287099682E+03  0.12287099682E+03  0.00000000000E+00 0. -1.
         21   -1    0    0  504  502 -0.00000000000E+00 -0.00000000000E+00 -0.33338081090E+03  0.33338081090E+03  0.00000000000E+00 0. -1.
         21    1    1    2  503  502  0.33038398681E+02  0.27288266904E+02 -0.30084061205E+02  0.52356814614E+02  0.00000000000E+00 0. -1.
         21    1    1    2  504  505 -0.63638247647E+02  0.42080667619E+00 -0.16637145568E+03  0.17812766463E+03  0.00000000000E+00 0. -1.
         21    1    1    2  505  501 -0.89038908156E+02  0.26538647959E+02  0.49254610030E+01  0.93040244880E+02  0.00000000000E+00 0. -1.
         21    1    1    2  506  503  0.11963875712E+03 -0.54247721539E+02 -0.18979758201E+02  0.13272708359E+03  0.00000000000E+00 0. -1.
<scales pt_clust_3="42.85073" pt_clust_4="47.14484" pt_clust_5="106.79310" pt_clust_6="14000.00000"></scales>
<clustering>
<clus scale="   42.851">  2  3  1 -1</clus>
<clus scale="   47.145">  2  4  1 -1</clus>
<clus scale="  106.793">  1  5  2 -1</clus>
<clus scale="  106.793">  1  3  2 -1</clus>
</clustering>
</event>
<event>
 6    0  0.4227619E+002  0.1163356E+03  0.7546771E-02  0.1249268E+00
         21   -1    0    0  506  501  0.00000000000E+00  0.00000000000E+00  0.23028467737E+03  0.23028467737E+03  0.00000000000E+00 0.  1.
         21   -1    0    0  505  502 -0.00000000000E+00 -0.00000000000E+00 -0.15151369713E+04  0.15151369713E+04  0.00000000000E+00 0.  1.
         21    1    1    2  503  501  0.13735089781E+03 -0.28831000872E+02  0.18010496124E+03  0.22832935160E+03  0.00000000000E+00 0.  1.
         21    1    1    2  504  502 -0.15486449690E+02 -0.10133699387E+03 -0.60754506386E+03  0.61613311960E+03  0.00000000000E+00 0.  1.
         21    1    1    2  505  503 -0.74614164722E+02  0.13836824526E+03 -0.83193058182E+03  0.84665313903E+03  0.00000000000E+00 0.  1.
         21    1    1    2  506  504 -0.47250283398E+02 -0.82002505231E+01 -0.25481609498E+02  0.54306038453E+02  0.00000000000E+00 0.  1.
<scales pt_clust_3="99.61457" pt_clust_4="14000.00000" pt_clust_5="116.33563" pt_clust_6="47.95658"></scales>
<clustering>
<clus scale="   47.957">  1  6  2 -1</clus>
<clus scale="   99.615">  1  3  2 -1</clus>
<clus scale="  116.336">  1  5  2 -1</clus>
<clus scale="   47.957">  1  3  2 -1</clus>
</clustering>
</event>
<event>
 6    0  0.4227619E+002  0.1032899E+03  0.7546771E-02  0.1273526E+00
         21   -1    0    0  506  501  0.00000000000E+00  0.00000000000E+00  0.30086460248E+03  0.30086460248E+03  0.00000000000E+00 0.  1.
         21   -1    0    0  505  502 -0.00000000000E+00 -0.00000000000E+00 -0.38237659493E+03  0.38237659493E+03  0.00000000000E+00 0. -1.
         21    1    1    2  503  502 -0.26214929469E+02  0.41956983536E+02 -0.16187088879E+03  0.16926250510E+03  0.00000000000E+00 0. -1.
         21    1    1    2  504  503 -0.42939605362E+02 -0.11305770648E+03 -0.15218485801E+03  0.19438643397E+03  0.00000000000E+00 0. -1.
         21    1    1    2  505  501  0.38756802278E+02 -0.26553778341E+02 -0.16953120181E+02  0.49945982329E+02  0.00000000000E+00 0.  1.
         21    1    1    2  506  504  0.30397732553E+02  0.97654501287E+02  0.24949687453E+03  0.26964627601E+03  0.00000000000E+00 0.  1.
<scales pt_clust_3="30.38205" pt_clust_4="14000.00000" pt_clust_5="46.98077" pt_clust_6="103.28991"></scales>
<clustering>
<clus scale="   46.981">  2  5  1 -1</clus>
<clus scale="   30.382">  2  3  1 -1</clus>
<clus scale="  103.290">  1  6  2 -1</clus>
<clus scale="  103.290">  1  3  2 -1</clus>
</clustering>
</event>
<event>
 6    0  0.4227619E+002  0.9909289E+02  0.7546771E-02  0.1282215E+00
         21   -1    0    0  504  501  0.00000000000E+00  0.00000000000E+00  0.10225867858E+04  0.10225867858E+04  0.00000000000E+00 0.  1.
         21   -1    0    0  506  502 -0.00000000000E+00 -0.00000000000E+00 -0.63870191836E+02  0.63870191836E+02  0.00000000000E+00 0. -1.
         21    1    1    2  503  502 -0.14995823186E+03 -0.54018325460E+01  0.89415695420E+02  0.17467632262E+03  0.00000000000E+00 0. -1.
         21    1    1    2  504  503  0.90521652293E+02 -0.56390147758E+02  0.48178624303E+03  0.49344908782E+03  0.00000000000E+00 0.  1.
         21    1    1    2  505  501 -0.17955398531E+01  0.62981499561E+02  0.32411434054E+03  0.33018176660E+03  0.00000000000E+00 0.  1.
         21    1    1    2  506  505  0.61232119423E+02 -0.11895192574E+01  0.63400314959E+02  0.88149800578E+02  0.00000000000E+00 0.  1.
<scales pt_clust_3="14000.00000" pt_clust_4="99.09289" pt_clust_5="62.93751" pt_clust_6="61.24367"></scales>
<clustering>
<clus scale="   61.244">  2  6  1 -1</clus>
<clus scale="   62.938">  1  5  2 -1</clus>
<clus scale="   99.093">  1  4  2 -1</clus>
<clus scale="   62.938">  1  3  2 -1</clus>
</clustering>
</event>
<event>
 6    0  0.4227619E+002  0.1026313E+03  0.7546771E-02  0.1274858E+00
         21   -1    0    0  503  501  0.00000000000E+00  0.00000000000E+00  0.21433631588E+04  0.21433631588E+04  0.00000000000E+00 0.  1.
         21   -1    0    0  506  502 -0.00000000000E+00 -0.00000000000E+00 -0.45149808563E+02  0.45149808563E+02  0.00000000000E+00 0.  1.
         21    1    1    2  503  505 -0.82915267881E+02  0.77285752178E+02  0.49306050439E+03  0.50592162449E+03  0.00000000000E+00 0.  1.
         21    1    1    2  504  501  0.44622083530E+02  0.18829288859E+02  0.14737455287E+04  0.14745411339E+04  0.00000000000E+00 0.  1.
         21    1    1    2  505  502 -0.40906094824E+02 -0.32499397864E+02  0.76323056941E+02  0.92491775181E+02  0.00000000000E+00 0.  1.
         21    1    1    2  506  504  0.79199279175E+02 -0.63615643173E+02  0.55084260209E+02  0.11555843371E+03  0.00000000000E+00 0.  1.
<scales pt_clust_3="14000.00000" pt_clust_4="48.43214" pt_clust_5="46.38989" pt_clust_6="102.63133"></scales>
<clustering>
<clus scale="   48.432">  1  4  2 -1</clus>
<clus scale="   46.390">  2  5  1 -1</clus>
<clus scale="  102.631">  2  6  1 -1</clus>
<clus scale="   48.432">  1  3  2 -1</clus>
</clustering>
</event>
<event>
 6    0  0.4227619E+002  0.1215139E+03  0.7546771E-02  0.1240620E+00
         21   -1    0    0  504  501  0.00000000000E+00  0.00000000000E+00  0.70798138041E+02  0.70798138041E+02  0.00000000000E+00 0.  1.
         21   -1    0    0  503  502 -0.00000000000E+00 -0.00000000000E+00 -0.52069299203E+03  0.52069299203E+03  0.00000000000E+00 0.  1.
         21    1    1    2  503  506 -0.22775096859E+02 -0.33664701329E+02 -0.31756931476E+03  0.32015978328E+03  0.00000000000E+00 0.  1.
         21    1    1    2  504  505 -0.23631599907E+02  0.27689763620E+02  0.37827594744E+01  0.36598972564E+02  0.00000000000E+00 0. -1.
         21    1    1    2  505  502 -0.43834704124E+02  0.68284678319E+02 -0.65761266194E+02  0.10444530966E+03  0.00000000000E+00 0.  1.
         21    1    1    2  506  501  0.90241400891E+02 -0.62309740610E+02 -0.70347032504E+02  0.13028706456E+03  0.00000000000E+00 0.  1.
<scales pt_clust_3="40.64501" pt_clust_4="32.04780" pt_clust_5="32.04780" pt_clust_6="111.69725"></scales>
<clustering>
<clus scale="   32.048">  4  5 -1 -1</clus>
<clus scale="   40.645">  2  3  1 -1</clus>
<clus scale="  111.697">  2  6  1 -1</clus>
<clus scale="  121.514">  1  3  2 -1</clus>
</clustering>
</event>
<event>
 6    0  0.4227619E+002  0.1138327E+03  0.7546771E-02  0.1253633E+00
         21   -1    0    0  503  501  0.00000000000E+00  0.00000000000E+00  0.82574634289E+03  0.82574634289E+03  0.00000000000E+00 0. -1.
         21   -1    0    0  505  502 -0.00000000000E+00 -0.00000000000E+00 -0.10087374962E+04  0.10087374962E+04  0.00000000000E+00 0. -1.
         21    1    1    2  503  504  0.79193797741E+02  0.18925428880E+03  0.59142321724E+03  0.62599541957E+03  0.00000000000E+00 0. -1.
         21    1    1    2  504  506 -0.91022053554E+02 -0.53019453636E+02 -0.58714936606E+03  0.59652364141E+03  0.00000000000E+00 0. -1.
         21    1    1    2  505  501 -0.28719663277E+01 -0.10509766446E+03  0.19852231185E+03  0.22464388611E+03  0.00000000000E+00 0. -1.
         21    1    1    2  506  502  0.14700222141E+02 -0.31137170707E+02 -0.38578731633E+03  0.38732089199E+03  0.00000000000E+00 0. -1.
<scales pt_clust_3="14000.00000" pt_clust_4="113.83269" pt_clust_5="105.78235" pt_clust_6="34.43283"></scales>
<clustering>
<clus scale="   34.433">  2  6  1 -1</clus>
<clus scale="  105.782">  1  5  2 -1</clus>
<clus scale="  113.833">  2  4  1 -1</clus>
<clus scale="  105.782">  1  3  2 -1</clus>
</clustering>
</event>
<event>
 6    0  0.4227619E+002  0.1067875E+03  0.7546771E-02  0.1266637E+00
         21   -1    0    0  503  501  0.00000000000E+00  0.00000000000E+00  0.62565278586E+03  0.62565278586E+03  0.00000000000E+00 0. -1.
         21   -1    0    0  504  502 -0.00000000000E+00 -0.00000000000E+00 -0.62249081929E+02  0.62249081929E+02  0.00000000000E+00 0. -1.
         21    1    1    2  503  502 -0.58432705627E+02  0.98998646346E+02  0.17283138590E+03  0.20757119505E+03  0.00000000000E+00 0. -1.
         21    1    1    2  504  505  0.53370910118E+02 -0.89079816439E+02  0.29200025471E+02  0.10787172582E+03  0.00000000000E+00 0. -1.
         21    1    1    2  505  506 -0.12322910748E+02 -0.45171121796E+02  0.13994088612E+03  0.14756603939E+03  0.00000000000E+00 0. -1.
         21    1    1    2  506  501  0.17384706257E+02  0.35252291889E+02  0.22143140645E+03  0.22489290753E+03  0.00000000000E+00 0. -1.
<scales pt_clust_3="14000.00000" pt_clust_4="106.78753" pt_clust_5="33.14909" pt_clust_6="39.30588"></scales>
<clustering>
<clus scale="   39.306">  1  6  2 -1</clus>
<clus scale="   33.149">  1  5  2 -1</clus>
<clus scale="  106.788">  2  4  1 -1</clus>
<clus scale="   39.306">  1  3  2 -1</clus>
</clustering>
</event>
<event>
 6    0  0.4227619E+002  0.1523196E+03  0.7546771E-02  0.1197651E+00
         21   -1    0    0  503  501  0.00000000000E+00  0.00000000000E+00  0.12905201067E+03  0.12905201067E+03  0.00000000000E+00 0.  1.
         21   -1    0    0  505  502 -0.00000000000E+00 -0.00000000000E+00 -0.88015798309E+03  0.88015798309E+03  0.00000000000E+00 0. -1.
         21    1    1    2  503  502  0.32545150255E+02 -0.36826303324E+02  0.40440627692E+02  0.63645956586E+02  0.00000000000E+00 0.  1.
         21    1    1    2  504  506  0.95141086488E+02  0.55885890070E+02 -0.24885460052E+03  0.27221989503E+03  0.00000000000E+00 0. -1.
         21    1    1    2  505  504  0.47977554231E+02  0.35393216407E+02 -0.47288955670E+03  0.47663304366E+03  0.00000000000E+00 0. -1.
         21    1    1    2  506  501 -0.17566379097E+03 -0.54452803153E+02 -0.69802442897E+02  0.19671109848E+03  0.00000000000E+00 0.  1.
<scales pt_clust_3="49.14635" pt_clust_4="152.31956" pt_clust_5="59.73689" pt_clust_6="14000.00000"></scales>
<clustering>
<clus scale="   49.146">  1  3  2 -1</clus>
<clus scale="   59.737">  2  5  1 -1</clus>
<clus scale="  152.320">  2  4  1 -1</clus>
<clus scale="   49.146">  1  3  2 -1</clus>
</clustering>
</event>
<event>
 6    0  0.4227619E+002  0.1013133E+03  0.7546771E-02  0.1277558E+00
         21   -1    0    0  503  501  0.00000000000E+00  0.00000000000E+00  0.26946275880E+04  0.26946275880E+04  0.00000000000E+00 0.  1.
         21   -1    0    0  504  502 -0.00000000000E+00 -0.00000000000E+00 -0.73916771411E+02  0.73916771411E+02  0.00000000000E+00 0.  1.
         21    1    1    2  503  506 -0.71885086018E+02 -0.13238944762E+03  0.11596467525E+04  0.11693908765E+04  0.00000000000E+00 0.  1.
         21    1    1    2  504  505  0.86222957477E+02  0.18459790693E+02  0.39602739255E+02  0.96661984384E+02  0.00000000000E+00 0.  1.
         21    1    1    2  505  501  0.33268501354E+02  0.81365884507E+02  0.14394050142E+04  0.14420866809E+04  0.00000000000E+00 0.  1.
         21    1    1    2  506  502 -0.47606372814E+02  0.32563772419E+02 -0.17943689356E+02  0.60404817642E+02  0.00000000000E+00 0.  1.
<scales pt_clust_3="14000.00000" pt_clust_4="65.30154" pt_clust_5="101.31325" pt_clust_6="57.67812"></scales>
<clustering>
<clus scale="   57.678">  2  6  1 -1</clus>
<clus scale="   65.302">  2  4  1 -1</clus>
<clus scale="  101.313">  1  5  2 -1</clus>
<clus scale="  101.313">  1  3  2 -1</clus>
</clustering>
</event>
<event>
 6    0  0.4227619E+002  0.1362083E+03  0.7546771E-02  0.1218524E+00
         21   -1    0    0  503  501  0.00000000000E+00  0.00000000000E+00  0.27807344980E+04  0.27807344980E+04  0.00000000000E+00 0.  1.
         21   -1    0    0  504  502 -0.00000000000E+00 -0.00000000000E+00 -0.14053335792E+03  0.14053335792E+03  0.00000000000E+00 0.  1.
         21    1    1    2  503  505 -0.35732391003E+02  0.51090619225E+02  0.16631896478E+04  0.16643577919E+04  0.00000000000E+00 0.  1.
         21    1    1    2  504  506  0.25787450830E+02  0.71119450684E+02 -0.10827447119E+03  0.13208455624E+03  0.00000000000E+00 0.  1.
         21    1    1    2  505  502  0.63513381148E+02  0.33726779762E+02  0.86348977395E+02  0.11237255517E+03  0.00000000000E+00 0.  1.
         21    1    1    2  506  501 -0.53568440975E+02 -0.15593684967E+03  0.99893698617E+03  0.10124529526E+04  0.00000000000E+00 0.  1.
<scales pt_clust_3="62.34625" pt_clust_4="136.20834" pt_clust_5="71.44928" pt_clust_6="14000.00000"></scales>
<clustering>
<clus scale="   62.346">  1  3  2 -1</clus>
<clus scale="   71.449">  2  5  1 -1</clus>
<clus scale="  136.208">  2  4  1 -1</clus>
<clus scale="   62.346">  1  3  2 -1</clus>
</clustering>
</event>
<event>
 6    0  0.4227619E+002  0.1193586E+03  0.7546771E-02  0.1244159E+00
         21   -1    0    0  505  501  0.00000000000E+00  0.00000000000E+00  0.16926427449E+04  0.16926427449E+04  0.00000000000E+00 0.  1.
         21   -1    0    0  504  502 -0.00000000000E+00 -0.00000000000E+00 -0.17239150311E+03  0.17239150311E+03  0.00000000000E+00 0.  1.
         21    1    1    2  503  506  0.13913035446E+03  0.12279597624E+02  0.30178968280E+03  0.33254331552E+03  0.00000000000E+00 0.  1.
         21    1    1    2  504  503  0.33005816254E+02  0.25026783576E+02 -0.93072718472E+02  0.10187371951E+03  0.00000000000E+00 0.  1.
         21    1    1    2  505  502 -0.14046411523E+03 -0.24514122241E+02  0.26377392772E+02  0.14500647126E+03  0.00000000000E+00 0.  1.
         21    1    1    2  506  501 -0.31672055477E+02 -0.12792258959E+02  0.12851568847E+04  0.12856107417E+04  0.00000000000E+00 0.  1.
<scales pt_clust_3="119.35862" pt_clust_4="41.06520" pt_clust_5="14000.00000" pt_clust_6="34.15788"></scales>
<clustering>
<clus scale="   34.158">  1  6  2 -1</clus>
<clus scale="   41.065">  2  4  1 -1</clus>
<clus scale="  119.359">  1  3  2 -1</clus>
<clus scale="   34.158">  1  3  2 -1</clus>
</clustering>
</event>
<event>
 6    0  0.4227619E+002  0.6179256E+02  0.7546771E-02  0.1390460E+00
         21   -1    0    0  506  501  0.00000000000E+00  0.00000000000E+00  0.12476196656E+04  0.12476196656E+04  0.00000000000E+00 0.  1.
         21   -1    0    0  505  502 -0.00000000000E+00 -0.00000000000E+00 -0.25825329798E+02  0.25825329798E+02  0.00000000000E+00 0. -1.
         21    1    1    2  503  504 -0.96906227526E+02 -0.22012123614E+02  0.73846178742E+03  0.74511822015E+03  0.00000000000E+00 0.  1.
         21    1    1    2  504  502  0.69040604154E+02 -0.25703044334E+02  0.62226804074E+02  0.96433534910E+02  0.00000000000E+00 0. -1.
         21    1    1    2  505  501 -0.19925045176E+02  0.35603241081E+02  0.11921383626E+03  0.12600213076E+03  0.00000000000E+00 0.  1.
         21    1    1    2  506  503  0.47790668549E+02  0.12111926866E+02  0.30189190804E+03  0.30589110957E+03  0.00000000000E+00 0. -1.
<scales pt_clust_3="14000.00000" pt_clust_4="61.79256" pt_clust_5="40.79949" pt_clust_6="48.48696"></scales>
<clustering>
<clus scale="   40.799">  2  5  1 -1</clus>
<clus scale="   48.487">  1  6  2 -1</clus>
<clus scale="   61.793">  2  4  1 -1</clus>
<clus scale="   48.487">  1  3  2 -1</clus>
</clustering>
</event>
<event>
 6    0  0.4227619E+002  0.3906053E+03  0.7546771E-02  0.1047082E+00
         21   -1    0    0  506  501  0.00000000000E+00  0.00000000000E+00  0.42823395483E+04  0.42823395483E+04  0.00000000000E+00 0. -1.
         21   -1    0    0  503  502 -0.00000000000E+00 -0.00000000000E+00 -0.80505447437E+02  0.80505447437E+02  0.00000000000E+00 0. -1.
         21    1    1    2  503  505 -0.23427680498E+03 -0.33599055674E+03  0.61673711244E+03  0.74036473540E+03  0.00000000000E+00 0. -1.
         21    1    1    2  504  502  0.46808106666E+02 -0.14095468736E+02  0.97051913616E+02  0.10866809571E+03  0.00000000000E+00 0.  1.
         21    1    1    2  505  501  0.50114671796E+02  0.23818443285E+02  0.23030688411E+03  0.23689672737E+03  0.00000000000E+00 0. -1.
         21    1    1    2  506  504  0.13735402651E+03  0.32626758219E+03  0.32577381907E+04  0.32769154372E+04  0.00000000000E+00 0. -1.
<scales pt_clust_3="390.60526" pt_clust_4="48.88436" pt_clust_5="57.10320" pt_clust_6="14000.00000"></scales>
<clustering>
<clus scale="   48.884">  2  4  1 -1</clus>
<clus scale="   57.103">  1  5  2 -1</clus>
<clus scale="  390.605">  2  3  1 -1</clus>
<clus scale="   57.103">  1  3  2 -1</clus>
</clustering>
</event>
<event>
 6    0  0.4227619E+002  0.7343916E+02  0.7546771E-02  0.1348774E+00
         21   -1    0    0  504  501  0.00000000000E+00  0.00000000000E+00  0.18245992911E+03  0.18245992911E+03  0.00000000000E+00 0. -1.
         21   -1    0    0  506  502 -0.00000000000E+00 -0.00000000000E+00 -0.95352399656E+03  0.95352399656E+03  0.00000000000E+00 0.  1.
         21    1    1    2  503  501  0.35348348199E+02  0.29049890782E+02  0.15931649909E+03  0.16575629327E+03  0.00000000000E+00 0. -1.
         21    1    1    2  504  505 -0.60961471647E+02  0.80229161031E+02 -0.48189575888E+03  0.49231752125E+03  0.00000000000E+00 0.  1.
         21    1    1    2  505  502 -0.33397589850E+01 -0.46370899201E+02 -0.37135318255E+03  0.37425205474E+03  0.00000000000E+00 0.  1.
         21    1    1    2  506  503  0.28952882433E+02 -0.62908152612E+02 -0.77131625117E+02  0.10365805641E+03  0.00000000000E+00 0.  1.
<scales pt_clust_3="45.75371" pt_clust_4="73.43916" pt_clust_5="44.26419" pt_clust_6="14000.00000"></scales>
<clustering>
<clus scale="   45.754">  1  3  2 -1</clus>
<clus scale="   44.264">  2  5  1 -1</clus>
<clus scale="   73.439">  2  4  1 -1</clus>
<clus scale="   45.754">  1  3  2 -1</clus>
</clustering>
</event>
<event>
 6    0  0.4227619E+002  0.2343067E+03  0.7546771E-02  0.1123645E+00
         21   -1    0    0  503  501  0.00000000000E+00  0.00000000000E+00  0.22157470538E+03  0.22157470538E+03  0.00000000000E+00 0. -1.
         21   -1    0    0  505  502 -0.00000000000E+00 -0.00000000000E+00 -0.79754960122E+03  0.79754960122E+03  0.00000000000E+00 0. -1.
         21    1    1    2  503  506  0.18435465601E+03  0.56551652405E+02 -0.14249724999E+03  0.23977113011E+03  0.00000000000E+00 0. -1.
         21    1    1    2  504  501 -0.36832626422E+02 -0.76733716400E+02 -0.14125380438E+02  0.86279962762E+02  0.00000000000E+00 0. -1.
         21    1    1    2  505  504 -0.28047763969E+03  0.10359302272E+03 -0.65662360211E+02  0.30612214273E+03  0.00000000000E+00 0. -1.
         21    1    1    2  506  502  0.13295561010E+03 -0.83410958723E+02 -0.35368990521E+03  0.38695107099E+03  0.00000000000E+00 0. -1.
<scales pt_clust_3="234.30665" pt_clust_4="85.11584" pt_clust_5="14000.00000" pt_clust_6="157.99485"></scales>
<clustering>
<clus scale="   85.116">  1  4  2 -1</clus>
<clus scale="  157.995">  2  6  1 -1</clus>
<clus scale="  234.307">  1  3  2 -1</clus>
<clus scale="   85.116">  1  3  2 -1</clus>
</clustering>
</event>
<event>
 6    0  0.4227619E+002  0.9375310E+02  0.7546771E-02  0.1294009E+00
         21   -1    0    0  505  501  0.00000000000E+00  0.00000000000E+00  0.94524214138E+03  0.94524214138E+03  0.00000000000E+00 0. -1.
         21   -1    0    0  504  502 -0.00000000000E+00 -0.00000000000E+00 -0.28533528564E+02  0.28533528564E+02  0.00000000000E+00 0. -1.
         21    1    1    2  503  506  0.29451726146E+02  0.32513025053E+02  0.11417334248E+03  0.12231129589E+03  0.00000000000E+00 0. -1.
         21    1    1    2  504  501 -0.50468575395E+01 -0.72854235140E+02  0.51018913279E+03  0.51538933008E+03  0.00000000000E+00 0. -1.
         21    1    1    2  505  503 -0.50500125987E-01  0.84617576010E+02  0.26590255931E+03  0.27904176707E+03  0.00000000000E+00 0. -1.
         21    1    1    2  506  502 -0.24354368480E+02 -0.44276365923E+02  0.26443578238E+02  0.57033276895E+02  0.00000000000E+00 0. -1.
<scales pt_clust_3="32.54159" pt_clust_4="82.14051" pt_clust_5="32.54159" pt_clust_6="50.53248"></scales>
<clustering>
<clus scale="   32.542">  3  5 -1 -1</clus>
<clus scale="   50.532">  2  6  1 -1</clus>
<clus scale="   82.141">  1  4  2 -1</clus>
<clus scale="   82.141">  1  3  2 -1</clus>
</clustering>
</event>
<event>
 6    0  0.4227619E+002  0.8784116E+02  0.7546771E-02  0.1308165E+00
         21   -1    0    0  503  501  0.00000000000E+00  0.00000000000E+00  0.24995191224E+03  0.24995191224E+03  0.00000000000E+00 0. -1.
         21   -1    0    0  504  502 -0.00000000000E+00 -0.00000000000E+00 -0.12890559937E+03  0.12890559937E+03  0.00000000000E+00 0. -1.
         21    1    1    2  503  502 -0.84092058447E+01  0.60942975323E+02  0.42748851661E+02  0.74914786942E+02  0.00000000000E+00 0. -1.
         21    1    1    2  504  506 -0.11655892886E+02  0.43055017010E+02 -0.16673734220E+02  0.47619405095E+02  0.00000000000E+00 0. -1.
         21    1    1    2  505  501  0.84998394268E+02 -0.11385011523E+03  0.12006455222E+03  0.18601632312E+03  0.00000000000E+00 0. -1.
         21    1    1    2  506  505 -0.64933295537E+02  0.98521228955E+01 -0.25093356795E+02  0.70306996452E+02  0.00000000000E+00 0. -1.
<scales pt_clust_3="68.88095" pt_clust_4="44.60487" pt_clust_5="87.84116" pt_clust_6="14000.00000"></scales>
<clustering>
<clus scale="   44.605">  2  4  1 -1</clus>
<clus scale="   68.881">  1  3  2 -1</clus>
<clus scale="   87.841">  1  5  2 -1</clus>
<clus scale="   68.881">  1  3  2 -1</clus>
</clustering>
</event>
<event>
 6    0  0.4227619E+002  0.1432683E+03  0.7546771E-02  0.1208998E+00
         21   -1    0    0  506  501  0.00000000000E+00  0.00000000000E+00  0.12259931171E+04  0.12259931171E+04  0.00000000000E+00 0. -1.
         21   -1    0    0  505  502 -0.00000000000E+00 -0.00000000000E+00 -0.31813537912E+03  0.31813537912E+03  0.00000000000E+00 0. -1.
         21    1    1    2  503  504 -0.10111178647E+03  0.70203199379E+02 -0.81990721794E+02  0.14790051057E+03  0.00000000000E+00 0. -1.
         21    1    1    2  504  502 -0.34064156129E+02  0.40002766298E+01 -0.17287788559E+03  0.17624736103E+03  0.00000000000E+00 0. -1.
         21    1    1    2  505  501  0.99005434191E+02 -0.96474249575E+02  0.14130933469E+03  0.19768076513E+03  0.00000000000E+00 0.  1.
         21    1    1    2  506  503  0.36170508410E+02  0.22270773566E+02  0.10214170107E+04  0.10222998595E+04  0.00000000000E+00 0. -1.
<scales pt_clust_3="143.26833" pt_clust_4="34.29824" pt_clust_5="14000.00000" pt_clust_6="42.39429"></scales>
<clustering>
<clus scale="   34.298">  2  4  1 -1</clus>
<clus scale="   42.394">  1  6  2 -1</clus>
<clus scale="  143.268">  2  3  1 -1</clus>
<clus scale="   42.394">  1  3  2 -1</clus>
</clustering>
</event>
<event>
 6    0  0.4227619E+002  0.8719245E+02  0.7546771E-02  0.1309797E+00
         21   -1    0    0  503  501  0.00000000000E+00  0.00000000000E+00  0.90970369245E+03  0.90970369245E+03  0.00000000000E+00 0. -1.
         21   -1    0    0  504  502 -0.00000000000E+00 -0.00000000000E+00 -0.73247430998E+02  0.73247430998E+02  0.00000000000E+00 0.  1.
         21    1    1    2  503  506 -0.96768893496E+02 -0.75954051989E+01  0.68167235871E+03  0.68854855570E+03  0.00000000000E+00 0. -1.
         21    1    1    2  504  505 -0.34242954451E+02 -0.24613984200E+02 -0.30385868927E+02  0.51978160589E+02  0.00000000000E+00 0.  1.
         21    1    1    2  505  501  0.66436028846E+02 -0.23956933721E+01  0.14347256618E+03  0.15812609690E+03  0.00000000000E+00 0. -1.
         21    1    1    2  506  502  0.64575819101E+02  0.34605082771E+02  0.41697205488E+02  0.84298310254E+02  0.00000000000E+00 0.  1.
<scales pt_clust_3="14000.00000" pt_clust_4="42.17141" pt_clust_5="87.19245" pt_clust_6="45.63845"></scales>
<clustering>
<clus scale="   42.171">  2  4  1 -1</clus>
<clus scale="   45.638">  2  6  1 -1</clus>
<clus scale="   87.192">  2  5  1 -1</clus>
<clus scale="   87.192">  1  3  2 -1</clus>
</clustering>
</event>
<event>
 6    0  0.4227619E+002  0.1324358E+03  0.7546771E-02  0.1223885E+00
         21   -1    0    0  504  501  0.00000000000E+00  0.00000000000E+00  0.59503415401E+03  0.59503415401E+03  0.00000000000E+00 0. -1.
         21   -1    0    0  505  502 -0.00000000000E+00 -0.00000000000E+00 -0.54829906856E+03  0.54829906856E+03  0.00000000000E+00 0.  1.
         21    1    1    2  503  501 -0.97130425246E+02 -0.86362398286E+02  0.51732635346E+03  0.53340354267E+03  0.00000000000E+00 0. -1.
         21    1    1    2  504  502 -0.38587029777E+02  0.17755598678E+02 -0.38389341606E+02  0.57253486360E+02  0.00000000000E+00 0. -1.
         21    1    1    2  505  506  0.52099307308E+01 -0.40232263631E+02 -0.36922401508E+03  0.37144602801E+03  0.00000000000E+00 0.  1.
         21    1    1    2  506  503  0.13050752429E+03  0.10883906324E+03 -0.62977911321E+02  0.18123016553E+03  0.00000000000E+00 0. -1.
<scales pt_clust_3="132.43584" pt_clust_4="37.82994" pt_clust_5="40.56819" pt_clust_6="14000.00000"></scales>
<clustering>
<clus scale="   40.568">  2  5  1 -1</clus>
<clus scale="   37.830">  2  4  1 -1</clus>
<clus scale="  132.436">  1  3  2 -1</clus>
<clus scale="  132.436">  1  3  2 -1</clus>
</clustering>
</event>
<event>
 6    0  0.4227619E+002  0.1732122E+03  0.7546771E-02  0.1174539E+00
         21   -1    0    0  505  501  0.00000000000E+00  0.00000000000E+00  0.15537194832E+03  0.15537194832E+03  0.00000000000E+00 0.  1.
         21   -1    0    0  506  502 -0.00000000000E+00 -0.00000000000E+00 -0.16640686946E+04  0.16640686946E+04  0.00000000000E+00 0.  1.
         21    1    1    2  503  501 -0.30958257936E+02  0.62551805008E+02  0.35310364487E+01  0.69882832388E+02  0.00000000000E+00 0.  1.
         21    1    1    2  504  502 -0.10050449565E+03  0.46231673659E+02 -0.98580251566E+03  0.99199048442E+03  0.00000000000E+00 0.  1.
         21    1    1    2  505  504  0.14575917952E+03 -0.19723531241E+03 -0.23106951555E+02  0.24633602677E+03  0.00000000000E+00 0.  1.
         21    1    1    2  506  503 -0.14296425934E+02  0.88451833743E+02 -0.50331831550E+03  0.51123129932E+03  0.00000000000E+00 0. -1.
<scales pt_clust_3="69.79357" pt_clust_4="14000.00000" pt_clust_5="173.21221" pt_clust_6="91.82587"></scales>
<clustering>
<clus scale="   69.794">  1  3  2 -1</clus>
<clus scale="   91.826">  2  6  1 -1</clus>
<clus scale="  173.212">  1  5  2 -1</clus>
<clus scale="   69.794">  1  3  2 -1</clus>
</clustering>
</event>
<event>
 6    0  0.4227619E+002  0.7525928E+02  0.7546771E-02  0.1343070E+00
         21   -1    0    0  503  501  0.00000000000E+00  0.00000000000E+00  0.37852113123E+03  0.37852113123E+03  0.00000000000E+00 0. -1.
         21   -1    0    0  504  502 -0.00000000000E+00 -0.00000000000E+00 -0.10454727324E+03  0.10454727324E+03  0.00000000000E+00 0. -1.
         21    1    1    2  503  502 -0.82996400321E+01  0.80985688224E+02 -0.22522115279E+02  0.84467812795E+02  0.00000000000E+00 0. -1.
         21    1    1    2  504  506 -0.59938096382E+02 -0.60690551363E+02 -0.46111211304E+01  0.85423538095E+02  0.00000000000E+00 0. -1.
         21    1    1    2  505  501  0.35136385932E+02  0.14564160762E+02  0.13282320736E+03  0.13816180662E+03  0.00000000000E+00 0. -1.
         21    1    1    2  506  505  0.33101350482E+02 -0.34859297623E+02  0.16828388704E+03  0.17501524697E+03  0.00000000000E+00 0. -1.
<scales pt_clust_3="14000.00000" pt_clust_4="75.25928" pt_clust_5="38.03525" pt_clust_6="62.91509"></scales>
<clustering>
<clus scale="   38.035">  1  5  2 -1</clus>
<clus scale="   62.915">  1  6  2 -1</clus>
<clus scale="   75.259">  1  4  2 -1</clus>
<clus scale="   38.035">  1  3  2 -1</clus>
</clustering>
</event>
<event>
 6    0  0.4227619E+002  0.1015141E+03  0.7546771E-02  0.1277144E+00
         21   -1    0    0  504  501  0.00000000000E+00  0.00000000000E+00  0.22820037200E+03  0.22820037200E+03  0.00000000000E+00 0.  1.
         21   -1    0    0  503  502 -0.00000000000E+00 -0.00000000000E+00 -0.66666900838E+03  0.66666900838E+03  0.00000000000E+00 0. -1.
         21    1    1    2  503  501  0.13868740650E+02  0.52300188058E+02  0.39801998037E+02  0.67170311045E+02  0.00000000000E+00 0.  1.
         21    1    1    2  504  505  0.95239170970E+01 -0.30858292227E+02  0.14028952928E+03  0.14395864413E+03  0.00000000000E+00 0.  1.
         21    1    1    2  505  506 -0.98281353441E+02  0.46309662141E+02 -0.77793914035E+02  0.13362523079E+03  0.00000000000E+00 0. -1.
         21    1    1    2  506  502  0.74888695694E+02 -0.67751557972E+02 -0.54076624966E+03  0.55011519441E+03  0.00000000000E+00 0. -1.
<scales pt_clust_3="38.58509" pt_clust_4="32.29457" pt_clust_5="14000.00000" pt_clust_6="101.51411"></scales>
<clustering>
<clus scale="   32.295">  1  4  2 -1</clus>
<clus scale="   38.585">  1  3  2 -1</clus>
<clus scale="  101.514">  2  6  1 -1</clus>
<clus scale="   32.295">  1  3  2 -1</clus>
</clustering>
</event>
<event>
 6    0  0.4227619E+002  0.6783409E+02  0.7546771E-02  0.1367617E+00
         21   -1    0    0  504  501  0.00000000000E+00  0.00000000000E+00  0.80972487344E+03  0.80972487344E+03  0.00000000000E+00 0.  1.
         21   -1    0    0  505  502 -0.00000000000E+00 -0.00000000000E+00 -0.61048230304E+03  0.61048230304E+03  0.00000000000E+00 0. -1.
         21    1    1    2  503  502  0.53608673535E+02  0.27997749943E+01 -0.59048191892E+03  0.59291704748E+03  0.00000000000E+00 0. -1.
         21    1    1    2  504  503 -0.22573540239E+02  0.64246510778E+02  0.18771316574E+03  0.19968327786E+03  0.00000000000E+00 0.  1.
         21    1    1    2  505  506  0.43814724339E+02 -0.47794930820E+02  0.96741015052E+02  0.11645990501E+03  0.00000000000E+00 0.  1.
         21    1    1    2  506  501 -0.74849857635E+02 -0.19251354953E+02  0.50527030853E+03  0.51114694613E+03  0.00000000000E+00 0.  1.
<scales pt_clust_3="53.68173" pt_clust_4="65.36971" pt_clust_5="67.83409" pt_clust_6="14000.00000"></scales>
<clustering>
<clus scale="   53.682">  2  3  1 -1</clus>
<clus scale="   65.370">  2  4  1 -1</clus>
<clus scale="   67.834">  2  5  1 -1</clus>
<clus scale="   67.834">  1  3  2 -1</clus>
</clustering>
</event>
<event>
 6    0  0.4227619E+002  0.7350042E+02  0.7546771E-02  0.1348579E+00
         21   -1    0    0  506  501  0.00000000000E+00  0.00000000000E+00  0.21498262578E+03  0.21498262578E+03  0.00000000000E+00 0. -1.
         21   -1    0    0  503  502 -0.00000000000E+00 -0.00000000000E+00 -0.33013267135E+03  0.33013267135E+03  0.00000000000E+00 0.  1.
         21    1    1    2  503  501  0.65534785285E+02  0.78851487454E+00 -0.35687817045E+02  0.74626068659E+02  0.00000000000E+00 0.  1.
         21    1    1    2  504  502 -0.61809643505E+02 -0.53086030829E+02 -0.20355453226E+03  0.21925557303E+03  0.00000000000E+00 0.  1.
         21    1    1    2  505  504 -0.44865915297E+02  0.40733913563E+02 -0.45856892039E+02  0.75993793280E+02  0.00000000000E+00 0.  1.
         21    1    1    2  506  505  0.41140773517E+02  0.11563602392E+02  0.16994919577E+03  0.17523986216E+03  0.00000000000E+00 0. -1.
<scales pt_clust_3="73.50042" pt_clust_4="14000.00000" pt_clust_5="54.08837" pt_clust_6="42.73500"></scales>
<clustering>
<clus scale="   42.735">  1  6  2 -1</clus>
<clus scale="   54.088">  1  5  2 -1</clus>
<clus scale="   73.500">  1  3  2 -1</clus>
<clus scale="   42.735">  1  3  2 -1</clus>
</clustering>
</event>
<event>
 6    0  0.4227619E+002  0.9612434E+02  0.7546771E-02  0.1288664E+00
         21   -1    0    0  504  501  0.00000000000E+00  0.00000000000E+00  0.26915496234E+04  0.26915496234E+04  0.00000000000E+00 0.  1.
         21   -1    0    0  503  502 -0.00000000000E+00 -0.00000000000E+00 -0.27441165460E+03  0.27441165460E+03  0.00000000000E+00 0. -1.
         21    1    1    2  503  506  0.25286349931E+02 -0.29826422506E+02 -0.17796162331E+03  0.18220689982E+03  0.00000000000E+00 0. -1.
         21    1    1    2  504  505  0.24524746099E+02 -0.31428558247E+02  0.12808757037E+04  0.12814959171E+04  0.00000000000E+00 0. -1.
         21    1    1    2  505  502 -0.99343968006E+02 -0.31396820028E+02 -0.62523703453E+02  0.12150801529E+03  0.00000000000E+00 0. -1.
         21    1    1    2  506  501  0.49532871975E+02  0.92651800782E+02  0.13767475919E+04  0.13807504457E+04  0.00000000000E+00 0.  1.
<scales pt_clust_3="39.10262" pt_clust_4="39.99344" pt_clust_5="14000.00000" pt_clust_6="96.12434"></scales>
<clustering>
<clus scale="   39.103">  2  3  1 -1</clus>
<clus scale="   39.993">  1  4  2 -1</clus>
<clus scale="   96.124">  1  6  2 -1</clus>
<clus scale="   39.993">  1  3  2 -1</clus>
</clustering>
</event>
<event>
 6    0  0.4227619E+002  0.1440226E+03  0.7546771E-02  0.1208017E+00
         21   -1    0    0  505  501  0.00000000000E+00  0.00000000000E+00  0.57583066247E+02  0.57583066247E+02  0.00000000000E+00 0.  1.
         21   -1    0    0  506  502 -0.00000000000E+00 -0.00000000000E+00 -0.11971214569E+04  0.11971214569E+04  0.00000000000E+00 0. -1.
         21    1    1    2  503  502 -0.57419397030E+01 -0.37011366341E+02 -0.42122505109E+03  0.42288692906E+03  0.00000000000E+00 0. -1.
         21    1    1    2  504  503 -0.33396353548E+02 -0.85264536605E+02 -0.42144328444E+03  0.43127694077E+03  0.00000000000E+00 0. -1.
         21    1    1    2  505  504 -0.30250049022E+02 -0.83915591224E+01  0.28950012985E+02  0.42703477401E+02  0.00000000000E+00 0.  1.
         21    1    1    2  506  501  0.69388342273E+02  0.13066746207E+03 -0.32582006811E+03  0.35783717592E+03  0.00000000000E+00 0.  1.
<scales pt_clust_3="34.57450" pt_clust_4="34.57450" pt_clust_5="31.39242" pt_clust_6="133.11539"></scales>
<clustering>
<clus scale="   31.392">  1  5  2 -1</clus>
<clus scale="   34.575">  3  4 -1 -1</clus>
<clus scale="  133.115">  1  6  2 -1</clus>
<clus scale="   31.392">  1  3  2 -1</clus>
</clustering>
</event>
<event>
 6    0  0.4227619E+002  0.2068348E+03  0.7546771E-02  0.1144097E+00
         21   -1    0    0  505  501  0.00000000000E+00  0.00000000000E+00  0.27999362848E+03  0.27999362848E+03  0.00000000000E+00 0. -1.
         21   -1    0    0  503  502 -0.00000000000E+00 -0.00000000000E+00 -0.46258289863E+03  0.46258289863E+03  0.00000000000E+00 0. -1.
         21    1    1    2  503  506 -0.14830209507E+03  0.72256053421E+02 -0.10042528267E+03  0.19313126639E+03  0.00000000000E+00 0. -1.
         21    1    1    2  504  502 -0.45180696937E+02 -0.20677104919E+02 -0.85899969576E+02  0.99235290178E+02  0.00000000000E+00 0. -1.
         21    1    1    2  505  504 -0.85569640417E+02 -0.54086118681E+02  0.11192103041E+03  0.15090986927E+03  0.00000000000E+00 0. -1.
         21    1    1    2  506  501  0.27905243242E+03  0.25071701789E+01 -0.10818504831E+03  0.29930010127E+03  0.00000000000E+00 0. -1.
<scales pt_clust_3="14000.00000" pt_clust_4="49.68740" pt_clust_5="103.82456" pt_clust_6="206.83484"></scales>
<clustering>
<clus scale="   49.687">  2  4  1 -1</clus>
<clus scale="  103.825">  1  5  2 -1</clus>
<clus scale="  206.835">  1  6  2 -1</clus>
<clus scale="  103.825">  1  3  2 -1</clus>
</clustering>
</event>
<event>
 6    0  0.4227619E+002  0.9771348E+02  0.7546771E-02  0.1285179E+00
         21   -1    0    0  504  501  0.00000000000E+00  0.00000000000E+00  0.46014482936E+03  0.46014482936E+03  0.00000000000E+00 0. -1.
         21   -1    0    0  506  502 -0.00000000000E+00 -0.00000000000E+00 -0.35666396993E+03  0.35666396993E+03  0.00000000000E+00 0.  1.
         21    1    1    2  503  502  0.22512189805E+02 -0.25488944520E+02 -0.29293084229E+03  0.29489822540E+03  0.00000000000E+00 0.  1.
         21    1    1    2  504  505 -0.10519328172E+03 -0.10967133753E+02  0.35540520774E+03  0.37080826074E+03  0.00000000000E+00 0. -1.
         21    1    1    2  505  503  0.39659340632E+02 -0.35497609523E+02  0.41134138771E+02  0.67267830006E+02  0.00000000000E+00 0. -1.
         21    1    1    2  506  501  0.43021751278E+02  0.71953687797E+02 -0.12764479292E+00  0.83834483143E+02  0.00000000000E+00 0.  1.
<scales pt_clust_3="34.00713" pt_clust_4="97.71348" pt_clust_5="60.26407" pt_clust_6="14000.00000"></scales>
<clustering>
<clus scale="   34.007">  2  3  1 -1</clus>
<clus scale="   60.264">  2  5  1 -1</clus>
<clus scale="   97.713">  1  4  2 -1</clus>
<clus scale="   97.713">  1  3  2 -1</clus>
</clustering>
</event>
<event>
 6    0  0.4227619E+002  0.2160622E+03  0.7546771E-02  0.1136853E+00
         21   -1    0    0  504  501  0.00000000000E+00  0.00000000000E+00  0.29457376238E+03  0.29457376238E+03  0.00000000000E+00 0.  1.
         21   -1    0    0  506  502 -0.00000000000E+00 -0.00000000000E+00 -0.60659599696E+03  0.60659599696E+03  0.00000000000E+00 0.  1.
         21    1    1    2  503  501 -0.18731253022E+03 -0.90937492556E+02  0.17380328046E+03  0.27122535248E+03  0.00000000000E+00 0.  1.
         21    1    1    2  504  502  0.28085367894E+03  0.59363936985E+02 -0.34384058984E+03  0.44791652929E+03  0.00000000000E+00 0.  1.
         21    1    1    2  505  503 -0.63259490042E+02  0.41783644407E+02 -0.69657924806E+02  0.10295563369E+03  0.00000000000E+00 0.  1.
         21    1    1    2  506  505 -0.30281658683E+02 -0.10210088835E+02 -0.72327000395E+02  0.79072243884E+02  0.00000000000E+00 0.  1.
<scales pt_clust_3="216.06223" pt_clust_4="14000.00000" pt_clust_5="79.11225" pt_clust_6="31.95661"></scales>
<clustering>
<clus scale="   31.957">  2  6  1 -1</clus>
<clus scale="   79.112">  2  5  1 -1</clus>
<clus scale="  216.062">  1  3  2 -1</clus>
<clus scale="  216.062">  1  3  2 -1</clus>
</clustering>
</event>
<event>
 6    0  0.4227619E+002  0.1433065E+03  0.7546771E-02  0.1208948E+00
         21   -1    0    0  503  501  0.00000000000E+00  0.00000000000E+00  0.58511572713E+03  0.58511572713E+03  0.00000000000E+00 0.  1.
         21   -1    0    0  505  502 -0.00000000000E+00 -0.00000000000E+00 -0.80585321423E+03  0.80585321423E+03  0.00000000000E+00 0. -1.
         21    1    1    2  503  502 -0.18409590388E+01  0.18228037148E+03 -0.67225459921E+03  0.69653124059E+03  0.00000000000E+00 0. -1.
         21    1    1    2  504  506  0.14471122611E+02 -0.10761617355E+03  0.13481590376E+03  0.17310685170E+03  0.00000000000E+00 0.  1.
         21    1    1    2  505  504 -0.10777213786E+02 -0.37995194617E+02 -0.97661369752E+02  0.10534479718E+03  0.00000000000E+00 0.  1.
         21    1    1    2  506  501 -0.18529497854E+01 -0.36669003315E+02  0.41436257811E+03  0.41598605188E+03  0.00000000000E+00 0.  1.
<scales pt_clust_3="143.30648" pt_clust_4="14000.00000" pt_clust_5="40.30343" pt_clust_6="36.71579"></scales>
<clustering>
<clus scale="   36.716">  1  6  2 -1</clus>
<clus scale="   40.303">  2  5  1 -1</clus>
<clus scale="  143.306">  2  3  1 -1</clus>
<clus scale="   36.716">  1  3  2 -1</clus>
</clustering>
</event>
<event>
 6    0  0.4227619E+002  0.6999014E+02  0.7546771E-02  0.1360127E+00
         21   -1    0    0  505  501  0.00000000000E+00  0.00000000000E+00  0.81273579343E+03  0.81273579343E+03  0.00000000000E+00 0.  1.
         21   -1    0    0  503  502 -0.00000000000E+00 -0.00000000000E+00 -0.25236428143E+03  0.25236428143E+03  0.00000000000E+00 0.  1.
         21    1    1    2  503  504 -0.39807087855E+02  0.32005101908E+02 -0.21996128942E+03  0.22581386059E+03  0.00000000000E+00 0.  1.
         21    1    1    2  504  506 -0.17802866370E+01 -0.86114640785E+02  0.52128528948E+02  0.10067911555E+03  0.00000000000E+00 0.  1.
         21    1    1    2  505  502  0.94314017143E+01  0.80998892502E+02  0.46959022821E+03  0.47661803822E+03  0.00000000000E+00 0.  1.
         21    1    1    2  506  501  0.32155972778E+02 -0.26889353625E+02  0.25861404427E+03  0.26198906049E+03  0.00000000000E+00 0.  1.
<scales pt_clust_3="50.85570" pt_clust_4="14000.00000" pt_clust_5="69.99014" pt_clust_6="41.91711"></scales>
<clustering>
<clus scale="   41.917">  1  6  2 -1</clus>
<clus scale="   50.856">  2  3  1 -1</clus>
<clus scale="   69.990">  1  5  2 -1</clus>
<clus scale="   41.917">  1  3  2 -1</clus>
</clustering>
</event>
<event>
 6    0  0.4227619E+002  0.1288763E+03  0.7546771E-02  0.1229133E+00
         21   -1    0    0  504  501  0.00000000000E+00  0.00000000000E+00  0.35466355293E+03  0.35466355293E+03  0.00000000000E+00 0.  1.
         21   -1    0    0  505  502 -0.00000000000E+00 -0.00000000000E+00 -0.13197817924E+03  0.13197817924E+03  0.00000000000E+00 0.  1.
         21    1    1    2  503  501  0.88797069914E+01  0.35958281250E+02  0.61311617128E+02  0.71630730706E+02  0.00000000000E+00 0.  1.
         21    1    1    2  504  506 -0.12330229228E+03 -0.61097498762E+02  0.17339514346E+03  0.22136448544E+03  0.00000000000E+00 0.  1.
         21    1    1    2  505  503  0.12763889433E+03  0.65764291704E+02  0.12941728614E+02  0.14416697870E+03  0.00000000000E+00 0.  1.
         21    1    1    2  506  502 -0.13216309039E+02 -0.40625074191E+02 -0.24963115511E+02  0.49479537323E+02  0.00000000000E+00 0.  1.
<scales pt_clust_3="37.03846" pt_clust_4="14000.00000" pt_clust_5="128.87633" pt_clust_6="41.14967"></scales>
<clustering>
<clus scale="   37.038">  1  3  2 -1</clus>
<clus scale="   41.150">  2  6  1 -1</clus>
<clus scale="  128.876">  2  5  1 -1</clus>
<clus scale="   37.038">  1  3  2 -1</clus>
</clustering>
</event>
<event>
 6    0  0.4227619E+002  0.9100590E+02  0.7546771E-02  0.1300434E+00
         21   -1    0    0  505  501  0.00000000000E+00  0.00000000000E+00  0.60453403468E+02  0.60453403468E+02  0.00000000000E+00 0.  1.
         21   -1    0    0  503  502 -0.00000000000E+00 -0.00000000000E+00 -0.12886851775E+04  0.12886851775E+04  0.00000000000E+00 0.  1.
         21    1    1    2  503  506 -0.28977546150E+02  0.94267207267E+02 -0.62786801761E+03  0.63556608789E+03  0.00000000000E+00 0.  1.
         21    1    1    2  504  501  0.43890052126E+02 -0.41474967291E+02 -0.19996535772E+03  0.20888430739E+03  0.00000000000E+00 0. -1.
         21    1    1    2  505  502  0.19865774130E+02  0.34030762243E+02  0.39002658431E+02  0.55443206304E+02  0.00000000000E+00 0.  1.
         21    1    1    2  506  504 -0.34778280107E+02 -0.86823002218E+02 -0.43940105712E+03  0.44924497936E+03  0.00000000000E+00 0.  1.
<scales pt_clust_3="14000.00000" pt_clust_4="58.81512" pt_clust_5="39.40484" pt_clust_6="91.00590"></scales>
<clustering>
<clus scale="   39.405">  1  5  2 -1</clus>
<clus scale="   58.815">  1  4  2 -1</clus>
<clus scale="   91.006">  1  6  2 -1</clus>
<clus scale="   39.405">  1  3  2 -1</clus>
</clustering>
</event>
<event>
 6    0  0.4227619E+002  0.1535485E+03  0.7546771E-02  0.1196179E+00
         21   -1    0    0  506  501  0.00000000000E+00  0.00000000000E+00  0.12442117153E+04  0.12442117153E+04  0.00000000000E+00 0. -1.
         21   -1    0    0  505  502 -0.00000000000E+00 -0.00000000000E+00 -0.27809690685E+03  0.27809690685E+03  0.00000000000E+00 0.  1.
         21    1    1    2  503  502  0.39431717195E+02  0.17126809041E+02 -0.11386786640E+03  0.12171310081E+03  0.00000000000E+00 0.  1.
         21    1    1    2  504  503  0.50399788495E+02  0.54720422331E+02  0.55101862457E+03  0.55601797446E+03  0.00000000000E+00 0. -1.
         21    1    1    2  505  501 -0.68765330751E+02 -0.14724184124E+03 -0.11295154971E+03  0.19790624828E+03  0.00000000000E+00 0. -1.
         21    1    1    2  506  504 -0.21066174939E+02  0.75394609870E+02  0.64191559999E+03  0.64667129860E+03  0.00000000000E+00 0. -1.
<scales pt_clust_3="42.99056" pt_clust_4="73.07199" pt_clust_5="134.15695" pt_clust_6="73.07199"></scales>
<clustering>
<clus scale="   42.991">  2  3  1 -1</clus>
<clus scale="   73.072">  4  6 -1 -1</clus>
<clus scale="  134.157">  2  5  1 -1</clus>
<clus scale="  153.548">  1  3  2 -1</clus>
</clustering>
</event>
<event>
 6    0  0.4227619E+002  0.7151360E+02  0.7546771E-02  0.1355020E+00
         21   -1    0    0  504  501  0.00000000000E+00  0.00000000000E+00  0.13271054405E+04  0.13271054405E+04  0.00000000000E+00 0.  1.
         21   -1    0    0  506  502 -0.00000000000E+00 -0.00000000000E+00 -0.54754632844E+03  0.54754632844E+03  0.00000000000E+00 0. -1.
         21    1    1    2  503  502 -0.20443403755E+02  0.72123172315E+02 -0.41562235918E+03  0.42232881762E+03  0.00000000000E+00 0. -1.
         21    1    1    2  504  503  0.23083235129E+01  0.50145673321E+02  0.12043601328E+04  0.12054058430E+04  0.00000000000E+00 0.  1.
         21    1    1    2  505  501 -0.57937981052E+02 -0.92681116615E+02  0.72725787492E+02  0.13128457332E+03  0.00000000000E+00 0.  1.
         21    1    1    2  506  505  0.76073061294E+02 -0.29587729021E+02 -0.81904449065E+02  0.11563253495E+03  0.00000000000E+00 0. -1.
<scales pt_clust_3="14000.00000" pt_clust_4="50.19877" pt_clust_5="75.63728" pt_clust_6="71.51360"></scales>
<clustering>
<clus scale="   50.199">  1  4  2 -1</clus>
<clus scale="   75.637">  1  5  2 -1</clus>
<clus scale="   71.514">  1  6  2 -1</clus>
<clus scale="   50.199">  1  3  2 -1</clus>
</clustering>
</event>
<event>
 6    0  0.4227619E+002  0.7998480E+02  0.7546771E-02  0.1329095E+00
         21   -1    0    0  506  501  0.00000000000E+00  0.00000000000E+00  0.26315737354E+03  0.26315737354E+03  0.00000000000E+00 0.  1.
         21   -1    0    0  505  502 -0.00000000000E+00 -0.00000000000E+00 -0.14239189288E+04  0.14239189288E+04  0.00000000000E+00 0.  1.
         21    1    1    2  503  504 -0.21647627858E+02 -0.60653504074E+02 -0.19445808925E+02  0.67272630639E+02  0.00000000000E+00 0.  1.
         21    1    1    2  504  502  0.31043862223E+02  0.38522051316E+02 -0.12753716449E+04  0.12763308750E+04  0.00000000000E+00 0.  1.
         21    1    1    2  505  501  0.66169253653E+02 -0.74191282832E+01 -0.86099407699E+02  0.10884172729E+03  0.00000000000E+00 0.  1.
         21    1    1    2  506  503 -0.75565488018E+02  0.29550581041E+02  0.22015530631E+03  0.23463106938E+03  0.00000000000E+00 0.  1.
<scales pt_clust_3="50.94472" pt_clust_4="49.47393" pt_clust_5="79.98480" pt_clust_6="14000.00000"></scales>
<clustering>
<clus scale="   49.474">  2  4  1 -1</clus>
<clus scale="   50.945">  2  3  1 -1</clus>
<clus scale="   79.985">  2  5  1 -1</clus>
<clus scale="   79.985">  1  3  2 -1</clus>
</clustering>
</event>
<event>
 6    0  0.4227619E+002  0.7385664E+02  0.7546771E-02  0.1347449E+00
         21   -1    0    0  505  501  0.00000000000E+00  0.00000000000E+00  0.53406099527E+03  0.53406099527E+03  0.00000000000E+00 0.  1.
         21   -1    0    0  503  502 -0.00000000000E+00 -0.00000000000E+00 -0.49721902787E+03  0.49721902787E+03  0.00000000000E+00 0.  1.
         21    1    1    2  503  501 -0.42389739501E+02 -0.39781371863E+02 -0.55280007656E+01  0.58395259694E+02  0.00000000000E+00 0.  1.
         21    1    1    2  504  502 -0.35755803189E+02  0.31412227451E+02 -0.43240619268E+03  0.43501760995E+03  0.00000000000E+00 0.  1.
         21    1    1    2  505  506 -0.32093730169E+02  0.17838585478E+02  0.40585352688E+03  0.40751111387E+03  0.00000000000E+00 0.  1.
         21    1    1    2  506  504  0.11023927286E+03 -0.94694410666E+01  0.68922633962E+02  0.13035603963E+03  0.00000000000E+00 0.  1.
<scales pt_clust_3="14000.00000" pt_clust_4="47.96208" pt_clust_5="36.71815" pt_clust_6="73.85664"></scales>
<clustering>
<clus scale="   36.718">  1  5  2 -1</clus>
<clus scale="   47.962">  2  4  1 -1</clus>
<clus scale="   73.857">  1  6  2 -1</clus>
<clus scale="   36.718">  1  3  2 -1</clus>
</clustering>
</event>
<event>
 6    0  0.4227619E+002  0.1257255E+03  0.7546771E-02  0.1233940E+00
         21   -1    0    0  505  501  0.00000000000E+00  0.00000000000E+00  0.16648959742E+03  0.16648959742E+03  0.00000000000E+00 0.  1.
         21   -1    0    0  506  502 -0.00000000000E+00 -0.00000000000E+00 -0.59802789684E+03  0.59802789684E+03  0.00000000000E+00 0. -1.
         21    1    1    2  503  501 -0.52382313432E+02  0.35062862052E+02  0.60835232624E+02  0.87602720187E+02  0.00000000000E+00 0.  1.
         21    1    1    2  504  502  0.38187374701E+02 -0.11400526827E+03 -0.55527299142E+03  0.56814045075E+03  0.00000000000E+00 0. -1.
         21    1    1    2  505  504  0.21107262714E+02  0.37764716846E+02  0.16367938958E+02  0.46255808321E+02  0.00000000000E+00 0.  1.
         21    1    1    2  506  503 -0.69123239833E+01  0.41177689374E+02  0.46531520417E+02  0.62518514997E+02  0.00000000000E+00 0.  1.
<scales pt_clust_3="33.36200" pt_clust_4="118.85544" pt_clust_5="43.26304" pt_clust_6="33.36200"></scales>
<clustering>
<clus scale="   33.362">  3  6 -1 -1</clus>
<clus scale="   43.263">  1  5  2 -1</clus>
<clus scale="  118.855">  2  4  1 -1</clus>
<clus scale="   43.263">  1  3  2 -1</clus>
</clustering>
</event>
<event>
 6    0  0.4227619E+002  0.8742470E+02  0.7546771E-02  0.1309211E+00
         21   -1    0    0  506  501  0.00000000000E+00  0.00000000000E+00  0.12792059763E+04  0.12792059763E+04  0.00000000000E+00 0.  1.
         21   -1    0    0  503  502 -0.00000000000E+00 -0.00000000000E+00 -0.31155239823E+03  0.31155239823E+03  0.00000000000E+00 0. -1.
         21    1    1    2  503  501 -0.11609377595E+03  0.40323542671E+02  0.81543701515E+03  0.82464615356E+03  0.00000000000E+00 0.  1.
         21    1    1    2  504  505  0.62345824895E+02 -0.24790729592E+02  0.12496818580E+03  0.14184015516E+03  0.00000000000E+00 0.  1.
         21    1    1    2  505  502  0.10342464402E+02 -0.30324076183E+02 -0.29602939365E+03  0.29775815367E+03  0.00000000000E+00 0. -1.
         21    1    1    2  506  504  0.43405486656E+02  0.14791263104E+02  0.32327777080E+03  0.32651391216E+03  0.00000000000E+00 0.  1.
<scales pt_clust_3="87.42470" pt_clust_4="14000.00000" pt_clust_5="32.03929" pt_clust_6="45.99360"></scales>
<clustering>
<clus scale="   32.039">  2  5  1 -1</clus>
<clus scale="   45.994">  1  6  2 -1</clus>
<clus scale="   87.425">  1  3  2 -1</clus>
<clus scale="   45.994">  1  3  2 -1</clus>
</clustering>
</event>
<event>
 6    0  0.4227619E+002  0.6886431E+02  0.7546771E-02  0.1363998E+00
         21   -1    0    0  504  501  0.00000000000E+00  0.00000000000E+00  0.24265795858E+03  0.24265795858E+03  0.00000000000E+00 0.  1.
         21   -1    0    0  505  502 -0.00000000000E+00 -0.00000000000E+00 -0.26638171788E+03  0.26638171788E+03  0.00000000000E+00 0.  1.
         21    1    1    2  503  501  0.10045328490E+03  0.21298025449E+02  0.11133542334E+03  0.15145971354E+03  0.00000000000E+00 0.  1.
         21    1    1    2  504  506 -0.48498121766E+02  0.20737029416E+02  0.77809417126E+02  0.94002114856E+02  0.00000000000E+00 0.  1.
         21    1    1    2  505  503  0.48914818738E+00 -0.47245938791E+02 -0.31664371628E+01  0.47354454093E+02  0.00000000000E+00 0.  1.
         21    1    1    2  506  502 -0.52444311321E+02  0.52108839264E+01 -0.20970216260E+03  0.21622339397E+03  0.00000000000E+00 0.  1.
<scales pt_clust_3="68.86431" pt_clust_4="52.12697" pt_clust_5="47.24847" pt_clust_6="14000.00000"></scales>
<clustering>
<clus scale="   47.248">  2  5  1 -1</clus>
<clus scale="   52.127">  1  4  2 -1</clus>
<clus scale="   68.864">  1  3  2 -1</clus>
<clus scale="   52.127">  1  3  2 -1</clus>
</clustering>
</event>
<event>
 6    0  0.4227619E+002  0.8075467E+02  0.7546771E-02  0.1326923E+00
         21   -1    0    0  506  501  0.00000000000E+00  0.00000000000E+00  0.24864764648E+03  0.24864764648E+03  0.00000000000E+00 0. -1.
         21   -1    0    0  505  502 -0.00000000000E+00 -0.00000000000E+00 -0.26585398345E+03  0.26585398345E+03  0.00000000000E+00 0. -1.
         21    1    1    2  503  501  0.36252057555E+02 -0.42325753749E+02  0.54879682495E+02  0.78214197293E+02  0.00000000000E+00 0. -1.
         21    1    1    2  504  503 -0.64105089504E+02 -0.17782787424E+02  0.53684690294E+02  0.85485296986E+02  0.00000000000E+00 0. -1.
         21    1    1    2  505  504 -0.78700396256E+02 -0.98206960620E+00 -0.19466594957E+03  0.20997511460E+03  0.00000000000E+00 0. -1.
         21    1    1    2  506  502  0.10655342821E+03  0.61090610780E+02  0.68895239813E+02  0.14082702105E+03  0.00000000000E+00 0. -1.
<scales pt_clust_3="55.72864" pt_clust_4="60.64929" pt_clust_5="14000.00000" pt_clust_6="80.75467"></scales>
<clustering>
<clus scale="   55.729">  1  3  2 -1</clus>
<clus scale="   60.649">  1  4  2 -1</clus>
<clus scale="   80.755">  1  6  2 -1</clus>
<clus scale="   55.729">  1  3  2 -1</clus>
</clustering>
</event>
<event>
 6    0  0.4227619E+002  0.1233363E+03  0.7546771E-02  0.1237692E+00
         21   -1    0    0  506  501  0.00000000000E+00  0.00000000000E+00  0.27161508181E+03  0.27161508181E+03  0.00000000000E+00 0.  1.
         21   -1    0    0  505  502 -0.00000000000E+00 -0.00000000000E+00 -0.91291042113E+03  0.91291042113E+03  0.00000000000E+00 0. -1.
         21    1    1    2  503  501  0.12336799285E+03  0.74445795955E+01  0.21118479712E+03  0.24469185103E+03  0.00000000000E+00 0.  1.
         21    1    1    2  504  503 -0.12296967748E+03  0.88299609648E+02 -0.14532048178E+03  0.20984852887E+03  0.00000000000E+00 0. -1.
         21    1    1    2  505  504 -0.68169423342E+02 -0.90276570064E+02 -0.44356239747E+03  0.45776034104E+03  0.00000000000E+00 0. -1.
         21    1    1    2  506  502  0.67771107970E+02 -0.54676191801E+01 -0.26359725719E+03  0.27222478199E+03  0.00000000000E+00 0. -1.
<scales pt_clust_3="14000.00000" pt_clust_4="123.33631" pt_clust_5="96.37212" pt_clust_6="67.99131"></scales>
<clustering>
<clus scale="   67.991">  2  6  1 -1</clus>
<clus scale="   96.372">  2  5  1 -1</clus>
<clus scale="  123.336">  2  4  1 -1</clus>
<clus scale="  123.336">  1  3  2 -1</clus>
</clustering>
</event>
<event>
 6    0  0.4227619E+002  0.9974004E+02  0.7546771E-02  0.1280844E+00
         21   -1    0    0  505  501  0.00000000000E+00  0.00000000000E+00  0.12563086372E+04  0.12563086372E+04  0.00000000000E+00 0. -1.
         21   -1    0    0  503  502 -0.00000000000E+00 -0.00000000000E+00 -0.14886259184E+03  0.14886259184E+03  0.00000000000E+00 0. -1.
         21    1    1    2  503  504  0.29893583773E+02  0.46569474846E+01 -0.13289458082E+03  0.13629483894E+03  0.00000000000E+00 0. -1.
         21    1    1    2  504  501 -0.94440819609E+02 -0.88880921691E+02  0.51711058779E+03  0.53312498221E+03  0.00000000000E+00 0. -1.
         21    1    1    2  505  506  0.32739524698E+02  0.10273698069E+02  0.43906848222E+03  0.44040726314E+03  0.00000000000E+00 0. -1.
         21    1    1    2  506  502  0.31807711137E+02  0.73950276138E+02  0.28416155616E+03  0.29534414473E+03  0.00000000000E+00 0. -1.
<scales pt_clust_3="30.25415" pt_clust_4="14000.00000" pt_clust_5="35.71782" pt_clust_6="99.74004"></scales>
<clustering>
<clus scale="   30.254">  2  3  1 -1</clus>
<clus scale="   35.718">  1  5  2 -1</clus>
<clus scale="   99.740">  2  6  1 -1</clus>
<clus scale="   35.718">  1  3  2 -1</clus>
</clustering>
</event>
<event>
 6    0  0.4227619E+002  0.1832843E+03  0.7546771E-02  0.1164662E+00
         21   -1    0    0  506  501  0.00000000000E+00  0.00000000000E+00  0.10090126780E+04  0.10090126780E+04  0.00000000000E+00 0. -1.
         21   -1    0    0  505  502 -0.00000000000E+00 -0.00000000000E+00 -0.19914048837E+03  0.19914048837E+03  0.00000000000E+00 0. -1.
         21    1    1    2  503  501 -0.91076099542E+01  0.28718003002E+02  0.34303631584E+03  0.34435677174E+03  0.00000000000E+00 0. -1.
         21    1    1    2  504  502 -0.32917006904E+02 -0.18888740401E+01 -0.98521748273E+02  0.10389240623E+03  0.00000000000E+00 0. -1.
         21    1    1    2  505  503 -0.64368327640E+02 -0.16016368108E+03  0.34218440105E+01  0.17264818377E+03  0.00000000000E+00 0. -1.
         21    1    1    2  506  504  0.10639294450E+03  0.13333455212E+03  0.56193577800E+03  0.58725580459E+03  0.00000000000E+00 0. -1.
<scales pt_clust_3="30.12760" pt_clust_4="33.00143" pt_clust_5="14000.00000" pt_clust_6="183.28432"></scales>
<clustering>
<clus scale="   30.128">  1  3  2 -1</clus>
<clus scale="   33.001">  2  4  1 -1</clus>
<clus scale="  183.284">  1  6  2 -1</clus>
<clus scale="   30.128">  1  3  2 -1</clus>
</clustering>
</event>
<event>
 6    0  0.4227619E+002  0.2038927E+03  0.7546771E-02  0.1146496E+00
         21   -1    0    0  503  501  0.00000000000E+00  0.00000000000E+00  0.51799854567E+03  0.51799854567E+03  0.00000000000E+00 0.  1.
         21   -1    0    0  506  502 -0.00000000000E+00 -0.00000000000E+00 -0.16574089606E+03  0.16574089606E+03  0.00000000000E+00 0. -1.
         21    1    1    2  503  505  0.11098864011E+03  0.14884006913E+02  0.10318729978E+03  0.15227485259E+03  0.00000000000E+00 0.  1.
         21    1    1    2  504  501  0.15453076320E+02 -0.30683692447E+02  0.25415565306E+03  0.25646711784E+03  0.00000000000E+00 0.  1.
         21    1    1    2  505  502  0.52454122098E+02  0.64898633378E+02  0.24892068313E+02  0.87079748532E+02  0.00000000000E+00 0.  1.
         21    1    1    2  506  504 -0.17889583853E+03 -0.49098947843E+02 -0.29977371555E+02  0.18791772276E+03  0.00000000000E+00 0. -1.
<scales pt_clust_3="72.92000" pt_clust_4="34.35530" pt_clust_5="72.92000" pt_clust_6="183.75188"></scales>
<clustering>
<clus scale="   34.355">  1  4  2 -1</clus>
<clus scale="   72.920">  3  5 -1 -1</clus>
<clus scale="  183.752">  2  6  1 -1</clus>
<clus scale="   34.355">  1  3  2 -1</clus>
</clustering>
</event>
<event>
 6    0  0.4227619E+002  0.6168691E+02  0.7546771E-02  0.1390886E+00
         21   -1    0    0  505  501  0.00000000000E+00  0.00000000000E+00  0.10949474823E+03  0.10949474823E+03  0.00000000000E+00 0.  1.
         21   -1    0    0  504  502 -0.00000000000E+00 -0.00000000000E+00 -0.45583687754E+03  0.45583687754E+03  0.00000000000E+00 0. -1.
         21    1    1    2  503  502  0.40981052930E+01 -0.60194403756E+02 -0.14130047610E+03  0.15364239408E+03  0.00000000000E+00 0. -1.
         21    1    1    2  504  506 -0.38568992097E+02  0.54404446664E+02 -0.23870673290E+03  0.24784736291E+03  0.00000000000E+00 0. -1.
         21    1    1    2  505  503  0.82949503497E+02  0.27003874699E+02 -0.18895746513E+02  0.89257372891E+02  0.00000000000E+00 0. -1.
         21    1    1    2  506  501 -0.48478616693E+02 -0.21213917607E+02  0.52560826205E+02  0.74584495896E+02  0.00000000000E+00 0.  1.
<scales pt_clust_3="61.68691" pt_clust_4="14000.00000" pt_clust_5="47.05500" pt_clust_6="52.91698"></scales>
<clustering>
<clus scale="   52.917">  1  6  2 -1</clus>
<clus scale="   47.055">  1  5  2 -1</clus>
<clus scale="   61.687">  1  3  2 -1</clus>
<clus scale="   52.917">  1  3  2 -1</clus>
</clustering>
</event>
<event>
 6    0  0.4227619E+002  0.8477395E+02  0.7546771E-02  0.1316025E+00
         21   -1    0    0  505  501  0.00000000000E+00  0.00000000000E+00  0.28909411160E+03  0.28909411160E+03  0.00000000000E+00 0.  1.
         21   -1    0    0  506  502 -0.00000000000E+00 -0.00000000000E+00 -0.37634042329E+03  0.37634042329E+03  0.00000000000E+00 0. -1.
         21    1    1    2  503  502 -0.41737378119E+02 -0.24763284936E+02 -0.33006301014E+03  0.33361177988E+03  0.00000000000E+00 0. -1.
         21    1    1    2  504  503  0.10620030503E+03  0.56808214902E+02  0.12545951784E+03  0.17391310671E+03  0.00000000000E+00 0.  1.
         21    1    1    2  505  504 -0.26585444748E+01 -0.32244764050E+02  0.78496834025E+02  0.84903154354E+02  0.00000000000E+00 0.  1.
         21    1    1    2  506  501 -0.61804382434E+02  0.19983408360E+00  0.38860346582E+02  0.73006493945E+02  0.00000000000E+00 0.  1.
<scales pt_clust_3="48.69155" pt_clust_4="84.77395" pt_clust_5="32.35418" pt_clust_6="14000.00000"></scales>
<clustering>
<clus scale="   32.354">  1  5  2 -1</clus>
<clus scale="   48.692">  2  3  1 -1</clus>
<clus scale="   84.774">  2  4  1 -1</clus>
<clus scale="   32.354">  1  3  2 -1</clus>
</clustering>
</event>
<event>
 6    0  0.4227619E+002  0.1119057E+03  0.7546771E-02  0.1257081E+00
         21   -1    0    0  503  501  0.00000000000E+00  0.00000000000E+00  0.94104474484E+03  0.94104474484E+03  0.00000000000E+00 0.  1.
         21   -1    0    0  504  502 -0.00000000000E+00 -0.00000000000E+00 -0.42462185204E+03  0.42462185204E+03  0.00000000000E+00 0. -1.
         21    1    1    2  503  506 -0.90630090608E+02  0.45168227985E+02  0.65615877024E+03  0.66392643712E+03  0.00000000000E+00 0.  1.
         21    1    1    2  504  505 -0.62968679847E+02 -0.16345184361E+02 -0.42121440788E-01  0.65055526035E+02  0.00000000000E+00 0. -1.
         21    1    1    2  505  501 -0.19509474801E+02 -0.24573793762E+02  0.22805719394E+03  0.23020550526E+03  0.00000000000E+00 0.  1.
         21    1    1    2  506  502  0.17310824526E+03 -0.42492498615E+01 -0.36775094993E+03  0.40647912846E+03  0.00000000000E+00 0. -1.
<scales pt_clust_3="14000.00000" pt_clust_4="66.20529" pt_clust_5="31.37660" pt_clust_6="111.90572"></scales>
<clustering>
<clus scale="   31.377">  1  5  2 -1</clus>
<clus scale="   66.205">  2  4  1 -1</clus>
<clus scale="  111.906">  2  6  1 -1</clus>
<clus scale="   31.377">  1  3  2 -1</clus>
</clustering>
</event>
<event>
 6    0  0.4227619E+002  0.9395039E+02  0.7546771E-02  0.1293558E+00
         21   -1    0    0  506  501  0.00000000000E+00  0.00000000000E+00  0.92220390406E+02  0.92220390406E+02  0.00000000000E+00 0.  1.
         21   -1    0    0  505  502 -0.00000000000E+00 -0.00000000000E+00 -0.78170640371E+03  0.78170640371E+03  0.00000000000E+00 0.  1.
         21    1    1    2  503  504  0.53940796638E+02  0.74049120561E+02  0.77999442970E+01  0.91944118512E+02  0.00000000000E+00 0.  1.
         21    1    1    2  504  501  0.35244155459E+02 -0.74226594786E+01  0.10312280951E+02  0.37464509955E+02  0.00000000000E+00 0.  1.
         21    1    1    2  505  503 -0.88144162759E+02 -0.19987102344E+02 -0.98680424737E+02  0.13381593296E+03  0.00000000000E+00 0.  1.
         21    1    1    2  506  502 -0.10407893381E+01 -0.46639358739E+02 -0.60891781381E+03  0.61070223268E+03  0.00000000000E+00 0.  1.
<scales pt_clust_3="93.95039" pt_clust_4="36.01731" pt_clust_5="14000.00000" pt_clust_6="46.73988"></scales>
<clustering>
<clus scale="   36.017">  1  4  2 -1</clus>
<clus scale="   46.740">  2  6  1 -1</clus>
<clus scale="   93.950">  1  3  2 -1</clus>
<clus scale="   36.017">  1  3  2 -1</clus>
</clustering>
</event>
<event>
 6    0  0.4227619E+002  0.1053069E+03  0.7546771E-02  0.1269516E+00
         21   -1    0    0  504  501  0.00000000000E+00  0.00000000000E+00  0.95234665866E+02  0.95234665866E+02  0.00000000000E+00 0.  1.
         21   -1    0    0  506  502 -0.00000000000E+00 -0.00000000000E+00 -0.78011520869E+03  0.78011520869E+03  0.00000000000E+00 0. -1.
         21    1    1    2  503  501  0.30837812826E+02  0.87736637401E+02 -0.83446057904E+02  0.12494772036E+03  0.00000000000E+00 0.  1.
         21    1    1    2  504  505 -0.60015253399E+02 -0.95106334025E+02  0.58307652328E+01  0.11261013824E+03  0.00000000000E+00 0.  1.
         21    1    1    2  505  502  0.11005226651E+03  0.17478692186E+02 -0.30452106503E+03  0.32426853855E+03  0.00000000000E+00 0. -1.
         21    1    1    2  506  503 -0.80874825935E+02 -0.10108995562E+02 -0.30274418512E+03  0.31352347741E+03  0.00000000000E+00 0. -1.
<scales pt_clust_3="105.30690" pt_clust_4="14000.00000" pt_clust_5="57.19847" pt_clust_6="81.50417"></scales>
<clustering>
<clus scale="   81.504">  2  6  1 -1</clus>
<clus scale="   57.198">  2  5  1 -1</clus>
<clus scale="  105.307">  2  3  1 -1</clus>
<clus scale="  105.307">  1  3  2 -1</clus>
</clustering>
</event>
<event>
 6    0  0.4227619E+002  0.1773674E+03  0.7546771E-02  0.1170375E+00
         21   -1    0    0  505  501  0.00000000000E+00  0.00000000000E+00  0.12689270509E+04  0.12689270509E+04  0.00000000000E+00 0. -1.
         21   -1    0    0  506  502 -0.00000000000E+00 -0.00000000000E+00 -0.57618248978E+03  0.57618248978E+03  0.00000000000E+00 0. -1.
         21    1    1    2  503  501  0.14004070066E+02 -0.44591954431E+02  0.10483171051E+04  0.10493585227E+04  0.00000000000E+00 0. -1.
         21    1    1    2  504  503 -0.12191132566E+02 -0.14407794784E+03  0.15444643894E+03  0.21156743905E+03  0.00000000000E+00 0. -1.
         21    1    1    2  505  502 -0.76805559413E+02  0.16237419970E+03 -0.22288615419E+03  0.28625637532E+03  0.00000000000E+00 0. -1.
         21    1    1    2  506  504  0.74992621913E+02  0.26295702579E+02 -0.28713282871E+03  0.29792720359E+03  0.00000000000E+00 0. -1.
<scales pt_clust_3="46.73924" pt_clust_4="177.36741" pt_clust_5="14000.00000" pt_clust_6="79.43972"></scales>
<clustering>
<clus scale="   46.739">  1  3  2 -1</clus>
<clus scale="   79.440">  2  6  1 -1</clus>
<clus scale="  177.367">  1  4  2 -1</clus>
<clus scale="   46.739">  1  3  2 -1</clus>
</clustering>
</event>
<event>
 6    0  0.4227619E+002  0.5940035E+02  0.7546771E-02  0.1400366E+00
         21   -1    0    0  504  501  0.00000000000E+00  0.00000000000E+00  0.18099706443E+03  0.18099706443E+03  0.00000000000E+00 0. -1.
         21   -1    0    0  506  502 -0.00000000000E+00 -0.00000000000E+00 -0.18333195160E+03  0.18333195160E+03  0.00000000000E+00 0. -1.
         21    1    1    2  503  502 -0.55313819989E+02  0.13078092895E+02 -0.10242896834E+03  0.11714242933E+03  0.00000000000E+00 0. -1.
         21    1    1    2  504  503 -0.27278206458E+01  0.62597061874E+02  0.61185193118E+01  0.62954502931E+02  0.00000000000E+00 0. -1.
         21    1    1    2  505  501 -0.15940111837E+02 -0.56930382716E+02  0.90163427429E+02  0.10781743499E+03  0.00000000000E+00 0. -1.
         21    1    1    2  506  505  0.73981752472E+02 -0.18744772053E+02  0.38121344242E+01  0.76414648772E+02  0.00000000000E+00 0. -1.
<scales pt_clust_3="56.83885" pt_clust_4="14000.00000" pt_clust_5="59.40035" pt_clust_6="48.27041"></scales>
<clustering>
<clus scale="   56.839">  2  3  1 -1</clus>
<clus scale="   48.270">  2  6  1 -1</clus>
<clus scale="   59.400">  1  5  2 -1</clus>
<clus scale="   59.400">  1  3  2 -1</clus>
</clustering>
</event>
<event>
 6    0  0.4227619E+002  0.8039341E+02  0.7546771E-02  0.1327939E+00
         21   -1    0    0  504  501  0.00000000000E+00  0.00000000000E+00  0.39064510019E+03  0.39064510019E+03  0.00000000000E+00 0.  1.
         21   -1    0    0  503  502 -0.00000000000E+00 -0.00000000000E+00 -0.25131188374E+03  0.25131188374E+03  0.00000000000E+00 0. -1.
         21    1    1    2  503  505  0.10827278588E+03 -0.16277620072E+02 -0.11941627693E+03  0.16201297564E+03  0.00000000000E+00 0. -1.
         21    1    1    2  504  506 -0.10052083460E+03 -0.33672816705E+01  0.11638969227E+03  0.15382567160E+03  0.00000000000E+00 0.  1.
         21    1    1    2  505  501  0.30918142989E+02 -0.21598965805E+02  0.22381197096E+03  0.22696749820E+03  0.00000000000E+00 0.  1.
         21    1    1    2  506  502 -0.38670094271E+02  0.41243867548E+02 -0.81452169859E+02  0.99150838504E+02  0.00000000000E+00 0. -1.
<scales pt_clust_3="80.39341" pt_clust_4="14000.00000" pt_clust_5="37.71534" pt_clust_6="54.56241"></scales>
<clustering>
<clus scale="   37.715">  1  5  2 -1</clus>
<clus scale="   54.562">  2  6  1 -1</clus>
<clus scale="   80.393">  2  3  1 -1</clus>
<clus scale="   37.715">  1  3  2 -1</clus>
</clustering>
</event>
<event>
 6    0  0.4227619E+002  0.8845856E+02  0.7546771E-02  0.1306628E+00
         21   -1    0    0  506  501  0.00000000000E+00  0.00000000000E+00  0.97545493403E+03  0.97545493403E+03  0.00000000000E+00 0.  1.
         21   -1    0    0  504  502 -0.00000000000E+00 -0.00000000000E+00 -0.83462934907E+02  0.83462934907E+02  0.00000000000E+00 0.  1.
         21    1    1    2  503  502  0.52023775588E+02  0.18866941370E+02  0.72485818866E+02  0.91195551645E+02  0.00000000000E+00 0. -1.
         21    1    1    2  504  505 -0.93588524277E+02 -0.45916723502E+02 -0.31476567024E+02  0.10889413044E+03  0.00000000000E+00 0.  1.
         21    1    1    2  505  501  0.24215219487E+02  0.55113983509E+02  0.25807320715E+03  0.26500133638E+03  0.00000000000E+00 0.  1.
         21    1    1    2  506  503  0.17349529202E+02 -0.28064201377E+02  0.59290954013E+03  0.59382685047E+03  0.00000000000E+00 0.  1.
<scales pt_clust_3="14000.00000" pt_clust_4="88.45856" pt_clust_5="50.90835" pt_clust_6="32.99402"></scales>
<clustering>
<clus scale="   32.994">  1  6  2 -1</clus>
<clus scale="   50.908">  1  5  2 -1</clus>
<clus scale="   88.459">  2  4  1 -1</clus>
<clus scale="   32.994">  1  3  2 -1</clus>
</clustering>
</event>
<event>
 6    0  0.4227619E+002  0.1363389E+03  0.7546771E-02  0.1218342E+00
         21   -1    0    0  506  501  0.00000000000E+00  0.00000000000E+00  0.66515314433E+03  0.66515314433E+03  0.00000000000E+00 0. -1.
         21   -1    0    0  505  502 -0.00000000000E+00 -0.00000000000E+00 -0.10179430373E+04  0.10179430373E+04  0.00000000000E+00 0. -1.
         21    1    1    2  503  501 -0.43001573516E+02 -0.56796940093E+02  0.63382047167E+03  0.63781142827E+03  0.00000000000E+00 0. -1.
         21    1    1    2  504  502  0.16968139774E+03  0.75295313925E+02 -0.62443104739E+03  0.65144093668E+03  0.00000000000E+00 0. -1.
         21    1    1    2  505  503 -0.35055063254E+02  0.39802171735E+01 -0.22255896282E+03  0.22533794958E+03  0.00000000000E+00 0. -1.
         21    1    1    2  506  504 -0.91624760970E+02 -0.22478591006E+02 -0.13962035441E+03  0.16850586709E+03  0.00000000000E+00 0. -1.
<scales pt_clust_3="71.28447" pt_clust_4="14000.00000" pt_clust_5="35.28030" pt_clust_6="136.33895"></scales>
<clustering>
<clus scale="   35.280">  2  5  1 -1</clus>
<clus scale="   71.284">  1  3  2 -1</clus>
<clus scale="  136.339">  1  6  2 -1</clus>
<clus scale="   71.284">  1  3  2 -1</clus>
</clustering>
</event>
<event>
 6    0  0.4227619E+002  0.7853782E+02  0.7546771E-02  0.1333253E+00
         21   -1    0    0  504  501  0.00000000000E+00  0.00000000000E+00  0.11493320577E+04  0.11493320577E+04  0.00000000000E+00 0.  1.
         21   -1    0    0  506  502 -0.00000000000E+00 -0.00000000000E+00 -0.69722741350E+03  0.69722741350E+03  0.00000000000E+00 0. -1.
         21    1    1    2  503  502 -0.26624717234E+02 -0.27078638367E+02 -0.58766889193E+03  0.58889460412E+03  0.00000000000E+00 0. -1.
         21    1    1    2  504  503  0.48822809077E+02 -0.13938119194E+02  0.10157298576E+03  0.11355619441E+03  0.00000000000E+00 0. -1.
         21    1    1    2  505  501 -0.87248679997E+02  0.59691324570E+01  0.10257919303E+04  0.10295130145E+04  0.00000000000E+00 0.  1.
         21    1    1    2  506  505  0.65050588153E+02  0.35047625104E+02 -0.87591379919E+02  0.11459565821E+03  0.00000000000E+00 0. -1.
<scales pt_clust_3="37.97536" pt_clust_4="78.53782" pt_clust_5="14000.00000" pt_clust_6="41.54665"></scales>
<clustering>
<clus scale="   37.975">  2  3  1 -1</clus>
<clus scale="   41.547">  2  6  1 -1</clus>
<clus scale="   78.538">  2  4  1 -1</clus>
<clus scale="   78.538">  1  3  2 -1</clus>
</clustering>
</event>
<event>
 6    0  0.4227619E+002  0.1318147E+03  0.7546771E-02  0.1224788E+00
         21   -1    0    0  504  501  0.00000000000E+00  0.00000000000E+00  0.19953207474E+03  0.19953207474E+03  0.00000000000E+00 0. -1.
         21   -1    0    0  505  502 -0.00000000000E+00 -0.00000000000E+00 -0.68053953885E+03  0.68053953885E+03  0.00000000000E+00 0. -1.
         21    1    1    2  503  506 -0.93406184853E+02 -0.47699900407E+02 -0.26130909768E+01  0.10491341245E+03  0.00000000000E+00 0.  1.
         21    1    1    2  504  503 -0.54841094622E+02  0.78176975907E+02  0.12046338056E+03  0.15372251390E+03  0.00000000000E+00 0. -1.
         21    1    1    2  505  501  0.10869523942E+03 -0.24370465433E+02 -0.53181758140E+03  0.54335855063E+03  0.00000000000E+00 0. -1.
         21    1    1    2  506  502  0.39552040056E+02 -0.61066100662E+01 -0.67040172298E+02  0.78077136607E+02  0.00000000000E+00 0. -1.
<scales pt_clust_3="14000.00000" pt_clust_4="94.73970" pt_clust_5="131.81468" pt_clust_6="40.02068"></scales>
<clustering>
<clus scale="   40.021">  2  6  1 -1</clus>
<clus scale="   94.740">  1  4  2 -1</clus>
<clus scale="  131.815">  2  5  1 -1</clus>
<clus scale="   94.740">  1  3  2 -1</clus>
</clustering>
</event>
<event>
 6    0  0.4227619E+002  0.8525575E+02  0.7546771E-02  0.1314765E+00
         21   -1    0    0  506  501  0.00000000000E+00  0.00000000000E+00  0.90660170638E+03  0.90660170638E+03  0.00000000000E+00 0. -1.
         21   -1    0    0  503  502 -0.00000000000E+00 -0.00000000000E+00 -0.59233507562E+02  0.59233507562E+02  0.00000000000E+00 0. -1.
         21    1    1    2  503  501  0.54222580905E+02  0.80473360600E+02  0.61970301771E+02  0.11513630335E+03  0.00000000000E+00 0. -1.
         21    1    1    2  504  502  0.48896280155E+02 -0.69727260426E+02  0.41110945008E+02  0.94566626560E+02  0.00000000000E+00 0. -1.
         21    1    1    2  505  504 -0.55565114707E+02 -0.42575731936E+02  0.29373270657E+03  0.30195873531E+03  0.00000000000E+00 0. -1.
         21    1    1    2  506  505 -0.47553746353E+02  0.31829631762E+02  0.45055424547E+03  0.45417354872E+03  0.00000000000E+00 0. -1.
<scales pt_clust_3="85.25575" pt_clust_4="77.25500" pt_clust_5="14000.00000" pt_clust_6="57.22311"></scales>
<clustering>
<clus scale="   57.223">  1  6  2 -1</clus>
<clus scale="   77.255">  2  4  1 -1</clus>
<clus scale="   85.256">  2  3  1 -1</clus>
<clus scale="   57.223">  1  3  2 -1</clus>
</clustering>
</event>
<event>
 6    0  0.4227619E+002  0.7890095E+02  0.7546771E-02  0.1332200E+00
         21   -1    0    0  505  501  0.00000000000E+00  0.00000000000E+00  0.61843645094E+02  0.61843645094E+02  0.00000000000E+00 0. -1.
         21   -1    0    0  504  502 -0.00000000000E+00 -0.00000000000E+00 -0.88328138661E+03  0.88328138661E+03  0.00000000000E+00 0. -1.
         21    1    1    2  503  502  0.63268134712E+02  0.91351578820E+01 -0.23619848576E+03  0.24469579616E+03  0.00000000000E+00 0. -1.
         21    1    1    2  504  506 -0.12554751277E+03  0.26521819470E+02 -0.56430072603E+03  0.57870622449E+03  0.00000000000E+00 0. -1.
         21    1    1    2  505  503  0.84888478477E+02 -0.10172155816E+02 -0.19111374612E+02  0.87605771338E+02  0.00000000000E+00 0. -1.
         21    1    1    2  506  501 -0.22609100419E+02 -0.25484821536E+02 -0.18271551173E+01  0.34117239723E+02  0.00000000000E+00 0.  1.
<scales pt_clust_3="61.53920" pt_clust_4="14000.00000" pt_clust_5="78.90095" pt_clust_6="34.06828"></scales>
<clustering>
<clus scale="   34.068">  1  6  2 -1</clus>
<clus scale="   61.539">  2  3  1 -1</clus>
<clus scale="   78.901">  1  5  2 -1</clus>
<clus scale="   34.068">  1  3  2 -1</clus>
</clustering>
</event>
<event>
 6    0  0.4227619E+002  0.7908932E+02  0.7546771E-02  0.1331656E+00
         21   -1    0    0  504  501  0.00000000000E+00  0.00000000000E+00  0.71743494183E+02  0.71743494183E+02  0.00000000000E+00 0. -1.
         21   -1    0    0  506  502 -0.00000000000E+00 -0.00000000000E+00 -0.76535222059E+03  0.76535222059E+03  0.00000000000E+00 0.  1.
         21    1    1    2  503  501  0.58399409120E+02 -0.51176236475E+02  0.30037124228E+02  0.83256993683E+02  0.00000000000E+00 0. -1.
         21    1    1    2  504  502 -0.10331015385E+03  0.46230198967E+02 -0.53768800371E+03  0.54947120809E+03  0.00000000000E+00 0.  1.
         21    1    1    2  505  503  0.26795041854E+02  0.38241333492E+02 -0.96170718306E+02  0.10690734734E+03  0.00000000000E+00 0.  1.
         21    1    1    2  506  505  0.18115702881E+02 -0.33295295984E+02 -0.89787128621E+02  0.97460165665E+02  0.00000000000E+00 0.  1.
<scales pt_clust_3="79.08932" pt_clust_4="14000.00000" pt_clust_5="44.44120" pt_clust_6="37.90456"></scales>
<clustering>
<clus scale="   37.905">  2  6  1 -1</clus>
<clus scale="   44.441">  2  5  1 -1</clus>
<clus scale="   79.089">  1  3  2 -1</clus>
<clus scale="   79.089">  1  3  2 -1</clus>
</clustering>
</event>
<event>
 6    0  0.4227619E+002  0.7946430E+02  0.7546771E-02  0.1330579E+00
         21   -1    0    0  506  501  0.00000000000E+00  0.00000000000E+00  0.10986589310E+02  0.10986589310E+02  0.00000000000E+00 0.  1.
         21   -1    0    0  503  502 -0.00000000000E+00 -0.00000000000E+00 -0.26073076118E+04  0.26073076118E+04  0.00000000000E+00 0.  1.
         21    1    1    2  503  501  0.19346196427E+02 -0.35640319540E+02 -0.10962173438E+04  0.10969671702E+04  0.00000000000E+00 0. -1.
         21    1    1    2  504  505 -0.77052851960E+02  0.95141691157E+02 -0.74847585788E+03  0.75842283274E+03  0.00000000000E+00 0.  1.
         21    1    1    2  505  502 -0.32874128265E+01 -0.58301511536E+02 -0.52398101395E+03  0.52722478726E+03  0.00000000000E+00 0.  1.
         21    1    1    2  506  504  0.60994068359E+02 -0.11998600811E+01 -0.22764680684E+03  0.23567941086E+03  0.00000000000E+00 0.  1.
<scales pt_clust_3="40.55253" pt_clust_4="79.46430" pt_clust_5="14000.00000" pt_clust_6="64.30709"></scales>
<clustering>
<clus scale="   40.553">  2  3  1 -1</clus>
<clus scale="   64.307">  1  6  2 -1</clus>
<clus scale="   79.464">  1  4  2 -1</clus>
<clus scale="   64.307">  1  3  2 -1</clus>
</clustering>
</event>
<event>
 6    0  0.4227619E+002  0.1091340E+03  0.7546771E-02  0.1262182E+00
         21   -1    0    0  504  501  0.00000000000E+00  0.00000000000E+00  0.34739754939E+02  0.34739754939E+02  0.00000000000E+00 0. -1.
         21   -1    0    0  506  502 -0.00000000000E+00 -0.00000000000E+00 -0.10988994280E+04  0.10988994280E+04  0.00000000000E+00 0. -1.
         21    1    1    2  503  505  0.19094667275E+02  0.40953906771E+02 -0.70874613249E+02  0.84053789928E+02  0.00000000000E+00 0. -1.
         21    1    1    2  504  502 -0.11504418457E+03 -0.92104954726E+02 -0.67404818711E+03  0.68997061215E+03  0.00000000000E+00 0. -1.
         21    1    1    2  505  501  0.12211366956E+02  0.31457366080E+02 -0.53650020030E+01  0.34168210520E+02  0.00000000000E+00 0. -1.
         21    1    1    2  506  503  0.83738150342E+02  0.19693681875E+02 -0.31387187073E+03  0.32544657037E+03  0.00000000000E+00 0. -1.
<scales pt_clust_3="56.10066" pt_clust_4="109.13405" pt_clust_5="33.74438" pt_clust_6="14000.00000"></scales>
<clustering>
<clus scale="   33.744">  1  5  2 -1</clus>
<clus scale="   56.101">  1  3  2 -1</clus>
<clus scale="  109.134">  1  4  2 -1</clus>
<clus scale="   33.744">  1  3  2 -1</clus>
</clustering>
</event>
<event>
 6    0  0.4227619E+002  0.7647085E+02  0.7546771E-02  0.1339376E+00
         21   -1    0    0  504  501  0.00000000000E+00  0.00000000000E+00  0.19371749699E+03  0.19371749699E+03  0.00000000000E+00 0.  1.
         21   -1    0    0  505  502 -0.00000000000E+00 -0.00000000000E+00 -0.16552570959E+03  0.16552570959E+03  0.00000000000E+00 0. -1.
         21    1    1    2  503  506 -0.72584735025E+02  0.89450732353E+02 -0.18047732931E+02  0.11660059151E+03  0.00000000000E+00 0. -1.
         21    1    1    2  504  503 -0.10325446263E+02 -0.73200436342E+02  0.71022363747E+02  0.10251387649E+03  0.00000000000E+00 0.  1.
         21    1    1    2  505  501  0.50997784274E+02  0.42824488499E+02  0.47807436353E+01  0.66765008243E+02  0.00000000000E+00 0. -1.
         21    1    1    2  506  502  0.31912397014E+02 -0.59074784510E+02 -0.29563587058E+02  0.73363730329E+02  0.00000000000E+00 0. -1.
<scales pt_clust_3="76.47085" pt_clust_4="14000.00000" pt_clust_5="66.59362" pt_clust_6="66.83402"></scales>
<clustering>
<clus scale="   66.594">  2  5  1 -1</clus>
<clus scale="   66.834">  2  6  1 -1</clus>
<clus scale="   76.471">  2  3  1 -1</clus>
<clus scale="   76.471">  1  3  2 -1</clus>
</clustering>
</event>
<event>
 6    0  0.4227619E+002  0.7613711E+02  0.7546771E-02  0.1340386E+00
         21   -1    0    0  505  501  0.00000000000E+00  0.00000000000E+00  0.85380265332E+03  0.85380265332E+03  0.00000000000E+00 0. -1.
         21   -1    0    0  504  502 -0.00000000000E+00 -0.00000000000E+00 -0.14107845757E+03  0.14107845757E+03  0.00000000000E+00 0. -1.
         21    1    1    2  503  502  0.73567070135E+02  0.78865024964E+02  0.24907041872E+03  0.27141827398E+03  0.00000000000E+00 0. -1.
         21    1    1    2  504  506 -0.23656296612E+02 -0.22894543734E+02 -0.11671185444E+03  0.12126597820E+03  0.00000000000E+00 0. -1.
         21    1    1    2  505  503 -0.53651748016E+02  0.61520762118E+01  0.48703137748E+03  0.49001624540E+03  0.00000000000E+00 0. -1.
         21    1    1    2  506  501  0.37409744932E+01 -0.62122557442E+02  0.93334253991E+02  0.11218061330E+03  0.00000000000E+00 0.  1.
<scales pt_clust_3="14000.00000" pt_clust_4="32.92082" pt_clust_5="55.44164" pt_clust_6="76.13711"></scales>
<clustering>
<clus scale="   32.921">  2  4  1 -1</clus>
<clus scale="   55.442">  1  5  2 -1</clus>
<clus scale="   76.137">  2  6  1 -1</clus>
<clus scale="   55.442">  1  3  2 -1</clus>
</clustering>
</event>
<event>
 6    0  0.4227619E+002  0.6173459E+02  0.7546771E-02  0.1390693E+00
         21   -1    0    0  503  501  0.00000000000E+00  0.00000000000E+00  0.41532756816E+03  0.41532756816E+03  0.00000000000E+00 0.  1.
         21   -1    0    0  506  502 -0.00000000000E+00 -0.00000000000E+00 -0.14593655818E+03  0.14593655818E+03  0.00000000000E+00 0.  1.
         21    1    1    2  503  504 -0.53802523324E+02  0.35020270952E+01  0.12296974520E+03  0.13427037627E+03  0.00000000000E+00 0.  1.
         21    1    1    2  504  502 -0.33643479552E+02 -0.10167242234E+03 -0.63462793842E+02  0.12448570754E+03  0.00000000000E+00 0.  1.
         21    1    1    2  505  501  0.65083139394E+02  0.49913552191E+02  0.23111744269E+03  0.24523957683E+03  0.00000000000E+00 0.  1.
         21    1    1    2  506  505  0.22362863483E+02  0.48256843050E+02 -0.21233384076E+02  0.57268465700E+02  0.00000000000E+00 0.  1.
<scales pt_clust_3="52.96570" pt_clust_4="61.73459" pt_clust_5="14000.00000" pt_clust_6="53.18666"></scales>
<clustering>
<clus scale="   53.187">  2  6  1 -1</clus>
<clus scale="   52.966">  1  3  2 -1</clus>
<clus scale="   61.735">  2  4  1 -1</clus>
<clus scale="   52.966">  1  3  2 -1</clus>
</clustering>
</event>
<event>
 6    0  0.4227619E+002  0.1356949E+03  0.7546771E-02  0.1219242E+00
         21   -1    0    0  506  501  0.00000000000E+00  0.00000000000E+00  0.27917209187E+03  0.27917209187E+03  0.00000000000E+00 0.  1.
         21   -1    0    0  503  502 -0.00000000000E+00 -0.00000000000E+00 -0.51792152638E+03  0.51792152638E+03  0.00000000000E+00 0.  1.
         21    1    1    2  503  505  0.18914596646E+02 -0.13400484694E+03 -0.41981141160E+03  0.44108579923E+03  0.00000000000E+00 0.  1.
         21    1    1    2  504  501 -0.30098486621E+02  0.31885721919E+02  0.12493926525E+02  0.45592941989E+02  0.00000000000E+00 0. -1.
         21    1    1    2  505  504 -0.53766101780E+02 -0.49732602002E+02 -0.16254547706E+01  0.73258224834E+02  0.00000000000E+00 0.  1.
         21    1    1    2  506  502  0.64949991755E+02  0.15185172702E+03  0.17019350533E+03  0.23715665221E+03  0.00000000000E+00 0.  1.
<scales pt_clust_3="135.69493" pt_clust_4="43.84767" pt_clust_5="73.57214" pt_clust_6="14000.00000"></scales>
<clustering>
<clus scale="   43.848">  1  4  2 -1</clus>
<clus scale="   73.572">  1  5  2 -1</clus>
<clus scale="  135.695">  2  3  1 -1</clus>
<clus scale="   43.848">  1  3  2 -1</clus>
</clustering>
</event>
<event>
 6    0  0.4227619E+002  0.1355165E+03  0.7546771E-02  0.1219492E+00
         21   -1    0    0  506  501  0.00000000000E+00  0.00000000000E+00  0.54607908320E+03  0.54607908320E+03  0.00000000000E+00 0.  1.
         21   -1    0    0  503  502 -0.00000000000E+00 -0.00000000000E+00 -0.44625603319E+03  0.44625603319E+03  0.00000000000E+00 0. -1.
         21    1    1    2  503  501 -0.30747972076E+02  0.12938072099E+03  0.28879260019E+02  0.13608387270E+03  0.00000000000E+00 0. -1.
         21    1    1    2  504  502  0.64268447955E+01 -0.13618262604E+03 -0.29400605515E+03  0.32407803448E+03  0.00000000000E+00 0. -1.
         21    1    1    2  505  504  0.86055318514E+02  0.19710314544E+02 -0.57293740793E+02  0.10524536606E+03  0.00000000000E+00 0.  1.
         21    1    1    2  506  505 -0.61734191233E+02 -0.12908409497E+02  0.42224358592E+03  0.42692784315E+03  0.00000000000E+00 0.  1.
<scales pt_clust_3="135.51652" pt_clust_4="14000.00000" pt_clust_5="75.84008" pt_clust_6="63.06931"></scales>
<clustering>
<clus scale="   63.069">  1  6  2 -1</clus>
<clus scale="   75.840">  1  5  2 -1</clus>
<clus scale="  135.517">  1  3  2 -1</clus>
<clus scale="   63.069">  1  3  2 -1</clus>
</clustering>
</event>
<event>
 6    0  0.4227619E+002  0.1162528E+03  0.7546771E-02  0.1249410E+00
         21   -1    0    0  505  501  0.00000000000E+00  0.00000000000E+00  0.50530172886E+03  0.50530172886E+03  0.00000000000E+00 0.  1.
         21   -1    0    0  506  502 -0.00000000000E+00 -0.00000000000E+00 -0.46525606694E+03  0.46525606694E+03  0.00000000000E+00 0. -1.
         21    1    1    2  503  502  0.11913142959E+03 -0.66190762568E+02 -0.35112485356E+03  0.37664595757E+03  0.00000000000E+00 0. -1.
         21    1    1    2  504  501  0.37771280525E+02  0.13942710065E+01  0.69364366445E+02  0.78993853916E+02  0.00000000000E+00 0. -1.
         21    1    1    2  505  503 -0.76945427964E+02  0.36875472688E+02 -0.72285674346E+02  0.11182852090E+03  0.00000000000E+00 0.  1.
         21    1    1    2  506  504 -0.79957282154E+02  0.27921018874E+02  0.39409182338E+03  0.40308946342E+03  0.00000000000E+00 0.  1.
<scales pt_clust_3="116.25279" pt_clust_4="37.79701" pt_clust_5="14000.00000" pt_clust_6="53.67947"></scales>
<clustering>
<clus scale="   37.797">  1  4  2 -1</clus>
<clus scale="   53.679">  1  6  2 -1</clus>
<clus scale="  116.253">  2  3  1 -1</clus>
<clus scale="   37.797">  1  3  2 -1</clus>
</clustering>
</event>
<event>
 6    0  0.4227619E+002  0.1704284E+03  0.7546771E-02  0.1177402E+00
         21   -1    0    0  505  501  0.00000000000E+00  0.00000000000E+00  0.67040609191E+03  0.67040609191E+03  0.00000000000E+00 0.  1.
         21   -1    0    0  503  502 -0.00000000000E+00 -0.00000000000E+00 -0.26161468226E+03  0.26161468226E+03  0.00000000000E+00 0. -1.
         21    1    1    2  503  501  0.18990249108E+02  0.42486340468E+02 -0.69516958502E+02  0.83655999229E+02  0.00000000000E+00 0. -1.
         21    1    1    2  504  506  0.20069104489E+02  0.11532979156E+03  0.33810568181E+03  0.35779768285E+03  0.00000000000E+00 0.  1.
         21    1    1    2  505  504  0.29232787090E+02  0.31233064225E+02  0.25535483176E+03  0.25891340299E+03  0.00000000000E+00 0. -1.
         21    1    1    2  506  502 -0.68292140687E+02 -0.18904919626E+03 -0.11515214541E+03  0.23165368911E+03  0.00000000000E+00 0. -1.
<scales pt_clust_3="46.53728" pt_clust_4="39.29732" pt_clust_5="39.29732" pt_clust_6="157.54370"></scales>
<clustering>
<clus scale="   39.297">  4  5 -1 -1</clus>
<clus scale="   46.537">  2  3  1 -1</clus>
<clus scale="  157.544">  2  6  1 -1</clus>
<clus scale="  170.428">  1  3  2 -1</clus>
</clustering>
</event>
<event>
 6    0  0.4227619E+002  0.1002990E+03  0.7546771E-02  0.1279668E+00
         21   -1    0    0  504  501  0.00000000000E+00  0.00000000000E+00  0.20031288337E+03  0.20031288337E+03  0.00000000000E+00 0. -1.
         21   -1    0    0  503  502 -0.00000000000E+00 -0.00000000000E+00 -0.22185959948E+03  0.22185959948E+03  0.00000000000E+00 0. -1.
         21    1    1    2  503  505 -0.11232239649E+03 -0.35749537128E+01 -0.67825694860E+02  0.13126090785E+03  0.00000000000E+00 0. -1.
         21    1    1    2  504  506  0.54998235365E+02 -0.10488325183E+03  0.86492310025E+02  0.14664999864E+03  0.00000000000E+00 0. -1.
         21    1    1    2  505  501  0.41971505125E+02  0.67350532568E+02  0.71689334264E+01  0.79681209115E+02  0.00000000000E+00 0.  1.
         21    1    1    2  506  502  0.15352655996E+02  0.41107672979E+02 -0.47382264705E+02  0.64580367237E+02  0.00000000000E+00 0.  1.
<scales pt_clust_3="100.29900" pt_clust_4="14000.00000" pt_clust_5="88.77868" pt_clust_6="43.88103"></scales>
<clustering>
<clus scale="   43.881">  2  6  1 -1</clus>
<clus scale="   88.779">  1  5  2 -1</clus>
<clus scale="  100.299">  2  3  1 -1</clus>
<clus scale="   88.779">  1  3  2 -1</clus>
</clustering>
</event>
<event>
 6    0  0.4227619E+002  0.2391003E+03  0.7546771E-02  0.1120394E+00
         21   -1    0    0  506  501  0.00000000000E+00  0.00000000000E+00  0.23967173973E+04  0.23967173973E+04  0.00000000000E+00 0.  1.
         21   -1    0    0  503  502 -0.00000000000E+00 -0.00000000000E+00 -0.63323083434E+03  0.63323083434E+03  0.00000000000E+00 0.  1.
         21    1    1    2  503  504 -0.12373245552E+02 -0.28114468734E+02 -0.45187716335E+03  0.45291996127E+03  0.00000000000E+00 0.  1.
         21    1    1    2  504  501 -0.30813791331E+03  0.86805639055E+02  0.12046420200E+03  0.34204651227E+03  0.00000000000E+00 0.  1.
         21    1    1    2  505  502  0.96319509228E+02  0.96756070150E+01 -0.26744271675E+02  0.10043067906E+03  0.00000000000E+00 0. -1.
         21    1    1    2  506  505  0.22419164963E+03 -0.68366777336E+02  0.21216437960E+04  0.21345510790E+04  0.00000000000E+00 0.  1.
<scales pt_clust_3="30.71678" pt_clust_4="239.10027" pt_clust_5="91.96885" pt_clust_6="14000.00000"></scales>
<clustering>
<clus scale="   30.717">  2  3  1 -1</clus>
<clus scale="   91.969">  2  5  1 -1</clus>
<clus scale="  239.100">  2  4  1 -1</clus>
<clus scale="  239.100">  1  3  2 -1</clus>
</clustering>
</event>
<event>
 6    0  0.4227619E+002  0.1484397E+03  0.7546771E-02  0.1202404E+00
         21   -1    0    0  505  501  0.00000000000E+00  0.00000000000E+00  0.28538645695E+02  0.28538645695E+02  0.00000000000E+00 0. -1.
         21   -1    0    0  506  502 -0.00000000000E+00 -0.00000000000E+00 -0.17107942638E+04  0.17107942638E+04  0.00000000000E+00 0. -1.
         21    1    1    2  503  502 -0.38716348339E+02 -0.11950271301E+02 -0.24637196113E+03  0.24968161295E+03  0.00000000000E+00 0. -1.
         21    1    1    2  504  501  0.14010855745E+03  0.55257020625E+02 -0.60973296359E+03  0.62805894078E+03  0.00000000000E+00 0. -1.
         21    1    1    2  505  503 -0.13723703941E+03 -0.53575690184E+02 -0.30100312002E+03  0.33512272054E+03  0.00000000000E+00 0. -1.
         21    1    1    2  506  504  0.35844830297E+02  0.10268940859E+02 -0.52514757336E+03  0.52646963523E+03  0.00000000000E+00 0. -1.
<scales pt_clust_3="32.71629" pt_clust_4="148.43969" pt_clust_5="14000.00000" pt_clust_6="37.28677"></scales>
<clustering>
<clus scale="   37.287">  2  6  1 -1</clus>
<clus scale="   32.716">  2  3  1 -1</clus>
<clus scale="  148.440">  2  4  1 -1</clus>
<clus scale="  148.440">  1  3  2 -1</clus>
</clustering>
</event>
<event>
 6    0  0.4227619E+002  0.7985194E+02  0.7546771E-02  0.1329472E+00
         21   -1    0    0  503  501  0.00000000000E+00  0.00000000000E+00  0.11595163815E+03  0.11595163815E+03  0.00000000000E+00 0.  1.
         21   -1    0    0  504  502 -0.00000000000E+00 -0.00000000000E+00 -0.27994311498E+03  0.27994311498E+03  0.00000000000E+00 0.  1.
         21    1    1    2  503  506  0.46640377458E+02 -0.67251387165E+02  0.44721342998E+02  0.93263456962E+02  0.00000000000E+00 0.  1.
         21    1    1    2  504  505 -0.29072574380E+02 -0.46259254945E+02 -0.91720365866E+02  0.10676028645E+03  0.00000000000E+00 0.  1.
         21    1    1    2  505  501  0.28429166104E+02  0.97698485254E+02 -0.50792598945E+02  0.11372378649E+03  0.00000000000E+00 0.  1.
         21    1    1    2  506  502 -0.45996969181E+02  0.15812156855E+02 -0.66199855021E+02  0.82147223222E+02  0.00000000000E+00 0.  1.
<scales pt_clust_3="14000.00000" pt_clust_4="64.18523" pt_clust_5="79.85194" pt_clust_6="48.63893"></scales>
<clustering>
<clus scale="   48.639">  2  6  1 -1</clus>
<clus scale="   64.185">  2  4  1 -1</clus>
<clus scale="   79.852">  2  5  1 -1</clus>
<clus scale="   79.852">  1  3  2 -1</clus>
</clustering>
</event>
<event>
 6    0  0.4227619E+002  0.1684675E+03  0.7546771E-02  0.1179455E+00
         21   -1    0    0  506  501  0.00000000000E+00  0.00000000000E+00  0.42456740847E+03  0.42456740847E+03  0.00000000000E+00 0.  1.
         21   -1    0    0  503  502 -0.00000000000E+00 -0.00000000000E+00 -0.10904246261E+03  0.10904246261E+03  0.00000000000E+00 0.  1.
         21    1    1    2  503  504 -0.95577954676E+02 -0.46097924234E-01  0.10954818693E+03  0.14538209245E+03  0.00000000000E+00 0.  1.
         21    1    1    2  504  501 -0.37099537145E+02 -0.57698849027E+01  0.63353223495E+01  0.38076285762E+02  0.00000000000E+00 0.  1.
         21    1    1    2  505  502  0.18050669925E+03  0.31745564165E+02  0.48601401488E+02  0.18961156491E+03  0.00000000000E+00 0.  1.
         21    1    1    2  506  505 -0.47829207434E+02 -0.25929581338E+02  0.15104003509E+03  0.16053992797E+03  0.00000000000E+00 0.  1.
<scales pt_clust_3="31.90223" pt_clust_4="31.90223" pt_clust_5="160.59405" pt_clust_6="54.40566"></scales>
<clustering>
<clus scale="   31.902">  3  4 -1 -1</clus>
<clus scale="   54.406">  1  6  2 -1</clus>
<clus scale="  160.594">  2  5  1 -1</clus>
<clus scale="   54.406">  1  3  2 -1</clus>
</clustering>
</event>
<event>
 6    0  0.4227619E+002  0.1433704E+03  0.7546771E-02  0.1208864E+00
         21   -1    0    0  505  501  0.00000000000E+00  0.00000000000E+00  0.23718042728E+04  0.23718042728E+04  0.00000000000E+00 0. -1.
         21   -1    0    0  503  502 -0.00000000000E+00 -0.00000000000E+00 -0.19045203886E+03  0.19045203886E+03  0.00000000000E+00 0.  1.
         21    1    1    2  503  501 -0.91450964902E+02 -0.41657967984E+02  0.22974667919E+03  0.25076323869E+03  0.00000000000E+00 0. -1.
         21    1    1    2  504  506  0.79998372218E+02  0.13174951877E+03  0.68815684822E+03  0.70520743261E+03  0.00000000000E+00 0. -1.
         21    1    1    2  505  504 -0.48268192130E+01  0.53239470275E+02  0.14039201868E+04  0.14049375894E+04  0.00000000000E+00 0. -1.
         21    1    1    2  506  502  0.16279411897E+02 -0.14333102106E+03 -0.14047148025E+03  0.20134805093E+03  0.00000000000E+00 0.  1.
<scales pt_clust_3="96.91519" pt_clust_4="14000.00000" pt_clust_5="53.45783" pt_clust_6="143.37042"></scales>
<clustering>
<clus scale="   53.458">  1  5  2 -1</clus>
<clus scale="   96.915">  1  3  2 -1</clus>
<clus scale="  143.370">  2  6  1 -1</clus>
<clus scale="   53.458">  1  3  2 -1</clus>
</clustering>
</event>
<event>
 6    0  0.4227619E+002  0.1209711E+03  0.7546771E-02  0.1241504E+00
         21   -1    0    0  506  501  0.00000000000E+00  0.00000000000E+00  0.26905044861E+03  0.26905044861E+03  0.00000000000E+00 0.  1.
         21   -1    0    0  505  502 -0.00000000000E+00 -0.00000000000E+00 -0.31455931572E+03  0.31455931572E+03  0.00000000000E+00 0. -1.
         21    1    1    2  503  502 -0.12725611915E+03 -0.19078304977E+02 -0.24331204827E+02  0.13095842512E+03  0.00000000000E+00 0.  1.
         21    1    1    2  504  501  0.10226216654E+03  0.89869430100E+02  0.63227753867E+02  0.15010600931E+03  0.00000000000E+00 0.  1.
         21    1    1    2  505  504  0.26130450713E+02 -0.23230236249E+02 -0.18658539436E+03  0.18983296267E+03  0.00000000000E+00 0. -1.
         21    1    1    2  506  503 -0.11364981056E+01 -0.47560888874E+02  0.10217997821E+03  0.11271236723E+03  0.00000000000E+00 0.  1.
<scales pt_clust_3="14000.00000" pt_clust_4="120.97114" pt_clust_5="34.96347" pt_clust_6="48.52913"></scales>
<clustering>
<clus scale="   34.963">  2  5  1 -1</clus>
<clus scale="   48.529">  1  6  2 -1</clus>
<clus scale="  120.971">  1  4  2 -1</clus>
<clus scale="   48.529">  1  3  2 -1</clus>
</clustering>
</event>
<event>
 6    0  0.4227619E+002  0.7084689E+02  0.7546771E-02  0.1357237E+00
         21   -1    0    0  505  501  0.00000000000E+00  0.00000000000E+00  0.36969840371E+03  0.36969840371E+03  0.00000000000E+00 0.  1.
         21   -1    0    0  506  502 -0.00000000000E+00 -0.00000000000E+00 -0.24305481394E+03  0.24305481394E+03  0.00000000000E+00 0.  1.
         21    1    1    2  503  502  0.52081667057E+02  0.69022642516E+02  0.18497463397E+03  0.20418677830E+03  0.00000000000E+00 0.  1.
         21    1    1    2  504  501  0.61488617673E+01 -0.60121010772E+02  0.30473072164E+02  0.67682734610E+02  0.00000000000E+00 0. -1.
         21    1    1    2  505  503 -0.33094420515E+02  0.56927116474E+02  0.11097592031E+03  0.12904104831E+03  0.00000000000E+00 0.  1.
         21    1    1    2  506  504 -0.25136108310E+02 -0.65828748218E+02 -0.19978003667E+03  0.21184265643E+03  0.00000000000E+00 0.  1.
<scales pt_clust_3="70.84689" pt_clust_4="60.43463" pt_clust_5="46.18657" pt_clust_6="14000.00000"></scales>
<clustering>
<clus scale="   60.435">  1  4  2 -1</clus>
<clus scale="   46.187">  1  5  2 -1</clus>
<clus scale="   70.847">  1  3  2 -1</clus>
<clus scale="   60.435">  1  3  2 -1</clus>
</clustering>
</event>
<event>
 6    0  0.4227619E+002  0.8847212E+02  0.7546771E-02  0.1306594E+00
         21   -1    0    0  503  501  0.00000000000E+00  0.00000000000E+00  0.31657056251E+03  0.31657056251E+03  0.00000000000E+00 0. -1.
         21   -1    0    0  505  502 -0.00000000000E+00 -0.00000000000E+00 -0.17161106566E+03  0.17161106566E+03  0.00000000000E+00 0. -1.
         21    1    1    2  503  504 -0.48973850950E+02  0.33295572963E+02  0.10467099872E+03  0.12026242651E+03  0.00000000000E+00 0. -1.
         21    1    1    2  504  502 -0.22600226172E+02  0.81209050827E+02 -0.12456453376E+02  0.85210582617E+02  0.00000000000E+00 0. -1.
         21    1    1    2  505  506  0.42922777717E+02 -0.80594051160E+02 -0.93011448405E+02  0.13034145719E+03  0.00000000000E+00 0. -1.
         21    1    1    2  506  501  0.28651299405E+02 -0.33910572631E+02  0.14575639991E+03  0.15236716185E+03  0.00000000000E+00 0. -1.
<scales pt_clust_3="31.54570" pt_clust_4="14000.00000" pt_clust_5="88.47212" pt_clust_6="44.39396"></scales>
<clustering>
<clus scale="   44.394">  1  6  2 -1</clus>
<clus scale="   31.546">  1  3  2 -1</clus>
<clus scale="   88.472">  2  5  1 -1</clus>
<clus scale="   44.394">  1  3  2 -1</clus>
</clustering>
</event>
<event>
 6    0  0.4227619E+002  0.1373311E+03  0.7546771E-02  0.1216966E+00
         21   -1    0    0  503  501  0.00000000000E+00  0.00000000000E+00  0.14403364910E+03  0.14403364910E+03  0.00000000000E+00 0. -1.
         21   -1    0    0  505  502 -0.00000000000E+00 -0.00000000000E+00 -0.86257191157E+03  0.86257191157E+03  0.00000000000E+00 0.  1.
         21    1    1    2  503  504  0.19251232160E+02 -0.57294073556E+02 -0.10807019900E+01  0.60451540271E+02  0.00000000000E+00 0. -1.
         21    1    1    2  504  506 -0.71594731801E+02  0.19661254122E+02  0.71578810069E+02  0.10313048330E+03  0.00000000000E+00 0. -1.
         21    1    1    2  505  501  0.11509122784E+03 -0.84136965790E+02 -0.54320345006E+03  0.56160039877E+03  0.00000000000E+00 0.  1.
         21    1    1    2  506  502 -0.62747728204E+02  0.12176978522E+03 -0.24583292049E+03  0.28142313833E+03  0.00000000000E+00 0. -1.
<scales pt_clust_3="60.44188" pt_clust_4="61.78536" pt_clust_5="14000.00000" pt_clust_6="137.33112"></scales>
<clustering>
<clus scale="   60.442">  1  3  2 -1</clus>
<clus scale="   61.785">  1  4  2 -1</clus>
<clus scale="  137.331">  1  6  2 -1</clus>
<clus scale="   60.442">  1  3  2 -1</clus>
</clustering>
</event>
<event>
 6    0  0.4227619E+002  0.8642096E+02  0.7546771E-02  0.1311758E+00
         21   -1    0    0  505  501  0.00000000000E+00  0.00000000000E+00  0.52924211072E+03  0.52924211072E+03  0.00000000000E+00 0. -1.
         21   -1    0    0  503  502 -0.00000000000E+00 -0.00000000000E+00 -0.76003839851E+03  0.76003839851E+03  0.00000000000E+00 0.  1.
         21    1    1    2  503  504 -0.25540392861E+02  0.53358933471E+02 -0.25544902217E+03  0.26220924922E+03  0.00000000000E+00 0.  1.
         21    1    1    2  504  501 -0.78435524253E+01 -0.11717516239E+03  0.43804870086E+03  0.45351758987E+03  0.00000000000E+00 0. -1.
         21    1    1    2  505  506 -0.54786534043E+02  0.56140545126E+02  0.55683719359E+02  0.96197722016E+02  0.00000000000E+00 0.  1.
         21    1    1    2  506  502  0.88170479329E+02  0.76756837915E+01 -0.46907968584E+03  0.47735594813E+03  0.00000000000E+00 0.  1.
<scales pt_clust_3="59.15647" pt_clust_4="86.42096" pt_clust_5="80.71115" pt_clust_6="14000.00000"></scales>
<clustering>
<clus scale="   59.156">  2  3  1 -1</clus>
<clus scale="   80.711">  1  5  2 -1</clus>
<clus scale="   86.421">  1  4  2 -1</clus>
<clus scale="   80.711">  1  3  2 -1</clus>
</clustering>
</event>
<event>
 6    0  0.4227619E+002  0.1528734E+03  0.7546771E-02  0.1196986E+00
         21   -1    0    0  506  501  0.00000000000E+00  0.00000000000E+00  0.15943873011E+03  0.15943873011E+03  0.00000000000E+00 0.  1.
         21   -1    0    0  505  502 -0.00000000000E+00 -0.00000000000E+00 -0.42379768595E+03  0.42379768595E+03  0.00000000000E+00 0.  1.
         21    1    1    2  503  502  0.36199419914E+02  0.21178780008E+02 -0.19111585674E+03  0.19566351071E+03  0.00000000000E+00 0.  1.
         21    1    1    2  504  501 -0.11543861689E+03  0.10597392126E+03 -0.11978436142E+02  0.15716242931E+03  0.00000000000E+00 0.  1.
         21    1    1    2  505  504  0.49159693945E+02 -0.15041661968E+03 -0.90633915908E+02  0.18236321366E+03  0.00000000000E+00 0.  1.
         21    1    1    2  506  503  0.30079503029E+02  0.23263918415E+02  0.29369252954E+02  0.48047262374E+02  0.00000000000E+00 0.  1.
<scales pt_clust_3="42.65004" pt_clust_4="14000.00000" pt_clust_5="152.87345" pt_clust_6="38.02613"></scales>
<clustering>
<clus scale="   38.026">  1  6  2 -1</clus>
<clus scale="   42.650">  2  3  1 -1</clus>
<clus scale="  152.873">  2  5  1 -1</clus>
<clus scale="   38.026">  1  3  2 -1</clus>
</clustering>
</event>
<event>
 6    0  0.4227619E+002  0.1183945E+03  0.7546771E-02  0.1245769E+00
         21   -1    0    0  504  501  0.00000000000E+00  0.00000000000E+00  0.15787481618E+03  0.15787481618E+03  0.00000000000E+00 0.  1.
         21   -1    0    0  503  502 -0.00000000000E+00 -0.00000000000E+00 -0.36450088463E+03  0.36450088463E+03  0.00000000000E+00 0.  1.
         21    1    1    2  503  506 -0.34034743121E+02 -0.16935224589E+03 -0.66500489928E+02  0.18509689918E+03  0.00000000000E+00 0.  1.
         21    1    1    2  504  505 -0.26478546775E+02  0.15206542753E+02  0.38975188185E+02  0.49511793301E+02  0.00000000000E+00 0.  1.
         21    1    1    2  505  502  0.42982435354E+02  0.97715803268E+02 -0.19865866552E+03  0.22552413030E+03  0.00000000000E+00 0.  1.
         21    1    1    2  506  501  0.17530854542E+02  0.56429899867E+02  0.19557898814E+02  0.62242878035E+02  0.00000000000E+00 0.  1.
<scales pt_clust_3="118.39451" pt_clust_4="30.53445" pt_clust_5="14000.00000" pt_clust_6="62.41815"></scales>
<clustering>
<clus scale="   30.534">  1  4  2 -1</clus>
<clus scale="   62.418">  1  6  2 -1</clus>
<clus scale="  118.395">  1  3  2 -1</clus>
<clus scale="   30.534">  1  3  2 -1</clus>
</clustering>
</event>
<event>
 6    0  0.4227619E+002  0.8427407E+02  0.7546771E-02  0.1317342E+00
         21   -1    0    0  503  501  0.00000000000E+00  0.00000000000E+00  0.17873029916E+04  0.17873029916E+04  0.00000000000E+00 0. -1.
         21   -1    0    0  505  502 -0.00000000000E+00 -0.00000000000E+00 -0.37276304308E+03  0.37276304308E+03  0.00000000000E+00 0. -1.
         21    1    1    2  503  504  0.43678828331E+02  0.11796470523E+02  0.41284751260E+03  0.41531923315E+03  0.00000000000E+00 0. -1.
         21    1    1    2  504  502 -0.30545547931E+02  0.50218507004E+02 -0.35200442672E+03  0.35687819403E+03  0.00000000000E+00 0. -1.
         21    1    1    2  505  506  0.13449601578E+02 -0.12920517731E+03  0.24933637165E+03  0.28114675145E+03  0.00000000000E+00 0.  1.
         21    1    1    2  506  501 -0.26582881978E+02  0.67190199786E+02  0.11043604910E+04  0.11067218561E+04  0.00000000000E+00 0. -1.
<scales pt_clust_3="45.24375" pt_clust_4="58.75630" pt_clust_5="84.27407" pt_clust_6="14000.00000"></scales>
<clustering>
<clus scale="   45.244">  1  3  2 -1</clus>
<clus scale="   58.756">  2  4  1 -1</clus>
<clus scale="   84.274">  2  5  1 -1</clus>
<clus scale="   45.244">  1  3  2 -1</clus>
</clustering>
</event>
<event>
 6    0  0.4227619E+002  0.9196646E+02  0.7546771E-02  0.1298158E+00
         21   -1    0    0  503  501  0.00000000000E+00  0.00000000000E+00  0.75390839157E+03  0.75390839157E+03  0.00000000000E+00 0.  1.
         21   -1    0    0  505  502 -0.00000000000E+00 -0.00000000000E+00 -0.25137809400E+03  0.25137809400E+03  0.00000000000E+00 0.  1.
         21    1    1    2  503  504  0.25000245535E+02  0.21279565797E+02  0.37472479187E+03  0.37616020768E+03  0.00000000000E+00 0.  1.
         21    1    1    2  504  502  0.42963650968E+02 -0.45352123015E+02 -0.77904667822E+01  0.62955394837E+02  0.00000000000E+00 0.  1.
         21    1    1    2  505  506 -0.76468870574E+02  0.73536239197E+02 -0.20023862614E+03  0.22660665048E+03  0.00000000000E+00 0.  1.
         21    1    1    2  506  501  0.85049740707E+01 -0.49463681980E+02  0.33583459862E+03  0.33956423258E+03  0.00000000000E+00 0.  1.
<scales pt_clust_3="32.83035" pt_clust_4="14000.00000" pt_clust_5="91.96646" pt_clust_6="43.33821"></scales>
<clustering>
<clus scale="   32.830">  1  3  2 -1</clus>
<clus scale="   43.338">  1  6  2 -1</clus>
<clus scale="   91.966">  2  5  1 -1</clus>
<clus scale="   32.830">  1  3  2 -1</clus>
</clustering>
</event>
<event>
 6    0  0.4227619E+002  0.1195211E+03  0.7546771E-02  0.1243889E+00
         21   -1    0    0  506  501  0.00000000000E+00  0.00000000000E+00  0.95645028502E+03  0.95645028502E+03  0.00000000000E+00 0. -1.
         21   -1    0    0  505  502 -0.00000000000E+00 -0.00000000000E+00 -0.20303425300E+03  0.20303425300E+03  0.00000000000E+00 0. -1.
         21    1    1    2  503  502 -0.18903744481E+02 -0.34911819731E+02 -0.60930079449E+01  0.40166048575E+02  0.00000000000E+00 0. -1.
         21    1    1    2  504  501 -0.88413066943E+02 -0.82342720628E+02  0.84760884495E+03  0.85617635337E+03  0.00000000000E+00 0. -1.
         21    1    1    2  505  504  0.12016200398E+03 -0.31789968766E+01 -0.74125959327E+02  0.14122206297E+03  0.00000000000E+00 0. -1.
         21    1    1    2  506  503 -0.12845192560E+02  0.12043353724E+03 -0.13973845650E+02  0.12192007310E+03  0.00000000000E+00 0. -1.
<scales pt_clust_3="39.70122" pt_clust_4="119.52109" pt_clust_5="14000.00000" pt_clust_6="109.09405"></scales>
<clustering>
<clus scale="   39.701">  2  3  1 -1</clus>
<clus scale="  109.094">  2  6  1 -1</clus>
<clus scale="  119.521">  1  4  2 -1</clus>
<clus scale="  119.521">  1  3  2 -1</clus>
</clustering>
</event>
<event>
 6    0  0.4227619E+002  0.1160987E+03  0.7546771E-02  0.1249675E+00
         21   -1    0    0  505  501  0.00000000000E+00  0.00000000000E+00  0.31659278910E+03  0.31659278910E+03  0.00000000000E+00 0. -1.
         21   -1    0    0  503  502 -0.00000000000E+00 -0.00000000000E+00 -0.10054395771E+03  0.10054395771E+03  0.00000000000E+00 0. -1.
         21    1    1    2  503  501 -0.88725840520E+02 -0.39185323168E+02  0.14744930108E+03  0.17649096497E+03  0.00000000000E+00 0. -1.
         21    1    1    2  504  502 -0.32171820161E+02  0.27622873137E+02 -0.48251652753E+02  0.64236057836E+02  0.00000000000E+00 0. -1.
         21    1    1    2  505  506  0.67863719368E+02 -0.19217751986E+02  0.68496899401E+02  0.98319029823E+02  0.00000000000E+00 0. -1.
         21    1    1    2  506  504  0.53033941314E+02  0.30780202016E+02  0.48354283666E+02  0.78090694172E+02  0.00000000000E+00 0. -1.
<scales pt_clust_3="103.74321" pt_clust_4="42.40341" pt_clust_5="51.97638" pt_clust_6="51.97638"></scales>
<clustering>
<clus scale="   42.403">  2  4  1 -1</clus>
<clus scale="   51.976">  5  6 -1 -1</clus>
<clus scale="  103.743">  1  3  2 -1</clus>
<clus scale="  103.743">  1  3  2 -1</clus>
</clustering>
</event>
<event>
 6    0  0.4227619E+002  0.3031158E+03  0.7546771E-02  0.1083693E+00
         21   -1    0    0  503  501  0.00000000000E+00  0.00000000000E+00  0.31755118486E+03  0.31755118486E+03  0.00000000000E+00 0.  1.
         21   -1    0    0  504  502 -0.00000000000E+00 -0.00000000000E+00 -0.12265043247E+04  0.12265043247E+04  0.00000000000E+00 0. -1.
         21    1    1    2  503  502  0.32275100150E+02 -0.44138662050E+02 -0.64138802997E+03  0.64371461733E+03  0.00000000000E+00 0. -1.
         21    1    1    2  504  506  0.28103244551E+02  0.18593789813E+03 -0.27710602669E+03  0.33488870441E+03  0.00000000000E+00 0. -1.
         21    1    1    2  505  501 -0.26883489882E+02 -0.28754956721E+03  0.17873594014E+03  0.33963806018E+03  0.00000000000E+00 0.  1.
         21    1    1    2  506  505 -0.33494854819E+02  0.14575033112E+03 -0.16919502332E+03  0.22581412763E+03  0.00000000000E+00 0. -1.
<scales pt_clust_3="54.68001" pt_clust_4="63.66247" pt_clust_5="294.48652" pt_clust_6="63.66247"></scales>
<clustering>
<clus scale="   54.680">  2  3  1 -1</clus>
<clus scale="   63.662">  4  6 -1 -1</clus>
<clus scale="  294.487">  1  5  2 -1</clus>
<clus scale="  294.487">  1  3  2 -1</clus>
</clustering>
</event>
<event>
 6    0  0.4227619E+002  0.1549466E+03  0.7546771E-02  0.1194523E+00
         21   -1    0    0  504  501  0.00000000000E+00  0.00000000000E+00  0.25453357328E+03  0.25453357328E+03  0.00000000000E+00 0.  1.
         21   -1    0    0  506  502 -0.00000000000E+00 -0.00000000000E+00 -0.10913802875E+04  0.10913802875E+04  0.00000000000E+00 0.  1.
         21    1    1    2  503  501 -0.99571303410E+02 -0.82026438743E+02 -0.15158182950E+03  0.19904731134E+03  0.00000000000E+00 0.  1.
         21    1    1    2  504  505 -0.42136980184E+02  0.60255740493E+01  0.21554663201E+03  0.21970931526E+03  0.00000000000E+00 0.  1.
         21    1    1    2  505  502  0.17347680470E+03  0.64756365589E+02 -0.78489289667E+03  0.80643936405E+03  0.00000000000E+00 0.  1.
         21    1    1    2  506  503 -0.31768521105E+02  0.11244499105E+02 -0.11591862005E+03  0.12071787013E+03  0.00000000000E+00 0. -1.
<scales pt_clust_3="154.94657" pt_clust_4="42.63630" pt_clust_5="14000.00000" pt_clust_6="33.69982"></scales>
<clustering>
<clus scale="   33.700">  2  6  1 -1</clus>
<clus scale="   42.636">  1  4  2 -1</clus>
<clus scale="  154.947">  1  3  2 -1</clus>
<clus scale="   42.636">  1  3  2 -1</clus>
</clustering>
</event>
<event>
 6    0  0.4227619E+002  0.1029477E+03  0.7546771E-02  0.1274217E+00
         21   -1    0    0  503  501  0.00000000000E+00  0.00000000000E+00  0.96956709126E+02  0.96956709126E+02  0.00000000000E+00 0. -1.
         21   -1    0    0  504  502 -0.00000000000E+00 -0.00000000000E+00 -0.10131021849E+04  0.10131021849E+04  0.00000000000E+00 0.  1.
         21    1    1    2  503  506  0.88427408135E+02  0.22940516393E+02  0.47848509281E+02  0.10312688128E+03  0.00000000000E+00 0. -1.
         21    1    1    2  504  505 -0.53439404117E+02  0.23346714607E+02 -0.78091791001E+02  0.97463669217E+02  0.00000000000E+00 0. -1.
         21    1    1    2  505  501  0.43359058145E+02  0.21872540204E+02 -0.60598291828E+02  0.77656737703E+02  0.00000000000E+00 0. -1.
         21    1    1    2  506  502 -0.78347062163E+02 -0.68159771203E+02 -0.82530390226E+03  0.83181160586E+03  0.00000000000E+00 0.  1.
<scales pt_clust_3="14000.00000" pt_clust_4="55.07630" pt_clust_5="48.56352" pt_clust_6="102.94768"></scales>
<clustering>
<clus scale="   48.564">  1  5  2 -1</clus>
<clus scale="   55.076">  1  4  2 -1</clus>
<clus scale="  102.948">  2  6  1 -1</clus>
<clus scale="   48.564">  1  3  2 -1</clus>
</clustering>
</event>
<event>
 6    0  0.4227619E+002  0.8253234E+02  0.7546771E-02  0.1322015E+00
         21   -1    0    0  504  501  0.00000000000E+00  0.00000000000E+00  0.22555947920E+03  0.22555947920E+03  0.00000000000E+00 0.  1.
         21   -1    0    0  503  502 -0.00000000000E+00 -0.00000000000E+00 -0.13088998103E+04  0.13088998103E+04  0.00000000000E+00 0. -1.
         21    1    1    2  503  505 -0.48915861148E+02  0.13206065953E+02 -0.96275446176E+03  0.96408677788E+03  0.00000000000E+00 0. -1.
         21    1    1    2  504  502  0.40554697021E+02 -0.64080647121E+02 -0.82266260928E+02  0.11188722212E+03  0.00000000000E+00 0.  1.
         21    1    1    2  505  506  0.20613347244E+02  0.88541682926E+02 -0.23807449475E+03  0.25484113630E+03  0.00000000000E+00 0.  1.
         21    1    1    2  506  501 -0.12252183116E+02 -0.37667101758E+02  0.19975488630E+03  0.20364415323E+03  0.00000000000E+00 0.  1.
<scales pt_clust_3="50.73533" pt_clust_4="82.53234" pt_clust_5="14000.00000" pt_clust_6="39.60968"></scales>
<clustering>
<clus scale="   39.610">  1  6  2 -1</clus>
<clus scale="   50.735">  2  3  1 -1</clus>
<clus scale="   82.532">  1  4  2 -1</clus>
<clus scale="   39.610">  1  3  2 -1</clus>
</clustering>
</event>
<event>
 6    0  0.4227619E+002  0.1655015E+03  0.7546771E-02  0.1182622E+00
         21   -1    0    0  502  501  0.00000000000E+00  0.00000000000E+00  0.11597875300E+04  0.11597875300E+04  0.00000000000E+00 0. -1.
         21   -1    0    0  504  502 -0.00000000000E+00 -0.00000000000E+00 -0.25246329078E+03  0.25246329078E+03  0.00000000000E+00 0. -1.
         21    1    1    2  503  506  0.13185672635E+03 -0.11525465994E+03  0.75789724444E+03  0.77786764044E+03  0.00000000000E+00 0. -1.
         21    1    1    2  504  505 -0.44964372472E+02  0.29027904353E+02 -0.17418908669E+03  0.18222582678E+03  0.00000000000E+00 0. -1.
         21    1    1    2  505  503 -0.11472709694E+03  0.42192494375E+02 -0.21438744506E+01  0.12225837211E+03  0.00000000000E+00 0. -1.
         21    1    1    2  506  501  0.27834743066E+02  0.44034261209E+02  0.32575995588E+03  0.32989898141E+03  0.00000000000E+00 0. -1.
<scales pt_clust_3="165.50146" pt_clust_4="53.52322" pt_clust_5="14000.00000" pt_clust_6="52.09404"></scales>
<clustering>
<clus scale="   52.094">  1  6  2 -1</clus>
<clus scale="   53.523">  2  4  1 -1</clus>
<clus scale="  165.501">  1  3  2 -1</clus>
<clus scale="   52.094">  1  3  2 -1</clus>
</clustering>
</event>
<event>
 6    0  0.4227619E+002  0.1166765E+03  0.7546771E-02  0.1248683E+00
         21   -1    0    0  504  501  0.00000000000E+00  0.00000000000E+00  0.82066345167E+03  0.82066345167E+03  0.00000000000E+00 0. -1.
         21   -1    0    0  506  502 -0.00000000000E+00 -0.00000000000E+00 -0.82406504829E+02  0.82406504829E+02  0.00000000000E+00 0. -1.
         21    1    1    2  503  501 -0.62424597587E+02 -0.87247562870E+01  0.20735839986E+03  0.21672668905E+03  0.00000000000E+00 0. -1.
         21    1    1    2  504  505 -0.37813459225E+02 -0.84679230236E+02  0.46119065845E+03  0.47042241993E+03  0.00000000000E+00 0. -1.
         21    1    1    2  505  502  0.10731776610E+03  0.14008336149E+02 -0.26584791268E+01  0.10826081431E+03  0.00000000000E+00 0. -1.
         21    1    1    2  506  503 -0.70797092906E+01  0.79395650374E+02  0.72366367653E+02  0.10766003320E+03  0.00000000000E+00 0. -1.
<scales pt_clust_3="63.03136" pt_clust_4="14000.00000" pt_clust_5="116.67648" pt_clust_6="79.79048"></scales>
<clustering>
<clus scale="   63.031">  1  3  2 -1</clus>
<clus scale="   79.790">  2  6  1 -1</clus>
<clus scale="  116.676">  2  5  1 -1</clus>
<clus scale="   63.031">  1  3  2 -1</clus>
</clustering>
</event>
<event>
 6    0  0.4227619E+002  0.8562725E+02  0.7546771E-02  0.1313800E+00
         21   -1    0    0  503  501  0.00000000000E+00  0.00000000000E+00  0.11879047126E+03  0.11879047126E+03  0.00000000000E+00 0.  1.
         21   -1    0    0  504  502 -0.00000000000E+00 -0.00000000000E+00 -0.36047162845E+03  0.36047162845E+03  0.00000000000E+00 0. -1.
         21    1    1    2  503  505  0.13607904980E+03 -0.42431666063E+02  0.22141343029E+02  0.14425045286E+03  0.00000000000E+00 0.  1.
         21    1    1    2  504  501 -0.54815735425E+02  0.31835045047E+01 -0.20080758532E+02  0.58464830577E+02  0.00000000000E+00 0.  1.
         21    1    1    2  505  506 -0.29421578727E+02  0.61488371778E+02 -0.90839858577E+02  0.11357081080E+03  0.00000000000E+00 0. -1.
         21    1    1    2  506  502 -0.51841735644E+02 -0.22240210220E+02 -0.15290188311E+03  0.16297600549E+03  0.00000000000E+00 0. -1.
<scales pt_clust_3="14000.00000" pt_clust_4="54.90810" pt_clust_5="85.62725" pt_clust_6="58.90821"></scales>
<clustering>
<clus scale="   54.908">  1  4  2 -1</clus>
<clus scale="   58.908">  2  6  1 -1</clus>
<clus scale="   85.627">  2  5  1 -1</clus>
<clus scale="   54.908">  1  3  2 -1</clus>
</clustering>
</event>
<event>
 6    0  0.4227619E+002  0.1598181E+03  0.7546771E-02  0.1188902E+00
         21   -1    0    0  504  501  0.00000000000E+00  0.00000000000E+00  0.20740846236E+03  0.20740846236E+03  0.00000000000E+00 0. -1.
         21   -1    0    0  503  502 -0.00000000000E+00 -0.00000000000E+00 -0.46212383699E+03  0.46212383699E+03  0.00000000000E+00 0.  1.
         21    1    1    2  503  505 -0.57094789631E+02 -0.29771671571E+02 -0.32707280230E+03  0.33335084436E+03  0.00000000000E+00 0.  1.
         21    1    1    2  504  506 -0.94213927533E+01 -0.89538896465E+02  0.71723914020E+02  0.11510993208E+03  0.00000000000E+00 0. -1.
         21    1    1    2  505  501  0.54804683096E+02  0.16472126092E+03  0.70262037312E+01  0.17374122892E+03  0.00000000000E+00 0. -1.
         21    1    1    2  506  502  0.11711499288E+02 -0.45410692880E+02 -0.63926900800E+01  0.47330293998E+02  0.00000000000E+00 0.  1.
<scales pt_clust_3="64.39074" pt_clust_4="45.08314" pt_clust_5="147.10470" pt_clust_6="45.08314"></scales>
<clustering>
<clus scale="   45.083">  4  6 -1 -1</clus>
<clus scale="   64.391">  2  3  1 -1</clus>
<clus scale="  147.105">  2  5  1 -1</clus>
<clus scale="  159.818">  1  3  2 -1</clus>
</clustering>
</event>
<event>
 6    0  0.4227619E+002  0.9378033E+02  0.7546771E-02  0.1293947E+00
         21   -1    0    0  506  501  0.00000000000E+00  0.00000000000E+00  0.36030112224E+03  0.36030112224E+03  0.00000000000E+00 0. -1.
         21   -1    0    0  503  502 -0.00000000000E+00 -0.00000000000E+00 -0.10130858867E+03  0.10130858867E+03  0.00000000000E+00 0. -1.
         21    1    1    2  503  501 -0.30550482277E+02 -0.61515961754E+02  0.26399503777E+01  0.68735106429E+02  0.00000000000E+00 0. -1.
         21    1    1    2  504  502  0.10069001268E+03  0.74053268536E+02  0.49993544867E+02  0.13461693713E+03  0.00000000000E+00 0. -1.
         21    1    1    2  505  504 -0.96878834231E+02  0.19967173884E+02  0.87129442615E+02  0.13181705628E+03  0.00000000000E+00 0. -1.
         21    1    1    2  506  505  0.26739303824E+02 -0.32504480666E+02  0.11922959571E+03  0.12644061106E+03  0.00000000000E+00 0. -1.
<scales pt_clust_3="71.50541" pt_clust_4="93.78033" pt_clust_5="14000.00000" pt_clust_6="42.08957"></scales>
<clustering>
<clus scale="   42.090">  1  6  2 -1</clus>
<clus scale="   71.505">  2  3  1 -1</clus>
<clus scale="   93.780">  2  4  1 -1</clus>
<clus scale="   42.090">  1  3  2 -1</clus>
</clustering>
</event>
<event>
 6    0  0.4227619E+002  0.1299309E+03  0.7546771E-02  0.1227558E+00
         21   -1    0    0  505  501  0.00000000000E+00  0.00000000000E+00  0.13814187952E+04  0.13814187952E+04  0.00000000000E+00 0. -1.
         21   -1    0    0  504  502 -0.00000000000E+00 -0.00000000000E+00 -0.19547033975E+03  0.19547033975E+03  0.00000000000E+00 0. -1.
         21    1    1    2  503  506  0.24327467789E+02  0.37639445640E+02 -0.72452203802E+02  0.85193165177E+02  0.00000000000E+00 0. -1.
         21    1    1    2  504  501 -0.13754145774E+03 -0.77946713479E+02  0.27892483130E+03  0.32061254538E+03  0.00000000000E+00 0. -1.
         21    1    1    2  505  503  0.36432523004E+02  0.17033860112E+02  0.10580328506E+04  0.10587969560E+04  0.00000000000E+00 0. -1.
         21    1    1    2  506  502  0.76781466946E+02  0.23273407727E+02 -0.78557022645E+02  0.11228646838E+03  0.00000000000E+00 0.  1.
<scales pt_clust_3="35.53874" pt_clust_4="120.91734" pt_clust_5="40.21792" pt_clust_6="35.53874"></scales>
<clustering>
<clus scale="   35.539">  3  6 -1 -1</clus>
<clus scale="   40.218">  1  5  2 -1</clus>
<clus scale="  120.917">  1  4  2 -1</clus>
<clus scale="   40.218">  1  3  2 -1</clus>
</clustering>
</event>
<event>
 6    0  0.4227619E+002  0.8297879E+02  0.7546771E-02  0.1320804E+00
         21   -1    0    0  505  501  0.00000000000E+00  0.00000000000E+00  0.50087389698E+03  0.50087389698E+03  0.00000000000E+00 0.  1.
         21   -1    0    0  503  502 -0.00000000000E+00 -0.00000000000E+00 -0.91117761344E+02  0.91117761344E+02  0.00000000000E+00 0. -1.
         21    1    1    2  503  501  0.77433145630E+02 -0.90144717108E+02  0.11244320900E+03  0.16360145878E+03  0.00000000000E+00 0.  1.
         21    1    1    2  504  506 -0.50472524282E+02  0.44779708878E+02  0.15647187962E+03  0.17039996229E+03  0.00000000000E+00 0.  1.
         21    1    1    2  505  504  0.30953161596E+02 -0.46424892652E+01  0.17240216699E+03  0.17522031304E+03  0.00000000000E+00 0.  1.
         21    1    1    2  506  502 -0.57913782944E+02  0.50007497495E+02 -0.31561119978E+02  0.82769924217E+02  0.00000000000E+00 0. -1.
<scales pt_clust_3="14000.00000" pt_clust_4="55.02894" pt_clust_5="31.29938" pt_clust_6="82.97879"></scales>
<clustering>
<clus scale="   31.299">  1  5  2 -1</clus>
<clus scale="   55.029">  1  4  2 -1</clus>
<clus scale="   82.979">  2  6  1 -1</clus>
<clus scale="   31.299">  1  3  2 -1</clus>
</clustering>
</event>
<event>
 6    0  0.4227619E+002  0.1423168E+03  0.7546771E-02  0.1210245E+00
         21   -1    0    0  503  501  0.00000000000E+00  0.00000000000E+00  0.65822918640E+03  0.65822918640E+03  0.00000000000E+00 0. -1.
         21   -1    0    0  505  502 -0.00000000000E+00 -0.00000000000E+00 -0.16846226618E+03  0.16846226618E+03  0.00000000000E+00 0. -1.
         21    1    1    2  503  504  0.43020988068E+02 -0.18277881364E+03 -0.39060476298E+02  0.19179317229E+03  0.00000000000E+00 0. -1.
         21    1    1    2  504  502 -0.41329766327E+02  0.48665355389E+02 -0.97923350497E+01  0.64593778536E+02  0.00000000000E+00 0. -1.
         21    1    1    2  505  506 -0.29708319849E+02  0.15098829519E+03  0.46338375232E+03  0.48826688549E+03  0.00000000000E+00 0. -1.
         21    1    1    2  506  501  0.28017098108E+02 -0.16874836940E+02  0.75235979249E+02  0.82037616261E+02  0.00000000000E+00 0.  1.
<scales pt_clust_3="142.31679" pt_clust_4="62.38369" pt_clust_5="14000.00000" pt_clust_6="32.70654"></scales>
<clustering>
<clus scale="   32.707">  1  6  2 -1</clus>
<clus scale="   62.384">  2  4  1 -1</clus>
<clus scale="  142.317">  2  3  1 -1</clus>
<clus scale="   32.707">  1  3  2 -1</clus>
</clustering>
</event>
<event>
 6    0  0.4227619E+002  0.1014077E+03  0.7546771E-02  0.1277363E+00
         21   -1    0    0  506  501  0.00000000000E+00  0.00000000000E+00  0.79927362282E+02  0.79927362282E+02  0.00000000000E+00 0.  1.
         21   -1    0    0  504  502 -0.00000000000E+00 -0.00000000000E+00 -0.97999850670E+03  0.97999850670E+03  0.00000000000E+00 0.  1.
         21    1    1    2  503  501  0.15318666238E+02  0.55293650134E+02 -0.57003413571E+01  0.57658851637E+02  0.00000000000E+00 0.  1.
         21    1    1    2  504  503 -0.78387978555E+02  0.34580270029E+02 -0.45482172119E+02  0.97000506380E+02  0.00000000000E+00 0.  1.
         21    1    1    2  505  502  0.89030972254E+02 -0.52540452376E+02 -0.85333731405E+03  0.85957639841E+03  0.00000000000E+00 0.  1.
         21    1    1    2  506  505 -0.25961659936E+02 -0.37333467787E+02  0.44486831093E+01  0.45690112552E+02  0.00000000000E+00 0.  1.
<scales pt_clust_3="37.73488" pt_clust_4="101.40768" pt_clust_5="14000.00000" pt_clust_6="45.47302"></scales>
<clustering>
<clus scale="   45.473">  1  6  2 -1</clus>
<clus scale="   37.735">  1  3  2 -1</clus>
<clus scale="  101.408">  1  4  2 -1</clus>
<clus scale="   45.473">  1  3  2 -1</clus>
</clustering>
</event>
<event>
 6    0  0.4227619E+002  0.1206621E+03  0.7546771E-02  0.1242009E+00
         21   -1    0    0  505  501  0.00000000000E+00  0.00000000000E+00  0.60147372212E+03  0.60147372212E+03  0.00000000000E+00 0.  1.
         21   -1    0    0  503  502 -0.00000000000E+00 -0.00000000000E+00 -0.50360384262E+03  0.50360384262E+03  0.00000000000E+00 0.  1.
         21    1    1    2  503  506  0.10413416048E+03  0.89642786434E+02  0.23138457310E+03  0.26910699212E+03  0.00000000000E+00 0.  1.
         21    1    1    2  504  502 -0.10580691076E+03 -0.57141916706E+02 -0.47268909405E+03  0.48774509802E+03  0.00000000000E+00 0.  1.
         21    1    1    2  505  504 -0.28524766912E+02 -0.23152839436E+02  0.92418390334E+02  0.99452879160E+02  0.00000000000E+00 0. -1.
         21    1    1    2  506  501  0.30197517188E+02 -0.93480302915E+01  0.24675601012E+03  0.24877259544E+03  0.00000000000E+00 0. -1.
<scales pt_clust_3="14000.00000" pt_clust_4="120.66209" pt_clust_5="32.76240" pt_clust_6="31.61132"></scales>
<clustering>
<clus scale="   31.611">  1  6  2 -1</clus>
<clus scale="   32.762">  1  5  2 -1</clus>
<clus scale="  120.662">  2  4  1 -1</clus>
<clus scale="   31.611">  1  3  2 -1</clus>
</clustering>
</event>
<event>
 6    0  0.4227619E+002  0.2802741E+03  0.7546771E-02  0.1095539E+00
         21   -1    0    0  504  501  0.00000000000E+00  0.00000000000E+00  0.13780390697E+04  0.13780390697E+04  0.00000000000E+00 0. -1.
         21   -1    0    0  505  502 -0.00000000000E+00 -0.00000000000E+00 -0.36631787867E+03  0.36631787867E+03  0.00000000000E+00 0. -1.
         21    1    1    2  503  506  0.49351294603E+02  0.10497532958E+02  0.36431624320E+03  0.36779352025E+03  0.00000000000E+00 0. -1.
         21    1    1    2  504  502 -0.49625345257E+02  0.13033162458E+02 -0.22170220458E+03  0.22756187232E+03  0.00000000000E+00 0. -1.
         21    1    1    2  505  503 -0.21383355639E+03 -0.98552950849E+02 -0.15310581909E+02  0.23594890946E+03  0.00000000000E+00 0. -1.
         21    1    1    2  506  501  0.21410760704E+03  0.75022255433E+02  0.88441773432E+03  0.91305264634E+03  0.00000000000E+00 0. -1.
<scales pt_clust_3="31.65675" pt_clust_4="51.30827" pt_clust_5="272.11662" pt_clust_6="31.65675"></scales>
<clustering>
<clus scale="   31.657">  3  6 -1 -1</clus>
<clus scale="   51.308">  2  4  1 -1</clus>
<clus scale="  272.117">  2  5  1 -1</clus>
<clus scale="  280.274">  1  3  2 -1</clus>
</clustering>
</event>
<event>
 6    0  0.4227619E+002  0.1848723E+03  0.7546771E-02  0.1163169E+00
         21   -1    0    0  506  501  0.00000000000E+00  0.00000000000E+00  0.95984834770E+03  0.95984834770E+03  0.00000000000E+00 0.  1.
         21   -1    0    0  504  502 -0.00000000000E+00 -0.00000000000E+00 -0.28058251009E+03  0.28058251009E+03  0.00000000000E+00 0. -1.
         21    1    1    2  503  502  0.35465580034E+02 -0.11888903713E+03  0.89947944638E+02  0.15324178040E+03  0.00000000000E+00 0.  1.
         21    1    1    2  504  505  0.45843043003E+02  0.20836246493E+03 -0.19502723846E+03  0.28905384468E+03  0.00000000000E+00 0. -1.
         21    1    1    2  505  501 -0.52650610138E+02 -0.11903388982E+01  0.22052919254E+03  0.22673029885E+03  0.00000000000E+00 0.  1.
         21    1    1    2  506  503 -0.28658012899E+02 -0.88283088906E+02  0.56381593889E+03  0.57140493386E+03  0.00000000000E+00 0.  1.
<scales pt_clust_3="184.87233" pt_clust_4="14000.00000" pt_clust_5="52.66406" pt_clust_6="112.92668"></scales>
<clustering>
<clus scale="   52.664">  1  5  2 -1</clus>
<clus scale="  112.927">  1  6  2 -1</clus>
<clus scale="  184.872">  1  3  2 -1</clus>
<clus scale="   52.664">  1  3  2 -1</clus>
</clustering>
</event>
<event>
 6    0  0.4227619E+002  0.7596344E+02  0.7546771E-02  0.1340913E+00
         21   -1    0    0  502  501  0.00000000000E+00  0.00000000000E+00  0.13957587567E+04  0.13957587567E+04  0.00000000000E+00 0.  1.
         21   -1    0    0  503  502 -0.00000000000E+00 -0.00000000000E+00 -0.45891948348E+02  0.45891948348E+02  0.00000000000E+00 0.  1.
         21    1    1    2  503  506  0.57254157003E+02  0.27138144394E+02  0.80050349994E+01  0.63863901858E+02  0.00000000000E+00 0.  1.
         21    1    1    2  504  505  0.47545549015E+01 -0.13077880265E+03  0.91851295048E+03  0.92778862960E+03  0.00000000000E+00 0.  1.
         21    1    1    2  505  501 -0.63703701616E+01  0.56869009203E+02  0.31076281137E+03  0.31598764336E+03  0.00000000000E+00 0.  1.
         21    1    1    2  506  504 -0.55638341742E+02  0.46771649050E+02  0.11258601149E+03  0.13401053022E+03  0.00000000000E+00 0.  1.
<scales pt_clust_3="64.00300" pt_clust_4="14000.00000" pt_clust_5="57.22470" pt_clust_6="75.96344"></scales>
<clustering>
<clus scale="   57.225">  1  5  2 -1</clus>
<clus scale="   64.003">  2  3  1 -1</clus>
<clus scale="   75.963">  2  6  1 -1</clus>
<clus scale="   57.225">  1  3  2 -1</clus>
</clustering>
</event>
<event>
 6    0  0.4227619E+002  0.2366865E+03  0.7546771E-02  0.1122020E+00
         21   -1    0    0  503  501  0.00000000000E+00  0.00000000000E+00  0.11219727095E+03  0.11219727095E+03  0.00000000000E+00 0. -1.
         21   -1    0    0  505  502 -0.00000000000E+00 -0.00000000000E+00 -0.30853216988E+04  0.30853216988E+04  0.00000000000E+00 0. -1.
         21    1    1    2  503  504 -0.17393602921E+03  0.14734620794E+03 -0.28075864294E+03  0.36164908798E+03  0.00000000000E+00 0. -1.
         21    1    1    2  504  502 -0.78528052553E+02 -0.24865148119E+02 -0.22854574039E+04  0.22869412926E+04  0.00000000000E+00 0. -1.
         21    1    1    2  505  506  0.21077516208E+03 -0.14776570854E+03 -0.42503891649E+03  0.49690940231E+03  0.00000000000E+00 0. -1.
         21    1    1    2  506  501  0.41688919681E+02  0.25284648725E+02  0.18130535492E+02  0.52019186869E+02  0.00000000000E+00 0.  1.
<scales pt_clust_3="236.68654" pt_clust_4="81.91498" pt_clust_5="14000.00000" pt_clust_6="48.75735"></scales>
<clustering>
<clus scale="   48.757">  1  6  2 -1</clus>
<clus scale="   81.915">  2  4  1 -1</clus>
<clus scale="  236.687">  1  3  2 -1</clus>
<clus scale="   48.757">  1  3  2 -1</clus>
</clustering>
</event>
<event>
 6    0  0.4227619E+002  0.1295518E+03  0.7546771E-02  0.1228122E+00
         21   -1    0    0  504  501  0.00000000000E+00  0.00000000000E+00  0.77403785469E+03  0.77403785469E+03  0.00000000000E+00 0. -1.
         21   -1    0    0  506  502 -0.00000000000E+00 -0.00000000000E+00 -0.48400232701E+03  0.48400232701E+03  0.00000000000E+00 0. -1.
         21    1    1    2  503  501 -0.11773477910E+03 -0.17545066149E+02  0.50302323683E+03  0.51691554856E+03  0.00000000000E+00 0. -1.
         21    1    1    2  504  505  0.17532069579E+03  0.12760511834E+03  0.19948100062E+03  0.29464059837E+03  0.00000000000E+00 0.  1.
         21    1    1    2  505  502  0.29584897379E+02 -0.63225884101E+01 -0.40126545663E+02  0.50253168497E+02  0.00000000000E+00 0.  1.
         21    1    1    2  506  503 -0.87170814063E+02 -0.10373746378E+03 -0.37234216411E+03  0.39623086628E+03  0.00000000000E+00 0. -1.
<scales pt_clust_3="118.58657" pt_clust_4="129.55181" pt_clust_5="30.25295" pt_clust_6="14000.00000"></scales>
<clustering>
<clus scale="   30.253">  2  5  1 -1</clus>
<clus scale="  118.587">  1  3  2 -1</clus>
<clus scale="  129.552">  1  4  2 -1</clus>
<clus scale="  118.587">  1  3  2 -1</clus>
</clustering>
</event>
<event>
 6    0  0.4227619E+002  0.1636053E+03  0.7546771E-02  0.1184685E+00
         21   -1    0    0  505  501  0.00000000000E+00  0.00000000000E+00  0.18870121256E+03  0.18870121256E+03  0.00000000000E+00 0. -1.
         21   -1    0    0  504  502 -0.00000000000E+00 -0.00000000000E+00 -0.30855375401E+03  0.30855375401E+03  0.00000000000E+00 0.  1.
         21    1    1    2  503  502  0.42932657323E+02  0.10600963055E+03  0.18215722039E+02  0.11581479769E+03  0.00000000000E+00 0. -1.
         21    1    1    2  504  506 -0.27207302541E+02 -0.13221147538E+02 -0.78640591831E+02  0.84257811136E+02  0.00000000000E+00 0. -1.
         21    1    1    2  505  503  0.79936565690E+02  0.14613128814E+02  0.67282899360E+02  0.10550064746E+03  0.00000000000E+00 0. -1.
         21    1    1    2  506  501 -0.95661920472E+02 -0.10740161183E+03 -0.12671057102E+03  0.19168171029E+03  0.00000000000E+00 0.  1.
<scales pt_clust_3="149.79948" pt_clust_4="30.16639" pt_clust_5="81.26130" pt_clust_6="30.16639"></scales>
<clustering>
<clus scale="   30.166">  4  6 -1 -1</clus>
<clus scale="   81.261">  1  5  2 -1</clus>
<clus scale="  149.799">  1  3  2 -1</clus>
<clus scale="   81.261">  1  3  2 -1</clus>
</clustering>
</event>
<event>
 6    0  0.4227619E+002  0.7272856E+02  0.7546771E-02  0.1351053E+00
         21   -1    0    0  504  501  0.00000000000E+00  0.00000000000E+00  0.55267486029E+03  0.55267486029E+03  0.00000000000E+00 0.  1.
         21   -1    0    0  506  502 -0.00000000000E+00 -0.00000000000E+00 -0.76095082429E+02  0.76095082429E+02  0.00000000000E+00 0.  1.
         21    1    1    2  503  501  0.13153655741E+02 -0.72444462333E+02  0.43171715535E+03  0.43795082031E+03  0.00000000000E+00 0.  1.
         21    1    1    2  504  505  0.31795301863E+02  0.68596004869E+02  0.80361483739E+01  0.76032445609E+02  0.00000000000E+00 0.  1.
         21    1    1    2  505  502  0.27627756803E+02 -0.11745532393E+02 -0.36393511020E+01  0.30240624227E+02  0.00000000000E+00 0. -1.
         21    1    1    2  506  503 -0.72576714407E+02  0.15593989856E+02  0.40465825234E+02  0.84546052573E+02  0.00000000000E+00 0.  1.
<scales pt_clust_3="14000.00000" pt_clust_4="72.72856" pt_clust_5="30.02083" pt_clust_6="63.28527"></scales>
<clustering>
<clus scale="   30.021">  2  5  1 -1</clus>
<clus scale="   63.285">  2  6  1 -1</clus>
<clus scale="   72.729">  2  4  1 -1</clus>
<clus scale="   72.729">  1  3  2 -1</clus>
</clustering>
</event>
<event>
 6    0  0.4227619E+002  0.7777313E+02  0.7546771E-02  0.1335492E+00
         21   -1    0    0  503  501  0.00000000000E+00  0.00000000000E+00  0.33669224595E+03  0.33669224595E+03  0.00000000000E+00 0. -1.
         21   -1    0    0  506  502 -0.00000000000E+00 -0.00000000000E+00 -0.18073937302E+04  0.18073937302E+04  0.00000000000E+00 0.  1.
         21    1    1    2  503  505  0.40206624365E+02  0.38290767644E+02 -0.37251591202E+01  0.55647392932E+02  0.00000000000E+00 0. -1.
         21    1    1    2  504  502  0.20821245562E+02 -0.24000680851E+02 -0.13261313611E+04  0.13265119464E+04  0.00000000000E+00 0.  1.
         21    1    1    2  505  504 -0.16225918964E+02  0.99132328951E+02 -0.43344378993E+03  0.44493147576E+03  0.00000000000E+00 0.  1.
         21    1    1    2  506  501 -0.44801950963E+02 -0.11342241574E+03  0.29259882593E+03  0.31699516107E+03  0.00000000000E+00 0. -1.
<scales pt_clust_3="55.46619" pt_clust_4="31.77353" pt_clust_5="77.77313" pt_clust_6="14000.00000"></scales>
<clustering>
<clus scale="   31.774">  2  4  1 -1</clus>
<clus scale="   55.466">  1  3  2 -1</clus>
<clus scale="   77.773">  2  5  1 -1</clus>
<clus scale="   55.466">  1  3  2 -1</clus>
</clustering>
</event>
<event>
 6    0  0.4227619E+002  0.9956027E+02  0.7546771E-02  0.1281223E+00
         21   -1    0    0  505  501  0.00000000000E+00  0.00000000000E+00  0.57791252753E+02  0.57791252753E+02  0.00000000000E+00 0.  1.
         21   -1    0    0  506  502 -0.00000000000E+00 -0.00000000000E+00 -0.73857696784E+03  0.73857696784E+03  0.00000000000E+00 0.  1.
         21    1    1    2  503  502 -0.30109873908E+02  0.11253198429E+02 -0.12897739864E+03  0.13292256521E+03  0.00000000000E+00 0.  1.
         21    1    1    2  504  503  0.83652644258E+02  0.14919752638E+02 -0.13291995829E+03  0.15775956143E+03  0.00000000000E+00 0.  1.
         21    1    1    2  505  504  0.17645450359E+02  0.92165511582E+02 -0.39263941906E+02  0.10172266501E+03  0.00000000000E+00 0.  1.
         21    1    1    2  506  501 -0.71188220708E+02 -0.11833846265E+03 -0.37962441625E+03  0.40396342895E+03  0.00000000000E+00 0.  1.
<scales pt_clust_3="32.14403" pt_clust_4="78.45289" pt_clust_5="99.56027" pt_clust_6="14000.00000"></scales>
<clustering>
<clus scale="   32.144">  2  3  1 -1</clus>
<clus scale="   78.453">  2  4  1 -1</clus>
<clus scale="   99.560">  1  5  2 -1</clus>
<clus scale="   99.560">  1  3  2 -1</clus>
</clustering>
</event>
<event>
 6    0  0.4227619E+002  0.9522889E+02  0.7546771E-02  0.1290661E+00
         21   -1    0    0  503  501  0.00000000000E+00  0.00000000000E+00  0.27465848897E+03  0.27465848897E+03  0.00000000000E+00 0.  1.
         21   -1    0    0  505  502 -0.00000000000E+00 -0.00000000000E+00 -0.43898007778E+03  0.43898007778E+03  0.00000000000E+00 0.  1.
         21    1    1    2  503  506  0.51429579434E+02 -0.13670972535E-01  0.57217107424E+02  0.76933732586E+02  0.00000000000E+00 0.  1.
         21    1    1    2  504  501  0.18293633056E+02 -0.65997311619E+02  0.15753056530E+03  0.17177363347E+03  0.00000000000E+00 0.  1.
         21    1    1    2  505  504 -0.55724169849E+02  0.15033939613E+03 -0.14663449018E+03  0.21727584046E+03  0.00000000000E+00 0.  1.
         21    1    1    2  506  502 -0.13999042641E+02 -0.84328413538E+02 -0.23243477134E+03  0.24765536024E+03  0.00000000000E+00 0.  1.
<scales pt_clust_3="51.42958" pt_clust_4="95.22889" pt_clust_5="14000.00000" pt_clust_6="85.19451"></scales>
<clustering>
<clus scale="   51.430">  1  3  2 -1</clus>
<clus scale="   85.195">  2  6  1 -1</clus>
<clus scale="   95.229">  1  4  2 -1</clus>
<clus scale="   51.430">  1  3  2 -1</clus>
</clustering>
</event>
<event>
 6    0  0.4227619E+002  0.2283227E+03  0.7546771E-02  0.1127826E+00
         21   -1    0    0  505  501  0.00000000000E+00  0.00000000000E+00  0.63729423749E+03  0.63729423749E+03  0.00000000000E+00 0.  1.
         21   -1    0    0  506  502 -0.00000000000E+00 -0.00000000000E+00 -0.26488744485E+03  0.26488744485E+03  0.00000000000E+00 0. -1.
         21    1    1    2  503  502 -0.10401872300E+03  0.18466207607E+03  0.26804713194E+03  0.34171514748E+03  0.00000000000E+00 0.  1.
         21    1    1    2  504  501  0.12837322952E+03 -0.16729968538E+03 -0.44561751657E+02  0.21553333964E+03  0.00000000000E+00 0. -1.
         21    1    1    2  505  503 -0.60431088371E+02  0.13645079272E+01  0.23877819832E+03  0.24631038613E+03  0.00000000000E+00 0.  1.
         21    1    1    2  506  504  0.36076581851E+02 -0.18726898620E+02 -0.89856785960E+02  0.98622809092E+02  0.00000000000E+00 0.  1.
<scales pt_clust_3="228.32273" pt_clust_4="14000.00000" pt_clust_5="59.64249" pt_clust_6="40.64747"></scales>
<clustering>
<clus scale="   40.647">  2  6  1 -1</clus>
<clus scale="   59.642">  1  5  2 -1</clus>
<clus scale="  228.323">  1  3  2 -1</clus>
<clus scale="   59.642">  1  3  2 -1</clus>
</clustering>
</event>
<event>
 6    0  0.4227619E+002  0.7399117E+02  0.7546771E-02  0.1347024E+00
         21   -1    0    0  506  501  0.00000000000E+00  0.00000000000E+00  0.24894323042E+04  0.24894323042E+04  0.00000000000E+00 0. -1.
         21   -1    0    0  503  502 -0.00000000000E+00 -0.00000000000E+00 -0.19388481546E+02  0.19388481546E+02  0.00000000000E+00 0.  1.
         21    1    1    2  503  504  0.35544978766E+02 -0.39748746576E+02  0.80070357881E+02  0.96201198439E+02  0.00000000000E+00 0.  1.
         21    1    1    2  504  501  0.18236856767E+02 -0.43103427930E+02  0.41578667474E+03  0.41841253248E+03  0.00000000000E+00 0.  1.
         21    1    1    2  505  502 -0.71957263811E+01  0.10980062862E+03  0.30652453135E+03  0.32567659548E+03  0.00000000000E+00 0.  1.
         21    1    1    2  506  505 -0.46586109151E+02 -0.26948454110E+02  0.16676622587E+04  0.16685304593E+04  0.00000000000E+00 0. -1.
<scales pt_clust_3="55.21088" pt_clust_4="46.80265" pt_clust_5="73.99117" pt_clust_6="14000.00000"></scales>
<clustering>
<clus scale="   46.803">  1  4  2 -1</clus>
<clus scale="   55.211">  2  3  1 -1</clus>
<clus scale="   73.991">  2  5  1 -1</clus>
<clus scale="   46.803">  1  3  2 -1</clus>
</clustering>
</event>
<event>
 6    0  0.4227619E+002  0.9317698E+02  0.7546771E-02  0.1295336E+00
         21   -1    0    0  506  501  0.00000000000E+00  0.00000000000E+00  0.23746549588E+04  0.23746549588E+04  0.00000000000E+00 0.  1.
         21   -1    0    0  505  502 -0.00000000000E+00 -0.00000000000E+00 -0.80008635420E+03  0.80008635420E+03  0.00000000000E+00 0.  1.
         21    1    1    2  503  501  0.20926736389E+02 -0.22667649082E+02  0.28071910097E+03  0.28240921419E+03  0.00000000000E+00 0. -1.
         21    1    1    2  504  503 -0.33387228669E+02  0.12396782258E+03  0.73048375102E+01  0.12859272423E+03  0.00000000000E+00 0. -1.
         21    1    1    2  505  504  0.42196762492E+02 -0.81543919769E+02 -0.73558580799E+03  0.74129377343E+03  0.00000000000E+00 0.  1.
         21    1    1    2  506  502 -0.29736270213E+02 -0.19756253726E+02  0.20221304741E+04  0.20224456012E+04  0.00000000000E+00 0.  1.
<scales pt_clust_3="30.85046" pt_clust_4="93.17698" pt_clust_5="14000.00000" pt_clust_6="42.73052"></scales>
<clustering>
<clus scale="   30.850">  1  3  2 -1</clus>
<clus scale="   42.731">  1  6  2 -1</clus>
<clus scale="   93.177">  1  4  2 -1</clus>
<clus scale="   30.850">  1  3  2 -1</clus>
</clustering>
</event>
<event>
 6    0  0.4227619E+002  0.1306918E+03  0.7546771E-02  0.1226433E+00
         21   -1    0    0  503  501  0.00000000000E+00  0.00000000000E+00  0.42625451231E+03  0.42625451231E+03  0.00000000000E+00 0.  1.
         21   -1    0    0  505  502 -0.00000000000E+00 -0.00000000000E+00 -0.27590868981E+03  0.27590868981E+03  0.00000000000E+00 0.  1.
         21    1    1    2  503  504 -0.10596477201E+03 -0.10932467808E+03  0.29545689706E+03  0.33237809219E+03  0.00000000000E+00 0.  1.
         21    1    1    2  504  502  0.60436752819E+02  0.12753492819E+03 -0.26654002681E+02  0.14362518880E+03  0.00000000000E+00 0. -1.
         21    1    1    2  505  506  0.17538038987E+02 -0.30994647520E+02 -0.16586274568E+03  0.16964286425E+03  0.00000000000E+00 0.  1.
         21    1    1    2  506  501  0.27989980209E+02  0.12784397412E+02  0.47405673808E+02  0.56517056881E+02  0.00000000000E+00 0. -1.
<scales pt_clust_3="14000.00000" pt_clust_4="130.69181" pt_clust_5="35.62627" pt_clust_6="30.77141"></scales>
<clustering>
<clus scale="   30.771">  1  6  2 -1</clus>
<clus scale="   35.626">  2  5  1 -1</clus>
<clus scale="  130.692">  2  4  1 -1</clus>
<clus scale="   30.771">  1  3  2 -1</clus>
</clustering>
</event>
<event>
 6    0  0.4227619E+002  0.1381677E+03  0.7546771E-02  0.1215816E+00
         21   -1    0    0  506  501  0.00000000000E+00  0.00000000000E+00  0.17336757302E+04  0.17336757302E+04  0.00000000000E+00 0.  1.
         21   -1    0    0  503  502 -0.00000000000E+00 -0.00000000000E+00 -0.10756544223E+03  0.10756544223E+03  0.00000000000E+00 0. -1.
         21    1    1    2  503  504  0.60302067271E+02  0.88307928330E+02 -0.52360804260E+02  0.11906419842E+03  0.00000000000E+00 0. -1.
         21    1    1    2  504  501 -0.14195166386E+03 -0.21936519960E+02  0.72370045207E+03  0.73781693536E+03  0.00000000000E+00 0.  1.
         21    1    1    2  505  502  0.11114361963E+03 -0.54806917098E+02  0.25146733525E+03  0.28034358035E+03  0.00000000000E+00 0. -1.
         21    1    1    2  506  505 -0.29494023047E+02 -0.11564491272E+02  0.70330330493E+03  0.70401645832E+03  0.00000000000E+00 0.  1.
<scales pt_clust_3="106.08661" pt_clust_4="138.16769" pt_clust_5="14000.00000" pt_clust_6="31.68020"></scales>
<clustering>
<clus scale="   31.680">  1  6  2 -1</clus>
<clus scale="  106.087">  2  3  1 -1</clus>
<clus scale="  138.168">  1  4  2 -1</clus>
<clus scale="   31.680">  1  3  2 -1</clus>
</clustering>
</event>
<event>
 6    0  0.4227619E+002  0.1519341E+03  0.7546771E-02  0.1198116E+00
         21   -1    0    0  502  501  0.00000000000E+00  0.00000000000E+00  0.21459985875E+03  0.21459985875E+03  0.00000000000E+00 0.  1.
         21   -1    0    0  506  502 -0.00000000000E+00 -0.00000000000E+00 -0.54261204940E+03  0.54261204940E+03  0.00000000000E+00 0. -1.
         21    1    1    2  503  504 -0.61751238296E+02 -0.37262741640E+02 -0.29711027886E+02  0.78003028939E+02  0.00000000000E+00 0. -1.
         21    1    1    2  504  505 -0.30529008692E+02 -0.13072818952E+03 -0.34511193404E+03  0.37030275035E+03  0.00000000000E+00 0. -1.
         21    1    1    2  505  501  0.77707781845E+02  0.13312533222E+03  0.14007129148E+03  0.20828062832E+03  0.00000000000E+00 0.  1.
         21    1    1    2  506  503  0.14572465143E+02  0.34865598935E+02 -0.93260520205E+02  0.10062550054E+03  0.00000000000E+00 0.  1.
<scales pt_clust_3="68.49153" pt_clust_4="14000.00000" pt_clust_5="151.93412" pt_clust_6="37.78845"></scales>
<clustering>
<clus scale="   37.788">  2  6  1 -1</clus>
<clus scale="   68.492">  2  3  1 -1</clus>
<clus scale="  151.934">  1  5  2 -1</clus>
<clus scale="  151.934">  1  3  2 -1</clus>
</clustering>
</event>
<event>
 6    0  0.4227619E+002  0.1520464E+03  0.7546771E-02  0.1197981E+00
         21   -1    0    0  504  501  0.00000000000E+00  0.00000000000E+00  0.43177725352E+03  0.43177725352E+03  0.00000000000E+00 0. -1.
         21   -1    0    0  506  502 -0.00000000000E+00 -0.00000000000E+00 -0.48436096827E+03  0.48436096827E+03  0.00000000000E+00 0.  1.
         21    1    1    2  503  502  0.26068815680E+02 -0.29225418800E+02 -0.15622783327E+03  0.16106161598E+03  0.00000000000E+00 0.  1.
         21    1    1    2  504  503  0.14921172385E+03 -0.94133674442E+02  0.86072802325E+02  0.19630031711E+03  0.00000000000E+00 0. -1.
         21    1    1    2  505  501 -0.36246773808E+02  0.10190558614E+02  0.25695985445E+03  0.25970375988E+03  0.00000000000E+00 0. -1.
         21    1    1    2  506  505 -0.13903376573E+03  0.11316853463E+03 -0.23938853826E+03  0.29907252881E+03  0.00000000000E+00 0.  1.
<scales pt_clust_3="38.72144" pt_clust_4="152.04644" pt_clust_5="37.65204" pt_clust_6="14000.00000"></scales>
<clustering>
<clus scale="   37.652">  1  5  2 -1</clus>
<clus scale="   38.721">  2  3  1 -1</clus>
<clus scale="  152.046">  1  4  2 -1</clus>
<clus scale="   37.652">  1  3  2 -1</clus>
</clustering>
</event>
<event>
 6    0  0.4227619E+002  0.1539931E+03  0.7546771E-02  0.1195650E+00
         21   -1    0    0  505  501  0.00000000000E+00  0.00000000000E+00  0.21292592167E+03  0.21292592167E+03  0.00000000000E+00 0. -1.
         21   -1    0    0  506  502 -0.00000000000E+00 -0.00000000000E+00 -0.12376160639E+04  0.12376160639E+04  0.00000000000E+00 0.  1.
         21    1    1    2  503  501 -0.16067380088E+03  0.19452094871E+02 -0.96077372062E+03  0.97431031838E+03  0.00000000000E+00 0.  1.
         21    1    1    2  504  502  0.18585298171E+03  0.64237037401E+01  0.12045662071E+03  0.22156803075E+03  0.00000000000E+00 0. -1.
         21    1    1    2  505  504 -0.35343447216E+02  0.16024153537E+02  0.21472740123E+02  0.44351001410E+02  0.00000000000E+00 0.  1.
         21    1    1    2  506  503  0.10164266388E+02 -0.41899952148E+02 -0.20584578249E+03  0.21031263507E+03  0.00000000000E+00 0.  1.
<scales pt_clust_3="14000.00000" pt_clust_4="153.99315" pt_clust_5="38.80635" pt_clust_6="42.82027"></scales>
<clustering>
<clus scale="   38.806">  1  5  2 -1</clus>
<clus scale="   42.820">  2  6  1 -1</clus>
<clus scale="  153.993">  1  4  2 -1</clus>
<clus scale="   38.806">  1  3  2 -1</clus>
</clustering>
</event>
<event>
 6    0  0.4227619E+002  0.9299414E+02  0.7546771E-02  0.1295759E+00
         21   -1    0    0  503  501  0.00000000000E+00  0.00000000000E+00  0.31583981556E+03  0.31583981556E+03  0.00000000000E+00 0.  1.
         21   -1    0    0  505  502 -0.00000000000E+00 -0.00000000000E+00 -0.17689954980E+03  0.17689954980E+03  0.00000000000E+00 0.  1.
         21    1    1    2  503  506 -0.32576794670E+02  0.16999613588E+02  0.88859935101E+02  0.96157799887E+02  0.00000000000E+00 0.  1.
         21    1    1    2  504  502  0.68381272945E+02 -0.38287145087E+02  0.63392406360E+02  0.10079931127E+03  0.00000000000E+00 0.  1.
         21    1    1    2  505  501 -0.97050770299E+02  0.56015997903E+01 -0.13044015418E+03  0.16268025006E+03  0.00000000000E+00 0.  1.
         21    1    1    2  506  504  0.61246292024E+02  0.15685931709E+02  0.11712807848E+03  0.13310200415E+03  0.00000000000E+00 0.  1.
<scales pt_clust_3="36.74554" pt_clust_4="14000.00000" pt_clust_5="92.99414" pt_clust_6="49.84153"></scales>
<clustering>
<clus scale="   36.746">  1  3  2 -1</clus>
<clus scale="   49.842">  1  6  2 -1</clus>
<clus scale="   92.994">  2  5  1 -1</clus>
<clus scale="   36.746">  1  3  2 -1</clus>
</clustering>
</event>
<event>
 6    0  0.4227619E+002  0.6607522E+02  0.7546771E-02  0.1373972E+00
         21   -1    0    0  504  501  0.00000000000E+00  0.00000000000E+00  0.70616934454E+02  0.70616934454E+02  0.00000000000E+00 0. -1.
         21   -1    0    0  505  502 -0.00000000000E+00 -0.00000000000E+00 -0.21615333238E+04  0.21615333238E+04  0.00000000000E+00 0. -1.
         21    1    1    2  503  501  0.32389067365E+02 -0.89527122016E+01  0.10362477305E+02  0.35165091731E+02  0.00000000000E+00 0. -1.
         21    1    1    2  504  502  0.56180154722E+02 -0.16782322411E+02 -0.13484043224E+04  0.13496785072E+04  0.00000000000E+00 0. -1.
         21    1    1    2  505  506 -0.32754289749E+02  0.78588610760E+02 -0.76479456912E+03  0.76951916558E+03  0.00000000000E+00 0. -1.
         21    1    1    2  506  503 -0.55814932338E+02 -0.52853576147E+02  0.11920024906E+02  0.77787493707E+02  0.00000000000E+00 0. -1.
<scales pt_clust_3="33.60361" pt_clust_4="59.08052" pt_clust_5="14000.00000" pt_clust_6="66.07522"></scales>
<clustering>
<clus scale="   33.604">  1  3  2 -1</clus>
<clus scale="   59.081">  2  4  1 -1</clus>
<clus scale="   66.075">  1  6  2 -1</clus>
<clus scale="   33.604">  1  3  2 -1</clus>
</clustering>
</event>
<event>
 6    0  0.4227619E+002  0.1766522E+03  0.7546771E-02  0.1171083E+00
         21   -1    0    0  503  501  0.00000000000E+00  0.00000000000E+00  0.12164671347E+04  0.12164671347E+04  0.00000000000E+00 0. -1.
         21   -1    0    0  505  502 -0.00000000000E+00 -0.00000000000E+00 -0.18768767160E+03  0.18768767160E+03  0.00000000000E+00 0.  1.
         21    1    1    2  503  504  0.82438897612E+02  0.69483244084E+02 -0.13507252196E+03  0.17282557460E+03  0.00000000000E+00 0.  1.
         21    1    1    2  504  502  0.29035919658E+02 -0.21592240391E+02  0.20206332653E+02  0.41444002640E+02  0.00000000000E+00 0.  1.
         21    1    1    2  505  506  0.40802883517E+02  0.48048470320E+02  0.47155589897E+02  0.78722172619E+02  0.00000000000E+00 0.  1.
         21    1    1    2  506  501 -0.15227770079E+03 -0.95939474012E+02  0.10964900625E+04  0.11111630564E+04  0.00000000000E+00 0. -1.
<scales pt_clust_3="176.65219" pt_clust_4="36.18438" pt_clust_5="63.32605" pt_clust_6="14000.00000"></scales>
<clustering>
<clus scale="   36.184">  2  4  1 -1</clus>
<clus scale="   63.326">  2  5  1 -1</clus>
<clus scale="  176.652">  2  3  1 -1</clus>
<clus scale="  176.652">  1  3  2 -1</clus>
</clustering>
</event>
<event>
 6    0  0.4227619E+002  0.1492100E+03  0.7546771E-02  0.1201447E+00
         21   -1    0    0  504  501  0.00000000000E+00  0.00000000000E+00  0.36291234383E+03  0.36291234383E+03  0.00000000000E+00 0.  1.
         21   -1    0    0  506  502 -0.00000000000E+00 -0.00000000000E+00 -0.20034710989E+03  0.20034710989E+03  0.00000000000E+00 0. -1.
         21    1    1    2  503  505  0.43270590612E+01  0.13818916797E+03  0.49386147844E+02  0.14681267379E+03  0.00000000000E+00 0.  1.
         21    1    1    2  504  502 -0.88026711802E+02 -0.14785363245E+03  0.62476708660E+02  0.18306484574E+03  0.00000000000E+00 0. -1.
         21    1    1    2  505  501  0.38324970306E+02  0.12533646743E+02  0.13320880453E+03  0.13917787631E+03  0.00000000000E+00 0.  1.
         21    1    1    2  506  503  0.45374682435E+02 -0.28691822645E+01 -0.82506427091E+02  0.94204057897E+02  0.00000000000E+00 0. -1.
<scales pt_clust_3="149.21005" pt_clust_4="14000.00000" pt_clust_5="40.32240" pt_clust_6="46.43322"></scales>
<clustering>
<clus scale="   40.322">  1  5  2 -1</clus>
<clus scale="   46.433">  2  6  1 -1</clus>
<clus scale="  149.210">  2  3  1 -1</clus>
<clus scale="   40.322">  1  3  2 -1</clus>
</clustering>
</event>
<event>
 6    0  0.4227619E+002  0.1320822E+03  0.7546771E-02  0.1224398E+00
         21   -1    0    0  506  501  0.00000000000E+00  0.00000000000E+00  0.53516969665E+03  0.53516969665E+03  0.00000000000E+00 0.  1.
         21   -1    0    0  505  502 -0.00000000000E+00 -0.00000000000E+00 -0.17587103308E+03  0.17587103308E+03  0.00000000000E+00 0.  1.
         21    1    1    2  503  502  0.37914529429E+02 -0.20362171760E+02 -0.68054298688E+02  0.80520290303E+02  0.00000000000E+00 0.  1.
         21    1    1    2  504  503  0.86063448744E+02 -0.25356488841E+02 -0.41925440062E+02  0.99033384575E+02  0.00000000000E+00 0.  1.
         21    1    1    2  505  501 -0.88811694340E+02 -0.63422057447E+02  0.34743874722E+03  0.36417517418E+03  0.00000000000E+00 0.  1.
         21    1    1    2  506  504 -0.35166283833E+02  0.10914071805E+03  0.12183965510E+03  0.16731188066E+03  0.00000000000E+00 0.  1.
<scales pt_clust_3="35.87573" pt_clust_4="35.87573" pt_clust_5="109.13237" pt_clust_6="121.50090"></scales>
<clustering>
<clus scale="   35.876">  3  4 -1 -1</clus>
<clus scale="  109.132">  1  5  2 -1</clus>
<clus scale="  121.501">  1  6  2 -1</clus>
<clus scale="  109.132">  1  3  2 -1</clus>
</clustering>
</event>
<event>
 6    0  0.4227619E+002  0.8531463E+02  0.7546771E-02  0.1314612E+00
         21   -1    0    0  506  501  0.00000000000E+00  0.00000000000E+00  0.39379428167E+02  0.39379428167E+02  0.00000000000E+00 0.  1.
         21   -1    0    0  501  502 -0.00000000000E+00 -0.00000000000E+00 -0.15443800097E+04  0.15443800097E+04  0.00000000000E+00 0.  1.
         21    1    1    2  503  504 -0.63413593612E+02  0.84100512814E+02 -0.28170131145E+03  0.30074874727E+03  0.00000000000E+00 0.  1.
         21    1    1    2  504  502  0.34029033132E+02  0.48181086836E+00 -0.10667694143E+04  0.10673121336E+04  0.00000000000E+00 0.  1.
         21    1    1    2  505  503 -0.27513198010E+02 -0.81145168532E+02 -0.12190616736E+03  0.14900546326E+03  0.00000000000E+00 0.  1.
         21    1    1    2  506  505  0.56897758491E+02 -0.34371551500E+01 -0.34623688480E+02  0.66693093801E+02  0.00000000000E+00 0.  1.
<scales pt_clust_3="14000.00000" pt_clust_4="34.03244" pt_clust_5="85.31463" pt_clust_6="60.60381"></scales>
<clustering>
<clus scale="   34.032">  2  4  1 -1</clus>
<clus scale="   60.604">  1  6  2 -1</clus>
<clus scale="   85.315">  1  5  2 -1</clus>
<clus scale="   60.604">  1  3  2 -1</clus>
</clustering>
</event>
<event>
 6    0  0.4227619E+002  0.9691303E+02  0.7546771E-02  0.1286925E+00
         21   -1    0    0  506  501  0.00000000000E+00  0.00000000000E+00  0.37844695316E+03  0.37844695316E+03  0.00000000000E+00 0.  1.
         21   -1    0    0  504  502 -0.00000000000E+00 -0.00000000000E+00 -0.28786368196E+03  0.28786368196E+03  0.00000000000E+00 0.  1.
         21    1    1    2  503  501 -0.13255773295E+02  0.27378871525E+02  0.30566946900E+03  0.30717933265E+03  0.00000000000E+00 0.  1.
         21    1    1    2  504  503 -0.86371253522E+01  0.31006172968E+02 -0.47944149951E+02  0.57746205165E+02  0.00000000000E+00 0. -1.
         21    1    1    2  505  502 -0.86715625741E+02 -0.38705193784E+02 -0.16571920034E+03  0.19099880925E+03  0.00000000000E+00 0.  1.
         21    1    1    2  506  505  0.10860852439E+03 -0.19679850710E+02 -0.14228475041E+01  0.11038628805E+03  0.00000000000E+00 0.  1.
<scales pt_clust_3="30.41904" pt_clust_4="34.22549" pt_clust_5="96.91303" pt_clust_6="14000.00000"></scales>
<clustering>
<clus scale="   30.419">  1  3  2 -1</clus>
<clus scale="   34.225">  2  4  1 -1</clus>
<clus scale="   96.913">  2  5  1 -1</clus>
<clus scale="   30.419">  1  3  2 -1</clus>
</clustering>
</event>
<event>
 6    0  0.4227619E+002  0.2132221E+03  0.7546771E-02  0.1139040E+00
         21   -1    0    0  503  501  0.00000000000E+00  0.00000000000E+00  0.81287083789E+03  0.81287083789E+03  0.00000000000E+00 0. -1.
         21   -1    0    0  505  502 -0.00000000000E+00 -0.00000000000E+00 -0.47749466325E+03  0.47749466325E+03  0.00000000000E+00 0.  1.
         21    1    1    2  503  502 -0.13032299182E+03  0.17759914635E+03 -0.41068383681E+03  0.46603299540E+03  0.00000000000E+00 0.  1.
         21    1    1    2  504  506  0.29640221740E+02 -0.82296502957E+02  0.24580687794E+03  0.26090664688E+03  0.00000000000E+00 0. -1.
         21    1    1    2  505  504 -0.79124495528E+01 -0.41074868891E+02 -0.65055003423E+01  0.42332886118E+02  0.00000000000E+00 0.  1.
         21    1    1    2  506  501  0.10859521963E+03 -0.54227774503E+02  0.50675863385E+03  0.52109297274E+03  0.00000000000E+00 0. -1.
<scales pt_clust_3="195.04617" pt_clust_4="73.32289" pt_clust_5="41.83003" pt_clust_6="73.32289"></scales>
<clustering>
<clus scale="   41.830">  2  5  1 -1</clus>
<clus scale="   73.323">  4  6 -1 -1</clus>
<clus scale="  195.046">  2  3  1 -1</clus>
<clus scale="  213.222">  1  3  2 -1</clus>
</clustering>
</event>
<event>
 6    0  0.4227619E+002  0.2107623E+03  0.7546771E-02  0.1140964E+00
         21   -1    0    0  506  501  0.00000000000E+00  0.00000000000E+00  0.61075645706E+03  0.61075645706E+03  0.00000000000E+00 0.  1.
         21   -1    0    0  504  502 -0.00000000000E+00 -0.00000000000E+00 -0.20434879916E+03  0.20434879916E+03  0.00000000000E+00 0.  1.
         21    1    1    2  503  502 -0.57725205807E+02 -0.65253235664E+00 -0.38794454406E+02  0.69553108318E+02  0.00000000000E+00 0.  1.
         21    1    1    2  504  505  0.28503493255E+02 -0.14685510049E+02 -0.35725617792E+02  0.48004511244E+02  0.00000000000E+00 0. -1.
         21    1    1    2  505  501  0.10983960317E+03  0.18720413073E+03  0.45736817867E+03  0.50625663042E+03  0.00000000000E+00 0.  1.
         21    1    1    2  506  503 -0.80617890614E+02 -0.17186608833E+03  0.23559551430E+02  0.19129100624E+03  0.00000000000E+00 0.  1.
<scales pt_clust_3="48.54004" pt_clust_4="32.06421" pt_clust_5="14000.00000" pt_clust_6="210.76235"></scales>
<clustering>
<clus scale="   32.064">  2  4  1 -1</clus>
<clus scale="   48.540">  2  3  1 -1</clus>
<clus scale="  210.762">  2  6  1 -1</clus>
<clus scale="  210.762">  1  3  2 -1</clus>
</clustering>
</event>
<event>
 6    0  0.4227619E+002  0.7097915E+02  0.7546771E-02  0.1356795E+00
         21   -1    0    0  504  501  0.00000000000E+00  0.00000000000E+00  0.53261743075E+03  0.53261743075E+03  0.00000000000E+00 0.  1.
         21   -1    0    0  503  502 -0.00000000000E+00 -0.00000000000E+00 -0.30804819596E+04  0.30804819596E+04  0.00000000000E+00 0.  1.
         21    1    1    2  503  505 -0.60292617407E+02 -0.12933065415E+02 -0.24692705281E+04  0.24700403651E+04  0.00000000000E+00 0.  1.
         21    1    1    2  504  502 -0.39805690365E+02  0.25585408601E+01  0.22208651224E+02  0.45653732662E+02  0.00000000000E+00 0.  1.
         21    1    1    2  505  506  0.11145380713E+03 -0.35562618023E+02 -0.59224536638E+03  0.60368967601E+03  0.00000000000E+00 0.  1.
         21    1    1    2  506  501 -0.11355499354E+02  0.45937142578E+02  0.49144271449E+03  0.49371561658E+03  0.00000000000E+00 0.  1.
<scales pt_clust_3="61.69375" pt_clust_4="39.88783" pt_clust_5="70.97915" pt_clust_6="14000.00000"></scales>
<clustering>
<clus scale="   39.888">  1  4  2 -1</clus>
<clus scale="   61.694">  2  3  1 -1</clus>
<clus scale="   70.979">  2  5  1 -1</clus>
<clus scale="   39.888">  1  3  2 -1</clus>
</clustering>
</event>
<event>
 6    0  0.4227619E+002  0.1243675E+03  0.7546771E-02  0.1236061E+00
         21   -1    0    0  503  501  0.00000000000E+00  0.00000000000E+00  0.37551160479E+03  0.37551160479E+03  0.00000000000E+00 0. -1.
         21   -1    0    0  501  502 -0.00000000000E+00 -0.00000000000E+00 -0.11264622255E+04  0.11264622255E+04  0.00000000000E+00 0. -1.
         21    1    1    2  503  506  0.14656854882E+03 -0.14549884596E+02  0.27985251930E+03  0.31624590307E+03  0.00000000000E+00 0. -1.
         21    1    1    2  504  505 -0.48915125153E+02  0.83708488840E+01 -0.83978142183E+03  0.84124645439E+03  0.00000000000E+00 0. -1.
         21    1    1    2  505  502 -0.92728622681E+01  0.38172340476E+02 -0.23672769197E+03  0.23996481762E+03  0.00000000000E+00 0. -1.
         21    1    1    2  506  504 -0.88380561403E+02 -0.31993304765E+02  0.45705973758E+02  0.10451665523E+03  0.00000000000E+00 0.  1.
<scales pt_clust_3="124.36746" pt_clust_4="72.85773" pt_clust_5="39.28248" pt_clust_6="14000.00000"></scales>
<clustering>
<clus scale="   39.282">  2  5  1 -1</clus>
<clus scale="   72.858">  2  4  1 -1</clus>
<clus scale="  124.367">  1  3  2 -1</clus>
<clus scale="  124.367">  1  3  2 -1</clus>
</clustering>
</event>
<event>
 6    0  0.4227619E+002  0.8676417E+02  0.7546771E-02  0.1310882E+00
         21   -1    0    0  504  501  0.00000000000E+00  0.00000000000E+00  0.45796569905E+02  0.45796569905E+02  0.00000000000E+00 0. -1.
         21   -1    0    0  503  502 -0.00000000000E+00 -0.00000000000E+00 -0.66107515313E+03  0.66107515313E+03  0.00000000000E+00 0.  1.
         21    1    1    2  503  505 -0.36373838417E+02 -0.92190642144E+02 -0.41191429921E+03  0.42366916399E+03  0.00000000000E+00 0.  1.
         21    1    1    2  504  506  0.28228742445E+02  0.64851487633E+02 -0.97036991822E+02  0.12007812095E+03  0.00000000000E+00 0.  1.
         21    1    1    2  505  501  0.47668599171E+02  0.49098551954E+01 -0.46807777726E+00  0.47923075045E+02  0.00000000000E+00 0. -1.
         21    1    1    2  506  502 -0.39523503199E+02  0.22429299316E+02 -0.10585921441E+03  0.11520136305E+03  0.00000000000E+00 0. -1.
<scales pt_clust_3="14000.00000" pt_clust_4="86.76417" pt_clust_5="46.30842" pt_clust_6="45.44426"></scales>
<clustering>
<clus scale="   45.444">  2  6  1 -1</clus>
<clus scale="   46.308">  1  5  2 -1</clus>
<clus scale="   86.764">  1  4  2 -1</clus>
<clus scale="   46.308">  1  3  2 -1</clus>
</clustering>
</event>
<event>
 6    0  0.4227619E+002  0.2158496E+03  0.7546771E-02  0.1137016E+00
         21   -1    0    0  505  501  0.00000000000E+00  0.00000000000E+00  0.20370634652E+03  0.20370634652E+03  0.00000000000E+00 0.  1.
         21   -1    0    0  506  502 -0.00000000000E+00 -0.00000000000E+00 -0.12387341048E+04  0.12387341048E+04  0.00000000000E+00 0. -1.
         21    1    1    2  503  504  0.33336590370E+02  0.46656065691E+02 -0.18174247533E+03  0.19057398580E+03  0.00000000000E+00 0.  1.
         21    1    1    2  504  502  0.65748883092E+02  0.14285325860E+03 -0.87281656174E+03  0.88687018192E+03  0.00000000000E+00 0. -1.
         21    1    1    2  505  503  0.39718529845E+02 -0.11304906843E+03 -0.10820873013E+03  0.16145210672E+03  0.00000000000E+00 0. -1.
         21    1    1    2  506  501 -0.13880400331E+03 -0.76460255863E+02  0.12774000893E+03  0.20354417688E+03  0.00000000000E+00 0.  1.
<scales pt_clust_3="33.40051" pt_clust_4="33.40051" pt_clust_5="119.82343" pt_clust_6="208.64227"></scales>
<clustering>
<clus scale="   33.401">  3  4 -1 -1</clus>
<clus scale="  119.823">  1  5  2 -1</clus>
<clus scale="  208.642">  1  6  2 -1</clus>
<clus scale="  119.823">  1  3  2 -1</clus>
</clustering>
</event>
<event>
 6    0  0.4227619E+002  0.1500503E+03  0.7546771E-02  0.1200411E+00
         21   -1    0    0  505  501  0.00000000000E+00  0.00000000000E+00  0.54194964647E+02  0.54194964647E+02  0.00000000000E+00 0. -1.
         21   -1    0    0  504  502 -0.00000000000E+00 -0.00000000000E+00 -0.77890320322E+03  0.77890320322E+03  0.00000000000E+00 0.  1.
         21    1    1    2  503  502 -0.49021238179E+01  0.50962242455E+02 -0.32029871424E+03  0.32436468260E+03  0.00000000000E+00 0.  1.
         21    1    1    2  504  506  0.49028826505E+02  0.12026323338E+02 -0.46115930063E+02  0.68374975591E+02  0.00000000000E+00 0.  1.
         21    1    1    2  505  503 -0.76933150316E+02 -0.14427981693E+03 -0.27191471418E+03  0.31729006757E+03  0.00000000000E+00 0.  1.
         21    1    1    2  506  501  0.32806447629E+02  0.81291251136E+02 -0.86378880090E+02  0.12306844211E+03  0.00000000000E+00 0. -1.
<scales pt_clust_3="51.19747" pt_clust_4="46.10087" pt_clust_5="137.20270" pt_clust_6="46.10087"></scales>
<clustering>
<clus scale="   46.101">  4  6 -1 -1</clus>
<clus scale="   51.197">  2  3  1 -1</clus>
<clus scale="  137.203">  2  5  1 -1</clus>
<clus scale="  150.050">  1  3  2 -1</clus>
</clustering>
</event>
<event>
 6    0  0.4227619E+002  0.8624264E+02  0.7546771E-02  0.1312215E+00
         21   -1    0    0  503  501  0.00000000000E+00  0.00000000000E+00  0.57195696219E+03  0.57195696219E+03  0.00000000000E+00 0.  1.
         21   -1    0    0  505  502 -0.00000000000E+00 -0.00000000000E+00 -0.17844244365E+03  0.17844244365E+03  0.00000000000E+00 0.  1.
         21    1    1    2  503  504 -0.27359431900E+02  0.16771831573E+02  0.83408843443E+02  0.89369278909E+02  0.00000000000E+00 0. -1.
         21    1    1    2  504  506 -0.59816323291E+02 -0.10633572118E+03  0.17143497893E+02  0.12320380534E+03  0.00000000000E+00 0.  1.
         21    1    1    2  505  501  0.19965594688E+02  0.43936050288E+02  0.40030854023E+03  0.40320705458E+03  0.00000000000E+00 0.  1.
         21    1    1    2  506  502  0.67210160503E+02  0.45627839316E+02 -0.10734636302E+03  0.13461926701E+03  0.00000000000E+00 0.  1.
<scales pt_clust_3="32.09101" pt_clust_4="14000.00000" pt_clust_5="57.87472" pt_clust_6="86.24264"></scales>
<clustering>
<clus scale="   32.091">  1  3  2 -1</clus>
<clus scale="   57.875">  1  5  2 -1</clus>
<clus scale="   86.243">  2  6  1 -1</clus>
<clus scale="   32.091">  1  3  2 -1</clus>
</clustering>
</event>
<event>
 6    0  0.4227619E+002  0.1051470E+03  0.7546771E-02  0.1269830E+00
         21   -1    0    0  506  501  0.00000000000E+00  0.00000000000E+00  0.35408910556E+02  0.35408910556E+02  0.00000000000E+00 0. -1.
         21   -1    0    0  505  502 -0.00000000000E+00 -0.00000000000E+00 -0.57836102137E+03  0.57836102137E+03  0.00000000000E+00 0. -1.
         21    1    1    2  503  501 -0.46127972982E+02 -0.45662049580E+02 -0.15190745908E+03  0.16519288358E+03  0.00000000000E+00 0. -1.
         21    1    1    2  504  502  0.12876535846E+02  0.87188162272E+02 -0.20319931201E+03  0.22148937044E+03  0.00000000000E+00 0. -1.
         21    1    1    2  505  503 -0.11747655094E+02 -0.53540870622E+02 -0.16753897801E+03  0.17627802296E+03  0.00000000000E+00 0. -1.
         21    1    1    2  506  504  0.44999092230E+02  0.12014757930E+02 -0.20306361724E+02  0.50809654949E+02  0.00000000000E+00 0. -1.
<scales pt_clust_3="33.95924" pt_clust_4="98.43956" pt_clust_5="33.95924" pt_clust_6="46.57545"></scales>
<clustering>
<clus scale="   33.959">  3  5 -1 -1</clus>
<clus scale="   46.575">  1  6  2 -1</clus>
<clus scale="   98.440">  2  4  1 -1</clus>
<clus scale="   46.575">  1  3  2 -1</clus>
</clustering>
</event>
<event>
 6    0  0.4227619E+002  0.1039525E+03  0.7546771E-02  0.1272197E+00
         21   -1    0    0  504  501  0.00000000000E+00  0.00000000000E+00  0.77293779649E+03  0.77293779649E+03  0.00000000000E+00 0.  1.
         21   -1    0    0  503  502 -0.00000000000E+00 -0.00000000000E+00 -0.20810916223E+03  0.20810916223E+03  0.00000000000E+00 0.  1.
         21    1    1    2  503  501 -0.19788787484E+02  0.10173181917E+03  0.25265842262E+03  0.27308833308E+03  0.00000000000E+00 0.  1.
         21    1    1    2  504  505 -0.85187415901E+02 -0.64071601529E+02  0.47960715231E+03  0.49130956280E+03  0.00000000000E+00 0.  1.
         21    1    1    2  505  506  0.60554076883E+02 -0.23705572584E+02 -0.15554625043E+03  0.16859236763E+03  0.00000000000E+00 0.  1.
         21    1    1    2  506  502  0.44422126502E+02 -0.13954645055E+02 -0.11890690238E+02  0.48056695225E+02  0.00000000000E+00 0.  1.
<scales pt_clust_3="102.39364" pt_clust_4="103.95248" pt_clust_5="14000.00000" pt_clust_6="46.56240"></scales>
<clustering>
<clus scale="   46.562">  2  6  1 -1</clus>
<clus scale="  102.394">  1  3  2 -1</clus>
<clus scale="  103.952">  1  4  2 -1</clus>
<clus scale="  102.394">  1  3  2 -1</clus>
</clustering>
</event>
<event>
 6    0  0.4227619E+002  0.3074319E+03  0.7546771E-02  0.1081583E+00
         21   -1    0    0  503  501  0.00000000000E+00  0.00000000000E+00  0.21620937334E+03  0.21620937334E+03  0.00000000000E+00 0.  1.
         21   -1    0    0  505  502 -0.00000000000E+00 -0.00000000000E+00 -0.14912443602E+04  0.14912443602E+04  0.00000000000E+00 0. -1.
         21    1    1    2  503  506  0.23754568926E+01  0.38346429514E+02  0.50324474271E+02  0.63313854429E+02  0.00000000000E+00 0.  1.
         21    1    1    2  504  502 -0.25935048675E+03 -0.21613331329E+03 -0.48556614483E+03  0.59139729886E+03  0.00000000000E+00 0. -1.
         21    1    1    2  505  501  0.34863256320E+02  0.56295294403E+01 -0.75971673210E+03  0.76053708080E+03  0.00000000000E+00 0. -1.
         21    1    1    2  506  504  0.22211177354E+03  0.17215735433E+03 -0.80076584246E+02  0.29220549950E+03  0.00000000000E+00 0.  1.
<scales pt_clust_3="38.49021" pt_clust_4="307.43188" pt_clust_5="35.31484" pt_clust_6="14000.00000"></scales>
<clustering>
<clus scale="   35.315">  2  5  1 -1</clus>
<clus scale="   38.490">  1  3  2 -1</clus>
<clus scale="  307.432">  2  4  1 -1</clus>
<clus scale="   38.490">  1  3  2 -1</clus>
</clustering>
</event>
<event>
 6    0  0.4227619E+002  0.1124453E+03  0.7546771E-02  0.1256107E+00
         21   -1    0    0  506  501  0.00000000000E+00  0.00000000000E+00  0.42559656755E+03  0.42559656755E+03  0.00000000000E+00 0. -1.
         21   -1    0    0  503  502 -0.00000000000E+00 -0.00000000000E+00 -0.40429425694E+03  0.40429425694E+03  0.00000000000E+00 0. -1.
         21    1    1    2  503  505 -0.56363631658E+02 -0.83966976765E+02 -0.16168028062E+03  0.19070350102E+03  0.00000000000E+00 0. -1.
         21    1    1    2  504  502  0.19841896378E+02  0.17238138322E+03 -0.15583013642E+03  0.23322108299E+03  0.00000000000E+00 0. -1.
         21    1    1    2  505  501  0.63732231677E+02 -0.13959970125E+03  0.17796936009E+03  0.23499567459E+03  0.00000000000E+00 0. -1.
         21    1    1    2  506  504 -0.27210496397E+02  0.51185294791E+02  0.16084336756E+03  0.17097056590E+03  0.00000000000E+00 0. -1.
<scales pt_clust_3="99.64374" pt_clust_4="112.44534" pt_clust_5="14000.00000" pt_clust_6="57.96849"></scales>
<clustering>
<clus scale="   57.968">  1  6  2 -1</clus>
<clus scale="   99.644">  2  3  1 -1</clus>
<clus scale="  112.445">  2  4  1 -1</clus>
<clus scale="   57.968">  1  3  2 -1</clus>
</clustering>
</event>
<event>
 6    0  0.4227619E+002  0.1490555E+03  0.7546771E-02  0.1201638E+00
         21   -1    0    0  503  501  0.00000000000E+00  0.00000000000E+00  0.84975024124E+02  0.84975024124E+02  0.00000000000E+00 0.  1.
         21   -1    0    0  504  502 -0.00000000000E+00 -0.00000000000E+00 -0.20619846222E+04  0.20619846222E+04  0.00000000000E+00 0.  1.
         21    1    1    2  503  505  0.35980906695E+02 -0.51707244434E+00 -0.80430214867E+01  0.36872526427E+02  0.00000000000E+00 0. -1.
         21    1    1    2  504  501  0.23289631356E+02  0.64392366560E+02 -0.46544121323E+02  0.82795766979E+02  0.00000000000E+00 0.  1.
         21    1    1    2  505  506 -0.11009957316E+03 -0.19899603573E+03 -0.21239205572E+03  0.31117796127E+03  0.00000000000E+00 0.  1.
         21    1    1    2  506  502  0.50829035105E+02  0.13512074162E+03 -0.17100303996E+04  0.17161133917E+04  0.00000000000E+00 0.  1.
<scales pt_clust_3="35.98462" pt_clust_4="72.02538" pt_clust_5="149.05548" pt_clust_6="14000.00000"></scales>
<clustering>
<clus scale="   35.985">  1  3  2 -1</clus>
<clus scale="   72.025">  1  4  2 -1</clus>
<clus scale="  149.055">  1  5  2 -1</clus>
<clus scale="   35.985">  1  3  2 -1</clus>
</clustering>
</event>
<event>
 6    0  0.4227619E+002  0.9972520E+02  0.7546771E-02  0.1280875E+00
         21   -1    0    0  506  501  0.00000000000E+00  0.00000000000E+00  0.31252886660E+03  0.31252886660E+03  0.00000000000E+00 0.  1.
         21   -1    0    0  504  502 -0.00000000000E+00 -0.00000000000E+00 -0.14660670803E+03  0.14660670803E+03  0.00000000000E+00 0.  1.
         21    1    1    2  503  505 -0.34309062607E+02  0.65451219050E+02  0.19068454563E+03  0.20450322685E+03  0.00000000000E+00 0.  1.
         21    1    1    2  504  503  0.21329309562E+02  0.23069095786E+02 -0.12910030470E+01  0.31445020522E+02  0.00000000000E+00 0.  1.
         21    1    1    2  505  501  0.32802173897E+02  0.37499306719E+02  0.54369869687E+02  0.73744581812E+02  0.00000000000E+00 0.  1.
         21    1    1    2  506  502 -0.19822420853E+02 -0.12601962155E+03 -0.77841253699E+02  0.14944274543E+03  0.00000000000E+00 0.  1.
<scales pt_clust_3="14000.00000" pt_clust_4="31.41851" pt_clust_5="52.15760" pt_clust_6="99.72520"></scales>
<clustering>
<clus scale="   31.419">  2  4  1 -1</clus>
<clus scale="   52.158">  1  5  2 -1</clus>
<clus scale="   99.725">  2  6  1 -1</clus>
<clus scale="   52.158">  1  3  2 -1</clus>
</clustering>
</event>
<event>
 6    0  0.4227619E+002  0.1244081E+03  0.7546771E-02  0.1235997E+00
         21   -1    0    0  503  501  0.00000000000E+00  0.00000000000E+00  0.77519375477E+02  0.77519375477E+02  0.00000000000E+00 0. -1.
         21   -1    0    0  505  502 -0.00000000000E+00 -0.00000000000E+00 -0.90614842456E+03  0.90614842456E+03  0.00000000000E+00 0. -1.
         21    1    1    2  503  502 -0.32690402174E+02 -0.89586000044E+02 -0.10296706550E+02  0.95918381784E+02  0.00000000000E+00 0. -1.
         21    1    1    2  504  506 -0.11232820763E+03  0.43844977914E+01 -0.22619724522E+03  0.25259066450E+03  0.00000000000E+00 0. -1.
         21    1    1    2  505  504  0.20157454232E+02 -0.31668321636E+02 -0.24848165560E+03  0.25130129074E+03  0.00000000000E+00 0. -1.
         21    1    1    2  506  501  0.12486115557E+03  0.11686982389E+03 -0.34365344172E+03  0.38385746301E+03  0.00000000000E+00 0. -1.
<scales pt_clust_3="97.24230" pt_clust_4="14000.00000" pt_clust_5="37.53939" pt_clust_6="124.40808"></scales>
<clustering>
<clus scale="   37.539">  2  5  1 -1</clus>
<clus scale="   97.242">  1  3  2 -1</clus>
<clus scale="  124.408">  1  6  2 -1</clus>
<clus scale="   97.242">  1  3  2 -1</clus>
</clustering>
</event>
<event>
 6    0  0.4227619E+002  0.1298651E+03  0.7546771E-02  0.1227656E+00
         21   -1    0    0  504  501  0.00000000000E+00  0.00000000000E+00  0.57291279529E+03  0.57291279529E+03  0.00000000000E+00 0.  1.
         21   -1    0    0  506  502 -0.00000000000E+00 -0.00000000000E+00 -0.17913468681E+03  0.17913468681E+03  0.00000000000E+00 0.  1.
         21    1    1    2  503  505  0.99410069895E+02 -0.12272843589E+03  0.19921837575E+03  0.25422940862E+03  0.00000000000E+00 0.  1.
         21    1    1    2  504  503 -0.10680587904E+03  0.57742756956E+02  0.30812678750E+03  0.33118550535E+03  0.00000000000E+00 0.  1.
         21    1    1    2  505  502 -0.32227151862E+02  0.73627908231E+02 -0.85295068724E+02  0.11719601929E+03  0.00000000000E+00 0.  1.
         21    1    1    2  506  501  0.39622961008E+02 -0.86422293011E+01 -0.28271986049E+02  0.49436548843E+02  0.00000000000E+00 0.  1.
<scales pt_clust_3="129.86510" pt_clust_4="14000.00000" pt_clust_5="67.48818" pt_clust_6="40.55450"></scales>
<clustering>
<clus scale="   40.554">  2  6  1 -1</clus>
<clus scale="   67.488">  2  5  1 -1</clus>
<clus scale="  129.865">  2  3  1 -1</clus>
<clus scale="  129.865">  1  3  2 -1</clus>
</clustering>
</event>
<event>
 6    0  0.4227619E+002  0.1092204E+03  0.7546771E-02  0.1262020E+00
         21   -1    0    0  506  501  0.00000000000E+00  0.00000000000E+00  0.36070258128E+03  0.36070258128E+03  0.00000000000E+00 0.  1.
         21   -1    0    0  504  502 -0.00000000000E+00 -0.00000000000E+00 -0.23501595179E+03  0.23501595179E+03  0.00000000000E+00 0.  1.
         21    1    1    2  503  502  0.40973757329E+02  0.10250501219E+02 -0.18584558752E+02  0.46144418827E+02  0.00000000000E+00 0.  1.
         21    1    1    2  504  501  0.37596125333E+02  0.61829578677E+02 -0.12293844607E+03  0.14265422168E+03  0.00000000000E+00 0.  1.
         21    1    1    2  505  503 -0.12070417398E+03 -0.13377427671E+03  0.65327997280E+02  0.19165803389E+03  0.00000000000E+00 0.  1.
         21    1    1    2  506  505  0.42134291321E+02  0.61694196817E+02  0.20188163703E+03  0.21526185867E+03  0.00000000000E+00 0.  1.
<scales pt_clust_3="42.23650" pt_clust_4="14000.00000" pt_clust_5="109.22040" pt_clust_6="75.75723"></scales>
<clustering>
<clus scale="   42.236">  2  3  1 -1</clus>
<clus scale="   75.757">  1  6  2 -1</clus>
<clus scale="  109.220">  1  5  2 -1</clus>
<clus scale="   75.757">  1  3  2 -1</clus>
</clustering>
</event>
<event>
 6    0  0.4227619E+002  0.1073989E+03  0.7546771E-02  0.1265464E+00
         21   -1    0    0  505  501  0.00000000000E+00  0.00000000000E+00  0.60593712159E+03  0.60593712159E+03  0.00000000000E+00 0. -1.
         21   -1    0    0  504  502 -0.00000000000E+00 -0.00000000000E+00 -0.11609759475E+04  0.11609759475E+04  0.00000000000E+00 0. -1.
         21    1    1    2  503  501  0.31076953286E+02 -0.19690805335E+02  0.57421329626E+03  0.57539066246E+03  0.00000000000E+00 0. -1.
         21    1    1    2  504  503 -0.99459879720E-02  0.10057241764E+03 -0.47940668392E+03  0.48984240310E+03  0.00000000000E+00 0. -1.
         21    1    1    2  505  506  0.98499758444E+01  0.29395591238E+02  0.91070309727E+01  0.32311930019E+02  0.00000000000E+00 0. -1.
         21    1    1    2  506  502 -0.40916983142E+02 -0.11027720355E+03 -0.65895246925E+03  0.66936807353E+03  0.00000000000E+00 0. -1.
<scales pt_clust_3="41.77288" pt_clust_4="107.39894" pt_clust_5="31.00198" pt_clust_6="14000.00000"></scales>
<clustering>
<clus scale="   31.002">  1  5  2 -1</clus>
<clus scale="   41.773">  1  3  2 -1</clus>
<clus scale="  107.399">  1  4  2 -1</clus>
<clus scale="   31.002">  1  3  2 -1</clus>
</clustering>
</event>
<event>
 6    0  0.4227619E+002  0.9839094E+02  0.7546771E-02  0.1283716E+00
         21   -1    0    0  506  501  0.00000000000E+00  0.00000000000E+00  0.85406876980E+02  0.85406876980E+02  0.00000000000E+00 0. -1.
         21   -1    0    0  504  502 -0.00000000000E+00 -0.00000000000E+00 -0.17301576071E+04  0.17301576071E+04  0.00000000000E+00 0. -1.
         21    1    1    2  503  502  0.47717408080E+02 -0.18570913643E+01 -0.87050339754E+03  0.87181223033E+03  0.00000000000E+00 0. -1.
         21    1    1    2  504  505  0.79290646471E+02  0.14225175577E+02 -0.15078341388E+03  0.17095321038E+03  0.00000000000E+00 0. -1.
         21    1    1    2  505  501  0.12588824397E+02 -0.36866185514E+02  0.61788078375E+02  0.73043553879E+02  0.00000000000E+00 0. -1.
         21    1    1    2  506  503 -0.13959687895E+03  0.24498101302E+02 -0.68525199711E+03  0.69975548953E+03  0.00000000000E+00 0. -1.
<scales pt_clust_3="48.28136" pt_clust_4="98.39094" pt_clust_5="38.95631" pt_clust_6="14000.00000"></scales>
<clustering>
<clus scale="   38.956">  1  5  2 -1</clus>
<clus scale="   48.281">  2  3  1 -1</clus>
<clus scale="   98.391">  1  4  2 -1</clus>
<clus scale="   38.956">  1  3  2 -1</clus>
</clustering>
</event>
<event>
 6    0  0.4227619E+002  0.1341859E+03  0.7546771E-02  0.1221373E+00
         21   -1    0    0  505  501  0.00000000000E+00  0.00000000000E+00  0.39833542860E+03  0.39833542860E+03  0.00000000000E+00 0.  1.
         21   -1    0    0  504  502 -0.00000000000E+00 -0.00000000000E+00 -0.77102291160E+03  0.77102291160E+03  0.00000000000E+00 0.  1.
         21    1    1    2  503  502  0.38041443664E+02  0.63975980329E+02 -0.62909596885E+03  0.63348387155E+03  0.00000000000E+00 0.  1.
         21    1    1    2  504  501 -0.74037744230E+02  0.37552429894E+02  0.20857324008E+03  0.22448734717E+03  0.00000000000E+00 0.  1.
         21    1    1    2  505  506 -0.80102697775E+01  0.88530207658E+02  0.72551408893E+02  0.11474087773E+03  0.00000000000E+00 0. -1.
         21    1    1    2  506  503  0.44006570344E+02 -0.19005861788E+03 -0.24716163119E+02  0.19664624376E+03  0.00000000000E+00 0.  1.
<scales pt_clust_3="74.43170" pt_clust_4="82.84070" pt_clust_5="134.18595" pt_clust_6="14000.00000"></scales>
<clustering>
<clus scale="   74.432">  2  3  1 -1</clus>
<clus scale="   82.841">  1  4  2 -1</clus>
<clus scale="  134.186">  1  5  2 -1</clus>
<clus scale="   82.841">  1  3  2 -1</clus>
</clustering>
</event>
<event>
 6    0  0.4227619E+002  0.1989735E+03  0.7546771E-02  0.1150608E+00
         21   -1    0    0  504  501  0.00000000000E+00  0.00000000000E+00  0.18620365554E+04  0.18620365554E+04  0.00000000000E+00 0.  1.
         21   -1    0    0  503  502 -0.00000000000E+00 -0.00000000000E+00 -0.77209655090E+02  0.77209655090E+02  0.00000000000E+00 0.  1.
         21    1    1    2  503  506  0.15547140830E+02 -0.46331972244E+02  0.65584315640E+02  0.81790388787E+02  0.00000000000E+00 0.  1.
         21    1    1    2  504  505 -0.17216893809E+03  0.10369963924E+03  0.15714121540E+04  0.15842133430E+04  0.00000000000E+00 0.  1.
         21    1    1    2  505  502 -0.30984298336E+02 -0.15097042071E+02  0.77596321242E+01  0.35329298230E+02  0.00000000000E+00 0.  1.
         21    1    1    2  506  501  0.18760609560E+03 -0.42270624927E+02  0.14007079857E+03  0.23791318049E+03  0.00000000000E+00 0.  1.
<scales pt_clust_3="49.63261" pt_clust_4="14000.00000" pt_clust_5="34.46661" pt_clust_6="198.97346"></scales>
<clustering>
<clus scale="   34.467">  2  5  1 -1</clus>
<clus scale="   49.633">  2  3  1 -1</clus>
<clus scale="  198.973">  2  6  1 -1</clus>
<clus scale="  198.973">  1  3  2 -1</clus>
</clustering>
</event>
<event>
 6    0  0.4227619E+002  0.1658337E+03  0.7546771E-02  0.1182264E+00
         21   -1    0    0  503  501  0.00000000000E+00  0.00000000000E+00  0.10353641102E+04  0.10353641102E+04  0.00000000000E+00 0. -1.
         21   -1    0    0  505  502 -0.00000000000E+00 -0.00000000000E+00 -0.51494511643E+03  0.51494511643E+03  0.00000000000E+00 0. -1.
         21    1    1    2  503  506  0.14857983506E+03  0.77241933298E+02  0.37304538244E+03  0.40890725233E+03  0.00000000000E+00 0. -1.
         21    1    1    2  504  501 -0.12985667779E+02 -0.29487502073E+02  0.23571092325E+03  0.23790287868E+03  0.00000000000E+00 0.  1.
         21    1    1    2  505  504 -0.10593604521E+03 -0.54665004138E+02  0.39837833688E+03  0.41583170592E+03  0.00000000000E+00 0. -1.
         21    1    1    2  506  502 -0.29658122073E+02  0.69105729135E+01 -0.48671564878E+03  0.48766738971E+03  0.00000000000E+00 0. -1.
<scales pt_clust_3="153.05265" pt_clust_4="32.32187" pt_clust_5="32.32187" pt_clust_6="30.45259"></scales>
<clustering>
<clus scale="   30.453">  2  6  1 -1</clus>
<clus scale="   32.322">  4  5 -1 -1</clus>
<clus scale="  153.053">  2  3  1 -1</clus>
<clus scale="  165.834">  1  3  2 -1</clus>
</clustering>
</event>
<event>
 6    0  0.4227619E+002  0.7411867E+02  0.7546771E-02  0.1346622E+00
         21   -1    0    0  503  501  0.00000000000E+00  0.00000000000E+00  0.13950082329E+04  0.13950082329E+04  0.00000000000E+00 0. -1.
         21   -1    0    0  504  502 -0.00000000000E+00 -0.00000000000E+00 -0.97131299086E+02  0.97131299086E+02  0.00000000000E+00 0.  1.
         21    1    1    2  503  505  0.18972890762E+02  0.25154772197E+02  0.92579471301E+03  0.92633070973E+03  0.00000000000E+00 0. -1.
         21    1    1    2  504  506  0.73371580575E+02  0.26345828421E+02 -0.45065587776E+02  0.90046647427E+02  0.00000000000E+00 0.  1.
         21    1    1    2  505  502 -0.42326228056E+02  0.37753578090E+02  0.12101949336E+02  0.57993960184E+02  0.00000000000E+00 0.  1.
         21    1    1    2  506  501 -0.50018243280E+02 -0.89254178708E+02  0.40504585921E+03  0.41776821462E+03  0.00000000000E+00 0. -1.
<scales pt_clust_3="31.50767" pt_clust_4="74.11867" pt_clust_5="56.95880" pt_clust_6="14000.00000"></scales>
<clustering>
<clus scale="   31.508">  1  3  2 -1</clus>
<clus scale="   56.959">  2  5  1 -1</clus>
<clus scale="   74.119">  2  4  1 -1</clus>
<clus scale="   31.508">  1  3  2 -1</clus>
</clustering>
</event>
<event>
 6    0  0.4227619E+002  0.9551030E+02  0.7546771E-02  0.1290031E+00
         21   -1    0    0  506  501  0.00000000000E+00  0.00000000000E+00  0.46057540496E+03  0.46057540496E+03  0.00000000000E+00 0. -1.
         21   -1    0    0  505  502 -0.00000000000E+00 -0.00000000000E+00 -0.12403429268E+03  0.12403429268E+03  0.00000000000E+00 0.  1.
         21    1    1    2  503  504  0.69020080539E+02  0.48495653074E+02  0.13437673803E+03  0.15865909242E+03  0.00000000000E+00 0. -1.
         21    1    1    2  504  502 -0.24945483999E+02 -0.12082364990E+03  0.14070716389E+03  0.18713400951E+03  0.00000000000E+00 0. -1.
         21    1    1    2  505  501 -0.37802415430E+02  0.38091301397E+02 -0.78224664046E+02  0.94863417183E+02  0.00000000000E+00 0.  1.
         21    1    1    2  506  503 -0.62721811104E+01  0.34236695424E+02  0.13968187441E+03  0.14395317853E+03  0.00000000000E+00 0. -1.
<scales pt_clust_3="95.51030" pt_clust_4="14000.00000" pt_clust_5="54.41732" pt_clust_6="34.80649"></scales>
<clustering>
<clus scale="   34.806">  1  6  2 -1</clus>
<clus scale="   54.417">  2  5  1 -1</clus>
<clus scale="   95.510">  1  3  2 -1</clus>
<clus scale="   34.806">  1  3  2 -1</clus>
</clustering>
</event>
<event>
 6    0  0.4227619E+002  0.1292239E+03  0.7546771E-02  0.1228612E+00
         21   -1    0    0  504  501  0.00000000000E+00  0.00000000000E+00  0.12711971887E+04  0.12711971887E+04  0.00000000000E+00 0. -1.
         21   -1    0    0  501  502 -0.00000000000E+00 -0.00000000000E+00 -0.15418145423E+03  0.15418145423E+03  0.00000000000E+00 0.  1.
         21    1    1    2  503  505 -0.32781894712E+02  0.23251183144E+02 -0.42940783701E+02  0.58814802927E+02  0.00000000000E+00 0.  1.
         21    1    1    2  504  506  0.11440622249E+03 -0.25450022012E+02  0.12187606682E+04  0.12243831319E+04  0.00000000000E+00 0. -1.
         21    1    1    2  505  502 -0.16544295771E+02  0.34350027851E+02  0.12800739175E+02  0.40218118546E+02  0.00000000000E+00 0.  1.
         21    1    1    2  506  503 -0.65080032003E+02 -0.32151188983E+02 -0.71604889181E+02  0.10196258958E+03  0.00000000000E+00 0.  1.
<scales pt_clust_3="46.13068" pt_clust_4="116.73183" pt_clust_5="38.12661" pt_clust_6="46.13068"></scales>
<clustering>
<clus scale="   38.127">  2  5  1 -1</clus>
<clus scale="   46.131">  3  6 -1 -1</clus>
<clus scale="  116.732">  1  4  2 -1</clus>
<clus scale="  116.732">  1  3  2 -1</clus>
</clustering>
</event>
<event>
 6    0  0.4227619E+002  0.5654037E+02  0.7546771E-02  0.1412952E+00
         21   -1    0    0  504  501  0.00000000000E+00  0.00000000000E+00  0.88479010655E+03  0.88479010655E+03  0.00000000000E+00 0.  1.
         21   -1    0    0  505  502 -0.00000000000E+00 -0.00000000000E+00 -0.25809625003E+03  0.25809625003E+03  0.00000000000E+00 0.  1.
         21    1    1    2  503  501 -0.39548657071E+02  0.33832111567E+02  0.38066914248E+03  0.38421049450E+03  0.00000000000E+00 0. -1.
         21    1    1    2  504  506  0.75502098984E+01 -0.76104259121E+02  0.45356287274E+03  0.45996537201E+03  0.00000000000E+00 0.  1.
         21    1    1    2  505  503  0.18366427627E+01 -0.44790700597E+02 -0.20144189006E+03  0.20636960820E+03  0.00000000000E+00 0.  1.
         21    1    1    2  506  502  0.30161804410E+02  0.87062848151E+02 -0.60962686318E+01  0.92340881871E+02  0.00000000000E+00 0.  1.
<scales pt_clust_3="51.05955" pt_clust_4="56.54037" pt_clust_5="44.82834" pt_clust_6="14000.00000"></scales>
<clustering>
<clus scale="   44.828">  2  5  1 -1</clus>
<clus scale="   51.060">  1  3  2 -1</clus>
<clus scale="   56.540">  1  4  2 -1</clus>
<clus scale="   51.060">  1  3  2 -1</clus>
</clustering>
</event>
<event>
 6    0  0.4227619E+002  0.7937416E+02  0.7546771E-02  0.1330837E+00
         21   -1    0    0  505  501  0.00000000000E+00  0.00000000000E+00  0.24008253450E+02  0.24008253450E+02  0.00000000000E+00 0.  1.
         21   -1    0    0  506  502 -0.00000000000E+00 -0.00000000000E+00 -0.16347927509E+04  0.16347927509E+04  0.00000000000E+00 0. -1.
         21    1    1    2  503  502 -0.38178076917E+02 -0.19346673119E+01 -0.47501557379E+03  0.47655126045E+03  0.00000000000E+00 0. -1.
         21    1    1    2  504  503 -0.90538862813E+02  0.14457843578E+02 -0.30611715463E+03  0.31955285522E+03  0.00000000000E+00 0. -1.
         21    1    1    2  505  504  0.28467778289E+02 -0.12906433720E+02 -0.46196449319E+01  0.31596385100E+02  0.00000000000E+00 0.  1.
         21    1    1    2  506  501  0.10024916144E+03  0.38325745360E+00 -0.82503212407E+03  0.83110050355E+03  0.00000000000E+00 0.  1.
<scales pt_clust_3="36.21466" pt_clust_4="79.37416" pt_clust_5="31.25685" pt_clust_6="14000.00000"></scales>
<clustering>
<clus scale="   31.257">  1  5  2 -1</clus>
<clus scale="   36.215">  2  3  1 -1</clus>
<clus scale="   79.374">  1  4  2 -1</clus>
<clus scale="   31.257">  1  3  2 -1</clus>
</clustering>
</event>
<event>
 6    0  0.4227619E+002  0.1434725E+03  0.7546771E-02  0.1208731E+00
         21   -1    0    0  505  501  0.00000000000E+00  0.00000000000E+00  0.16574229936E+03  0.16574229936E+03  0.00000000000E+00 0. -1.
         21   -1    0    0  501  502 -0.00000000000E+00 -0.00000000000E+00 -0.32981255457E+03  0.32981255457E+03  0.00000000000E+00 0. -1.
         21    1    1    2  503  506 -0.78769783894E+02  0.10340910410E+03 -0.46395937598E+02  0.13802429022E+03  0.00000000000E+00 0. -1.
         21    1    1    2  504  503 -0.91086554184E+02 -0.15086751115E+02 -0.40552260070E+02  0.10084074677E+03  0.00000000000E+00 0. -1.
         21    1    1    2  505  504  0.95600636228E+01 -0.33892363383E+02  0.38124047986E+02  0.51899230698E+02  0.00000000000E+00 0. -1.
         21    1    1    2  506  502  0.16029627445E+03 -0.54429989607E+02 -0.11524610553E+03  0.20479058624E+03  0.00000000000E+00 0. -1.
<scales pt_clust_3="14000.00000" pt_clust_4="91.77240" pt_clust_5="35.21487" pt_clust_6="143.47253"></scales>
<clustering>
<clus scale="   35.215">  1  5  2 -1</clus>
<clus scale="   91.772">  1  4  2 -1</clus>
<clus scale="  143.473">  2  6  1 -1</clus>
<clus scale="   35.215">  1  3  2 -1</clus>
</clustering>
</event>
<event>
 6    0  0.4227619E+002  0.2613190E+03  0.7546771E-02  0.1106353E+00
         21   -1    0    0  503  501  0.00000000000E+00  0.00000000000E+00  0.16026924626E+04  0.16026924626E+04  0.00000000000E+00 0. -1.
         21   -1    0    0  506  502 -0.00000000000E+00 -0.00000000000E+00 -0.43440898873E+03  0.43440898873E+03  0.00000000000E+00 0.  1.
         21    1    1    2  503  505  0.36083299434E+02 -0.29433303385E+03 -0.15214847953E+03  0.33329131272E+03  0.00000000000E+00 0.  1.
         21    1    1    2  504  501  0.37979444763E+02  0.20510948313E+02  0.10862497377E+04  0.10871070002E+04  0.00000000000E+00 0. -1.
         21    1    1    2  505  502  0.38780586805E+01  0.39038714352E+02 -0.15260721346E+03  0.15756910280E+03  0.00000000000E+00 0. -1.
         21    1    1    2  506  504 -0.77940802877E+02  0.23478337118E+03  0.38678942918E+03  0.45913403561E+03  0.00000000000E+00 0. -1.
<scales pt_clust_3="14000.00000" pt_clust_4="43.19781" pt_clust_5="39.23086" pt_clust_6="261.31905"></scales>
<clustering>
<clus scale="   39.231">  2  5  1 -1</clus>
<clus scale="   43.198">  1  4  2 -1</clus>
<clus scale="  261.319">  1  6  2 -1</clus>
<clus scale="   43.198">  1  3  2 -1</clus>
</clustering>
</event>
<event>
 6    0  0.4227619E+002  0.1211392E+03  0.7546771E-02  0.1241229E+00
         21   -1    0    0  504  501  0.00000000000E+00  0.00000000000E+00  0.45319095549E+03  0.45319095549E+03  0.00000000000E+00 0. -1.
         21   -1    0    0  503  502 -0.00000000000E+00 -0.00000000000E+00 -0.49625925414E+03  0.49625925414E+03  0.00000000000E+00 0. -1.
         21    1    1    2  503  501 -0.73985679229E+02  0.10060146365E+03  0.19840925392E+03  0.23443712859E+03  0.00000000000E+00 0. -1.
         21    1    1    2  504  506  0.40851854940E+02 -0.11300365851E+03  0.20594657049E+03  0.23843802294E+03  0.00000000000E+00 0. -1.
         21    1    1    2  505  502 -0.26633948523E+02  0.25217596421E+02 -0.39307072642E+03  0.39477827999E+03  0.00000000000E+00 0. -1.
         21    1    1    2  506  505  0.59767772811E+02 -0.12815401553E+02 -0.54353396637E+02  0.81796778114E+02  0.00000000000E+00 0. -1.
<scales pt_clust_3="121.13921" pt_clust_4="14000.00000" pt_clust_5="36.67825" pt_clust_6="42.23638"></scales>
<clustering>
<clus scale="   36.678">  2  5  1 -1</clus>
<clus scale="   42.236">  2  6  1 -1</clus>
<clus scale="  121.139">  2  3  1 -1</clus>
<clus scale="  121.139">  1  3  2 -1</clus>
</clustering>
</event>
<event>
 6    0  0.4227619E+002  0.2111328E+03  0.7546771E-02  0.1140672E+00
         21   -1    0    0  504  501  0.00000000000E+00  0.00000000000E+00  0.34055236800E+04  0.34055236800E+04  0.00000000000E+00 0. -1.
         21   -1    0    0  505  502 -0.00000000000E+00 -0.00000000000E+00 -0.27436217365E+03  0.27436217365E+03  0.00000000000E+00 0.  1.
         21    1    1    2  503  502 -0.92853276837E+02 -0.96796595691E+02  0.12283679190E+03  0.18187960139E+03  0.00000000000E+00 0.  1.
         21    1    1    2  504  503 -0.60274491419E+02 -0.72483580801E+02  0.17657393236E+04  0.17682540097E+04  0.00000000000E+00 0. -1.
         21    1    1    2  505  506  0.13997885092E+03  0.19741767605E+03 -0.18326191998E+03  0.30356671234E+03  0.00000000000E+00 0.  1.
         21    1    1    2  506  501  0.13148917332E+02 -0.28137499562E+02  0.14258473108E+04  0.14261855302E+04  0.00000000000E+00 0. -1.
<scales pt_clust_3="211.13283" pt_clust_4="109.00317" pt_clust_5="14000.00000" pt_clust_6="31.05822"></scales>
<clustering>
<clus scale="   31.058">  1  6  2 -1</clus>
<clus scale="  109.003">  1  4  2 -1</clus>
<clus scale="  211.133">  1  3  2 -1</clus>
<clus scale="   31.058">  1  3  2 -1</clus>
</clustering>
</event>
<event>
 6    0  0.4227619E+002  0.1314724E+03  0.7546771E-02  0.1225287E+00
         21   -1    0    0  504  501  0.00000000000E+00  0.00000000000E+00  0.77768714058E+03  0.77768714058E+03  0.00000000000E+00 0. -1.
         21   -1    0    0  505  502 -0.00000000000E+00 -0.00000000000E+00 -0.12441634887E+04  0.12441634887E+04  0.00000000000E+00 0. -1.
         21    1    1    2  503  506  0.11527342698E+02  0.86464732133E+02  0.33204430206E+02  0.93335757981E+02  0.00000000000E+00 0. -1.
         21    1    1    2  504  503 -0.87657293022E+02 -0.15210657021E+03  0.48112200141E+03  0.51215094451E+03  0.00000000000E+00 0. -1.
         21    1    1    2  505  501  0.40130230321E+02  0.91010238724E+02  0.20599385241E+03  0.22875044518E+03  0.00000000000E+00 0. -1.
         21    1    1    2  506  502  0.35999720003E+02 -0.25368400647E+02 -0.11867966322E+04  0.11876134816E+04  0.00000000000E+00 0. -1.
<scales pt_clust_3="79.19518" pt_clust_4="131.47238" pt_clust_5="14000.00000" pt_clust_6="44.04016"></scales>
<clustering>
<clus scale="   44.040">  2  6  1 -1</clus>
<clus scale="   79.195">  2  3  1 -1</clus>
<clus scale="  131.472">  2  4  1 -1</clus>
<clus scale="  131.472">  1  3  2 -1</clus>
</clustering>
</event>
<event>
 6    0  0.4227619E+002  0.1942637E+03  0.7546771E-02  0.1154671E+00
         21   -1    0    0  503  501  0.00000000000E+00  0.00000000000E+00  0.16473605821E+04  0.16473605821E+04  0.00000000000E+00 0.  1.
         21   -1    0    0  504  502 -0.00000000000E+00 -0.00000000000E+00 -0.13754734958E+03  0.13754734958E+03  0.00000000000E+00 0.  1.
         21    1    1    2  503  506  0.62393229933E+02 -0.12877544409E+03  0.38792437035E+03  0.41347472384E+03  0.00000000000E+00 0. -1.
         21    1    1    2  504  501  0.32283844122E+02 -0.33997015217E+02  0.11645668753E+04  0.11655102105E+04  0.00000000000E+00 0.  1.
         21    1    1    2  505  502 -0.90363352917E+02  0.99557595049E+02 -0.46959962268E+02  0.14241660134E+03  0.00000000000E+00 0.  1.
         21    1    1    2  506  505 -0.43137211376E+01  0.63214864257E+02  0.42819491621E+01  0.63506396070E+02  0.00000000000E+00 0.  1.
<scales pt_clust_3="180.59380" pt_clust_4="46.88330" pt_clust_5="49.01416" pt_clust_6="49.01416"></scales>
<clustering>
<clus scale="   46.883">  1  4  2 -1</clus>
<clus scale="   49.014">  5  6 -1 -1</clus>
<clus scale="  180.594">  1  3  2 -1</clus>
<clus scale="   46.883">  1  3  2 -1</clus>
</clustering>
</event>
<event>
 6    0  0.4227619E+002  0.9954395E+02  0.7546771E-02  0.1281258E+00
         21   -1    0    0  505  501  0.00000000000E+00  0.00000000000E+00  0.61378626897E+03  0.61378626897E+03  0.00000000000E+00 0. -1.
         21   -1    0    0  503  502 -0.00000000000E+00 -0.00000000000E+00 -0.12970500154E+03  0.12970500154E+03  0.00000000000E+00 0. -1.
         21    1    1    2  503  501 -0.54403656173E+02  0.79839775294E+02  0.40764375535E+03  0.41893624671E+03  0.00000000000E+00 0. -1.
         21    1    1    2  504  502  0.21150315300E+02 -0.46847031834E+02 -0.71302861966E+02  0.87898113480E+02  0.00000000000E+00 0. -1.
         21    1    1    2  505  506  0.85283650597E+02 -0.77526753334E+02  0.10510673963E+03  0.15598437504E+03  0.00000000000E+00 0. -1.
         21    1    1    2  506  504 -0.52030309724E+02  0.44534009874E+02  0.42633634415E+02  0.80672535282E+02  0.00000000000E+00 0. -1.
<scales pt_clust_3="99.54395" pt_clust_4="51.40020" pt_clust_5="14000.00000" pt_clust_6="51.49538"></scales>
<clustering>
<clus scale="   51.400">  2  4  1 -1</clus>
<clus scale="   51.495">  2  6  1 -1</clus>
<clus scale="   99.544">  1  3  2 -1</clus>
<clus scale="   99.544">  1  3  2 -1</clus>
</clustering>
</event>
<event>
 6    0  0.4227619E+002  0.1193874E+03  0.7546771E-02  0.1244111E+00
         21   -1    0    0  506  501  0.00000000000E+00  0.00000000000E+00  0.19519531614E+03  0.19519531614E+03  0.00000000000E+00 0. -1.
         21   -1    0    0  504  502 -0.00000000000E+00 -0.00000000000E+00 -0.29851538369E+03  0.29851538369E+03  0.00000000000E+00 0. -1.
         21    1    1    2  503  505 -0.12845038225E+03  0.51918408660E+02 -0.50748677326E+02  0.14754812811E+03  0.00000000000E+00 0. -1.
         21    1    1    2  504  503  0.69680548912E+02  0.41871987564E+02 -0.11082872846E+03  0.13744689626E+03  0.00000000000E+00 0. -1.
         21    1    1    2  505  501  0.25767957657E+02 -0.13738763819E+03  0.18264291380E+02  0.14097139820E+03  0.00000000000E+00 0. -1.
         21    1    1    2  506  502  0.33001875681E+02  0.43597241969E+02  0.39993046849E+02  0.67744277264E+02  0.00000000000E+00 0. -1.
<scales pt_clust_3="119.38736" pt_clust_4="86.09354" pt_clust_5="14000.00000" pt_clust_6="54.67946"></scales>
<clustering>
<clus scale="   54.679">  1  6  2 -1</clus>
<clus scale="   86.094">  2  4  1 -1</clus>
<clus scale="  119.387">  2  3  1 -1</clus>
<clus scale="   54.679">  1  3  2 -1</clus>
</clustering>
</event>
<event>
 6    0  0.4227619E+002  0.8435233E+02  0.7546771E-02  0.1317135E+00
         21   -1    0    0  504  501  0.00000000000E+00  0.00000000000E+00  0.35945411320E+04  0.35945411320E+04  0.00000000000E+00 0. -1.
         21   -1    0    0  505  502 -0.00000000000E+00 -0.00000000000E+00 -0.41911626828E+02  0.41911626828E+02  0.00000000000E+00 0. -1.
         21    1    1    2  503  502  0.65126739263E+02 -0.54073516625E+02  0.11783809933E+02  0.85465171525E+02  0.00000000000E+00 0. -1.
         21    1    1    2  504  506  0.60833284630E+02  0.12253381657E+02  0.94176378267E+03  0.94380604799E+03  0.00000000000E+00 0. -1.
         21    1    1    2  505  501 -0.10056570992E+03 -0.48059844658E+02  0.15034388214E+04  0.15075647583E+04  0.00000000000E+00 0. -1.
         21    1    1    2  506  503 -0.25394313970E+02  0.89879979626E+02  0.10956430912E+04  0.10996167810E+04  0.00000000000E+00 0. -1.
<scales pt_clust_3="84.35233" pt_clust_4="62.05509" pt_clust_5="77.77669" pt_clust_6="14000.00000"></scales>
<clustering>
<clus scale="   62.055">  1  4  2 -1</clus>
<clus scale="   77.777">  1  5  2 -1</clus>
<clus scale="   84.352">  2  3  1 -1</clus>
<clus scale="   62.055">  1  3  2 -1</clus>
</clustering>
</event>
<event>
 6    0  0.4227619E+002  0.1158619E+03  0.7546771E-02  0.1250084E+00
         21   -1    0    0  504  501  0.00000000000E+00  0.00000000000E+00  0.47961475136E+03  0.47961475136E+03  0.00000000000E+00 0.  1.
         21   -1    0    0  506  502 -0.00000000000E+00 -0.00000000000E+00 -0.36221217819E+03  0.36221217819E+03  0.00000000000E+00 0.  1.
         21    1    1    2  503  501  0.79683465704E+02 -0.24816253695E+02 -0.72150370153E+01  0.83769671798E+02  0.00000000000E+00 0.  1.
         21    1    1    2  504  502  0.55765492260E+02  0.35426499933E+02  0.39834638294E+03  0.40378789956E+03  0.00000000000E+00 0.  1.
         21    1    1    2  505  503 -0.15531602522E+03 -0.38008672449E+02 -0.12845590682E+03  0.20510642815E+03  0.00000000000E+00 0.  1.
         21    1    1    2  506  505  0.19867067258E+02  0.27398426211E+02 -0.14527286593E+03  0.14916293004E+03  0.00000000000E+00 0.  1.
<scales pt_clust_3="115.86193" pt_clust_4="66.46516" pt_clust_5="14000.00000" pt_clust_6="33.84338"></scales>
<clustering>
<clus scale="   33.843">  2  6  1 -1</clus>
<clus scale="   66.465">  1  4  2 -1</clus>
<clus scale="  115.862">  1  3  2 -1</clus>
<clus scale="   66.465">  1  3  2 -1</clus>
</clustering>
</event>
<event>
 6    0  0.4227619E+002  0.1166476E+03  0.7546771E-02  0.1248732E+00
         21   -1    0    0  503  501  0.00000000000E+00  0.00000000000E+00  0.67989779190E+03  0.67989779190E+03  0.00000000000E+00 0. -1.
         21   -1    0    0  504  502 -0.00000000000E+00 -0.00000000000E+00 -0.18143275399E+03  0.18143275399E+03  0.00000000000E+00 0.  1.
         21    1    1    2  503  506  0.29688470333E+02 -0.51881256964E+02 -0.12694641464E+03  0.14031558105E+03  0.00000000000E+00 0.  1.
         21    1    1    2  504  505 -0.39159413261E+02 -0.31869964844E+02  0.25006030220E+02  0.56342309621E+02  0.00000000000E+00 0.  1.
         21    1    1    2  505  501 -0.13537804683E+02  0.11854159960E+03  0.61025979556E+03  0.62181379935E+03  0.00000000000E+00 0. -1.
         21    1    1    2  506  502  0.23008747610E+02 -0.34790377795E+02 -0.98543732258E+01  0.42858855857E+02  0.00000000000E+00 0.  1.
<scales pt_clust_3="116.64763" pt_clust_4="51.07735" pt_clust_5="14000.00000" pt_clust_6="41.71058"></scales>
<clustering>
<clus scale="   41.711">  2  6  1 -1</clus>
<clus scale="   51.077">  2  4  1 -1</clus>
<clus scale="  116.648">  2  3  1 -1</clus>
<clus scale="  116.648">  1  3  2 -1</clus>
</clustering>
</event>
<event>
 6    0  0.4227619E+002  0.8463887E+02  0.7546771E-02  0.1316380E+00
         21   -1    0    0  502  501  0.00000000000E+00  0.00000000000E+00  0.68194086965E+03  0.68194086965E+03  0.00000000000E+00 0.  1.
         21   -1    0    0  504  502 -0.00000000000E+00 -0.00000000000E+00 -0.50317473704E+03  0.50317473704E+03  0.00000000000E+00 0. -1.
         21    1    1    2  503  506 -0.29104336093E+02  0.66764010673E+02  0.70407365804E+02  0.10130001313E+03  0.00000000000E+00 0. -1.
         21    1    1    2  504  505  0.66465053694E+02  0.20090221550E+02 -0.25890596052E+03  0.26805506292E+03  0.00000000000E+00 0. -1.
         21    1    1    2  505  503 -0.62858640439E+02 -0.10664788515E+03 -0.20667492381E+03  0.24091389378E+03  0.00000000000E+00 0. -1.
         21    1    1    2  506  501  0.25497922838E+02  0.19793652927E+02  0.57393965114E+03  0.57484663686E+03  0.00000000000E+00 0.  1.
<scales pt_clust_3="84.63887" pt_clust_4="70.71849" pt_clust_5="14000.00000" pt_clust_6="32.27898"></scales>
<clustering>
<clus scale="   32.279">  1  6  2 -1</clus>
<clus scale="   70.718">  2  4  1 -1</clus>
<clus scale="   84.639">  1  3  2 -1</clus>
<clus scale="   32.279">  1  3  2 -1</clus>
</clustering>
</event>
<event>
 6    0  0.4227619E+002  0.7692037E+02  0.7546771E-02  0.1338025E+00
         21   -1    0    0  503  501  0.00000000000E+00  0.00000000000E+00  0.10831814922E+03  0.10831814922E+03  0.00000000000E+00 0.  1.
         21   -1    0    0  505  502 -0.00000000000E+00 -0.00000000000E+00 -0.43249388827E+03  0.43249388827E+03  0.00000000000E+00 0. -1.
         21    1    1    2  503  504  0.58806861146E+02  0.24163875628E+02  0.73822093800E+02  0.97426081397E+02  0.00000000000E+00 0.  1.
         21    1    1    2  504  502 -0.13481924392E+02  0.63583207048E+02 -0.16078898905E+03  0.17342919450E+03  0.00000000000E+00 0. -1.
         21    1    1    2  505  506 -0.29667907364E+02  0.58469616653E+01 -0.32898549471E+02  0.44684295288E+02  0.00000000000E+00 0.  1.
         21    1    1    2  506  501 -0.15657029390E+02 -0.93594044342E+02 -0.20431029433E+03  0.22527246630E+03  0.00000000000E+00 0. -1.
<scales pt_clust_3="62.82382" pt_clust_4="76.92037" pt_clust_5="30.23858" pt_clust_6="14000.00000"></scales>
<clustering>
<clus scale="   30.239">  2  5  1 -1</clus>
<clus scale="   62.824">  1  3  2 -1</clus>
<clus scale="   76.920">  2  4  1 -1</clus>
<clus scale="   62.824">  1  3  2 -1</clus>
</clustering>
</event>
<event>
 6    0  0.4227619E+002  0.1292205E+03  0.7546771E-02  0.1228617E+00
         21   -1    0    0  503  501  0.00000000000E+00  0.00000000000E+00  0.65690635989E+03  0.65690635989E+03  0.00000000000E+00 0.  1.
         21   -1    0    0  506  502 -0.00000000000E+00 -0.00000000000E+00 -0.16507983301E+04  0.16507983301E+04  0.00000000000E+00 0.  1.
         21    1    1    2  503  505 -0.18629579520E+02  0.31464985819E+02  0.54316356125E+03  0.54439302056E+03  0.00000000000E+00 0.  1.
         21    1    1    2  504  502 -0.25344673131E+02  0.13036895553E+03 -0.68998089719E+03  0.70264646552E+03  0.00000000000E+00 0.  1.
         21    1    1    2  505  504  0.78329529826E+02 -0.14359462143E+03  0.43489463991E+02  0.16925207244E+03  0.00000000000E+00 0.  1.
         21    1    1    2  506  501 -0.34355277175E+02 -0.18239319920E+02 -0.89056409821E+03  0.89141313142E+03  0.00000000000E+00 0.  1.
<scales pt_clust_3="36.56647" pt_clust_4="14000.00000" pt_clust_5="129.22049" pt_clust_6="38.90338"></scales>
<clustering>
<clus scale="   36.566">  1  3  2 -1</clus>
<clus scale="   38.903">  2  6  1 -1</clus>
<clus scale="  129.220">  1  5  2 -1</clus>
<clus scale="   36.566">  1  3  2 -1</clus>
</clustering>
</event>
<event>
 6    0  0.4227619E+002  0.1028495E+03  0.7546771E-02  0.1274416E+00
         21   -1    0    0  503  501  0.00000000000E+00  0.00000000000E+00  0.38262224785E+03  0.38262224785E+03  0.00000000000E+00 0. -1.
         21   -1    0    0  506  502 -0.00000000000E+00 -0.00000000000E+00 -0.39747651755E+03  0.39747651755E+03  0.00000000000E+00 0. -1.
         21    1    1    2  503  502  0.10188104302E+03 -0.84303121963E+02 -0.20302280530E+03  0.24229119417E+03  0.00000000000E+00 0. -1.
         21    1    1    2  504  505 -0.61851092585E+02  0.20345732972E+02  0.66472469136E+00  0.65114885879E+02  0.00000000000E+00 0. -1.
         21    1    1    2  505  501 -0.50522818203E+02  0.31292842728E+02  0.32530290641E+03  0.33068682781E+03  0.00000000000E+00 0. -1.
         21    1    1    2  506  504  0.10492867773E+02  0.32664546264E+02 -0.13779909550E+03  0.14200585755E+03  0.00000000000E+00 0. -1.
<scales pt_clust_3="102.84947" pt_clust_4="14000.00000" pt_clust_5="59.51647" pt_clust_6="34.30850"></scales>
<clustering>
<clus scale="   34.308">  2  6  1 -1</clus>
<clus scale="   59.516">  1  5  2 -1</clus>
<clus scale="  102.849">  2  3  1 -1</clus>
<clus scale="   59.516">  1  3  2 -1</clus>
</clustering>
</event>
<event>
 6    0  0.4227619E+002  0.1298457E+03  0.7546771E-02  0.1227685E+00
         21   -1    0    0  503  501  0.00000000000E+00  0.00000000000E+00  0.39603975267E+02  0.39603975267E+02  0.00000000000E+00 0. -1.
         21   -1    0    0  506  502 -0.00000000000E+00 -0.00000000000E+00 -0.93187086394E+03  0.93187086394E+03  0.00000000000E+00 0.  1.
         21    1    1    2  503  505 -0.21629799368E+02  0.29811646710E+02 -0.18309579815E+03  0.18676363083E+03  0.00000000000E+00 0.  1.
         21    1    1    2  504  501  0.30816167073E+02 -0.12421508721E+03 -0.11395659138E+03  0.17136256523E+03  0.00000000000E+00 0. -1.
         21    1    1    2  505  502 -0.19151225765E+02  0.62862510438E+02 -0.11861193187E+03  0.13559961301E+03  0.00000000000E+00 0.  1.
         21    1    1    2  506  504  0.99648580604E+01  0.31540930062E+02 -0.47660256727E+03  0.47774903013E+03  0.00000000000E+00 0.  1.
<scales pt_clust_3="40.68598" pt_clust_4="119.25174" pt_clust_5="40.68598" pt_clust_6="33.07762"></scales>
<clustering>
<clus scale="   33.078">  2  6  1 -1</clus>
<clus scale="   40.686">  3  5 -1 -1</clus>
<clus scale="  119.252">  1  4  2 -1</clus>
<clus scale="  119.252">  1  3  2 -1</clus>
</clustering>
</event>
<event>
 6    0  0.4227619E+002  0.6360757E+02  0.7546771E-02  0.1383287E+00
         21   -1    0    0  506  501  0.00000000000E+00  0.00000000000E+00  0.37640946065E+03  0.37640946065E+03  0.00000000000E+00 0.  1.
         21   -1    0    0  504  502 -0.00000000000E+00 -0.00000000000E+00 -0.32077618623E+03  0.32077618623E+03  0.00000000000E+00 0. -1.
         21    1    1    2  503  501  0.46543640510E+02 -0.52830261740E+02  0.96777375230E+01  0.71070427260E+02  0.00000000000E+00 0.  1.
         21    1    1    2  504  503 -0.25319714603E+02  0.55495714434E+02 -0.17405275865E+02  0.63433476146E+02  0.00000000000E+00 0. -1.
         21    1    1    2  505  502 -0.28178962961E+02 -0.61693505233E+02 -0.24213653226E+03  0.25145624430E+03  0.00000000000E+00 0. -1.
         21    1    1    2  506  505  0.69550370537E+01  0.59028052539E+02  0.30549734502E+03  0.31122549918E+03  0.00000000000E+00 0.  1.
<scales pt_clust_3="53.70837" pt_clust_4="14000.00000" pt_clust_5="63.60757" pt_clust_6="59.43638"></scales>
<clustering>
<clus scale="   59.436">  1  6  2 -1</clus>
<clus scale="   53.708">  1  3  2 -1</clus>
<clus scale="   63.608">  2  5  1 -1</clus>
<clus scale="   59.436">  1  3  2 -1</clus>
</clustering>
</event>
<event>
 6    0  0.4227619E+002  0.1062185E+03  0.7546771E-02  0.1267737E+00
         21   -1    0    0  505  501  0.00000000000E+00  0.00000000000E+00  0.34891991393E+03  0.34891991393E+03  0.00000000000E+00 0. -1.
         21   -1    0    0  506  502 -0.00000000000E+00 -0.00000000000E+00 -0.12936631718E+03  0.12936631718E+03  0.00000000000E+00 0.  1.
         21    1    1    2  503  502 -0.24644527643E+02  0.44714369912E+02 -0.57441097642E+02  0.76851853053E+02  0.00000000000E+00 0.  1.
         21    1    1    2  504  503 -0.83257993113E+02 -0.47830255340E+02  0.15832504580E+03  0.18516599815E+03  0.00000000000E+00 0. -1.
         21    1    1    2  505  504  0.10764286884E+01 -0.31660799649E+02  0.96751781020E+02  0.10180605121E+03  0.00000000000E+00 0.  1.
         21    1    1    2  506  501  0.10682609207E+03  0.34776685076E+02  0.21917867567E+02  0.11446232869E+03  0.00000000000E+00 0.  1.
<scales pt_clust_3="49.96104" pt_clust_4="14000.00000" pt_clust_5="31.67909" pt_clust_6="106.21849"></scales>
<clustering>
<clus scale="   31.679">  1  5  2 -1</clus>
<clus scale="   49.961">  2  3  1 -1</clus>
<clus scale="  106.218">  2  6  1 -1</clus>
<clus scale="   31.679">  1  3  2 -1</clus>
</clustering>
</event>
<event>
 6    0  0.4227619E+002  0.1056007E+03  0.7546771E-02  0.1268941E+00
         21   -1    0    0  505  501  0.00000000000E+00  0.00000000000E+00  0.11579861825E+04  0.11579861825E+04  0.00000000000E+00 0. -1.
         21   -1    0    0  501  502 -0.00000000000E+00 -0.00000000000E+00 -0.18050635408E+03  0.18050635408E+03  0.00000000000E+00 0.  1.
         21    1    1    2  503  502  0.41605051254E+02  0.38315390981E+02 -0.15109341816E+03  0.16133279421E+03  0.00000000000E+00 0.  1.
         21    1    1    2  504  506 -0.15456992468E+02 -0.32378881307E+02  0.78697326766E+02  0.86490345189E+02  0.00000000000E+00 0. -1.
         21    1    1    2  505  504  0.80188588581E+02  0.20948503967E+02  0.90585290387E+03  0.90963648399E+03  0.00000000000E+00 0. -1.
         21    1    1    2  506  503 -0.10633664737E+03 -0.26885013641E+02  0.14402301591E+03  0.18103291315E+03  0.00000000000E+00 0. -1.
<scales pt_clust_3="56.56014" pt_clust_4="34.40430" pt_clust_5="86.79324" pt_clust_6="34.40430"></scales>
<clustering>
<clus scale="   34.404">  4  6 -1 -1</clus>
<clus scale="   56.560">  2  3  1 -1</clus>
<clus scale="   86.793">  1  5  2 -1</clus>
<clus scale="   86.793">  1  3  2 -1</clus>
</clustering>
</event>
<event>
 6    0  0.4227619E+002  0.1227287E+03  0.7546771E-02  0.1238662E+00
         21   -1    0    0  503  501  0.00000000000E+00  0.00000000000E+00  0.10986932881E+03  0.10986932881E+03  0.00000000000E+00 0. -1.
         21   -1    0    0  506  502 -0.00000000000E+00 -0.00000000000E+00 -0.20430199321E+04  0.20430199321E+04  0.00000000000E+00 0.  1.
         21    1    1    2  503  504  0.14631567133E+03  0.12933075872E+02 -0.89306565857E+02  0.17190463296E+03  0.00000000000E+00 0. -1.
         21    1    1    2  504  502 -0.41568449399E+02  0.99036157358E+02 -0.12315746428E+04  0.12362492456E+04  0.00000000000E+00 0.  1.
         21    1    1    2  505  501 -0.74934395158E+02 -0.10299351531E+03  0.42408674670E+01  0.12743944731E+03  0.00000000000E+00 0. -1.
         21    1    1    2  506  505 -0.29812826770E+02 -0.89757179175E+01 -0.61651026211E+03  0.61729593505E+03  0.00000000000E+00 0.  1.
<scales pt_clust_3="14000.00000" pt_clust_4="113.43741" pt_clust_5="122.72868" pt_clust_6="31.13468"></scales>
<clustering>
<clus scale="   31.135">  2  6  1 -1</clus>
<clus scale="  113.437">  2  4  1 -1</clus>
<clus scale="  122.729">  1  5  2 -1</clus>
<clus scale="  122.729">  1  3  2 -1</clus>
</clustering>
</event>
<event>
 6    0  0.4227619E+002  0.1159888E+03  0.7546771E-02  0.1249865E+00
         21   -1    0    0  503  501  0.00000000000E+00  0.00000000000E+00  0.26860823107E+03  0.26860823107E+03  0.00000000000E+00 0. -1.
         21   -1    0    0  505  502 -0.00000000000E+00 -0.00000000000E+00 -0.61962030267E+03  0.61962030267E+03  0.00000000000E+00 0. -1.
         21    1    1    2  503  506 -0.10949945356E+03  0.54401303029E+01 -0.14569584364E+03  0.18233761050E+03  0.00000000000E+00 0. -1.
         21    1    1    2  504  501  0.11119507746E+03  0.36744969791E+02  0.23237592417E+03  0.26021742484E+03  0.00000000000E+00 0. -1.
         21    1    1    2  505  504  0.29365839644E+02 -0.22201241810E+02 -0.11202970146E+03  0.11792328729E+03  0.00000000000E+00 0. -1.
         21    1    1    2  506  502 -0.31061463542E+02 -0.19983858283E+02 -0.32566245066E+03  0.32775021111E+03  0.00000000000E+00 0. -1.
<scales pt_clust_3="115.98882" pt_clust_4="14000.00000" pt_clust_5="36.81369" pt_clust_6="36.40882"></scales>
<clustering>
<clus scale="   36.814">  2  5  1 -1</clus>
<clus scale="   36.409">  2  6  1 -1</clus>
<clus scale="  115.989">  2  3  1 -1</clus>
<clus scale="  115.989">  1  3  2 -1</clus>
</clustering>
</event>
<event>
 6    0  0.4227619E+002  0.1381259E+03  0.7546771E-02  0.1215873E+00
         21   -1    0    0  503  501  0.00000000000E+00  0.00000000000E+00  0.10755160652E+04  0.10755160652E+04  0.00000000000E+00 0.  1.
         21   -1    0    0  506  502 -0.00000000000E+00 -0.00000000000E+00 -0.14545407748E+03  0.14545407748E+03  0.00000000000E+00 0. -1.
         21    1    1    2  503  504 -0.20517693078E+02  0.12613651801E+03  0.57055536684E+03  0.58469207583E+03  0.00000000000E+00 0.  1.
         21    1    1    2  504  502 -0.10626048140E+03  0.24200550793E+01  0.10044734882E+03  0.14624232102E+03  0.00000000000E+00 0. -1.
         21    1    1    2  505  501  0.15359291939E+03 -0.14817491510E+02  0.32217627557E+03  0.35722247337E+03  0.00000000000E+00 0.  1.
         21    1    1    2  506  505 -0.26814744914E+02 -0.11373908158E+03 -0.63117003478E+02  0.13281327250E+03  0.00000000000E+00 0. -1.
<scales pt_clust_3="129.05685" pt_clust_4="106.28804" pt_clust_5="14000.00000" pt_clust_6="138.12595"></scales>
<clustering>
<clus scale="  106.288">  2  4  1 -1</clus>
<clus scale="  129.057">  1  3  2 -1</clus>
<clus scale="  138.126">  2  6  1 -1</clus>
<clus scale="  129.057">  1  3  2 -1</clus>
</clustering>
</event>
<event>
 6    0  0.4227619E+002  0.1382549E+03  0.7546771E-02  0.1215697E+00
         21   -1    0    0  505  501  0.00000000000E+00  0.00000000000E+00  0.75420761372E+03  0.75420761372E+03  0.00000000000E+00 0. -1.
         21   -1    0    0  503  502 -0.00000000000E+00 -0.00000000000E+00 -0.20166952607E+04  0.20166952607E+04  0.00000000000E+00 0. -1.
         21    1    1    2  503  506 -0.71091537833E+02 -0.46433342553E+02 -0.17848100087E+04  0.17868287073E+04  0.00000000000E+00 0. -1.
         21    1    1    2  504  502  0.10674873502E+02  0.49250262574E+02 -0.18998284237E+03  0.19655284705E+03  0.00000000000E+00 0. -1.
         21    1    1    2  505  504  0.89541581945E+01  0.13753670227E+03  0.54938161007E+03  0.56640681043E+03  0.00000000000E+00 0. -1.
         21    1    1    2  506  501  0.51462506136E+02 -0.14035362229E+03  0.16292359410E+03  0.22111450957E+03  0.00000000000E+00 0. -1.
<scales pt_clust_3="60.66358" pt_clust_4="50.39386" pt_clust_5="138.25495" pt_clust_6="14000.00000"></scales>
<clustering>
<clus scale="   50.394">  2  4  1 -1</clus>
<clus scale="   60.664">  2  3  1 -1</clus>
<clus scale="  138.255">  1  5  2 -1</clus>
<clus scale="  138.255">  1  3  2 -1</clus>
</clustering>
</event>
<event>
 6    0  0.4227619E+002  0.1524587E+03  0.7546771E-02  0.1197484E+00
         21   -1    0    0  504  501  0.00000000000E+00  0.00000000000E+00  0.33115645040E+02  0.33115645040E+02  0.00000000000E+00 0.  1.
         21   -1    0    0  503  502 -0.00000000000E+00 -0.00000000000E+00 -0.13629638152E+04  0.13629638152E+04  0.00000000000E+00 0.  1.
         21    1    1    2  503  505  0.37198154458E+02 -0.14042159606E+03 -0.94420661042E+03  0.95531568107E+03  0.00000000000E+00 0.  1.
         21    1    1    2  504  506  0.14841729665E+01  0.63123672147E+02 -0.71899682804E+02  0.95688897695E+02  0.00000000000E+00 0.  1.
         21    1    1    2  505  501 -0.45261272121E+02 -0.17561358903E+02 -0.10991329305E+03  0.12015787977E+03  0.00000000000E+00 0. -1.
         21    1    1    2  506  502  0.65789446958E+01  0.94859282819E+02 -0.20382858389E+03  0.22491700172E+03  0.00000000000E+00 0.  1.
<scales pt_clust_3="146.64652" pt_clust_4="33.97620" pt_clust_5="48.54878" pt_clust_6="33.97620"></scales>
<clustering>
<clus scale="   33.976">  4  6 -1 -1</clus>
<clus scale="   48.549">  1  5  2 -1</clus>
<clus scale="  146.647">  2  3  1 -1</clus>
<clus scale="   48.549">  1  3  2 -1</clus>
</clustering>
</event>
<event>
 6    0  0.4227619E+002  0.1513420E+03  0.7546771E-02  0.1198834E+00
         21   -1    0    0  505  501  0.00000000000E+00  0.00000000000E+00  0.42204932686E+03  0.42204932686E+03  0.00000000000E+00 0.  1.
         21   -1    0    0  504  502 -0.00000000000E+00 -0.00000000000E+00 -0.26196423646E+03  0.26196423646E+03  0.00000000000E+00 0. -1.
         21    1    1    2  503  502 -0.13378302177E+03  0.53076757310E+02 -0.21905553493E+03  0.26210754751E+03  0.00000000000E+00 0. -1.
         21    1    1    2  504  506  0.46188888144E+02 -0.62506763010E+01  0.19223808056E+03  0.19780789660E+03  0.00000000000E+00 0.  1.
         21    1    1    2  505  503  0.32597135392E+02  0.63532806683E+01  0.16020605635E+02  0.36872716416E+02  0.00000000000E+00 0.  1.
         21    1    1    2  506  501  0.54996998235E+02 -0.53179361677E+02  0.17088193914E+03  0.18722540278E+03  0.00000000000E+00 0.  1.
<scales pt_clust_3="142.40933" pt_clust_4="43.61218" pt_clust_5="33.21050" pt_clust_6="43.61218"></scales>
<clustering>
<clus scale="   33.211">  1  5  2 -1</clus>
<clus scale="   43.612">  4  6 -1 -1</clus>
<clus scale="  142.409">  2  3  1 -1</clus>
<clus scale="   33.211">  1  3  2 -1</clus>
</clustering>
</event>
<event>
 6    0  0.4227619E+002  0.7965010E+02  0.7546771E-02  0.1330047E+00
         21   -1    0    0  503  501  0.00000000000E+00  0.00000000000E+00  0.20659504508E+04  0.20659504508E+04  0.00000000000E+00 0.  1.
         21   -1    0    0  506  502 -0.00000000000E+00 -0.00000000000E+00 -0.28992658916E+03  0.28992658916E+03  0.00000000000E+00 0. -1.
         21    1    1    2  503  505  0.19279595078E+02  0.30457527044E+02  0.18099564266E+04  0.18103153399E+04  0.00000000000E+00 0.  1.
         21    1    1    2  504  501 -0.39625372715E+02  0.33875284406E+02  0.21790003475E+03  0.22404939232E+03  0.00000000000E+00 0. -1.
         21    1    1    2  505  502  0.10975545472E+02  0.64355779780E+02 -0.12256959339E+03  0.13887200658E+03  0.00000000000E+00 0.  1.
         21    1    1    2  506  504  0.93702321653E+01 -0.12868859123E+03 -0.12926300637E+03  0.18264030108E+03  0.00000000000E+00 0. -1.
<scales pt_clust_3="36.04669" pt_clust_4="64.41967" pt_clust_5="14000.00000" pt_clust_6="79.65010"></scales>
<clustering>
<clus scale="   36.047">  1  3  2 -1</clus>
<clus scale="   64.420">  1  4  2 -1</clus>
<clus scale="   79.650">  1  6  2 -1</clus>
<clus scale="   36.047">  1  3  2 -1</clus>
</clustering>
</event>
<event>
 6    0  0.4227619E+002  0.6742284E+02  0.7546771E-02  0.1369083E+00
         21   -1    0    0  506  501  0.00000000000E+00  0.00000000000E+00  0.21548683156E+03  0.21548683156E+03  0.00000000000E+00 0. -1.
         21   -1    0    0  505  502 -0.00000000000E+00 -0.00000000000E+00 -0.21094100608E+03  0.21094100608E+03  0.00000000000E+00 0. -1.
         21    1    1    2  503  501 -0.54593085867E+02 -0.66458291287E+02  0.11027551392E+03  0.13984919905E+03  0.00000000000E+00 0. -1.
         21    1    1    2  504  503 -0.36835465116E+02  0.57409328329E+02  0.86236407074E+01  0.68753542807E+02  0.00000000000E+00 0. -1.
         21    1    1    2  505  504  0.40770864550E+02  0.27715193767E+02 -0.14678690913E+03  0.15484441241E+03  0.00000000000E+00 0. -1.
         21    1    1    2  506  502  0.50657686434E+02 -0.18666230808E+02  0.32433579984E+02  0.62980683372E+02  0.00000000000E+00 0. -1.
<scales pt_clust_3="14000.00000" pt_clust_4="67.42284" pt_clust_5="49.29904" pt_clust_6="62.11237"></scales>
<clustering>
<clus scale="   49.299">  2  5  1 -1</clus>
<clus scale="   62.112">  1  6  2 -1</clus>
<clus scale="   67.423">  2  4  1 -1</clus>
<clus scale="   62.112">  1  3  2 -1</clus>
</clustering>
</event>
<event>
 6    0  0.4227619E+002  0.1334438E+03  0.7546771E-02  0.1222433E+00
         21   -1    0    0  503  501  0.00000000000E+00  0.00000000000E+00  0.13300498982E+04  0.13300498982E+04  0.00000000000E+00 0. -1.
         21   -1    0    0  504  502 -0.00000000000E+00 -0.00000000000E+00 -0.53206167844E+02  0.53206167844E+02  0.00000000000E+00 0. -1.
         21    1    1    2  503  502  0.84973608483E+01  0.59611327623E+02  0.62944727763E+03  0.63232079741E+03  0.00000000000E+00 0.  1.
         21    1    1    2  504  506  0.10391690958E+01 -0.90347097234E+02  0.98802728363E+02  0.13388673192E+03  0.00000000000E+00 0. -1.
         21    1    1    2  505  501  0.97318291718E+02  0.75089564652E+02  0.44529511521E+03  0.46194916631E+03  0.00000000000E+00 0. -1.
         21    1    1    2  506  505 -0.10685482166E+03 -0.44353795041E+02  0.10329860913E+03  0.15509937039E+03  0.00000000000E+00 0. -1.
<scales pt_clust_3="60.21391" pt_clust_4="80.46488" pt_clust_5="133.44383" pt_clust_6="14000.00000"></scales>
<clustering>
<clus scale="   60.214">  1  3  2 -1</clus>
<clus scale="   80.465">  2  4  1 -1</clus>
<clus scale="  133.444">  1  5  2 -1</clus>
<clus scale="   60.214">  1  3  2 -1</clus>
</clustering>
</event>
<event>
 6    0  0.4227619E+002  0.1153635E+03  0.7546771E-02  0.1250948E+00
         21   -1    0    0  506  501  0.00000000000E+00  0.00000000000E+00  0.89439390025E+03  0.89439390025E+03  0.00000000000E+00 0. -1.
         21   -1    0    0  503  502 -0.00000000000E+00 -0.00000000000E+00 -0.73715672821E+02  0.73715672821E+02  0.00000000000E+00 0. -1.
         21    1    1    2  503  501 -0.24888902883E+02 -0.92910366826E+02  0.41869499035E+03  0.42960131366E+03  0.00000000000E+00 0. -1.
         21    1    1    2  504  505  0.95932226356E+02  0.97915474514E+02  0.95740198731E+02  0.16720232611E+03  0.00000000000E+00 0. -1.
         21    1    1    2  505  502 -0.33064624177E+02  0.26669412512E+01 -0.22631558008E+02  0.40156809703E+02  0.00000000000E+00 0. -1.
         21    1    1    2  506  504 -0.37978699295E+02 -0.76720489393E+01  0.32887459635E+03  0.33114912360E+03  0.00000000000E+00 0. -1.
<scales pt_clust_3="14000.00000" pt_clust_4="115.36355" pt_clust_5="33.17201" pt_clust_6="39.60336"></scales>
<clustering>
<clus scale="   33.172">  2  5  1 -1</clus>
<clus scale="   39.603">  1  6  2 -1</clus>
<clus scale="  115.364">  2  4  1 -1</clus>
<clus scale="   39.603">  1  3  2 -1</clus>
</clustering>
</event>
<event>
 6    0  0.4227619E+002  0.8210885E+02  0.7546771E-02  0.1323171E+00
         21   -1    0    0  503  501  0.00000000000E+00  0.00000000000E+00  0.68979177778E+03  0.68979177778E+03  0.00000000000E+00 0. -1.
         21   -1    0    0  505  502 -0.00000000000E+00 -0.00000000000E+00 -0.61751067854E+03  0.61751067854E+03  0.00000000000E+00 0.  1.
         21    1    1    2  503  506 -0.21046095914E+02  0.30593194640E+02  0.69376526775E+02  0.78689161762E+02  0.00000000000E+00 0. -1.
         21    1    1    2  504  501  0.46247352363E+02 -0.56499794875E+01  0.58603422598E+03  0.58788336759E+03  0.00000000000E+00 0. -1.
         21    1    1    2  505  504 -0.90730862707E+02 -0.67812979724E+02 -0.99396306476E+02  0.15069942073E+03  0.00000000000E+00 0.  1.
         21    1    1    2  506  502  0.65529606259E+02  0.42869764571E+02 -0.48373334704E+03  0.49003050624E+03  0.00000000000E+00 0.  1.
<scales pt_clust_3="37.13330" pt_clust_4="35.19255" pt_clust_5="82.10885" pt_clust_6="14000.00000"></scales>
<clustering>
<clus scale="   37.133">  1  3  2 -1</clus>
<clus scale="   35.193">  1  4  2 -1</clus>
<clus scale="   82.109">  1  5  2 -1</clus>
<clus scale="   37.133">  1  3  2 -1</clus>
</clustering>
</event>
<event>
 6    0  0.4227619E+002  0.1077631E+03  0.7546771E-02  0.1264769E+00
         21   -1    0    0  503  501  0.00000000000E+00  0.00000000000E+00  0.13740014407E+04  0.13740014407E+04  0.00000000000E+00 0.  1.
         21   -1    0    0  506  502 -0.00000000000E+00 -0.00000000000E+00 -0.41695654381E+03  0.41695654381E+03  0.00000000000E+00 0.  1.
         21    1    1    2  503  502  0.21503015228E+02 -0.30683758429E+02  0.20917265335E+02  0.42911591491E+02  0.00000000000E+00 0. -1.
         21    1    1    2  504  501 -0.13481062430E+02 -0.53349275440E+02  0.33572489318E+03  0.34020447989E+03  0.00000000000E+00 0.  1.
         21    1    1    2  505  504  0.13690870872E+02  0.15972498681E+03  0.99379704019E+03  0.10066439631E+04  0.00000000000E+00 0.  1.
         21    1    1    2  506  505 -0.21712823670E+02 -0.75691952942E+02 -0.39339430179E+03  0.40119795006E+03  0.00000000000E+00 0.  1.
<scales pt_clust_3="37.46829" pt_clust_4="55.16150" pt_clust_5="14000.00000" pt_clust_6="107.76308"></scales>
<clustering>
<clus scale="   37.468">  2  3  1 -1</clus>
<clus scale="   55.162">  1  4  2 -1</clus>
<clus scale="  107.763">  2  6  1 -1</clus>
<clus scale="   55.162">  1  3  2 -1</clus>
</clustering>
</event>
<event>
 6    0  0.4227619E+002  0.1052579E+03  0.7546771E-02  0.1269612E+00
         21   -1    0    0  504  501  0.00000000000E+00  0.00000000000E+00  0.13550985743E+03  0.13550985743E+03  0.00000000000E+00 0. -1.
         21   -1    0    0  506  502 -0.00000000000E+00 -0.00000000000E+00 -0.54900781944E+03  0.54900781944E+03  0.00000000000E+00 0. -1.
         21    1    1    2  503  502  0.69949434528E+02 -0.78229406846E+02 -0.17621834340E+03  0.20509916635E+03  0.00000000000E+00 0. -1.
         21    1    1    2  504  505  0.32098914801E+02  0.29524732139E+02  0.41886398203E+01  0.43813181154E+02  0.00000000000E+00 0. -1.
         21    1    1    2  505  503  0.18873124816E+02  0.44653504414E+02  0.79207003616E+02  0.92864846517E+02  0.00000000000E+00 0. -1.
         21    1    1    2  506  501 -0.12092147414E+03  0.40511702922E+01 -0.32067526206E+03  0.34274048285E+03  0.00000000000E+00 0. -1.
<scales pt_clust_3="105.25785" pt_clust_4="43.61250" pt_clust_5="80.32242" pt_clust_6="14000.00000"></scales>
<clustering>
<clus scale="   43.612">  1  4  2 -1</clus>
<clus scale="   80.322">  1  5  2 -1</clus>
<clus scale="  105.258">  1  3  2 -1</clus>
<clus scale="   43.612">  1  3  2 -1</clus>
</clustering>
</event>
<event>
 6    0  0.4227619E+002  0.8605955E+02  0.7546771E-02  0.1312685E+00
         21   -1    0    0  505  501  0.00000000000E+00  0.00000000000E+00  0.28666475347E+02  0.28666475347E+02  0.00000000000E+00 0.  1.
         21   -1    0    0  504  502 -0.00000000000E+00 -0.00000000000E+00 -0.86108218441E+03  0.86108218441E+03  0.00000000000E+00 0. -1.
         21    1    1    2  503  502 -0.15150111599E+02 -0.32736081135E+02 -0.35506833271E+03  0.35689592010E+03  0.00000000000E+00 0. -1.
         21    1    1    2  504  506  0.60249773325E+02 -0.31058761265E+02 -0.19328650173E+03  0.20482761920E+03  0.00000000000E+00 0. -1.
         21    1    1    2  505  503  0.49238173195E+02  0.29958684330E+02 -0.14962743860E+03  0.16034428848E+03  0.00000000000E+00 0. -1.
         21    1    1    2  506  501 -0.94337834922E+02  0.33836158070E+02 -0.13443343602E+03  0.16768083197E+03  0.00000000000E+00 0.  1.
<scales pt_clust_3="36.07183" pt_clust_4="14000.00000" pt_clust_5="48.83426" pt_clust_6="86.05955"></scales>
<clustering>
<clus scale="   36.072">  2  3  1 -1</clus>
<clus scale="   48.834">  2  5  1 -1</clus>
<clus scale="   86.060">  1  6  2 -1</clus>
<clus scale="   86.060">  1  3  2 -1</clus>
</clustering>
</event>
<event>
 6    0  0.4227619E+002  0.9859602E+02  0.7546771E-02  0.1283276E+00
         21   -1    0    0  505  501  0.00000000000E+00  0.00000000000E+00  0.12951722032E+03  0.12951722032E+03  0.00000000000E+00 0.  1.
         21   -1    0    0  506  502 -0.00000000000E+00 -0.00000000000E+00 -0.10943456454E+04  0.10943456454E+04  0.00000000000E+00 0. -1.
         21    1    1    2  503  504 -0.12865090820E+02  0.11934736275E+03 -0.89036396426E+02  0.14945495457E+03  0.00000000000E+00 0. -1.
         21    1    1    2  504  502 -0.59790910270E+02 -0.32978660570E+02 -0.88525839645E+03  0.88788792845E+03  0.00000000000E+00 0. -1.
         21    1    1    2  505  503  0.23443986114E+02 -0.78270674066E+02 -0.59738982676E+02  0.10121593232E+03  0.00000000000E+00 0. -1.
         21    1    1    2  506  501  0.49212014976E+02 -0.80980281119E+01  0.69205350475E+02  0.85304050382E+02  0.00000000000E+00 0.  1.
<scales pt_clust_3="14000.00000" pt_clust_4="67.30164" pt_clust_5="98.59602" pt_clust_6="49.87385"></scales>
<clustering>
<clus scale="   49.874">  1  6  2 -1</clus>
<clus scale="   67.302">  2  4  1 -1</clus>
<clus scale="   98.596">  1  5  2 -1</clus>
<clus scale="   49.874">  1  3  2 -1</clus>
</clustering>
</event>
<event>
 6    0  0.4248288E+002  0.1011935E+03  0.7546771E-02  0.1277806E+00
         21   -1    0    0  504  501  0.00000000000E+00  0.00000000000E+00  0.37303786043E+03  0.37303786043E+03  0.00000000000E+00 0. -1.
         21   -1    0    0  505  502 -0.00000000000E+00 -0.00000000000E+00 -0.13723750670E+04  0.13723750670E+04  0.00000000000E+00 0. -1.
         21    1    1    2  503  502 -0.37573132845E+01 -0.35780211992E+02 -0.89340659687E+03  0.89413068860E+03  0.00000000000E+00 0. -1.
         21    1    1    2  504  503 -0.10607366571E+02  0.11426472786E+03  0.22237286302E+02  0.11689072316E+03  0.00000000000E+00 0. -1.
         21    1    1    2  505  506  0.39684016610E+02 -0.61554935728E+02 -0.42739179515E+03  0.43362146839E+03  0.00000000000E+00 0. -1.
         21    1    1    2  506  501 -0.25319336755E+02 -0.16929580143E+02  0.29922389916E+03  0.30077004726E+03  0.00000000000E+00 0. -1.
<scales pt_clust_3="36.07370" pt_clust_4="101.19354" pt_clust_5="14000.00000" pt_clust_6="30.45783"></scales>
<clustering>
<clus scale="   30.458">  1  6  2 -1</clus>
<clus scale="   36.074">  2  3  1 -1</clus>
<clus scale="  101.194">  1  4  2 -1</clus>
<clus scale="   30.458">  1  3  2 -1</clus>
</clustering>
</event>
<event>
 6    0  0.4227619E+002  0.1332866E+03  0.7546771E-02  0.1222659E+00
         21   -1    0    0  504  501  0.00000000000E+00  0.00000000000E+00  0.27764908871E+03  0.27764908871E+03  0.00000000000E+00 0. -1.
         21   -1    0    0  506  502 -0.00000000000E+00 -0.00000000000E+00 -0.42505313524E+03  0.42505313524E+03  0.00000000000E+00 0.  1.
         21    1    1    2  503  505  0.57256595366E+01  0.95891987473E+02  0.12326670413E+03  0.15627775525E+03  0.00000000000E+00 0. -1.
         21    1    1    2  504  503  0.24873424237E+02  0.19933470781E+02  0.74594445842E+02  0.81119429492E+02  0.00000000000E+00 0. -1.
         21    1    1    2  505  502  0.16820614076E+02 -0.13875017621E+03 -0.26547958939E+02  0.14226502936E+03  0.00000000000E+00 0.  1.
         21    1    1    2  506  501 -0.47419697850E+02  0.22924717953E+02 -0.31871723756E+03  0.32304000984E+03  0.00000000000E+00 0.  1.
<scales pt_clust_3="30.78718" pt_clust_4="30.78718" pt_clust_5="122.10149" pt_clust_6="52.67039"></scales>
<clustering>
<clus scale="   30.787">  3  4 -1 -1</clus>
<clus scale="   52.670">  2  6  1 -1</clus>
<clus scale="  122.101">  2  5  1 -1</clus>
<clus scale="  133.287">  1  3  2 -1</clus>
</clustering>
</event>
<event>
 6    0  0.4227619E+002  0.8769678E+02  0.7546771E-02  0.1308527E+00
         21   -1    0    0  505  501  0.00000000000E+00  0.00000000000E+00  0.17865588420E+04  0.17865588420E+04  0.00000000000E+00 0.  1.
         21   -1    0    0  506  502 -0.00000000000E+00 -0.00000000000E+00 -0.23745842452E+02  0.23745842452E+02  0.00000000000E+00 0. -1.
         21    1    1    2  503  502  0.45986609447E+02 -0.19002308847E+02  0.28048262612E+02  0.57118832495E+02  0.00000000000E+00 0. -1.
         21    1    1    2  504  503  0.33562809790E+02 -0.46022673462E+02  0.18272364852E+03  0.19139613476E+03  0.00000000000E+00 0.  1.
         21    1    1    2  505  504 -0.12727928263E+02 -0.43631210596E+02  0.49422111421E+03  0.49630655086E+03  0.00000000000E+00 0.  1.
         21    1    1    2  506  501 -0.66821490975E+02  0.10865619290E+03  0.10578199742E+04  0.10654831663E+04  0.00000000000E+00 0.  1.
<scales pt_clust_3="49.94177" pt_clust_4="87.69678" pt_clust_5="45.44978" pt_clust_6="14000.00000"></scales>
<clustering>
<clus scale="   45.450">  1  5  2 -1</clus>
<clus scale="   49.942">  2  3  1 -1</clus>
<clus scale="   87.697">  2  4  1 -1</clus>
<clus scale="   45.450">  1  3  2 -1</clus>
</clustering>
</event>
<event>
 6    0  0.4227619E+002  0.1515969E+03  0.7546771E-02  0.1198524E+00
         21   -1    0    0  504  501  0.00000000000E+00  0.00000000000E+00  0.20978739308E+03  0.20978739308E+03  0.00000000000E+00 0. -1.
         21   -1    0    0  506  502 -0.00000000000E+00 -0.00000000000E+00 -0.51101693918E+03  0.51101693918E+03  0.00000000000E+00 0.  1.
         21    1    1    2  503  501  0.29890103881E+02  0.24212244134E+02  0.12788792364E+03  0.13354763978E+03  0.00000000000E+00 0. -1.
         21    1    1    2  504  505  0.10022234529E+03  0.10139473290E+02 -0.28560312434E+03  0.30284727512E+03  0.00000000000E+00 0.  1.
         21    1    1    2  505  502  0.25498292424E+02  0.36268575758E+02 -0.98006674508E+02  0.10756802848E+03  0.00000000000E+00 0.  1.
         21    1    1    2  506  503 -0.15561074160E+03 -0.70620293182E+02 -0.45507670897E+02  0.17684138888E+03  0.00000000000E+00 0. -1.
<scales pt_clust_3="38.46623" pt_clust_4="38.25347" pt_clust_5="38.25347" pt_clust_6="140.20259"></scales>
<clustering>
<clus scale="   38.253">  4  5 -1 -1</clus>
<clus scale="   38.466">  1  3  2 -1</clus>
<clus scale="  140.203">  1  6  2 -1</clus>
<clus scale="   38.466">  1  3  2 -1</clus>
</clustering>
</event>
<event>
 6    0  0.4227619E+002  0.1233820E+03  0.7546771E-02  0.1237620E+00
         21   -1    0    0  503  501  0.00000000000E+00  0.00000000000E+00  0.52014295156E+03  0.52014295156E+03  0.00000000000E+00 0.  1.
         21   -1    0    0  505  502 -0.00000000000E+00 -0.00000000000E+00 -0.30950278561E+03  0.30950278561E+03  0.00000000000E+00 0. -1.
         21    1    1    2  503  506  0.40011543855E+02 -0.66014918906E+02  0.35576137819E+03  0.36403990354E+03  0.00000000000E+00 0.  1.
         21    1    1    2  504  502 -0.50724003425E+02  0.49162503571E+02 -0.18454283365E+03  0.19760043961E+03  0.00000000000E+00 0. -1.
         21    1    1    2  505  501 -0.11326528920E+03 -0.39059022217E+02  0.53624032721E+02  0.13126374153E+03  0.00000000000E+00 0. -1.
         21    1    1    2  506  504  0.12397774877E+03  0.55911437552E+02 -0.14202411299E+02  0.13674165249E+03  0.00000000000E+00 0. -1.
<scales pt_clust_3="74.80814" pt_clust_4="70.63906" pt_clust_5="123.38197" pt_clust_6="14000.00000"></scales>
<clustering>
<clus scale="   70.639">  2  4  1 -1</clus>
<clus scale="   74.808">  1  3  2 -1</clus>
<clus scale="  123.382">  1  5  2 -1</clus>
<clus scale="   74.808">  1  3  2 -1</clus>
</clustering>
</event>
<event>
 6    0  0.4227619E+002  0.1075322E+03  0.7546771E-02  0.1265209E+00
         21   -1    0    0  506  501  0.00000000000E+00  0.00000000000E+00  0.51695210934E+02  0.51695210934E+02  0.00000000000E+00 0. -1.
         21   -1    0    0  503  502 -0.00000000000E+00 -0.00000000000E+00 -0.12479578503E+04  0.12479578503E+04  0.00000000000E+00 0.  1.
         21    1    1    2  503  504 -0.80054001496E+02 -0.45738987405E+02 -0.44406859327E+03  0.45353898802E+03  0.00000000000E+00 0. -1.
         21    1    1    2  504  501 -0.10316143537E+03  0.29570065566E+02 -0.11581818704E+03  0.15789402450E+03  0.00000000000E+00 0. -1.
         21    1    1    2  505  502  0.78434035338E+02  0.41442425201E+02 -0.52789000338E+03  0.53529172250E+03  0.00000000000E+00 0.  1.
         21    1    1    2  506  505  0.10478140152E+03 -0.25273503362E+02 -0.10848585568E+03  0.15292832622E+03  0.00000000000E+00 0. -1.
<scales pt_clust_3="36.69886" pt_clust_4="14000.00000" pt_clust_5="88.70948" pt_clust_6="107.53221"></scales>
<clustering>
<clus scale="   88.709">  2  5  1 -1</clus>
<clus scale="   36.699">  2  3  1 -1</clus>
<clus scale="  107.532">  1  6  2 -1</clus>
<clus scale="  107.532">  1  3  2 -1</clus>
</clustering>
</event>
<event>
 6    0  0.4227619E+002  0.1037732E+03  0.7546771E-02  0.1272556E+00
         21   -1    0    0  506  501  0.00000000000E+00  0.00000000000E+00  0.81806364500E+02  0.81806364500E+02  0.00000000000E+00 0.  1.
         21   -1    0    0  505  502 -0.00000000000E+00 -0.00000000000E+00 -0.16945879008E+04  0.16945879008E+04  0.00000000000E+00 0.  1.
         21    1    1    2  503  504 -0.16408793135E+02  0.51544150180E+02 -0.73546889657E+03  0.73745545339E+03  0.00000000000E+00 0.  1.
         21    1    1    2  504  501 -0.78491679073E+02 -0.57282721156E+02 -0.13173966351E+02  0.98060222395E+02  0.00000000000E+00 0.  1.
         21    1    1    2  505  503 -0.14808341518E+02 -0.34989061474E+02 -0.81179057400E+03  0.81267918482E+03  0.00000000000E+00 0.  1.
         21    1    1    2  506  502  0.10970881373E+03  0.40727632451E+02 -0.52348099361E+02  0.12819940468E+03  0.00000000000E+00 0. -1.
<scales pt_clust_3="36.42424" pt_clust_4="14000.00000" pt_clust_5="37.99370" pt_clust_6="103.77323"></scales>
<clustering>
<clus scale="   37.994">  2  5  1 -1</clus>
<clus scale="   36.424">  2  3  1 -1</clus>
<clus scale="  103.773">  2  6  1 -1</clus>
<clus scale="  103.773">  1  3  2 -1</clus>
</clustering>
</event>
<event>
 6    0  0.4227619E+002  0.9018910E+02  0.7546771E-02  0.1302394E+00
         21   -1    0    0  506  501  0.00000000000E+00  0.00000000000E+00  0.55603587775E+03  0.55603587775E+03  0.00000000000E+00 0. -1.
         21   -1    0    0  503  502 -0.00000000000E+00 -0.00000000000E+00 -0.10600039078E+03  0.10600039078E+03  0.00000000000E+00 0. -1.
         21    1    1    2  503  501 -0.11739097350E+02 -0.28277278565E+02  0.14032580669E+02  0.33679729955E+02  0.00000000000E+00 0. -1.
         21    1    1    2  504  502 -0.18845086778E+02 -0.28034672990E+02 -0.62441208734E+02  0.70992849876E+02  0.00000000000E+00 0. -1.
         21    1    1    2  505  504  0.11061728320E+03  0.17198421759E+02  0.10337298474E+03  0.15237435161E+03  0.00000000000E+00 0. -1.
         21    1    1    2  506  505 -0.80033099071E+02  0.39113529797E+02  0.39507113030E+03  0.40498933709E+03  0.00000000000E+00 0. -1.
<scales pt_clust_3="30.61717" pt_clust_4="54.76251" pt_clust_5="90.18910" pt_clust_6="14000.00000"></scales>
<clustering>
<clus scale="   30.617">  2  3  1 -1</clus>
<clus scale="   54.763">  2  4  1 -1</clus>
<clus scale="   90.189">  2  5  1 -1</clus>
<clus scale="   90.189">  1  3  2 -1</clus>
</clustering>
</event>
<event>
 6    0  0.4227619E+002  0.9760842E+02  0.7546771E-02  0.1285407E+00
         21   -1    0    0  504  501  0.00000000000E+00  0.00000000000E+00  0.37803553921E+03  0.37803553921E+03  0.00000000000E+00 0. -1.
         21   -1    0    0  505  502 -0.00000000000E+00 -0.00000000000E+00 -0.26083939312E+03  0.26083939312E+03  0.00000000000E+00 0.  1.
         21    1    1    2  503  502 -0.12623017250E+02  0.95885719973E+02 -0.13398066218E+03  0.16523991557E+03  0.00000000000E+00 0.  1.
         21    1    1    2  504  506  0.68101951968E+02 -0.40863961646E+02  0.24789430579E+03  0.26030621596E+03  0.00000000000E+00 0. -1.
         21    1    1    2  505  501 -0.97657574936E+02  0.40624501009E+02 -0.16174888885E+02  0.10699990213E+03  0.00000000000E+00 0.  1.
         21    1    1    2  506  503  0.42178640217E+02 -0.95646259337E+02  0.19457391362E+02  0.10632889868E+03  0.00000000000E+00 0.  1.
<scales pt_clust_3="14000.00000" pt_clust_4="79.42128" pt_clust_5="77.09597" pt_clust_6="97.60842"></scales>
<clustering>
<clus scale="   79.421">  1  4  2 -1</clus>
<clus scale="   77.096">  1  5  2 -1</clus>
<clus scale="   97.608">  1  6  2 -1</clus>
<clus scale="   79.421">  1  3  2 -1</clus>
</clustering>
</event>
<event>
 6    0  0.4227619E+002  0.8417083E+02  0.7546771E-02  0.1317615E+00
         21   -1    0    0  503  501  0.00000000000E+00  0.00000000000E+00  0.21733709473E+04  0.21733709473E+04  0.00000000000E+00 0. -1.
         21   -1    0    0  504  502 -0.00000000000E+00 -0.00000000000E+00 -0.41133171995E+02  0.41133171995E+02  0.00000000000E+00 0.  1.
         21    1    1    2  503  505  0.29813828584E+02  0.42553254849E+01  0.75515585727E+03  0.75575613854E+03  0.00000000000E+00 0. -1.
         21    1    1    2  504  501 -0.10150632372E+03  0.39063355311E+02  0.61786672488E+02  0.12508825836E+03  0.00000000000E+00 0.  1.
         21    1    1    2  505  506  0.11381495643E+02 -0.79943120337E+02  0.11631420352E+04  0.11659416087E+04  0.00000000000E+00 0. -1.
         21    1    1    2  506  502  0.60310999489E+02  0.36624439541E+02  0.15215321035E+03  0.16771811366E+03  0.00000000000E+00 0.  1.
<scales pt_clust_3="30.11598" pt_clust_4="14000.00000" pt_clust_5="84.17083" pt_clust_6="73.69602"></scales>
<clustering>
<clus scale="   30.116">  1  3  2 -1</clus>
<clus scale="   73.696">  2  6  1 -1</clus>
<clus scale="   84.171">  1  5  2 -1</clus>
<clus scale="   30.116">  1  3  2 -1</clus>
</clustering>
</event>
<event>
 6    0  0.4227619E+002  0.2310984E+03  0.7546771E-02  0.1125869E+00
         21   -1    0    0  503  501  0.00000000000E+00  0.00000000000E+00  0.17717640697E+03  0.17717640697E+03  0.00000000000E+00 0.  1.
         21   -1    0    0  505  502 -0.00000000000E+00 -0.00000000000E+00 -0.67047517417E+03  0.67047517417E+03  0.00000000000E+00 0. -1.
         21    1    1    2  503  504  0.47257893248E+00 -0.19603422632E+03 -0.10613946816E+03  0.22292426499E+03  0.00000000000E+00 0. -1.
         21    1    1    2  504  506 -0.12125906405E+03 -0.55178743460E+02 -0.18329740905E+03  0.22659742829E+03  0.00000000000E+00 0. -1.
         21    1    1    2  505  501  0.95898617437E+02  0.26827120903E+03 -0.12023948628E+03  0.30923052968E+03  0.00000000000E+00 0.  1.
         21    1    1    2  506  502  0.24887867683E+02 -0.17058239256E+02 -0.83622403706E+02  0.88899358186E+02  0.00000000000E+00 0. -1.
<scales pt_clust_3="14000.00000" pt_clust_4="128.07613" pt_clust_5="231.09841" pt_clust_6="30.17266"></scales>
<clustering>
<clus scale="   30.173">  2  6  1 -1</clus>
<clus scale="  128.076">  2  4  1 -1</clus>
<clus scale="  231.098">  2  5  1 -1</clus>
<clus scale="  231.098">  1  3  2 -1</clus>
</clustering>
</event>
<event>
 6    0  0.4227619E+002  0.1106787E+03  0.7546771E-02  0.1259318E+00
         21   -1    0    0  504  501  0.00000000000E+00  0.00000000000E+00  0.29899461686E+02  0.29899461686E+02  0.00000000000E+00 0.  1.
         21   -1    0    0  503  502 -0.00000000000E+00 -0.00000000000E+00 -0.16624557854E+04  0.16624557854E+04  0.00000000000E+00 0.  1.
         21    1    1    2  503  501  0.13400437869E+03  0.28852012585E+02 -0.10600026300E+04  0.10688288861E+04  0.00000000000E+00 0.  1.
         21    1    1    2  504  505 -0.37088218485E+02  0.46209355657E+01 -0.14471821764E+02  0.40078954840E+02  0.00000000000E+00 0.  1.
         21    1    1    2  505  506 -0.68199030511E+02 -0.53026873248E+02 -0.14410682931E+03  0.16801706849E+03  0.00000000000E+00 0.  1.
         21    1    1    2  506  502 -0.28717129699E+02  0.19553925097E+02 -0.41397504260E+03  0.41543033763E+03  0.00000000000E+00 0. -1.
<scales pt_clust_3="110.67873" pt_clust_4="38.05233" pt_clust_5="14000.00000" pt_clust_6="34.74233"></scales>
<clustering>
<clus scale="   34.742">  2  6  1 -1</clus>
<clus scale="   38.052">  1  4  2 -1</clus>
<clus scale="  110.679">  2  3  1 -1</clus>
<clus scale="   38.052">  1  3  2 -1</clus>
</clustering>
</event>
<event>
 6    0  0.4227619E+002  0.7557026E+02  0.7546771E-02  0.1342114E+00
         21   -1    0    0  505  501  0.00000000000E+00  0.00000000000E+00  0.85193925657E+03  0.85193925657E+03  0.00000000000E+00 0. -1.
         21   -1    0    0  506  502 -0.00000000000E+00 -0.00000000000E+00 -0.91520065507E+02  0.91520065507E+02  0.00000000000E+00 0. -1.
         21    1    1    2  503  502  0.58373012570E+02  0.51935123139E+02 -0.30521811522E+02  0.83882337775E+02  0.00000000000E+00 0. -1.
         21    1    1    2  504  503  0.22729467890E+01 -0.67895125677E+02  0.89612681218E+02  0.11245153184E+03  0.00000000000E+00 0. -1.
         21    1    1    2  505  504  0.11060099752E+02  0.36971289040E+02  0.66117272742E+03  0.66229795221E+03  0.00000000000E+00 0. -1.
         21    1    1    2  506  501 -0.71706059111E+02 -0.21011286502E+02  0.40155593947E+02  0.84827500251E+02  0.00000000000E+00 0. -1.
<scales pt_clust_3="14000.00000" pt_clust_4="48.93981" pt_clust_5="38.59018" pt_clust_6="75.57026"></scales>
<clustering>
<clus scale="   38.590">  1  5  2 -1</clus>
<clus scale="   48.940">  1  4  2 -1</clus>
<clus scale="   75.570">  1  6  2 -1</clus>
<clus scale="   38.590">  1  3  2 -1</clus>
</clustering>
</event>
<event>
 6    0  0.4227619E+002  0.7657851E+02  0.7546771E-02  0.1339051E+00
         21   -1    0    0  506  501  0.00000000000E+00  0.00000000000E+00  0.82473457143E+03  0.82473457143E+03  0.00000000000E+00 0.  1.
         21   -1    0    0  505  502 -0.00000000000E+00 -0.00000000000E+00 -0.41967634213E+03  0.41967634213E+03  0.00000000000E+00 0.  1.
         21    1    1    2  503  501 -0.13447297814E+02  0.47833980237E+02  0.79850049607E+03  0.80004497480E+03  0.00000000000E+00 0.  1.
         21    1    1    2  504  502 -0.93589854550E+01  0.29317832594E+02 -0.80959586609E+02  0.86611665384E+02  0.00000000000E+00 0.  1.
         21    1    1    2  505  503 -0.45578068097E+02 -0.92689745260E+02 -0.16931231279E+03  0.19833156186E+03  0.00000000000E+00 0.  1.
         21    1    1    2  506  504  0.68384351366E+02  0.15537932428E+02 -0.14317036737E+03  0.15942271152E+03  0.00000000000E+00 0.  1.
<scales pt_clust_3="49.75893" pt_clust_4="30.77541" pt_clust_5="14000.00000" pt_clust_6="76.57851"></scales>
<clustering>
<clus scale="   30.775">  2  4  1 -1</clus>
<clus scale="   49.759">  1  3  2 -1</clus>
<clus scale="   76.579">  2  6  1 -1</clus>
<clus scale="   49.759">  1  3  2 -1</clus>
</clustering>
</event>
<event>
 6    0  0.4227619E+002  0.6675445E+02  0.7546771E-02  0.1371491E+00
         21   -1    0    0  504  501  0.00000000000E+00  0.00000000000E+00  0.19481350736E+03  0.19481350736E+03  0.00000000000E+00 0.  1.
         21   -1    0    0  505  502 -0.00000000000E+00 -0.00000000000E+00 -0.54573758273E+03  0.54573758273E+03  0.00000000000E+00 0.  1.
         21    1    1    2  503  501  0.59494542984E+02 -0.11814907857E+02  0.16016365510E+03  0.17126467560E+03  0.00000000000E+00 0.  1.
         21    1    1    2  504  506 -0.15116435014E+02  0.63507304669E+02 -0.42721658264E+02  0.78018103275E+02  0.00000000000E+00 0.  1.
         21    1    1    2  505  503 -0.16700333501E+02  0.43999902449E+02 -0.11869194762E+03  0.12768191330E+03  0.00000000000E+00 0.  1.
         21    1    1    2  506  502 -0.27677774470E+02 -0.95692299261E+02 -0.34967412459E+03  0.36358639791E+03  0.00000000000E+00 0.  1.
<scales pt_clust_3="60.33088" pt_clust_4="14000.00000" pt_clust_5="47.06265" pt_clust_6="66.75445"></scales>
<clustering>
<clus scale="   47.063">  2  5  1 -1</clus>
<clus scale="   60.331">  1  3  2 -1</clus>
<clus scale="   66.754">  2  6  1 -1</clus>
<clus scale="   60.331">  1  3  2 -1</clus>
</clustering>
</event>
<event>
 6    0  0.4227619E+002  0.9051335E+02  0.7546771E-02  0.1301613E+00
         21   -1    0    0  505  501  0.00000000000E+00  0.00000000000E+00  0.13440587490E+03  0.13440587490E+03  0.00000000000E+00 0. -1.
         21   -1    0    0  506  502 -0.00000000000E+00 -0.00000000000E+00 -0.20064803160E+04  0.20064803160E+04  0.00000000000E+00 0. -1.
         21    1    1    2  503  504 -0.46641857085E+02  0.64480123656E+02 -0.13191033047E+04  0.13215016752E+04  0.00000000000E+00 0. -1.
         21    1    1    2  504  502  0.26783734913E+02  0.24656036625E+02 -0.62530917766E+03  0.62636798790E+03  0.00000000000E+00 0. -1.
         21    1    1    2  505  503  0.56534388284E+02 -0.78480412502E+02  0.10500185763E+03  0.14276099717E+03  0.00000000000E+00 0. -1.
         21    1    1    2  506  501 -0.36676266112E+02 -0.10655747779E+02 -0.32663816379E+02  0.50255530612E+02  0.00000000000E+00 0. -1.
<scales pt_clust_3="14000.00000" pt_clust_4="36.40451" pt_clust_5="90.51335" pt_clust_6="37.21710"></scales>
<clustering>
<clus scale="   36.405">  2  4  1 -1</clus>
<clus scale="   37.217">  1  6  2 -1</clus>
<clus scale="   90.513">  1  5  2 -1</clus>
<clus scale="   37.217">  1  3  2 -1</clus>
</clustering>
</event>
<event>
 6    0  0.4227619E+002  0.8834223E+02  0.7546771E-02  0.1306917E+00
         21   -1    0    0  506  501  0.00000000000E+00  0.00000000000E+00  0.84959367849E+03  0.84959367849E+03  0.00000000000E+00 0. -1.
         21   -1    0    0  503  502 -0.00000000000E+00 -0.00000000000E+00 -0.24084700406E+03  0.24084700406E+03  0.00000000000E+00 0. -1.
         21    1    1    2  503  505 -0.63867709575E+01 -0.69646129007E+02  0.14962826180E+03  0.16516655490E+03  0.00000000000E+00 0.  1.
         21    1    1    2  504  502 -0.75884359903E+02  0.51257652443E+02 -0.21072718747E+03  0.22976451107E+03  0.00000000000E+00 0. -1.
         21    1    1    2  505  501  0.14128820899E+02 -0.47807262387E+02  0.48617709270E+03  0.48872622539E+03  0.00000000000E+00 0. -1.
         21    1    1    2  506  504  0.68142309962E+02  0.66195738951E+02  0.18366850740E+03  0.20678339119E+03  0.00000000000E+00 0. -1.
<scales pt_clust_3="14000.00000" pt_clust_4="88.34223" pt_clust_5="49.85136" pt_clust_6="85.86896"></scales>
<clustering>
<clus scale="   49.851">  1  5  2 -1</clus>
<clus scale="   85.869">  1  6  2 -1</clus>
<clus scale="   88.342">  2  4  1 -1</clus>
<clus scale="   49.851">  1  3  2 -1</clus>
</clustering>
</event>
<event>
 6    0  0.4227619E+002  0.7646655E+02  0.7546771E-02  0.1339389E+00
         21   -1    0    0  502  501  0.00000000000E+00  0.00000000000E+00  0.16890310854E+04  0.16890310854E+04  0.00000000000E+00 0.  1.
         21   -1    0    0  506  502 -0.00000000000E+00 -0.00000000000E+00 -0.17443499883E+03  0.17443499883E+03  0.00000000000E+00 0.  1.
         21    1    1    2  503  501  0.69266511879E+02 -0.12734020351E+01  0.64833171621E+03  0.65202261116E+03  0.00000000000E+00 0.  1.
         21    1    1    2  504  505  0.46321425581E+02  0.42234423835E+02  0.25726762693E+03  0.26479435963E+03  0.00000000000E+00 0.  1.
         21    1    1    2  505  503 -0.85492088360E+02 -0.13544188449E+02  0.77291708778E+03  0.77774878128E+03  0.00000000000E+00 0.  1.
         21    1    1    2  506  504 -0.30095849101E+02 -0.27416833352E+02 -0.16392034439E+03  0.16890033211E+03  0.00000000000E+00 0.  1.
<scales pt_clust_3="76.46655" pt_clust_4="43.59232" pt_clust_5="14000.00000" pt_clust_6="40.71170"></scales>
<clustering>
<clus scale="   40.712">  2  6  1 -1</clus>
<clus scale="   43.592">  2  4  1 -1</clus>
<clus scale="   76.467">  1  3  2 -1</clus>
<clus scale="   76.467">  1  3  2 -1</clus>
</clustering>
</event>
<event>
 6    0  0.4227619E+002  0.8824249E+02  0.7546771E-02  0.1307164E+00
         21   -1    0    0  503  501  0.00000000000E+00  0.00000000000E+00  0.50538941507E+03  0.50538941507E+03  0.00000000000E+00 0.  1.
         21   -1    0    0  505  502 -0.00000000000E+00 -0.00000000000E+00 -0.17853092005E+03  0.17853092005E+03  0.00000000000E+00 0.  1.
         21    1    1    2  503  506  0.82451472833E+01 -0.29074428811E+02  0.51870100156E+02  0.60031759549E+02  0.00000000000E+00 0.  1.
         21    1    1    2  504  501  0.39656858428E+02  0.31453634343E+02  0.39921818841E+03  0.40241416413E+03  0.00000000000E+00 0.  1.
         21    1    1    2  505  504  0.65902560664E+02  0.41596965166E+01 -0.25897467443E+02  0.70930454652E+02  0.00000000000E+00 0.  1.
         21    1    1    2  506  502 -0.11380456637E+03 -0.65389020491E+01 -0.98332326101E+02  0.15054395678E+03  0.00000000000E+00 0.  1.
<scales pt_clust_3="30.22093" pt_clust_4="47.33352" pt_clust_5="14000.00000" pt_clust_6="88.24249"></scales>
<clustering>
<clus scale="   30.221">  1  3  2 -1</clus>
<clus scale="   47.334">  1  4  2 -1</clus>
<clus scale="   88.242">  1  6  2 -1</clus>
<clus scale="   30.221">  1  3  2 -1</clus>
</clustering>
</event>
<event>
 6    0  0.4227619E+002  0.7652069E+02  0.7546771E-02  0.1339226E+00
         21   -1    0    0  506  501  0.00000000000E+00  0.00000000000E+00  0.82193159079E+03  0.82193159079E+03  0.00000000000E+00 0. -1.
         21   -1    0    0  504  502 -0.00000000000E+00 -0.00000000000E+00 -0.16159903945E+03  0.16159903945E+03  0.00000000000E+00 0.  1.
         21    1    1    2  503  502  0.15211374979E+02 -0.28661725130E+02 -0.59767740784E+02  0.68007817599E+02  0.00000000000E+00 0.  1.
         21    1    1    2  504  501  0.25631822400E+02 -0.87072291204E+02 -0.19861064534E+02  0.92914132937E+02  0.00000000000E+00 0.  1.
         21    1    1    2  505  503  0.43573290116E+01  0.73851971815E+02 -0.58914947206E+01  0.74214619632E+02  0.00000000000E+00 0. -1.
         21    1    1    2  506  505 -0.45200526390E+02  0.41882044519E+02  0.74585285138E+03  0.74839406007E+03  0.00000000000E+00 0. -1.
<scales pt_clust_3="32.44812" pt_clust_4="14000.00000" pt_clust_5="76.52069" pt_clust_6="61.22312"></scales>
<clustering>
<clus scale="   32.448">  2  3  1 -1</clus>
<clus scale="   61.223">  1  6  2 -1</clus>
<clus scale="   76.521">  2  5  1 -1</clus>
<clus scale="   61.223">  1  3  2 -1</clus>
</clustering>
</event>
<event>
 6    0  0.4227619E+002  0.8941666E+02  0.7546771E-02  0.1304271E+00
         21   -1    0    0  506  501  0.00000000000E+00  0.00000000000E+00  0.86441163071E+02  0.86441163071E+02  0.00000000000E+00 0. -1.
         21   -1    0    0  504  502 -0.00000000000E+00 -0.00000000000E+00 -0.76852483073E+03  0.76852483073E+03  0.00000000000E+00 0. -1.
         21    1    1    2  503  505 -0.26278907306E+02  0.96658302099E+02 -0.42198103121E+03  0.43370658173E+03  0.00000000000E+00 0. -1.
         21    1    1    2  504  503  0.52593640453E+02  0.22745942349E+02 -0.18921613966E+03  0.19770234297E+03  0.00000000000E+00 0. -1.
         21    1    1    2  505  501 -0.38967116561E+01 -0.88933225920E+02  0.46354198551E+02  0.10036440982E+03  0.00000000000E+00 0. -1.
         21    1    1    2  506  502 -0.22418021490E+02 -0.30471018528E+02 -0.11724069535E+03  0.12319265929E+03  0.00000000000E+00 0. -1.
<scales pt_clust_3="14000.00000" pt_clust_4="47.89137" pt_clust_5="89.41666" pt_clust_6="37.82923"></scales>
<clustering>
<clus scale="   37.829">  2  6  1 -1</clus>
<clus scale="   47.891">  2  4  1 -1</clus>
<clus scale="   89.417">  1  5  2 -1</clus>
<clus scale="   89.417">  1  3  2 -1</clus>
</clustering>
</event>
<event>
 6    0  0.4227619E+002  0.7653186E+02  0.7546771E-02  0.1339192E+00
         21   -1    0    0  503  501  0.00000000000E+00  0.00000000000E+00  0.17372157164E+03  0.17372157164E+03  0.00000000000E+00 0. -1.
         21   -1    0    0  505  502 -0.00000000000E+00 -0.00000000000E+00 -0.17386407241E+03  0.17386407241E+03  0.00000000000E+00 0. -1.
         21    1    1    2  503  504  0.17450913042E+02 -0.56165022084E+02  0.54725216127E+02  0.80336127314E+02  0.00000000000E+00 0. -1.
         21    1    1    2  504  506 -0.80334105560E+01 -0.75716913420E+02 -0.53409091342E+01  0.76328972045E+02  0.00000000000E+00 0. -1.
         21    1    1    2  505  501  0.36867978131E+02  0.62889938385E+02  0.27221451507E+02  0.77816448028E+02  0.00000000000E+00 0. -1.
         21    1    1    2  506  502 -0.46285480617E+02  0.68991997120E+02 -0.76748259266E+02  0.11310409667E+03  0.00000000000E+00 0. -1.
<scales pt_clust_3="58.81364" pt_clust_4="14000.00000" pt_clust_5="57.47180" pt_clust_6="76.53186"></scales>
<clustering>
<clus scale="   58.814">  1  3  2 -1</clus>
<clus scale="   57.472">  1  5  2 -1</clus>
<clus scale="   76.532">  2  6  1 -1</clus>
<clus scale="   58.814">  1  3  2 -1</clus>
</clustering>
</event>
<event>
 6    0  0.4227619E+002  0.8119528E+02  0.7546771E-02  0.1325693E+00
         21   -1    0    0  506  501  0.00000000000E+00  0.00000000000E+00  0.19060909699E+04  0.19060909699E+04  0.00000000000E+00 0. -1.
         21   -1    0    0  503  502 -0.00000000000E+00 -0.00000000000E+00 -0.18405143152E+03  0.18405143152E+03  0.00000000000E+00 0. -1.
         21    1    1    2  503  505  0.32642129638E+02  0.98922508963E+01 -0.14390191613E+03  0.14788889992E+03  0.00000000000E+00 0. -1.
         21    1    1    2  504  501 -0.32080692562E+02 -0.74111127902E+02  0.17285643432E+04  0.17304497446E+04  0.00000000000E+00 0. -1.
         21    1    1    2  505  504 -0.37819031267E+02 -0.24496670843E+02  0.97951007952E+02  0.10781820796E+03  0.00000000000E+00 0.  1.
         21    1    1    2  506  502  0.37257594191E+02  0.88715547849E+02  0.39426103347E+02  0.10398554890E+03  0.00000000000E+00 0. -1.
<scales pt_clust_3="34.10814" pt_clust_4="81.19528" pt_clust_5="40.84003" pt_clust_6="14000.00000"></scales>
<clustering>
<clus scale="   34.108">  2  3  1 -1</clus>
<clus scale="   40.840">  2  5  1 -1</clus>
<clus scale="   81.195">  1  4  2 -1</clus>
<clus scale="   81.195">  1  3  2 -1</clus>
</clustering>
</event>
<event>
 6    0  0.4227619E+002  0.1331411E+03  0.7546771E-02  0.1222868E+00
         21   -1    0    0  506  501  0.00000000000E+00  0.00000000000E+00  0.10702399290E+04  0.10702399290E+04  0.00000000000E+00 0.  1.
         21   -1    0    0  504  502 -0.00000000000E+00 -0.00000000000E+00 -0.28482594979E+04  0.28482594979E+04  0.00000000000E+00 0.  1.
         21    1    1    2  503  505  0.65975293996E+02  0.73112467079E+02 -0.64547205553E+03  0.65294130420E+03  0.00000000000E+00 0.  1.
         21    1    1    2  504  503 -0.41645051144E+02 -0.16590811254E+03 -0.21848244048E+04  0.21915103221E+04  0.00000000000E+00 0.  1.
         21    1    1    2  505  501 -0.45657032025E+02  0.73753972983E+01  0.87393284424E+03  0.87515574460E+03  0.00000000000E+00 0.  1.
         21    1    1    2  506  502  0.21326789173E+02  0.85420248164E+02  0.17834404727E+03  0.19889205597E+03  0.00000000000E+00 0.  1.
<scales pt_clust_3="14000.00000" pt_clust_4="133.14109" pt_clust_5="46.24890" pt_clust_6="95.26770"></scales>
<clustering>
<clus scale="   46.249">  1  5  2 -1</clus>
<clus scale="   95.268">  1  6  2 -1</clus>
<clus scale="  133.141">  2  4  1 -1</clus>
<clus scale="   46.249">  1  3  2 -1</clus>
</clustering>
</event>
<event>
 6    0  0.4227619E+002  0.9996877E+02  0.7546771E-02  0.1280362E+00
         21   -1    0    0  506  501  0.00000000000E+00  0.00000000000E+00  0.19298717522E+04  0.19298717522E+04  0.00000000000E+00 0. -1.
         21   -1    0    0  504  502 -0.00000000000E+00 -0.00000000000E+00 -0.49785345142E+03  0.49785345142E+03  0.00000000000E+00 0.  1.
         21    1    1    2  503  501 -0.72170324552E+01  0.31181978161E+02  0.74364911584E+02  0.80960122248E+02  0.00000000000E+00 0. -1.
         21    1    1    2  504  503 -0.99870565682E+02 -0.64575309455E+01 -0.42565225681E+03  0.43725927472E+03  0.00000000000E+00 0.  1.
         21    1    1    2  505  502  0.10086965567E+03 -0.57162828446E+02 -0.95615221072E+01  0.11633442782E+03  0.00000000000E+00 0. -1.
         21    1    1    2  506  505  0.62179424663E+01  0.32438381230E+02  0.17928671681E+04  0.17931713789E+04  0.00000000000E+00 0. -1.
<scales pt_clust_3="32.00627" pt_clust_4="14000.00000" pt_clust_5="99.96877" pt_clust_6="62.62861"></scales>
<clustering>
<clus scale="   32.006">  1  3  2 -1</clus>
<clus scale="   62.629">  1  6  2 -1</clus>
<clus scale="   99.969">  1  5  2 -1</clus>
<clus scale="   32.006">  1  3  2 -1</clus>
</clustering>
</event>
<event>
 6    0  0.4227619E+002  0.1002501E+03  0.7546771E-02  0.1279771E+00
         21   -1    0    0  503  501  0.00000000000E+00  0.00000000000E+00  0.26758800414E+04  0.26758800414E+04  0.00000000000E+00 0. -1.
         21   -1    0    0  504  502 -0.00000000000E+00 -0.00000000000E+00 -0.59963938575E+03  0.59963938575E+03  0.00000000000E+00 0.  1.
         21    1    1    2  503  505 -0.82710870432E+01 -0.35656956849E+02  0.25468888661E+04  0.25471518851E+04  0.00000000000E+00 0. -1.
         21    1    1    2  504  506  0.70879242687E+02  0.40071372476E+02 -0.37667821806E+03  0.38537781708E+03  0.00000000000E+00 0.  1.
         21    1    1    2  505  502  0.95351218786E+02 -0.21195968451E+01  0.67692867656E+02  0.11695585469E+03  0.00000000000E+00 0.  1.
         21    1    1    2  506  501 -0.15795937443E+03 -0.22948187818E+01 -0.16166286009E+03  0.22603387024E+03  0.00000000000E+00 0.  1.
<scales pt_clust_3="36.60368" pt_clust_4="80.59198" pt_clust_5="100.25009" pt_clust_6="14000.00000"></scales>
<clustering>
<clus scale="   36.604">  1  3  2 -1</clus>
<clus scale="   80.592">  2  4  1 -1</clus>
<clus scale="  100.250">  1  5  2 -1</clus>
<clus scale="   36.604">  1  3  2 -1</clus>
</clustering>
</event>
<event>
 6    0  0.4227619E+002  0.1185742E+03  0.7546771E-02  0.1245468E+00
         21   -1    0    0  506  501  0.00000000000E+00  0.00000000000E+00  0.46182588865E+03  0.46182588865E+03  0.00000000000E+00 0.  1.
         21   -1    0    0  504  502 -0.00000000000E+00 -0.00000000000E+00 -0.20757586363E+04  0.20757586363E+04  0.00000000000E+00 0. -1.
         21    1    1    2  503  505  0.12145177810E+03  0.43449849539E+02 -0.22548594020E+03  0.25977361887E+03  0.00000000000E+00 0. -1.
         21    1    1    2  504  501 -0.16780089379E+03 -0.44542954437E+02 -0.12948405035E+04  0.13064276269E+04  0.00000000000E+00 0. -1.
         21    1    1    2  505  502  0.64208665461E+02  0.76549346311E+02 -0.52431531060E+03  0.53375003519E+03  0.00000000000E+00 0. -1.
         21    1    1    2  506  503 -0.17859549771E+02 -0.75456241413E+02  0.43070900664E+03  0.43763324404E+03  0.00000000000E+00 0.  1.
<scales pt_clust_3="118.57418" pt_clust_4="14000.00000" pt_clust_5="88.29325" pt_clust_6="77.54101"></scales>
<clustering>
<clus scale="   77.541">  1  6  2 -1</clus>
<clus scale="   88.293">  2  5  1 -1</clus>
<clus scale="  118.574">  1  3  2 -1</clus>
<clus scale="   77.541">  1  3  2 -1</clus>
</clustering>
</event>
<event>
 6    0  0.4227619E+002  0.1542986E+03  0.7546771E-02  0.1195288E+00
         21   -1    0    0  506  501  0.00000000000E+00  0.00000000000E+00  0.11401333599E+03  0.11401333599E+03  0.00000000000E+00 0.  1.
         21   -1    0    0  505  502 -0.00000000000E+00 -0.00000000000E+00 -0.71836616511E+03  0.71836616511E+03  0.00000000000E+00 0.  1.
         21    1    1    2  503  504  0.19531573841E+03 -0.75483626228E+01 -0.19545571086E+03  0.27642024230E+03  0.00000000000E+00 0.  1.
         21    1    1    2  504  502 -0.39977342964E+02  0.17218828228E+02 -0.35762563319E+03  0.36026486022E+03  0.00000000000E+00 0.  1.
         21    1    1    2  505  501 -0.32939897030E+02  0.36698310078E+00  0.33097333128E+02  0.46696948007E+02  0.00000000000E+00 0.  1.
         21    1    1    2  506  503 -0.12239849841E+03 -0.10037448706E+02 -0.84368818199E+02  0.14899745056E+03  0.00000000000E+00 0.  1.
<scales pt_clust_3="14000.00000" pt_clust_4="44.06968" pt_clust_5="32.94194" pt_clust_6="154.29857"></scales>
<clustering>
<clus scale="   32.942">  1  5  2 -1</clus>
<clus scale="   44.070">  2  4  1 -1</clus>
<clus scale="  154.299">  1  6  2 -1</clus>
<clus scale="   32.942">  1  3  2 -1</clus>
</clustering>
</event>
<event>
 6    0  0.4227619E+002  0.1357451E+03  0.7546771E-02  0.1219172E+00
         21   -1    0    0  503  501  0.00000000000E+00  0.00000000000E+00  0.81820151319E+02  0.81820151319E+02  0.00000000000E+00 0.  1.
         21   -1    0    0  505  502 -0.00000000000E+00 -0.00000000000E+00 -0.10137309609E+04  0.10137309609E+04  0.00000000000E+00 0. -1.
         21    1    1    2  503  502  0.20857113328E+02  0.13071511708E+03 -0.15332149731E+02  0.13325365220E+03  0.00000000000E+00 0.  1.
         21    1    1    2  504  501 -0.31471092142E+02 -0.64766862066E+01  0.34826248988E+01  0.32318814660E+02  0.00000000000E+00 0.  1.
         21    1    1    2  505  506  0.17383591660E+02 -0.29584037599E+02 -0.38857044350E+03  0.39008254780E+03  0.00000000000E+00 0. -1.
         21    1    1    2  506  504 -0.67696128452E+01 -0.94654393271E+02 -0.53149084120E+03  0.53989609751E+03  0.00000000000E+00 0. -1.
<scales pt_clust_3="125.00830" pt_clust_4="32.13063" pt_clust_5="31.81709" pt_clust_6="31.81709"></scales>
<clustering>
<clus scale="   31.817">  5  6 -1 -1</clus>
<clus scale="   32.131">  1  4  2 -1</clus>
<clus scale="  125.008">  1  3  2 -1</clus>
<clus scale="   32.131">  1  3  2 -1</clus>
</clustering>
</event>
<event>
 6    0  0.4227619E+002  0.9958230E+02  0.7546771E-02  0.1281177E+00
         21   -1    0    0  505  501  0.00000000000E+00  0.00000000000E+00  0.65245838983E+02  0.65245838983E+02  0.00000000000E+00 0. -1.
         21   -1    0    0  504  502 -0.00000000000E+00 -0.00000000000E+00 -0.77326463316E+03  0.77326463316E+03  0.00000000000E+00 0.  1.
         21    1    1    2  503  502  0.44487783958E+02  0.44171038033E+02 -0.77072121830E+02  0.99349662736E+02  0.00000000000E+00 0.  1.
         21    1    1    2  504  506 -0.28203885150E+02 -0.16576528136E+02 -0.19768935734E+03  0.20037794896E+03  0.00000000000E+00 0.  1.
         21    1    1    2  505  503 -0.32262570291E+02  0.91777403463E+02 -0.89266396843E+01  0.97691607236E+02  0.00000000000E+00 0. -1.
         21    1    1    2  506  501  0.15978671483E+02 -0.11937191336E+03 -0.42433067532E+03  0.44109125321E+03  0.00000000000E+00 0.  1.
<scales pt_clust_3="57.83642" pt_clust_4="32.71453" pt_clust_5="14000.00000" pt_clust_6="99.58230"></scales>
<clustering>
<clus scale="   32.715">  2  4  1 -1</clus>
<clus scale="   57.836">  2  3  1 -1</clus>
<clus scale="   99.582">  2  6  1 -1</clus>
<clus scale="   99.582">  1  3  2 -1</clus>
</clustering>
</event>
<event>
 6    0  0.4227619E+002  0.1219928E+03  0.7546771E-02  0.1239845E+00
         21   -1    0    0  503  501  0.00000000000E+00  0.00000000000E+00  0.11356822860E+04  0.11356822860E+04  0.00000000000E+00 0.  1.
         21   -1    0    0  505  502 -0.00000000000E+00 -0.00000000000E+00 -0.79546944962E+02  0.79546944962E+02  0.00000000000E+00 0.  1.
         21    1    1    2  503  506  0.64813589240E+02  0.35670693133E+02  0.44162215235E+03  0.44777597652E+03  0.00000000000E+00 0.  1.
         21    1    1    2  504  502 -0.70590828999E+02 -0.99738632338E+02  0.62208334211E+02  0.13711577869E+03  0.00000000000E+00 0.  1.
         21    1    1    2  505  501 -0.28001338905E+02  0.49414215967E+02 -0.17432527408E+02  0.59411553859E+02  0.00000000000E+00 0.  1.
         21    1    1    2  506  504  0.33778578664E+02  0.14653723237E+02  0.56973738189E+03  0.57092592191E+03  0.00000000000E+00 0.  1.
<scales pt_clust_3="36.33366" pt_clust_4="110.58822" pt_clust_5="56.79648" pt_clust_6="36.33366"></scales>
<clustering>
<clus scale="   36.334">  3  6 -1 -1</clus>
<clus scale="   56.796">  2  5  1 -1</clus>
<clus scale="  110.588">  2  4  1 -1</clus>
<clus scale="  121.993">  1  3  2 -1</clus>
</clustering>
</event>
<event>
 6    0  0.4227619E+002  0.1124130E+03  0.7546771E-02  0.1256165E+00
         21   -1    0    0  505  501  0.00000000000E+00  0.00000000000E+00  0.35390201494E+03  0.35390201494E+03  0.00000000000E+00 0.  1.
         21   -1    0    0  503  502 -0.00000000000E+00 -0.00000000000E+00 -0.11584093912E+04  0.11584093912E+04  0.00000000000E+00 0. -1.
         21    1    1    2  503  504  0.62717856652E+02  0.13875563941E+02 -0.73763123725E+02  0.97811345147E+02  0.00000000000E+00 0. -1.
         21    1    1    2  504  506 -0.17502390326E+01  0.44799603772E+02  0.85220932445E+02  0.96294730706E+02  0.00000000000E+00 0. -1.
         21    1    1    2  505  502 -0.94724925967E+02 -0.10964890977E+03 -0.10583529378E+04  0.10682259293E+04  0.00000000000E+00 0. -1.
         21    1    1    2  506  501  0.33757308347E+02  0.50973742056E+02  0.24238775279E+03  0.24997940105E+03  0.00000000000E+00 0.  1.
<scales pt_clust_3="64.23442" pt_clust_4="41.78851" pt_clust_5="101.26873" pt_clust_6="41.78851"></scales>
<clustering>
<clus scale="   41.789">  4  6 -1 -1</clus>
<clus scale="   64.234">  2  3  1 -1</clus>
<clus scale="  101.269">  2  5  1 -1</clus>
<clus scale="  112.413">  1  3  2 -1</clus>
</clustering>
</event>
<event>
 6    0  0.4227619E+002  0.1046041E+03  0.7546771E-02  0.1270902E+00
         21   -1    0    0  505  501  0.00000000000E+00  0.00000000000E+00  0.87352654734E+03  0.87352654734E+03  0.00000000000E+00 0. -1.
         21   -1    0    0  506  502 -0.00000000000E+00 -0.00000000000E+00 -0.55069001104E+03  0.55069001104E+03  0.00000000000E+00 0.  1.
         21    1    1    2  503  501  0.10648139041E+03  0.73933816243E+02  0.62081766470E+03  0.63420743333E+03  0.00000000000E+00 0. -1.
         21    1    1    2  504  502 -0.43067517280E+02 -0.11541048233E+02 -0.72172993010E+02  0.84834826333E+02  0.00000000000E+00 0.  1.
         21    1    1    2  505  504 -0.35155459863E+02  0.28362875576E+01  0.23564901277E+03  0.23827380910E+03  0.00000000000E+00 0. -1.
         21    1    1    2  506  503 -0.28258413269E+02 -0.65229055567E+02 -0.46145714816E+03  0.46690048961E+03  0.00000000000E+00 0.  1.
<scales pt_clust_3="104.60406" pt_clust_4="44.91764" pt_clust_5="35.26969" pt_clust_6="14000.00000"></scales>
<clustering>
<clus scale="   35.270">  1  5  2 -1</clus>
<clus scale="   44.918">  2  4  1 -1</clus>
<clus scale="  104.604">  1  3  2 -1</clus>
<clus scale="   35.270">  1  3  2 -1</clus>
</clustering>
</event>
<event>
 6    0  0.4227619E+002  0.1108657E+03  0.7546771E-02  0.1258975E+00
         21   -1    0    0  505  501  0.00000000000E+00  0.00000000000E+00  0.23298238877E+04  0.23298238877E+04  0.00000000000E+00 0. -1.
         21   -1    0    0  504  502 -0.00000000000E+00 -0.00000000000E+00 -0.48389171065E+02  0.48389171065E+02  0.00000000000E+00 0.  1.
         21    1    1    2  503  501 -0.84039239630E+01 -0.56374414470E+02  0.15789002105E+04  0.15799286615E+04  0.00000000000E+00 0. -1.
         21    1    1    2  504  506  0.43362436481E+02 -0.58367327446E+02  0.29894790821E+02  0.78617710021E+02  0.00000000000E+00 0.  1.
         21    1    1    2  505  502 -0.13158540282E+03  0.57770380781E+02  0.37619731993E+03  0.40271150797E+03  0.00000000000E+00 0.  1.
         21    1    1    2  506  503  0.96626890301E+02  0.56971361135E+02  0.29644239534E+03  0.31695517928E+03  0.00000000000E+00 0.  1.
<scales pt_clust_3="56.99737" pt_clust_4="75.67789" pt_clust_5="14000.00000" pt_clust_6="110.86573"></scales>
<clustering>
<clus scale="   56.997">  1  3  2 -1</clus>
<clus scale="   75.678">  2  4  1 -1</clus>
<clus scale="  110.866">  1  6  2 -1</clus>
<clus scale="   56.997">  1  3  2 -1</clus>
</clustering>
</event>
<event>
 6    0  0.4227619E+002  0.2243860E+03  0.7546771E-02  0.1130655E+00
         21   -1    0    0  504  501  0.00000000000E+00  0.00000000000E+00  0.14099011795E+04  0.14099011795E+04  0.00000000000E+00 0.  1.
         21   -1    0    0  506  502 -0.00000000000E+00 -0.00000000000E+00 -0.14318289099E+03  0.14318289099E+03  0.00000000000E+00 0. -1.
         21    1    1    2  503  501  0.12913083546E+03 -0.47810276618E+02  0.76621916767E+03  0.77849367892E+03  0.00000000000E+00 0.  1.
         21    1    1    2  504  502 -0.24089347813E+02  0.19995102704E+02 -0.44274319825E+02  0.54224682629E+02  0.00000000000E+00 0. -1.
         21    1    1    2  505  503  0.88655917784E+02  0.11795353186E+02  0.51623235070E+03  0.52392255346E+03  0.00000000000E+00 0.  1.
         21    1    1    2  506  505 -0.19369740543E+03  0.16019820728E+02  0.28541089977E+02  0.19644315550E+03  0.00000000000E+00 0. -1.
<scales pt_clust_3="43.33053" pt_clust_4="31.30656" pt_clust_5="43.33053" pt_clust_6="217.87862"></scales>
<clustering>
<clus scale="   31.307">  2  4  1 -1</clus>
<clus scale="   43.331">  3  5 -1 -1</clus>
<clus scale="  217.879">  2  6  1 -1</clus>
<clus scale="  224.386">  1  3  2 -1</clus>
</clustering>
</event>
<event>
 6    0  0.4227619E+002  0.2296827E+03  0.7546771E-02  0.1126863E+00
         21   -1    0    0  506  501  0.00000000000E+00  0.00000000000E+00  0.75023549218E+03  0.75023549218E+03  0.00000000000E+00 0. -1.
         21   -1    0    0  503  502 -0.00000000000E+00 -0.00000000000E+00 -0.25469403986E+03  0.25469403986E+03  0.00000000000E+00 0. -1.
         21    1    1    2  503  501  0.12027686466E+03  0.18559669508E+03 -0.45442114430E+02  0.22578229151E+03  0.00000000000E+00 0. -1.
         21    1    1    2  504  502  0.36589184647E+02 -0.48886453814E+01 -0.84624651029E+02  0.92325504865E+02  0.00000000000E+00 0. -1.
         21    1    1    2  505  504 -0.11974599975E+03 -0.17588053974E+03  0.35685284089E+03  0.41547204331E+03  0.00000000000E+00 0. -1.
         21    1    1    2  506  505 -0.37120049555E+02 -0.48275099491E+01  0.26875537690E+03  0.27134969236E+03  0.00000000000E+00 0. -1.
<scales pt_clust_3="14000.00000" pt_clust_4="36.91432" pt_clust_5="229.68271" pt_clust_6="37.15449"></scales>
<clustering>
<clus scale="   36.914">  2  4  1 -1</clus>
<clus scale="   37.154">  1  6  2 -1</clus>
<clus scale="  229.683">  1  5  2 -1</clus>
<clus scale="   37.154">  1  3  2 -1</clus>
</clustering>
</event>
<event>
 6    0  0.4227619E+002  0.1199579E+03  0.7546771E-02  0.1243166E+00
         21   -1    0    0  503  501  0.00000000000E+00  0.00000000000E+00  0.38669048787E+03  0.38669048787E+03  0.00000000000E+00 0. -1.
         21   -1    0    0  504  502 -0.00000000000E+00 -0.00000000000E+00 -0.52094621628E+03  0.52094621628E+03  0.00000000000E+00 0. -1.
         21    1    1    2  503  502 -0.28844251384E+01 -0.37597661958E+02 -0.33190995001E+03  0.33404508529E+03  0.00000000000E+00 0. -1.
         21    1    1    2  504  506 -0.58793697820E+02  0.22692443726E+02 -0.13659267570E+03  0.15043006667E+03  0.00000000000E+00 0. -1.
         21    1    1    2  505  501 -0.60378487630E+02  0.92837700531E+02  0.18196943236E+03  0.21301942335E+03  0.00000000000E+00 0. -1.
         21    1    1    2  506  505  0.12205661059E+03 -0.77932482299E+02  0.15227746493E+03  0.21014212883E+03  0.00000000000E+00 0. -1.
<scales pt_clust_3="37.70814" pt_clust_4="61.29156" pt_clust_5="119.95792" pt_clust_6="14000.00000"></scales>
<clustering>
<clus scale="   37.708">  2  3  1 -1</clus>
<clus scale="   61.292">  2  4  1 -1</clus>
<clus scale="  119.958">  1  5  2 -1</clus>
<clus scale="  119.958">  1  3  2 -1</clus>
</clustering>
</event>
<event>
 6    0  0.4227619E+002  0.8605576E+02  0.7546771E-02  0.1312694E+00
         21   -1    0    0  505  501  0.00000000000E+00  0.00000000000E+00  0.63621252965E+03  0.63621252965E+03  0.00000000000E+00 0.  1.
         21   -1    0    0  504  502 -0.00000000000E+00 -0.00000000000E+00 -0.77205802190E+03  0.77205802190E+03  0.00000000000E+00 0.  1.
         21    1    1    2  503  501  0.38196015232E+02 -0.63268410605E+01  0.31062411135E+02  0.49637061586E+02  0.00000000000E+00 0.  1.
         21    1    1    2  504  506 -0.35169544298E+02 -0.19521933042E+02 -0.55703531632E+03  0.55848576198E+03  0.00000000000E+00 0.  1.
         21    1    1    2  505  502 -0.67271730048E+02  0.87325032578E+02  0.58005454215E+03  0.59043578724E+03  0.00000000000E+00 0.  1.
         21    1    1    2  506  503  0.64245259114E+02 -0.61476258476E+02 -0.18992712923E+03  0.20971194075E+03  0.00000000000E+00 0.  1.
<scales pt_clust_3="38.71646" pt_clust_4="40.18751" pt_clust_5="14000.00000" pt_clust_6="86.05576"></scales>
<clustering>
<clus scale="   38.716">  1  3  2 -1</clus>
<clus scale="   40.188">  2  4  1 -1</clus>
<clus scale="   86.056">  2  6  1 -1</clus>
<clus scale="   38.716">  1  3  2 -1</clus>
</clustering>
</event>
<event>
 6    0  0.4227619E+002  0.7488943E+02  0.7546771E-02  0.1344214E+00
         21   -1    0    0  504  501  0.00000000000E+00  0.00000000000E+00  0.17429638943E+03  0.17429638943E+03  0.00000000000E+00 0.  1.
         21   -1    0    0  505  502 -0.00000000000E+00 -0.00000000000E+00 -0.23056294038E+03  0.23056294038E+03  0.00000000000E+00 0.  1.
         21    1    1    2  503  506  0.50845916724E+02 -0.37290146481E+02  0.34680592097E+02  0.71962530114E+02  0.00000000000E+00 0.  1.
         21    1    1    2  504  502 -0.92239728877E+02 -0.42224694036E+02 -0.62033032221E+02  0.11890832375E+03  0.00000000000E+00 0.  1.
         21    1    1    2  505  503  0.64238683699E+01  0.64895520926E+02 -0.10807258840E+03  0.12622352825E+03  0.00000000000E+00 0.  1.
         21    1    1    2  506  501  0.34969943783E+02  0.14619319592E+02  0.79158477575E+02  0.87764947704E+02  0.00000000000E+00 0.  1.
<scales pt_clust_3="14000.00000" pt_clust_4="74.88943" pt_clust_5="67.09324" pt_clust_6="37.90279"></scales>
<clustering>
<clus scale="   37.903">  1  6  2 -1</clus>
<clus scale="   67.093">  2  5  1 -1</clus>
<clus scale="   74.889">  2  4  1 -1</clus>
<clus scale="   37.903">  1  3  2 -1</clus>
</clustering>
</event>
<event>
 6    0  0.4227619E+002  0.9007090E+02  0.7546771E-02  0.1302680E+00
         21   -1    0    0  506  501  0.00000000000E+00  0.00000000000E+00  0.14079043206E+04  0.14079043206E+04  0.00000000000E+00 0.  1.
         21   -1    0    0  505  502 -0.00000000000E+00 -0.00000000000E+00 -0.39322485343E+03  0.39322485343E+03  0.00000000000E+00 0.  1.
         21    1    1    2  503  501 -0.30378698127E+02 -0.26063917229E+02  0.14117605671E+03  0.14674083300E+03  0.00000000000E+00 0.  1.
         21    1    1    2  504  502  0.95915914790E+02 -0.57594406610E+02 -0.21707924900E+03  0.24421379718E+03  0.00000000000E+00 0.  1.
         21    1    1    2  505  503 -0.88068154424E+01  0.34961945157E+02 -0.15662848108E+03  0.16072454291E+03  0.00000000000E+00 0.  1.
         21    1    1    2  506  504 -0.56730401220E+02  0.48696378682E+02  0.12472111406E+04  0.12494500010E+04  0.00000000000E+00 0.  1.
<scales pt_clust_3="39.83847" pt_clust_4="14000.00000" pt_clust_5="36.05409" pt_clust_6="90.07090"></scales>
<clustering>
<clus scale="   36.054">  2  5  1 -1</clus>
<clus scale="   39.838">  1  3  2 -1</clus>
<clus scale="   90.071">  1  6  2 -1</clus>
<clus scale="   39.838">  1  3  2 -1</clus>
</clustering>
</event>
<event>
 6    0  0.4227619E+002  0.1022083E+03  0.7546771E-02  0.1275719E+00
         21   -1    0    0  503  501  0.00000000000E+00  0.00000000000E+00  0.23675300948E+04  0.23675300948E+04  0.00000000000E+00 0.  1.
         21   -1    0    0  504  502 -0.00000000000E+00 -0.00000000000E+00 -0.27493128140E+02  0.27493128140E+02  0.00000000000E+00 0. -1.
         21    1    1    2  503  506  0.64755121265E+02 -0.36344575595E+02  0.13208010912E+04  0.13228868721E+04  0.00000000000E+00 0. -1.
         21    1    1    2  504  501 -0.55310305389E+02  0.68644972309E+02  0.13981710397E+03  0.16528818671E+03  0.00000000000E+00 0. -1.
         21    1    1    2  505  502  0.40984894124E+02  0.66040127406E+02  0.14839526477E+03  0.16751780377E+03  0.00000000000E+00 0. -1.
         21    1    1    2  506  505 -0.50429710000E+02 -0.98340524120E+02  0.73102350671E+03  0.73933036033E+03  0.00000000000E+00 0.  1.
<scales pt_clust_3="74.25735" pt_clust_4="78.20326" pt_clust_5="14000.00000" pt_clust_6="102.20834"></scales>
<clustering>
<clus scale="   74.257">  1  3  2 -1</clus>
<clus scale="   78.203">  2  4  1 -1</clus>
<clus scale="  102.208">  1  6  2 -1</clus>
<clus scale="   74.257">  1  3  2 -1</clus>
</clustering>
</event>
<event>
 6    0  0.4227619E+002  0.6623674E+02  0.7546771E-02  0.1373379E+00
         21   -1    0    0  503  501  0.00000000000E+00  0.00000000000E+00  0.21511746900E+04  0.21511746900E+04  0.00000000000E+00 0.  1.
         21   -1    0    0  504  502 -0.00000000000E+00 -0.00000000000E+00 -0.14151524840E+03  0.14151524840E+03  0.00000000000E+00 0.  1.
         21    1    1    2  503  505  0.10867117468E+03  0.37869611939E+02  0.15674286696E+04  0.15716475960E+04  0.00000000000E+00 0.  1.
         21    1    1    2  504  506 -0.59982172584E+02  0.27246819493E+02 -0.12266675772E+03  0.13923858535E+03  0.00000000000E+00 0.  1.
         21    1    1    2  505  502 -0.16089060699E+01 -0.44931678067E+02  0.63551050719E+02  0.77847160000E+02  0.00000000000E+00 0.  1.
         21    1    1    2  506  501 -0.47080096021E+02 -0.20184753366E+02  0.50134647897E+03  0.50395659703E+03  0.00000000000E+00 0.  1.
<scales pt_clust_3="14000.00000" pt_clust_4="66.23674" pt_clust_5="44.96047" pt_clust_6="51.41244"></scales>
<clustering>
<clus scale="   44.960">  2  5  1 -1</clus>
<clus scale="   51.412">  1  6  2 -1</clus>
<clus scale="   66.237">  2  4  1 -1</clus>
<clus scale="   51.412">  1  3  2 -1</clus>
</clustering>
</event>
<event>
 6    0  0.4227619E+002  0.8320118E+02  0.7546771E-02  0.1320205E+00
         21   -1    0    0  505  501  0.00000000000E+00  0.00000000000E+00  0.52398377194E+02  0.52398377194E+02  0.00000000000E+00 0. -1.
         21   -1    0    0  504  502 -0.00000000000E+00 -0.00000000000E+00 -0.56344400231E+03  0.56344400231E+03  0.00000000000E+00 0.  1.
         21    1    1    2  503  502 -0.17548199986E+02 -0.30098376312E+02 -0.18454619556E+03  0.18780614973E+03  0.00000000000E+00 0. -1.
         21    1    1    2  504  501  0.37586320073E+02 -0.92604202024E+02 -0.33998839938E+02  0.10556604950E+03  0.00000000000E+00 0. -1.
         21    1    1    2  505  506 -0.99702301630E+01  0.61380957622E+02 -0.81535561883E+02  0.10254304121E+03  0.00000000000E+00 0.  1.
         21    1    1    2  506  503 -0.10067889924E+02  0.61321620714E+02 -0.21096502773E+03  0.21992713907E+03  0.00000000000E+00 0.  1.
<scales pt_clust_3="34.84037" pt_clust_4="83.20118" pt_clust_5="14000.00000" pt_clust_6="48.49048"></scales>
<clustering>
<clus scale="   34.840">  2  3  1 -1</clus>
<clus scale="   48.490">  2  6  1 -1</clus>
<clus scale="   83.201">  1  4  2 -1</clus>
<clus scale="   83.201">  1  3  2 -1</clus>
</clustering>
</event>
<event>
 6    0  0.4227619E+002  0.1195449E+03  0.7546771E-02  0.1243850E+00
         21   -1    0    0  504  501  0.00000000000E+00  0.00000000000E+00  0.10555304690E+03  0.10555304690E+03  0.00000000000E+00 0. -1.
         21   -1    0    0  506  502 -0.00000000000E+00 -0.00000000000E+00 -0.46134920387E+03  0.46134920387E+03  0.00000000000E+00 0. -1.
         21    1    1    2  503  501  0.11087075254E+02  0.85323500515E+02 -0.53050023056E+02  0.10108079899E+03  0.00000000000E+00 0. -1.
         21    1    1    2  504  505 -0.21732015906E+02 -0.22837524380E+02 -0.17651875395E+02  0.36130620533E+02  0.00000000000E+00 0. -1.
         21    1    1    2  505  502  0.12554432833E+03 -0.77281172768E+02 -0.31304811935E+02  0.15071081345E+03  0.00000000000E+00 0. -1.
         21    1    1    2  506  503 -0.11489938767E+03  0.14795196634E+02 -0.25378944659E+03  0.27898001780E+03  0.00000000000E+00 0. -1.
<scales pt_clust_3="79.83056" pt_clust_4="31.52512" pt_clust_5="14000.00000" pt_clust_6="119.54490"></scales>
<clustering>
<clus scale="   31.525">  1  4  2 -1</clus>
<clus scale="   79.831">  1  3  2 -1</clus>
<clus scale="  119.545">  2  6  1 -1</clus>
<clus scale="   31.525">  1  3  2 -1</clus>
</clustering>
</event>
<event>
 6    0  0.4227619E+002  0.8864287E+02  0.7546771E-02  0.1306172E+00
         21   -1    0    0  505  501  0.00000000000E+00  0.00000000000E+00  0.12734729769E+03  0.12734729769E+03  0.00000000000E+00 0. -1.
         21   -1    0    0  506  502 -0.00000000000E+00 -0.00000000000E+00 -0.35642951020E+03  0.35642951020E+03  0.00000000000E+00 0. -1.
         21    1    1    2  503  501  0.51842975659E+02 -0.14701028167E+01  0.56187486912E+00  0.51866858694E+02  0.00000000000E+00 0. -1.
         21    1    1    2  504  502 -0.71226020749E+02  0.96529090516E+02 -0.43617915767E+02  0.12764612773E+03  0.00000000000E+00 0. -1.
         21    1    1    2  505  504  0.15722842245E+02 -0.61825080205E+02  0.40316498823E+02  0.75465014330E+02  0.00000000000E+00 0. -1.
         21    1    1    2  506  503  0.36602028456E+01 -0.33233907495E+02 -0.22634267043E+03  0.22879880714E+03  0.00000000000E+00 0. -1.
<scales pt_clust_3="53.18986" pt_clust_4="14000.00000" pt_clust_5="88.64287" pt_clust_6="33.43486"></scales>
<clustering>
<clus scale="   33.435">  2  6  1 -1</clus>
<clus scale="   53.190">  1  3  2 -1</clus>
<clus scale="   88.643">  1  5  2 -1</clus>
<clus scale="   53.190">  1  3  2 -1</clus>
</clustering>
</event>
<event>
 6    0  0.4227619E+002  0.1251505E+03  0.7546771E-02  0.1234834E+00
         21   -1    0    0  506  501  0.00000000000E+00  0.00000000000E+00  0.78669893001E+03  0.78669893001E+03  0.00000000000E+00 0.  1.
         21   -1    0    0  505  502 -0.00000000000E+00 -0.00000000000E+00 -0.33052966426E+03  0.33052966426E+03  0.00000000000E+00 0. -1.
         21    1    1    2  503  501 -0.18344759800E+02 -0.32787928828E+02  0.55083708179E+03  0.55211689809E+03  0.00000000000E+00 0.  1.
         21    1    1    2  504  503 -0.57641615821E+02 -0.16120414427E+02 -0.98319081774E+02  0.11510458495E+03  0.00000000000E+00 0. -1.
         21    1    1    2  505  504 -0.51964026569E+02 -0.24169377555E+02 -0.19467438742E+03  0.20293480723E+03  0.00000000000E+00 0. -1.
         21    1    1    2  506  502  0.12795040219E+03  0.73077720810E+02  0.19832565317E+03  0.24707230400E+03  0.00000000000E+00 0.  1.
<scales pt_clust_3="37.57098" pt_clust_4="39.82528" pt_clust_5="39.82528" pt_clust_6="118.30223"></scales>
<clustering>
<clus scale="   37.571">  1  3  2 -1</clus>
<clus scale="   39.825">  4  5 -1 -1</clus>
<clus scale="  118.302">  1  6  2 -1</clus>
<clus scale="   37.571">  1  3  2 -1</clus>
</clustering>
</event>
<event>
 6    0  0.4227619E+002  0.1041720E+03  0.7546771E-02  0.1271760E+00
         21   -1    0    0  503  501  0.00000000000E+00  0.00000000000E+00  0.62284847040E+03  0.62284847040E+03  0.00000000000E+00 0. -1.
         21   -1    0    0  505  502 -0.00000000000E+00 -0.00000000000E+00 -0.51162589601E+02  0.51162589601E+02  0.00000000000E+00 0. -1.
         21    1    1    2  503  504 -0.11044913457E+02 -0.93852597185E+02  0.19231589742E+03  0.21427950092E+03  0.00000000000E+00 0. -1.
         21    1    1    2  504  502  0.12836670701E+02 -0.46971429532E+02  0.25233162993E+02  0.54843484769E+02  0.00000000000E+00 0. -1.
         21    1    1    2  505  506  0.58812768696E+02  0.27006918591E+02  0.88827604147E+02  0.10990295115E+03  0.00000000000E+00 0.  1.
         21    1    1    2  506  501 -0.60604525940E+02  0.11381710813E+03  0.26530921624E+03  0.29498512316E+03  0.00000000000E+00 0. -1.
<scales pt_clust_3="104.17197" pt_clust_4="48.69389" pt_clust_5="63.95141" pt_clust_6="14000.00000"></scales>
<clustering>
<clus scale="   48.694">  2  4  1 -1</clus>
<clus scale="   63.951">  2  5  1 -1</clus>
<clus scale="  104.172">  1  3  2 -1</clus>
<clus scale="  104.172">  1  3  2 -1</clus>
</clustering>
</event>
<event>
 6    0  0.4227619E+002  0.7069839E+02  0.7546771E-02  0.1357734E+00
         21   -1    0    0  505  501  0.00000000000E+00  0.00000000000E+00  0.10658240018E+04  0.10658240018E+04  0.00000000000E+00 0. -1.
         21   -1    0    0  506  502 -0.00000000000E+00 -0.00000000000E+00 -0.47479361981E+02  0.47479361981E+02  0.00000000000E+00 0.  1.
         21    1    1    2  503  504 -0.98888310008E+01  0.81899289796E+02  0.23409821194E+03  0.24820808907E+03  0.00000000000E+00 0. -1.
         21    1    1    2  504  501 -0.20599097779E+02  0.40733708564E+02  0.57132006248E+03  0.57314062117E+03  0.00000000000E+00 0. -1.
         21    1    1    2  505  502  0.50033693082E+02 -0.55666516628E+02  0.20909657743E+03  0.22208896913E+03  0.00000000000E+00 0. -1.
         21    1    1    2  506  503 -0.19545764302E+02 -0.66966481731E+02  0.38297879382E+01  0.69865684376E+02  0.00000000000E+00 0.  1.
<scales pt_clust_3="14000.00000" pt_clust_4="45.64601" pt_clust_5="55.84338" pt_clust_6="70.69839"></scales>
<clustering>
<clus scale="   45.646">  1  4  2 -1</clus>
<clus scale="   55.843">  1  5  2 -1</clus>
<clus scale="   70.698">  2  6  1 -1</clus>
<clus scale="   45.646">  1  3  2 -1</clus>
</clustering>
</event>
<event>
 6    0  0.4227619E+002  0.8601091E+02  0.7546771E-02  0.1312810E+00
         21   -1    0    0  506  501  0.00000000000E+00  0.00000000000E+00  0.20155298280E+04  0.20155298280E+04  0.00000000000E+00 0. -1.
         21   -1    0    0  504  502 -0.00000000000E+00 -0.00000000000E+00 -0.42936191098E+02  0.42936191098E+02  0.00000000000E+00 0. -1.
         21    1    1    2  503  501 -0.51127169943E+02 -0.67568303728E+02  0.14473089474E+04  0.14497871059E+04  0.00000000000E+00 0. -1.
         21    1    1    2  504  503 -0.37391397717E+02  0.17530890039E+01  0.51811148769E+02  0.63918581657E+02  0.00000000000E+00 0. -1.
         21    1    1    2  505  502 -0.18900021503E+02  0.36746986035E+02 -0.14855789849E+02  0.43911801233E+02  0.00000000000E+00 0. -1.
         21    1    1    2  506  505  0.10741858916E+03  0.29068228690E+02  0.48832933058E+03  0.50084853032E+03  0.00000000000E+00 0. -1.
<scales pt_clust_3="86.01091" pt_clust_4="37.43247" pt_clust_5="61.85130" pt_clust_6="14000.00000"></scales>
<clustering>
<clus scale="   37.432">  2  4  1 -1</clus>
<clus scale="   61.851">  2  5  1 -1</clus>
<clus scale="   86.011">  1  3  2 -1</clus>
<clus scale="   86.011">  1  3  2 -1</clus>
</clustering>
</event>
<event>
 6    0  0.4227619E+002  0.8924731E+02  0.7546771E-02  0.1304685E+00
         21   -1    0    0  503  501  0.00000000000E+00  0.00000000000E+00  0.12744330923E+04  0.12744330923E+04  0.00000000000E+00 0. -1.
         21   -1    0    0  504  502 -0.00000000000E+00 -0.00000000000E+00 -0.84722017656E+02  0.84722017656E+02  0.00000000000E+00 0.  1.
         21    1    1    2  503  505  0.22940062078E+02 -0.11144953560E+03  0.10903470006E+03  0.15759381730E+03  0.00000000000E+00 0.  1.
         21    1    1    2  504  506 -0.11538564772E+02  0.45572850631E+02  0.62014551568E+03  0.62192482167E+03  0.00000000000E+00 0. -1.
         21    1    1    2  505  502  0.26816867351E+02  0.51582524162E+02 -0.44342170306E+02  0.73117229439E+02  0.00000000000E+00 0.  1.
         21    1    1    2  506  501 -0.38218364657E+02  0.14294160811E+02  0.50487302919E+03  0.50651924153E+03  0.00000000000E+00 0. -1.
<scales pt_clust_3="79.40790" pt_clust_4="37.95215" pt_clust_5="58.13692" pt_clust_6="37.95215"></scales>
<clustering>
<clus scale="   37.952">  4  6 -1 -1</clus>
<clus scale="   58.137">  2  5  1 -1</clus>
<clus scale="   79.408">  2  3  1 -1</clus>
<clus scale="   89.247">  1  3  2 -1</clus>
</clustering>
</event>
<event>
 6    0  0.4227619E+002  0.1599898E+03  0.7546771E-02  0.1188708E+00
         21   -1    0    0  504  501  0.00000000000E+00  0.00000000000E+00  0.35799542802E+03  0.35799542802E+03  0.00000000000E+00 0. -1.
         21   -1    0    0  505  502 -0.00000000000E+00 -0.00000000000E+00 -0.21940027269E+03  0.21940027269E+03  0.00000000000E+00 0. -1.
         21    1    1    2  503  501  0.47262132262E+02  0.67248856808E+02  0.12426310328E+03  0.14898804222E+03  0.00000000000E+00 0. -1.
         21    1    1    2  504  506 -0.50467815826E+01 -0.38118905168E+02  0.72867766129E+02  0.82390729309E+02  0.00000000000E+00 0. -1.
         21    1    1    2  505  503  0.13025796205E+03  0.58999409030E+01  0.49542215946E+02  0.13948611809E+03  0.00000000000E+00 0. -1.
         21    1    1    2  506  502 -0.17247331273E+03 -0.35029892542E+02 -0.10807793002E+03  0.20653081109E+03  0.00000000000E+00 0. -1.
<scales pt_clust_3="66.15405" pt_clust_4="38.45154" pt_clust_5="159.98979" pt_clust_6="14000.00000"></scales>
<clustering>
<clus scale="   38.452">  1  4  2 -1</clus>
<clus scale="   66.154">  1  3  2 -1</clus>
<clus scale="  159.990">  1  5  2 -1</clus>
<clus scale="   38.452">  1  3  2 -1</clus>
</clustering>
</event>
<event>
 6    0  0.4227619E+002  0.9594962E+02  0.7546771E-02  0.1289052E+00
         21   -1    0    0  504  501  0.00000000000E+00  0.00000000000E+00  0.16406276419E+04  0.16406276419E+04  0.00000000000E+00 0. -1.
         21   -1    0    0  505  502 -0.00000000000E+00 -0.00000000000E+00 -0.36261877562E+02  0.36261877562E+02  0.00000000000E+00 0. -1.
         21    1    1    2  503  506  0.60567882422E+01  0.97670433284E+02  0.34097042101E+03  0.35473514940E+03  0.00000000000E+00 0. -1.
         21    1    1    2  504  502  0.43795350322E+02 -0.10377010402E+03  0.96433102752E+03  0.97088650100E+03  0.00000000000E+00 0. -1.
         21    1    1    2  505  503 -0.60096301535E+02 -0.22141045492E+02  0.15207728934E+02  0.65826031120E+02  0.00000000000E+00 0. -1.
         21    1    1    2  506  501  0.10244162971E+02  0.28240716231E+02  0.28385658692E+03  0.28544183797E+03  0.00000000000E+00 0. -1.
<scales pt_clust_3="95.94962" pt_clust_4="14000.00000" pt_clust_5="63.46999" pt_clust_6="30.04132"></scales>
<clustering>
<clus scale="   30.041">  1  6  2 -1</clus>
<clus scale="   63.470">  2  5  1 -1</clus>
<clus scale="   95.950">  2  3  1 -1</clus>
<clus scale="   30.041">  1  3  2 -1</clus>
</clustering>
</event>
<event>
 6    0  0.4227619E+002  0.6547908E+02  0.7546771E-02  0.1376178E+00
         21   -1    0    0  506  501  0.00000000000E+00  0.00000000000E+00  0.51713019980E+03  0.51713019980E+03  0.00000000000E+00 0.  1.
         21   -1    0    0  503  502 -0.00000000000E+00 -0.00000000000E+00 -0.79182190834E+02  0.79182190834E+02  0.00000000000E+00 0.  1.
         21    1    1    2  503  501  0.27437269507E+02  0.51660235206E+02  0.28011706413E+03  0.28615931450E+03  0.00000000000E+00 0.  1.
         21    1    1    2  504  502 -0.32073329412E+02  0.18191213696E+02 -0.39371288357E+02  0.53941793279E+02  0.00000000000E+00 0.  1.
         21    1    1    2  505  504  0.88525811397E+01  0.42739725805E+02  0.24635425639E+02  0.50119422893E+02  0.00000000000E+00 0.  1.
         21    1    1    2  506  505 -0.42165212350E+01 -0.11259117471E+03  0.17256680756E+03  0.20609185997E+03  0.00000000000E+00 0.  1.
<scales pt_clust_3="65.47908" pt_clust_4="36.87301" pt_clust_5="50.00416" pt_clust_6="14000.00000"></scales>
<clustering>
<clus scale="   36.873">  2  4  1 -1</clus>
<clus scale="   50.004">  2  5  1 -1</clus>
<clus scale="   65.479">  1  3  2 -1</clus>
<clus scale="   65.479">  1  3  2 -1</clus>
</clustering>
</event>
<event>
 6    0  0.4227619E+002  0.1070009E+03  0.7546771E-02  0.1266227E+00
         21   -1    0    0  504  501  0.00000000000E+00  0.00000000000E+00  0.12099671884E+04  0.12099671884E+04  0.00000000000E+00 0.  1.
         21   -1    0    0  503  502 -0.00000000000E+00 -0.00000000000E+00 -0.62953556854E+02  0.62953556854E+02  0.00000000000E+00 0.  1.
         21    1    1    2  503  501 -0.28963659861E+02 -0.24766852965E+02  0.40462144488E+01  0.38323132044E+02  0.00000000000E+00 0.  1.
         21    1    1    2  504  505 -0.18575244851E+02 -0.43643319291E+02  0.58958653882E+03  0.59149139114E+03  0.00000000000E+00 0.  1.
         21    1    1    2  505  506 -0.46197088712E+02 -0.31613496341E+02  0.48805626716E+03  0.49125604736E+03  0.00000000000E+00 0.  1.
         21    1    1    2  506  502  0.93735993424E+02  0.10002366860E+03  0.65324611136E+02  0.15185017472E+03  0.00000000000E+00 0.  1.
<scales pt_clust_3="38.10893" pt_clust_4="31.47194" pt_clust_5="31.47194" pt_clust_6="101.39154"></scales>
<clustering>
<clus scale="   31.472">  4  5 -1 -1</clus>
<clus scale="   38.109">  2  3  1 -1</clus>
<clus scale="  101.392">  2  6  1 -1</clus>
<clus scale="  107.001">  1  3  2 -1</clus>
</clustering>
</event>
<event>
 6    0  0.4227619E+002  0.7633259E+02  0.7546771E-02  0.1339793E+00
         21   -1    0    0  503  501  0.00000000000E+00  0.00000000000E+00  0.13829169072E+04  0.13829169072E+04  0.00000000000E+00 0. -1.
         21   -1    0    0  504  502 -0.00000000000E+00 -0.00000000000E+00 -0.26461081253E+02  0.26461081253E+02  0.00000000000E+00 0.  1.
         21    1    1    2  503  502 -0.16127281089E+02 -0.52599677744E+02  0.82194074675E+03  0.82377995026E+03  0.00000000000E+00 0. -1.
         21    1    1    2  504  505  0.23202255400E+02 -0.26596343446E+02  0.15361125930E+02  0.38492523042E+02  0.00000000000E+00 0.  1.
         21    1    1    2  505  506 -0.78756298261E+02  0.56817024646E+02  0.31177915753E+03  0.32655316853E+03  0.00000000000E+00 0.  1.
         21    1    1    2  506  501  0.71681323950E+02  0.22378996544E+02  0.20737479570E+03  0.22055234658E+03  0.00000000000E+00 0.  1.
<scales pt_clust_3="56.19694" pt_clust_4="35.29462" pt_clust_5="76.33259" pt_clust_6="14000.00000"></scales>
<clustering>
<clus scale="   35.295">  2  4  1 -1</clus>
<clus scale="   56.197">  1  3  2 -1</clus>
<clus scale="   76.333">  2  5  1 -1</clus>
<clus scale="   56.197">  1  3  2 -1</clus>
</clustering>
</event>
<event>
 6    0  0.4227619E+002  0.8647996E+02  0.7546771E-02  0.1311607E+00
         21   -1    0    0  504  501  0.00000000000E+00  0.00000000000E+00  0.12186003023E+04  0.12186003023E+04  0.00000000000E+00 0.  1.
         21   -1    0    0  503  502 -0.00000000000E+00 -0.00000000000E+00 -0.13334938453E+04  0.13334938453E+04  0.00000000000E+00 0.  1.
         21    1    1    2  503  505  0.34677594842E+02  0.38526626086E+02 -0.90847539146E+02  0.10459498970E+03  0.00000000000E+00 0. -1.
         21    1    1    2  504  506 -0.10832063949E+03  0.18275007394E+02  0.10742893878E+04  0.10798912100E+04  0.00000000000E+00 0.  1.
         21    1    1    2  505  501  0.24240623896E+02 -0.38990568492E+02  0.13014491688E+03  0.13800569433E+03  0.00000000000E+00 0. -1.
         21    1    1    2  506  502  0.49402420749E+02 -0.17811064987E+02 -0.12284803086E+04  0.12296022535E+04  0.00000000000E+00 0.  1.
<scales pt_clust_3="51.75457" pt_clust_4="86.47996" pt_clust_5="45.91157" pt_clust_6="14000.00000"></scales>
<clustering>
<clus scale="   45.912">  1  5  2 -1</clus>
<clus scale="   51.755">  2  3  1 -1</clus>
<clus scale="   86.480">  1  4  2 -1</clus>
<clus scale="   45.912">  1  3  2 -1</clus>
</clustering>
</event>
<event>
 6    0  0.4227619E+002  0.8492948E+02  0.7546771E-02  0.1315617E+00
         21   -1    0    0  504  501  0.00000000000E+00  0.00000000000E+00  0.29007152957E+03  0.29007152957E+03  0.00000000000E+00 0.  1.
         21   -1    0    0  503  502 -0.00000000000E+00 -0.00000000000E+00 -0.11999067543E+03  0.11999067543E+03  0.00000000000E+00 0. -1.
         21    1    1    2  503  505 -0.38232603012E+02  0.27387922565E+01 -0.13463658764E+02  0.40626383342E+02  0.00000000000E+00 0.  1.
         21    1    1    2  504  506 -0.57014010543E+02  0.52817794820E+02  0.15969763309E+03  0.17760532329E+03  0.00000000000E+00 0.  1.
         21    1    1    2  505  501 -0.20946369889E+02 -0.29012693627E+02  0.57730543763E+02  0.67921296264E+02  0.00000000000E+00 0.  1.
         21    1    1    2  506  502  0.11619298344E+03 -0.26543893450E+02 -0.33883663949E+02  0.12390920210E+03  0.00000000000E+00 0. -1.
<scales pt_clust_3="39.49725" pt_clust_4="84.92948" pt_clust_5="35.78389" pt_clust_6="14000.00000"></scales>
<clustering>
<clus scale="   35.784">  1  5  2 -1</clus>
<clus scale="   39.497">  2  3  1 -1</clus>
<clus scale="   84.929">  1  4  2 -1</clus>
<clus scale="   35.784">  1  3  2 -1</clus>
</clustering>
</event>
<event>
 6    0  0.4227619E+002  0.1059997E+03  0.7546771E-02  0.1268162E+00
         21   -1    0    0  504  501  0.00000000000E+00  0.00000000000E+00  0.41107644833E+04  0.41107644833E+04  0.00000000000E+00 0.  1.
         21   -1    0    0  505  502 -0.00000000000E+00 -0.00000000000E+00 -0.14847026861E+02  0.14847026861E+02  0.00000000000E+00 0.  1.
         21    1    1    2  503  502 -0.97392803138E+02 -0.53624466336E+02  0.27542868656E+03  0.29702172122E+03  0.00000000000E+00 0.  1.
         21    1    1    2  504  506  0.23036911394E+01 -0.35538462047E+02  0.65997213786E+03  0.66093230518E+03  0.00000000000E+00 0.  1.
         21    1    1    2  505  501  0.92498471201E+02 -0.22375018927E+02  0.18293320717E+04  0.18318057859E+04  0.00000000000E+00 0.  1.
         21    1    1    2  506  503  0.25906407972E+01  0.11153794731E+03  0.13311845603E+04  0.13358516979E+04  0.00000000000E+00 0.  1.
<scales pt_clust_3="14000.00000" pt_clust_4="35.61305" pt_clust_5="105.99974" pt_clust_6="97.86454"></scales>
<clustering>
<clus scale="   35.613">  1  4  2 -1</clus>
<clus scale="   97.865">  1  6  2 -1</clus>
<clus scale="  106.000">  1  5  2 -1</clus>
<clus scale="   35.613">  1  3  2 -1</clus>
</clustering>
</event>
<event>
 6    0  0.4227619E+002  0.2461213E+03  0.7546771E-02  0.1115781E+00
         21   -1    0    0  506  501  0.00000000000E+00  0.00000000000E+00  0.13935136981E+04  0.13935136981E+04  0.00000000000E+00 0.  1.
         21   -1    0    0  505  502 -0.00000000000E+00 -0.00000000000E+00 -0.11015158994E+04  0.11015158994E+04  0.00000000000E+00 0.  1.
         21    1    1    2  503  502  0.32803563563E+02 -0.34390030847E+02 -0.24606654780E+02  0.53518552518E+02  0.00000000000E+00 0. -1.
         21    1    1    2  504  501  0.84106481786E+02  0.26611411241E+03  0.11171687925E+04  0.11515019462E+04  0.00000000000E+00 0.  1.
         21    1    1    2  505  504 -0.12827355060E+03 -0.19194783318E+03 -0.10306725208E+04  0.10562120618E+04  0.00000000000E+00 0.  1.
         21    1    1    2  506  503  0.11363505247E+02 -0.39776248382E+02  0.23010818178E+03  0.23379703700E+03  0.00000000000E+00 0. -1.
<scales pt_clust_3="47.98270" pt_clust_4="14000.00000" pt_clust_5="246.12131" pt_clust_6="41.36761"></scales>
<clustering>
<clus scale="   41.368">  1  6  2 -1</clus>
<clus scale="   47.983">  2  3  1 -1</clus>
<clus scale="  246.121">  2  5  1 -1</clus>
<clus scale="   41.368">  1  3  2 -1</clus>
</clustering>
</event>
<event>
 6    0  0.4227619E+002  0.1218307E+03  0.7546771E-02  0.1240107E+00
         21   -1    0    0  505  501  0.00000000000E+00  0.00000000000E+00  0.22504216368E+04  0.22504216368E+04  0.00000000000E+00 0.  1.
         21   -1    0    0  506  502 -0.00000000000E+00 -0.00000000000E+00 -0.15513971540E+03  0.15513971540E+03  0.00000000000E+00 0. -1.
         21    1    1    2  503  502  0.79780228792E+02  0.61147169598E+02 -0.47278775896E+02  0.11108169924E+03  0.00000000000E+00 0. -1.
         21    1    1    2  504  503  0.91652371417E+02  0.83424872599E+01  0.64266565093E+03  0.64922175962E+03  0.00000000000E+00 0. -1.
         21    1    1    2  505  504  0.23659266028E+02  0.31498189035E+02  0.14056716002E+04  0.14062235044E+04  0.00000000000E+00 0.  1.
         21    1    1    2  506  501 -0.19509186624E+03 -0.10098784589E+03  0.94223446217E+02  0.23903438896E+03  0.00000000000E+00 0. -1.
<scales pt_clust_3="101.95197" pt_clust_4="121.83072" pt_clust_5="39.39412" pt_clust_6="14000.00000"></scales>
<clustering>
<clus scale="   39.394">  1  5  2 -1</clus>
<clus scale="  101.952">  2  3  1 -1</clus>
<clus scale="  121.831">  1  4  2 -1</clus>
<clus scale="   39.394">  1  3  2 -1</clus>
</clustering>
</event>
<event>
 6    0  0.4227619E+002  0.9931255E+02  0.7546771E-02  0.1281748E+00
         21   -1    0    0  506  501  0.00000000000E+00  0.00000000000E+00  0.91955983069E+02  0.91955983069E+02  0.00000000000E+00 0.  1.
         21   -1    0    0  505  502 -0.00000000000E+00 -0.00000000000E+00 -0.61513944900E+03  0.61513944900E+03  0.00000000000E+00 0. -1.
         21    1    1    2  503  501  0.59890706811E+02  0.21950978016E+02 -0.24803782467E+02  0.68439534064E+02  0.00000000000E+00 0. -1.
         21    1    1    2  504  502  0.32125371139E+02  0.23435334824E+02 -0.86505384351E+02  0.95207331183E+02  0.00000000000E+00 0. -1.
         21    1    1    2  505  503 -0.88446970580E+02  0.61367612611E+02 -0.42260183466E+03  0.43609765092E+03  0.00000000000E+00 0. -1.
         21    1    1    2  506  504 -0.35691073698E+01 -0.10675392545E+03  0.10727535541E+02  0.10735091590E+03  0.00000000000E+00 0.  1.
<scales pt_clust_3="67.19316" pt_clust_4="39.76499" pt_clust_5="14000.00000" pt_clust_6="99.31255"></scales>
<clustering>
<clus scale="   39.765">  2  4  1 -1</clus>
<clus scale="   67.193">  1  3  2 -1</clus>
<clus scale="   99.313">  1  6  2 -1</clus>
<clus scale="   67.193">  1  3  2 -1</clus>
</clustering>
</event>
<event>
 6    0  0.4227619E+002  0.7061547E+02  0.7546771E-02  0.1358013E+00
         21   -1    0    0  503  501  0.00000000000E+00  0.00000000000E+00  0.53697875564E+02  0.53697875564E+02  0.00000000000E+00 0.  1.
         21   -1    0    0  505  502 -0.00000000000E+00 -0.00000000000E+00 -0.40528857354E+03  0.40528857354E+03  0.00000000000E+00 0.  1.
         21    1    1    2  503  506  0.32888893934E+02 -0.42889442231E+02 -0.87549828361E+01  0.54752473219E+02  0.00000000000E+00 0.  1.
         21    1    1    2  504  502  0.36537742644E+02 -0.11625540073E+02 -0.49998861255E+02  0.63008300614E+02  0.00000000000E+00 0.  1.
         21    1    1    2  505  501 -0.55241657659E+02 -0.37940330216E+02 -0.58672211428E+02  0.89070409181E+02  0.00000000000E+00 0.  1.
         21    1    1    2  506  504 -0.14184978919E+02  0.92455312520E+02 -0.23416464246E+03  0.25215526609E+03  0.00000000000E+00 0.  1.
<scales pt_clust_3="56.94702" pt_clust_4="38.34266" pt_clust_5="14000.00000" pt_clust_6="70.61547"></scales>
<clustering>
<clus scale="   38.343">  2  4  1 -1</clus>
<clus scale="   56.947">  1  3  2 -1</clus>
<clus scale="   70.615">  2  6  1 -1</clus>
<clus scale="   56.947">  1  3  2 -1</clus>
</clustering>
</event>
<event>
 6    0  0.4227619E+002  0.9013053E+02  0.7546771E-02  0.1302536E+00
         21   -1    0    0  504  501  0.00000000000E+00  0.00000000000E+00  0.81457543257E+02  0.81457543257E+02  0.00000000000E+00 0. -1.
         21   -1    0    0  506  502 -0.00000000000E+00 -0.00000000000E+00 -0.34160764283E+03  0.34160764283E+03  0.00000000000E+00 0. -1.
         21    1    1    2  503  502  0.20427952915E+02  0.53054598825E+02 -0.16599654786E+03  0.17546209169E+03  0.00000000000E+00 0. -1.
         21    1    1    2  504  505 -0.10454337326E+03 -0.22774596136E+02 -0.11659213205E+02  0.10762869679E+03  0.00000000000E+00 0. -1.
         21    1    1    2  505  503  0.72462438884E+02  0.81100154626E+01 -0.55143411725E+02  0.91418670175E+02  0.00000000000E+00 0. -1.
         21    1    1    2  506  501  0.11652981457E+02 -0.38390018151E+02 -0.27350926776E+02  0.48555727427E+02  0.00000000000E+00 0.  1.
<scales pt_clust_3="54.76296" pt_clust_4="90.13053" pt_clust_5="14000.00000" pt_clust_6="40.11964"></scales>
<clustering>
<clus scale="   40.120">  1  6  2 -1</clus>
<clus scale="   54.763">  2  3  1 -1</clus>
<clus scale="   90.131">  1  4  2 -1</clus>
<clus scale="   40.120">  1  3  2 -1</clus>
</clustering>
</event>
<event>
 6    0  0.4227619E+002  0.8702524E+02  0.7546771E-02  0.1310220E+00
         21   -1    0    0  505  501  0.00000000000E+00  0.00000000000E+00  0.36986562426E+02  0.36986562426E+02  0.00000000000E+00 0.  1.
         21   -1    0    0  504  502 -0.00000000000E+00 -0.00000000000E+00 -0.16952940834E+04  0.16952940834E+04  0.00000000000E+00 0.  1.
         21    1    1    2  503  502 -0.15440669242E+02  0.81162932072E+02 -0.11141458765E+04  0.11172049364E+04  0.00000000000E+00 0.  1.
         21    1    1    2  504  506 -0.18086628558E+01 -0.11680515582E+03 -0.34363232136E+03  0.36294612268E+03  0.00000000000E+00 0.  1.
         21    1    1    2  505  503  0.54827594393E+02  0.66280774879E+02 -0.17996009992E+03  0.19946138421E+03  0.00000000000E+00 0.  1.
         21    1    1    2  506  501 -0.37578262296E+02 -0.30638551128E+02 -0.20569223154E+02  0.52668202490E+02  0.00000000000E+00 0.  1.
<scales pt_clust_3="87.02524" pt_clust_4="14000.00000" pt_clust_5="64.01995" pt_clust_6="48.48553"></scales>
<clustering>
<clus scale="   48.486">  1  6  2 -1</clus>
<clus scale="   64.020">  1  5  2 -1</clus>
<clus scale="   87.025">  2  3  1 -1</clus>
<clus scale="   48.486">  1  3  2 -1</clus>
</clustering>
</event>
<event>
 6    0  0.4227619E+002  0.1260151E+03  0.7546771E-02  0.1233491E+00
         21   -1    0    0  506  501  0.00000000000E+00  0.00000000000E+00  0.13968912384E+03  0.13968912384E+03  0.00000000000E+00 0. -1.
         21   -1    0    0  505  502 -0.00000000000E+00 -0.00000000000E+00 -0.30793526473E+03  0.30793526473E+03  0.00000000000E+00 0. -1.
         21    1    1    2  503  504 -0.17590190303E+02  0.52411968484E+02 -0.11148694553E+02  0.56397895577E+02  0.00000000000E+00 0. -1.
         21    1    1    2  504  502 -0.63230527838E+01  0.39238401798E+02 -0.62342774912E+02  0.73934124434E+02  0.00000000000E+00 0. -1.
         21    1    1    2  505  501  0.36507813851E+02 -0.12506300584E+03 -0.18153841303E+03  0.22344970644E+03  0.00000000000E+00 0. -1.
         21    1    1    2  506  503 -0.12594570763E+02  0.33412635559E+02  0.86783741605E+02  0.93842662124E+02  0.00000000000E+00 0. -1.
<scales pt_clust_3="40.00347" pt_clust_4="40.00347" pt_clust_5="115.17811" pt_clust_6="35.70753"></scales>
<clustering>
<clus scale="   35.708">  1  6  2 -1</clus>
<clus scale="   40.003">  3  4 -1 -1</clus>
<clus scale="  115.178">  2  5  1 -1</clus>
<clus scale="   35.708">  1  3  2 -1</clus>
</clustering>
</event>
<event>
 6    0  0.4227619E+002  0.1779709E+03  0.7546771E-02  0.1169781E+00
         21   -1    0    0  503  501  0.00000000000E+00  0.00000000000E+00  0.35773578721E+02  0.35773578721E+02  0.00000000000E+00 0.  1.
         21   -1    0    0  501  502 -0.00000000000E+00 -0.00000000000E+00 -0.28208230870E+04  0.28208230870E+04  0.00000000000E+00 0.  1.
         21    1    1    2  503  504  0.72580216493E+02  0.91755114889E+01 -0.44708065148E+02  0.85737325165E+02  0.00000000000E+00 0.  1.
         21    1    1    2  504  505  0.85956710513E+02 -0.22172531776E+02 -0.18033631480E+03  0.20100090469E+03  0.00000000000E+00 0.  1.
         21    1    1    2  505  506 -0.15671532234E+03  0.52706972323E+02 -0.14956656153E+04  0.15047768439E+04  0.00000000000E+00 0.  1.
         21    1    1    2  506  502 -0.18216046709E+01 -0.39709952036E+02 -0.10643395131E+04  0.10650815920E+04  0.00000000000E+00 0.  1.
<scales pt_clust_3="71.37752" pt_clust_4="71.37752" pt_clust_5="159.38218" pt_clust_6="39.75171"></scales>
<clustering>
<clus scale="   39.752">  2  6  1 -1</clus>
<clus scale="   71.378">  3  4 -1 -1</clus>
<clus scale="  159.382">  2  5  1 -1</clus>
<clus scale="  177.971">  1  3  2 -1</clus>
</clustering>
</event>
<event>
 6    0  0.4227619E+002  0.8231114E+02  0.7546771E-02  0.1322618E+00
         21   -1    0    0  504  501  0.00000000000E+00  0.00000000000E+00  0.10640679034E+04  0.10640679034E+04  0.00000000000E+00 0. -1.
         21   -1    0    0  503  502 -0.00000000000E+00 -0.00000000000E+00 -0.35408373953E+02  0.35408373953E+02  0.00000000000E+00 0. -1.
         21    1    1    2  503  505 -0.78269533630E+02  0.77591946244E+01  0.77281227759E+02  0.11026655504E+03  0.00000000000E+00 0. -1.
         21    1    1    2  504  502  0.23161814512E+02 -0.66537064862E+02  0.43285642427E+03  0.43855254495E+03  0.00000000000E+00 0. -1.
         21    1    1    2  505  506  0.87008153827E+02  0.40777307636E+02  0.13676021158E+03  0.16714234389E+03  0.00000000000E+00 0. -1.
         21    1    1    2  506  501 -0.31900434709E+02  0.18000562602E+02  0.38176166584E+03  0.38351483347E+03  0.00000000000E+00 0. -1.
<scales pt_clust_3="82.31114" pt_clust_4="55.09696" pt_clust_5="14000.00000" pt_clust_6="36.62865"></scales>
<clustering>
<clus scale="   36.629">  1  6  2 -1</clus>
<clus scale="   55.097">  1  4  2 -1</clus>
<clus scale="   82.311">  2  3  1 -1</clus>
<clus scale="   36.629">  1  3  2 -1</clus>
</clustering>
</event>
<event>
 6    0  0.4227619E+002  0.1010524E+03  0.7546771E-02  0.1278098E+00
         21   -1    0    0  505  501  0.00000000000E+00  0.00000000000E+00  0.21872019594E+03  0.21872019594E+03  0.00000000000E+00 0.  1.
         21   -1    0    0  503  502 -0.00000000000E+00 -0.00000000000E+00 -0.13134546653E+04  0.13134546653E+04  0.00000000000E+00 0. -1.
         21    1    1    2  503  506 -0.52921326866E+02  0.38279796261E+02 -0.34512193494E+03  0.35124800301E+03  0.00000000000E+00 0.  1.
         21    1    1    2  504  502 -0.34951406736E+02  0.17671150102E+02 -0.93207532570E+03  0.93289778816E+03  0.00000000000E+00 0. -1.
         21    1    1    2  505  504  0.69089590156E+02 -0.89158825758E+02  0.78869826163E+02  0.13763399710E+03  0.00000000000E+00 0.  1.
         21    1    1    2  506  501  0.18783143446E+02  0.33207879394E+02  0.10359296508E+03  0.11039507301E+03  0.00000000000E+00 0.  1.
<scales pt_clust_3="14000.00000" pt_clust_4="39.15836" pt_clust_5="101.05241" pt_clust_6="38.15193"></scales>
<clustering>
<clus scale="   38.152">  1  6  2 -1</clus>
<clus scale="   39.158">  2  4  1 -1</clus>
<clus scale="  101.052">  1  5  2 -1</clus>
<clus scale="   38.152">  1  3  2 -1</clus>
</clustering>
</event>
<event>
 6    0  0.4227619E+002  0.1062867E+03  0.7546771E-02  0.1267605E+00
         21   -1    0    0  504  501  0.00000000000E+00  0.00000000000E+00  0.48203149730E+03  0.48203149730E+03  0.00000000000E+00 0.  1.
         21   -1    0    0  503  502 -0.00000000000E+00 -0.00000000000E+00 -0.49366125341E+03  0.49366125341E+03  0.00000000000E+00 0.  1.
         21    1    1    2  503  501 -0.26099387381E+02  0.26487099288E+02  0.60442219394E+02  0.70964824636E+02  0.00000000000E+00 0.  1.
         21    1    1    2  504  506 -0.70459865509E+01 -0.59911234668E+02  0.35201537423E+03  0.35714678447E+03  0.00000000000E+00 0.  1.
         21    1    1    2  505  502 -0.64351268524E+02 -0.78167819120E+02 -0.37958957373E+03  0.39286071093E+03  0.00000000000E+00 0.  1.
         21    1    1    2  506  505  0.97496642455E+02  0.11159195450E+03 -0.44497776000E+02  0.15472043067E+03  0.00000000000E+00 0.  1.
<scales pt_clust_3="37.18527" pt_clust_4="47.45742" pt_clust_5="106.28666" pt_clust_6="14000.00000"></scales>
<clustering>
<clus scale="   37.185">  1  3  2 -1</clus>
<clus scale="   47.457">  1  4  2 -1</clus>
<clus scale="  106.287">  2  5  1 -1</clus>
<clus scale="   37.185">  1  3  2 -1</clus>
</clustering>
</event>
<event>
 6    0  0.4227619E+002  0.9309608E+02  0.7546771E-02  0.1295523E+00
         21   -1    0    0  506  501  0.00000000000E+00  0.00000000000E+00  0.11097790397E+03  0.11097790397E+03  0.00000000000E+00 0.  1.
         21   -1    0    0  504  502 -0.00000000000E+00 -0.00000000000E+00 -0.42862722413E+03  0.42862722413E+03  0.00000000000E+00 0.  1.
         21    1    1    2  503  505  0.27261756439E+02  0.29835804112E+02  0.47576525154E+02  0.62425189762E+02  0.00000000000E+00 0.  1.
         21    1    1    2  504  503 -0.80855472657E+02  0.47552589228E+02 -0.30133770547E+03  0.31559985573E+03  0.00000000000E+00 0.  1.
         21    1    1    2  505  501  0.18258415591E+02  0.29403455123E+02 -0.61928870232E+01  0.35160841326E+02  0.00000000000E+00 0. -1.
         21    1    1    2  506  502  0.35335300627E+02 -0.10679184846E+03 -0.57695252822E+02  0.12641924128E+03  0.00000000000E+00 0.  1.
<scales pt_clust_3="59.91740" pt_clust_4="14000.00000" pt_clust_5="34.61117" pt_clust_6="93.09608"></scales>
<clustering>
<clus scale="   34.611">  1  5  2 -1</clus>
<clus scale="   59.917">  1  3  2 -1</clus>
<clus scale="   93.096">  1  6  2 -1</clus>
<clus scale="   34.611">  1  3  2 -1</clus>
</clustering>
</event>
<event>
 6    0  0.4227619E+002  0.9254476E+02  0.7546771E-02  0.1296804E+00
         21   -1    0    0  505  501  0.00000000000E+00  0.00000000000E+00  0.11350733164E+03  0.11350733164E+03  0.00000000000E+00 0.  1.
         21   -1    0    0  501  502 -0.00000000000E+00 -0.00000000000E+00 -0.53743084988E+03  0.53743084988E+03  0.00000000000E+00 0.  1.
         21    1    1    2  503  502 -0.98179194462E+01 -0.30846416812E+02 -0.29837872507E+03  0.30012956627E+03  0.00000000000E+00 0.  1.
         21    1    1    2  504  503  0.22844553437E+02 -0.32502197981E+02 -0.13524107041E+03  0.14095536039E+03  0.00000000000E+00 0.  1.
         21    1    1    2  505  506 -0.55792970966E+02 -0.56864851182E+02  0.19069904631E+02  0.81915372012E+02  0.00000000000E+00 0.  1.
         21    1    1    2  506  504  0.42766336975E+02  0.12021346598E+03 -0.93736273876E+01  0.12793788286E+03  0.00000000000E+00 0.  1.
<scales pt_clust_3="32.37118" pt_clust_4="53.22668" pt_clust_5="92.54476" pt_clust_6="14000.00000"></scales>
<clustering>
<clus scale="   32.371">  2  3  1 -1</clus>
<clus scale="   53.227">  2  4  1 -1</clus>
<clus scale="   92.545">  1  5  2 -1</clus>
<clus scale="   92.545">  1  3  2 -1</clus>
</clustering>
</event>
<event>
 6    0  0.4227619E+002  0.1297911E+03  0.7546771E-02  0.1227766E+00
         21   -1    0    0  503  501  0.00000000000E+00  0.00000000000E+00  0.54015075317E+03  0.54015075317E+03  0.00000000000E+00 0.  1.
         21   -1    0    0  505  502 -0.00000000000E+00 -0.00000000000E+00 -0.21457325050E+03  0.21457325050E+03  0.00000000000E+00 0.  1.
         21    1    1    2  503  506  0.13866345161E+03  0.30440717140E+02  0.13223017341E+03  0.19400775457E+03  0.00000000000E+00 0.  1.
         21    1    1    2  504  501 -0.10727969989E+03 -0.69228000490E+02  0.34898717154E+03  0.37160933244E+03  0.00000000000E+00 0.  1.
         21    1    1    2  505  504  0.33171061978E+02  0.18999376888E+02 -0.72892236695E+02  0.82307799419E+02  0.00000000000E+00 0.  1.
         21    1    1    2  506  502 -0.64554813701E+02  0.19787906462E+02 -0.82747605582E+02  0.10679911724E+03  0.00000000000E+00 0.  1.
<scales pt_clust_3="14000.00000" pt_clust_4="129.79107" pt_clust_5="38.22690" pt_clust_6="53.06105"></scales>
<clustering>
<clus scale="   38.227">  2  5  1 -1</clus>
<clus scale="   53.061">  2  6  1 -1</clus>
<clus scale="  129.791">  1  4  2 -1</clus>
<clus scale="  129.791">  1  3  2 -1</clus>
</clustering>
</event>
<event>
 6    0  0.4227619E+002  0.2695595E+03  0.7546771E-02  0.1101532E+00
         21   -1    0    0  504  501  0.00000000000E+00  0.00000000000E+00  0.88172321243E+03  0.88172321243E+03  0.00000000000E+00 0.  1.
         21   -1    0    0  506  502 -0.00000000000E+00 -0.00000000000E+00 -0.47056662873E+03  0.47056662873E+03  0.00000000000E+00 0. -1.
         21    1    1    2  503  501 -0.71689083399E+02 -0.63611735878E+01  0.42451139029E+03  0.43056905334E+03  0.00000000000E+00 0.  1.
         21    1    1    2  504  505 -0.17900715383E+03 -0.10357009750E+03  0.29363944284E+03  0.35915797166E+03  0.00000000000E+00 0.  1.
         21    1    1    2  505  502 -0.10008422299E+03 -0.61439756988E+01 -0.85477525618E+02  0.13176117605E+03  0.00000000000E+00 0.  1.
         21    1    1    2  506  503  0.35078046021E+03  0.11607524678E+03 -0.22151672382E+03  0.43080164010E+03  0.00000000000E+00 0. -1.
<scales pt_clust_3="71.97075" pt_clust_4="269.55946" pt_clust_5="103.93842" pt_clust_6="14000.00000"></scales>
<clustering>
<clus scale="   71.971">  1  3  2 -1</clus>
<clus scale="  103.938">  2  5  1 -1</clus>
<clus scale="  269.559">  1  4  2 -1</clus>
<clus scale="   71.971">  1  3  2 -1</clus>
</clustering>
</event>
<event>
 6    0  0.4227619E+002  0.1201868E+03  0.7546771E-02  0.1242789E+00
         21   -1    0    0  504  501  0.00000000000E+00  0.00000000000E+00  0.20417077641E+03  0.20417077641E+03  0.00000000000E+00 0.  1.
         21   -1    0    0  505  502 -0.00000000000E+00 -0.00000000000E+00 -0.35706918594E+03  0.35706918594E+03  0.00000000000E+00 0.  1.
         21    1    1    2  503  501  0.89535249074E+02 -0.26610350991E+02  0.77612679558E+02  0.12144298924E+03  0.00000000000E+00 0. -1.
         21    1    1    2  504  502  0.49077450524E+02  0.73371542177E+02  0.56058068112E+02  0.10456809433E+03  0.00000000000E+00 0.  1.
         21    1    1    2  505  506 -0.64018015365E+02  0.32324267949E+01 -0.47294647139E+02  0.79658888533E+02  0.00000000000E+00 0.  1.
         21    1    1    2  506  503 -0.74594684233E+02 -0.49993617981E+02 -0.23927451006E+03  0.25556999026E+03  0.00000000000E+00 0.  1.
<scales pt_clust_3="120.18675" pt_clust_4="85.67430" pt_clust_5="64.09957" pt_clust_6="14000.00000"></scales>
<clustering>
<clus scale="   64.100">  2  5  1 -1</clus>
<clus scale="   85.674">  1  4  2 -1</clus>
<clus scale="  120.187">  1  3  2 -1</clus>
<clus scale="   85.674">  1  3  2 -1</clus>
</clustering>
</event>
<event>
 6    0  0.4227619E+002  0.1958722E+03  0.7546771E-02  0.1153269E+00
         21   -1    0    0  506  501  0.00000000000E+00  0.00000000000E+00  0.20942103856E+03  0.20942103856E+03  0.00000000000E+00 0. -1.
         21   -1    0    0  505  502 -0.00000000000E+00 -0.00000000000E+00 -0.40495274681E+03  0.40495274681E+03  0.00000000000E+00 0. -1.
         21    1    1    2  503  501 -0.78246793113E+02 -0.41709839393E+02  0.25904461435E+02  0.92375930074E+02  0.00000000000E+00 0. -1.
         21    1    1    2  504  502 -0.14840066699E+03  0.11410092516E+03 -0.18625227784E+02  0.18811878746E+03  0.00000000000E+00 0. -1.
         21    1    1    2  505  503  0.20001109331E+03 -0.47988707709E+02 -0.21324476148E+03  0.29627804815E+03  0.00000000000E+00 0. -1.
         21    1    1    2  506  504  0.26636366788E+02 -0.24402378058E+02  0.10433819582E+02  0.37601019689E+02  0.00000000000E+00 0. -1.
<scales pt_clust_3="85.52622" pt_clust_4="195.87215" pt_clust_5="14000.00000" pt_clust_6="36.12440"></scales>
<clustering>
<clus scale="   36.124">  1  6  2 -1</clus>
<clus scale="   85.526">  1  3  2 -1</clus>
<clus scale="  195.872">  1  4  2 -1</clus>
<clus scale="   36.124">  1  3  2 -1</clus>
</clustering>
</event>
<event>
 6    0  0.4227619E+002  0.1098830E+03  0.7546771E-02  0.1260787E+00
         21   -1    0    0  506  501  0.00000000000E+00  0.00000000000E+00  0.10156323413E+03  0.10156323413E+03  0.00000000000E+00 0.  1.
         21   -1    0    0  504  502 -0.00000000000E+00 -0.00000000000E+00 -0.12971884366E+04  0.12971884366E+04  0.00000000000E+00 0.  1.
         21    1    1    2  503  505  0.33102214621E+02  0.12813932404E+03 -0.80547963659E+03  0.81627990784E+03  0.00000000000E+00 0.  1.
         21    1    1    2  504  503 -0.49282736521E+02 -0.10477074505E+02 -0.10369961751E+03  0.11529166440E+03  0.00000000000E+00 0.  1.
         21    1    1    2  505  501 -0.32738105149E+02 -0.89260899144E+02 -0.36116220421E+03  0.37346677147E+03  0.00000000000E+00 0.  1.
         21    1    1    2  506  502  0.48918627049E+02 -0.28401350393E+02  0.74716255830E+02  0.93713327023E+02  0.00000000000E+00 0.  1.
<scales pt_clust_3="14000.00000" pt_clust_4="50.38410" pt_clust_5="109.88299" pt_clust_6="56.26748"></scales>
<clustering>
<clus scale="   50.384">  2  4  1 -1</clus>
<clus scale="   56.267">  1  6  2 -1</clus>
<clus scale="  109.883">  1  5  2 -1</clus>
<clus scale="   56.267">  1  3  2 -1</clus>
</clustering>
</event>
<event>
 6    0  0.4227619E+002  0.1806841E+03  0.7546771E-02  0.1167143E+00
         21   -1    0    0  506  501  0.00000000000E+00  0.00000000000E+00  0.73163117506E+03  0.73163117506E+03  0.00000000000E+00 0. -1.
         21   -1    0    0  505  502 -0.00000000000E+00 -0.00000000000E+00 -0.42654122794E+03  0.42654122794E+03  0.00000000000E+00 0.  1.
         21    1    1    2  503  502 -0.39220138862E+02  0.17212264676E+03 -0.13782875532E+03  0.22396694089E+03  0.00000000000E+00 0.  1.
         21    1    1    2  504  501  0.19071621514E+02  0.24997681753E+02  0.15777569526E+03  0.16087815531E+03  0.00000000000E+00 0. -1.
         21    1    1    2  505  504 -0.97612954917E+01 -0.18704097844E+03 -0.20758408887E+03  0.27959035115E+03  0.00000000000E+00 0.  1.
         21    1    1    2  506  503  0.29909812839E+02 -0.10079350078E+02  0.49272709604E+03  0.49373695565E+03  0.00000000000E+00 0. -1.
<scales pt_clust_3="14000.00000" pt_clust_4="31.44218" pt_clust_5="180.68411" pt_clust_6="47.74333"></scales>
<clustering>
<clus scale="   31.442">  1  4  2 -1</clus>
<clus scale="   47.743">  1  6  2 -1</clus>
<clus scale="  180.684">  2  5  1 -1</clus>
<clus scale="   31.442">  1  3  2 -1</clus>
</clustering>
</event>
<event>
 6    0  0.4227619E+002  0.7906277E+02  0.7546771E-02  0.1331732E+00
         21   -1    0    0  506  501  0.00000000000E+00  0.00000000000E+00  0.80285180257E+03  0.80285180257E+03  0.00000000000E+00 0. -1.
         21   -1    0    0  503  502 -0.00000000000E+00 -0.00000000000E+00 -0.46174755864E+02  0.46174755864E+02  0.00000000000E+00 0. -1.
         21    1    1    2  503  504  0.44818424162E+02  0.69117284964E+01  0.85436321974E+02  0.96725530485E+02  0.00000000000E+00 0. -1.
         21    1    1    2  504  501  0.45426808964E+02  0.52238474968E+02  0.24182431227E+02  0.73329688528E+02  0.00000000000E+00 0. -1.
         21    1    1    2  505  502 -0.70258796317E+01 -0.69322758048E+02  0.81467766581E+02  0.10720076847E+03  0.00000000000E+00 0. -1.
         21    1    1    2  506  505 -0.83219353495E+02  0.10172554584E+02  0.56559052692E+03  0.57177057095E+03  0.00000000000E+00 0. -1.
<scales pt_clust_3="45.34824" pt_clust_4="14000.00000" pt_clust_5="67.51382" pt_clust_6="79.06277"></scales>
<clustering>
<clus scale="   45.348">  2  3  1 -1</clus>
<clus scale="   67.514">  2  5  1 -1</clus>
<clus scale="   79.063">  1  6  2 -1</clus>
<clus scale="   79.063">  1  3  2 -1</clus>
</clustering>
</event>
<event>
 6    0  0.4227619E+002  0.1091671E+03  0.7546771E-02  0.1262120E+00
         21   -1    0    0  503  501  0.00000000000E+00  0.00000000000E+00  0.13275987065E+03  0.13275987065E+03  0.00000000000E+00 0.  1.
         21   -1    0    0  504  502 -0.00000000000E+00 -0.00000000000E+00 -0.44749677102E+03  0.44749677102E+03  0.00000000000E+00 0.  1.
         21    1    1    2  503  505  0.48937242503E+02 -0.48980784699E+02  0.61319470838E+02  0.92488099112E+02  0.00000000000E+00 0.  1.
         21    1    1    2  504  501  0.22964295577E+02  0.13492959616E+03 -0.13204664147E+03  0.19018325456E+03  0.00000000000E+00 0.  1.
         21    1    1    2  505  506 -0.18972907545E+02 -0.83814185134E+02 -0.56761716113E+02  0.10298874340E+03  0.00000000000E+00 0.  1.
         21    1    1    2  506  502 -0.52928630536E+02 -0.21346263294E+01 -0.18724801363E+03  0.19459654459E+03  0.00000000000E+00 0.  1.
<scales pt_clust_3="67.09970" pt_clust_4="109.16710" pt_clust_5="14000.00000" pt_clust_6="52.97166"></scales>
<clustering>
<clus scale="   52.972">  2  6  1 -1</clus>
<clus scale="   67.100">  1  3  2 -1</clus>
<clus scale="  109.167">  2  4  1 -1</clus>
<clus scale="   67.100">  1  3  2 -1</clus>
</clustering>
</event>
<event>
 6    0  0.5811157E+002  0.1109374E+03  0.7546771E-02  0.1258844E+00
         21   -1    0    0  504  501  0.00000000000E+00  0.00000000000E+00  0.11257190351E+04  0.11257190351E+04  0.00000000000E+00 0. -1.
         21   -1    0    0  503  502 -0.00000000000E+00 -0.00000000000E+00 -0.32928116111E+03  0.32928116111E+03  0.00000000000E+00 0. -1.
         21    1    1    2  503  501 -0.30484470348E+02 -0.30425650887E+02  0.71913727055E+03  0.72042587201E+03  0.00000000000E+00 0. -1.
         21    1    1    2  504  505  0.75522250992E+02 -0.64929230608E+02  0.39008135939E+03  0.40259518418E+03  0.00000000000E+00 0. -1.
         21    1    1    2  505  506 -0.37632371395E+02  0.38509100396E+02 -0.15810390180E+03  0.16702092669E+03  0.00000000000E+00 0. -1.
         21    1    1    2  506  502 -0.74054092485E+01  0.56845781099E+02 -0.15467685418E+03  0.16495821330E+03  0.00000000000E+00 0. -1.
<scales pt_clust_3="43.06998" pt_clust_4="105.11762" pt_clust_5="34.36583" pt_clust_6="34.36583"></scales>
<clustering>
<clus scale="   34.366">  5  6 -1 -1</clus>
<clus scale="   43.070">  1  3  2 -1</clus>
<clus scale="  105.118">  1  4  2 -1</clus>
<clus scale="   43.070">  1  3  2 -1</clus>
</clustering>
</event>
<event>
 6    0  0.4227619E+002  0.8634600E+02  0.7546771E-02  0.1311950E+00
         21   -1    0    0  506  501  0.00000000000E+00  0.00000000000E+00  0.79683690464E+02  0.79683690464E+02  0.00000000000E+00 0.  1.
         21   -1    0    0  503  502 -0.00000000000E+00 -0.00000000000E+00 -0.44521193952E+03  0.44521193952E+03  0.00000000000E+00 0.  1.
         21    1    1    2  503  505  0.35718993936E+02 -0.21486622916E+02 -0.19889640470E+03  0.20321737449E+03  0.00000000000E+00 0.  1.
         21    1    1    2  504  501 -0.84229603919E+02 -0.23168529299E+02 -0.32583612461E+02  0.93236788486E+02  0.00000000000E+00 0.  1.
         21    1    1    2  505  504  0.72337073789E+02 -0.47535514628E+02 -0.85068677306E+02  0.12136291548E+03  0.00000000000E+00 0.  1.
         21    1    1    2  506  502 -0.23826463807E+02  0.92190666842E+02 -0.48979554599E+02  0.10707855154E+03  0.00000000000E+00 0. -1.
<scales pt_clust_3="41.68359" pt_clust_4="80.32983" pt_clust_5="86.34600" pt_clust_6="14000.00000"></scales>
<clustering>
<clus scale="   41.684">  2  3  1 -1</clus>
<clus scale="   80.330">  1  4  2 -1</clus>
<clus scale="   86.346">  1  5  2 -1</clus>
<clus scale="   80.330">  1  3  2 -1</clus>
</clustering>
</event>
<event>
 6    0  0.4227619E+002  0.1328390E+03  0.7546771E-02  0.1223303E+00
         21   -1    0    0  504  501  0.00000000000E+00  0.00000000000E+00  0.25345934630E+03  0.25345934630E+03  0.00000000000E+00 0.  1.
         21   -1    0    0  506  502 -0.00000000000E+00 -0.00000000000E+00 -0.29910020194E+03  0.29910020194E+03  0.00000000000E+00 0. -1.
         21    1    1    2  503  502 -0.27908086007E+02  0.33518806082E+02 -0.50791028320E+02  0.66948489031E+02  0.00000000000E+00 0.  1.
         21    1    1    2  504  503  0.10796454532E+02  0.46860856690E+02  0.13950307762E+03  0.14755884245E+03  0.00000000000E+00 0.  1.
         21    1    1    2  505  501 -0.36388810324E+02 -0.17318548273E+03 -0.14886500608E+02  0.17759213058E+03  0.00000000000E+00 0.  1.
         21    1    1    2  506  505  0.53500441799E+02  0.92805819955E+02 -0.11946640434E+03  0.16046008617E+03  0.00000000000E+00 0. -1.
<scales pt_clust_3="43.61619" pt_clust_4="48.53458" pt_clust_5="132.83900" pt_clust_6="14000.00000"></scales>
<clustering>
<clus scale="   43.616">  2  3  1 -1</clus>
<clus scale="   48.535">  1  4  2 -1</clus>
<clus scale="  132.839">  1  5  2 -1</clus>
<clus scale="   48.535">  1  3  2 -1</clus>
</clustering>
</event>
<event>
 6    0  0.4227619E+002  0.8730697E+02  0.7546771E-02  0.1309507E+00
         21   -1    0    0  506  501  0.00000000000E+00  0.00000000000E+00  0.30449317950E+03  0.30449317950E+03  0.00000000000E+00 0.  1.
         21   -1    0    0  504  502 -0.00000000000E+00 -0.00000000000E+00 -0.28788632710E+04  0.28788632710E+04  0.00000000000E+00 0. -1.
         21    1    1    2  503  501 -0.51914606748E+02  0.27533339909E+02  0.10145228874E+02  0.59633353665E+02  0.00000000000E+00 0. -1.
         21    1    1    2  504  503 -0.41962625847E+02 -0.41899303350E+02 -0.26839919299E+04  0.26846469216E+04  0.00000000000E+00 0. -1.
         21    1    1    2  505  502  0.62200863350E+02 -0.50021025187E+02 -0.15517899122E+03  0.17450378127E+03  0.00000000000E+00 0. -1.
         21    1    1    2  506  505  0.31676369245E+02  0.64386988627E+02  0.25465560076E+03  0.26457239401E+03  0.00000000000E+00 0.  1.
<scales pt_clust_3="58.76403" pt_clust_4="59.32039" pt_clust_5="87.30697" pt_clust_6="14000.00000"></scales>
<clustering>
<clus scale="   58.764">  1  3  2 -1</clus>
<clus scale="   59.320">  2  4  1 -1</clus>
<clus scale="   87.307">  2  5  1 -1</clus>
<clus scale="   58.764">  1  3  2 -1</clus>
</clustering>
</event>
<event>
 6    0  0.4227619E+002  0.1229274E+03  0.7546771E-02  0.1238344E+00
         21   -1    0    0  505  501  0.00000000000E+00  0.00000000000E+00  0.37734530530E+03  0.37734530530E+03  0.00000000000E+00 0. -1.
         21   -1    0    0  503  502 -0.00000000000E+00 -0.00000000000E+00 -0.90230258059E+02  0.90230258059E+02  0.00000000000E+00 0. -1.
         21    1    1    2  503  504  0.11805983109E+03 -0.33498403681E+02 -0.12027710334E+02  0.12330828270E+03  0.00000000000E+00 0. -1.
         21    1    1    2  504  506 -0.64706203260E+02 -0.12078631590E+02  0.82331903136E+02  0.10541028581E+03  0.00000000000E+00 0. -1.
         21    1    1    2  505  502 -0.21368553728E+02  0.22731171664E+02  0.18684306333E+03  0.18942980644E+03  0.00000000000E+00 0. -1.
         21    1    1    2  506  501 -0.31985074106E+02  0.22845863608E+02  0.29967791108E+02  0.49427188403E+02  0.00000000000E+00 0. -1.
<scales pt_clust_3="114.94722" pt_clust_4="33.95603" pt_clust_5="31.19810" pt_clust_6="33.95603"></scales>
<clustering>
<clus scale="   31.198">  1  5  2 -1</clus>
<clus scale="   33.956">  4  6 -1 -1</clus>
<clus scale="  114.947">  2  3  1 -1</clus>
<clus scale="   31.198">  1  3  2 -1</clus>
</clustering>
</event>
<event>
 6    0  0.4227619E+002  0.7128801E+02  0.7546771E-02  0.1355767E+00
         21   -1    0    0  504  501  0.00000000000E+00  0.00000000000E+00  0.62093990432E+03  0.62093990432E+03  0.00000000000E+00 0.  1.
         21   -1    0    0  503  502 -0.00000000000E+00 -0.00000000000E+00 -0.81494848465E+03  0.81494848465E+03  0.00000000000E+00 0. -1.
         21    1    1    2  503  505  0.13684448682E+01 -0.57794672485E+02 -0.76649280016E+03  0.76866983127E+03  0.00000000000E+00 0. -1.
         21    1    1    2  504  506 -0.10944032348E+02 -0.66688369609E+02  0.20783034126E+03  0.21854189812E+03  0.00000000000E+00 0.  1.
         21    1    1    2  505  501  0.37486202290E+02  0.73919832048E+01  0.31687364460E+03  0.31916886349E+03  0.00000000000E+00 0.  1.
         21    1    1    2  506  502 -0.27910614810E+02  0.11709105889E+03  0.47780233953E+02  0.12950779609E+03  0.00000000000E+00 0.  1.
<scales pt_clust_3="57.78766" pt_clust_4="71.28801" pt_clust_5="38.20807" pt_clust_6="14000.00000"></scales>
<clustering>
<clus scale="   38.208">  1  5  2 -1</clus>
<clus scale="   57.788">  2  3  1 -1</clus>
<clus scale="   71.288">  1  4  2 -1</clus>
<clus scale="   38.208">  1  3  2 -1</clus>
</clustering>
</event>
<event>
 6    0  0.4227619E+002  0.9720450E+02  0.7546771E-02  0.1286287E+00
         21   -1    0    0  505  501  0.00000000000E+00  0.00000000000E+00  0.78555896835E+03  0.78555896835E+03  0.00000000000E+00 0.  1.
         21   -1    0    0  503  502 -0.00000000000E+00 -0.00000000000E+00 -0.11879372261E+03  0.11879372261E+03  0.00000000000E+00 0. -1.
         21    1    1    2  503  506  0.64172561523E+01 -0.76118321925E+02 -0.61620291319E+02  0.98143977969E+02  0.00000000000E+00 0. -1.
         21    1    1    2  504  502 -0.49313263511E+02 -0.18075940075E+02 -0.10969116489E+02  0.53655000552E+02  0.00000000000E+00 0.  1.
         21    1    1    2  505  504 -0.31465832760E+01  0.68178355036E+02  0.59342712457E+03  0.59733905050E+03  0.00000000000E+00 0.  1.
         21    1    1    2  506  501  0.46042590634E+02  0.26015906964E+02  0.14592752898E+03  0.15521466194E+03  0.00000000000E+00 0.  1.
<scales pt_clust_3="14000.00000" pt_clust_4="52.52178" pt_clust_5="97.20450" pt_clust_6="50.10363"></scales>
<clustering>
<clus scale="   52.522">  2  4  1 -1</clus>
<clus scale="   50.104">  1  6  2 -1</clus>
<clus scale="   97.204">  1  5  2 -1</clus>
<clus scale="   50.104">  1  3  2 -1</clus>
</clustering>
</event>
<event>
 6    0  0.4227619E+002  0.1045954E+03  0.7546771E-02  0.1270919E+00
         21   -1    0    0  503  501  0.00000000000E+00  0.00000000000E+00  0.62184618604E+03  0.62184618604E+03  0.00000000000E+00 0.  1.
         21   -1    0    0  505  502 -0.00000000000E+00 -0.00000000000E+00 -0.16651960503E+03  0.16651960503E+03  0.00000000000E+00 0. -1.
         21    1    1    2  503  504 -0.31809355306E+02 -0.18834585936E+02  0.37557324679E+03  0.37738818267E+03  0.00000000000E+00 0.  1.
         21    1    1    2  504  506  0.92618104067E+02  0.90505029611E+02  0.17587507422E+03  0.21840630787E+03  0.00000000000E+00 0.  1.
         21    1    1    2  505  501  0.76073784863E+01  0.30332371341E+02 -0.54598150087E+02  0.62919654731E+02  0.00000000000E+00 0. -1.
         21    1    1    2  506  502 -0.68416127247E+02 -0.10200281502E+03 -0.41523589913E+02  0.12965164580E+03  0.00000000000E+00 0. -1.
<scales pt_clust_3="36.78245" pt_clust_4="104.59543" pt_clust_5="31.27179" pt_clust_6="14000.00000"></scales>
<clustering>
<clus scale="   31.272">  2  5  1 -1</clus>
<clus scale="   36.782">  1  3  2 -1</clus>
<clus scale="  104.595">  1  4  2 -1</clus>
<clus scale="   36.782">  1  3  2 -1</clus>
</clustering>
</event>
<event>
 6    0  0.4227619E+002  0.6287629E+02  0.7546771E-02  0.1386143E+00
         21   -1    0    0  504  501  0.00000000000E+00  0.00000000000E+00  0.33846929386E+03  0.33846929386E+03  0.00000000000E+00 0.  1.
         21   -1    0    0  503  502 -0.00000000000E+00 -0.00000000000E+00 -0.60560652166E+03  0.60560652166E+03  0.00000000000E+00 0. -1.
         21    1    1    2  503  506 -0.50773237105E+02  0.59511237465E+01 -0.54781308764E+03  0.55019316287E+03  0.00000000000E+00 0. -1.
         21    1    1    2  504  502 -0.48904395739E+02 -0.48737601241E+01 -0.14395871609E+02  0.51211664488E+02  0.00000000000E+00 0. -1.
         21    1    1    2  505  501  0.10388041417E+03 -0.53040063514E+02  0.23997826547E+03  0.26682195690E+03  0.00000000000E+00 0.  1.
         21    1    1    2  506  505 -0.42027813305E+01  0.51962699892E+02  0.55093465971E+02  0.75849031264E+02  0.00000000000E+00 0.  1.
<scales pt_clust_3="51.29932" pt_clust_4="49.14665" pt_clust_5="14000.00000" pt_clust_6="62.87629"></scales>
<clustering>
<clus scale="   49.147">  1  4  2 -1</clus>
<clus scale="   51.299">  2  3  1 -1</clus>
<clus scale="   62.876">  2  6  1 -1</clus>
<clus scale="   49.147">  1  3  2 -1</clus>
</clustering>
</event>
<event>
 6    0  0.4227619E+002  0.8807753E+02  0.7546771E-02  0.1307575E+00
         21   -1    0    0  506  501  0.00000000000E+00  0.00000000000E+00  0.75353141739E+02  0.75353141739E+02  0.00000000000E+00 0. -1.
         21   -1    0    0  505  502 -0.00000000000E+00 -0.00000000000E+00 -0.50574345062E+03  0.50574345062E+03  0.00000000000E+00 0. -1.
         21    1    1    2  503  504  0.21747881195E+02 -0.52911678043E+02 -0.12565760727E+03  0.13806683264E+03  0.00000000000E+00 0. -1.
         21    1    1    2  504  502  0.19284150699E+02  0.35401800182E+02 -0.24149151851E+03  0.24483324822E+03  0.00000000000E+00 0. -1.
         21    1    1    2  505  501 -0.10688224651E+03 -0.23511305052E+02 -0.46055256569E+02  0.11873366305E+03  0.00000000000E+00 0. -1.
         21    1    1    2  506  503  0.65850214613E+02  0.41021182913E+02 -0.17185926530E+02  0.79462848444E+02  0.00000000000E+00 0. -1.
<scales pt_clust_3="47.14174" pt_clust_4="40.31335" pt_clust_5="14000.00000" pt_clust_6="88.07753"></scales>
<clustering>
<clus scale="   40.313">  2  4  1 -1</clus>
<clus scale="   47.142">  2  3  1 -1</clus>
<clus scale="   88.078">  1  6  2 -1</clus>
<clus scale="   88.078">  1  3  2 -1</clus>
</clustering>
</event>
<event>
 6    0  0.4227619E+002  0.1021649E+03  0.7546771E-02  0.1275808E+00
         21   -1    0    0  505  501  0.00000000000E+00  0.00000000000E+00  0.25769801675E+04  0.25769801675E+04  0.00000000000E+00 0. -1.
         21   -1    0    0  506  502 -0.00000000000E+00 -0.00000000000E+00 -0.34849728608E+02  0.34849728608E+02  0.00000000000E+00 0.  1.
         21    1    1    2  503  501 -0.15206584742E+03 -0.26732512374E+02  0.10196434000E+04  0.10312668483E+04  0.00000000000E+00 0. -1.
         21    1    1    2  504  502  0.24547213744E+02  0.24039684012E+02  0.22042596633E+03  0.22308760329E+03  0.00000000000E+00 0.  1.
         21    1    1    2  505  504  0.29699930840E+02  0.95417571761E+01  0.12421957741E+04  0.12425874103E+04  0.00000000000E+00 0. -1.
         21    1    1    2  506  503  0.97818702840E+02 -0.68489288137E+01  0.59865298420E+02  0.11488803422E+03  0.00000000000E+00 0.  1.
<scales pt_clust_3="14000.00000" pt_clust_4="39.06210" pt_clust_5="31.19505" pt_clust_6="102.16492"></scales>
<clustering>
<clus scale="   31.195">  1  5  2 -1</clus>
<clus scale="   39.062">  1  4  2 -1</clus>
<clus scale="  102.165">  2  6  1 -1</clus>
<clus scale="   31.195">  1  3  2 -1</clus>
</clustering>
</event>
<event>
 6    0  0.4227619E+002  0.6083827E+02  0.7546771E-02  0.1394347E+00
         21   -1    0    0  502  501  0.00000000000E+00  0.00000000000E+00  0.33714446842E+03  0.33714446842E+03  0.00000000000E+00 0. -1.
         21   -1    0    0  506  502 -0.00000000000E+00 -0.00000000000E+00 -0.24363327850E+03  0.24363327850E+03  0.00000000000E+00 0.  1.
         21    1    1    2  503  504  0.63719263679E+02  0.54385076129E+02  0.22824858193E+03  0.24313637371E+03  0.00000000000E+00 0. -1.
         21    1    1    2  504  501 -0.31808171120E+02 -0.76365704078E+01  0.74200924525E+02  0.81091640494E+02  0.00000000000E+00 0. -1.
         21    1    1    2  505  503 -0.57417662079E+02 -0.85033292044E+02 -0.15118219811E+03  0.18271153686E+03  0.00000000000E+00 0.  1.
         21    1    1    2  506  505  0.25506569520E+02  0.38284786323E+02 -0.57756118421E+02  0.73838195857E+02  0.00000000000E+00 0.  1.
<scales pt_clust_3="14000.00000" pt_clust_4="32.71203" pt_clust_5="60.83827" pt_clust_6="45.26520"></scales>
<clustering>
<clus scale="   32.712">  1  4  2 -1</clus>
<clus scale="   45.265">  2  6  1 -1</clus>
<clus scale="   60.838">  2  5  1 -1</clus>
<clus scale="   32.712">  1  3  2 -1</clus>
</clustering>
</event>
<event>
 6    0  0.4227619E+002  0.1263079E+03  0.7546771E-02  0.1233039E+00
         21   -1    0    0  506  501  0.00000000000E+00  0.00000000000E+00  0.29758794865E+03  0.29758794865E+03  0.00000000000E+00 0.  1.
         21   -1    0    0  504  502 -0.00000000000E+00 -0.00000000000E+00 -0.83178016704E+02  0.83178016704E+02  0.00000000000E+00 0. -1.
         21    1    1    2  503  502 -0.67553306148E+00 -0.34863374053E+02 -0.19203072957E+02  0.39807903817E+02  0.00000000000E+00 0. -1.
         21    1    1    2  504  501  0.32422180703E+01 -0.10323001830E+03  0.89420092798E+02  0.13661223098E+03  0.00000000000E+00 0. -1.
         21    1    1    2  505  503 -0.20387407070E+02  0.44226806048E+02  0.40425793688E+02  0.63292191743E+02  0.00000000000E+00 0.  1.
         21    1    1    2  506  505  0.17820722061E+02  0.93866586305E+02  0.10376711842E+03  0.14105363882E+03  0.00000000000E+00 0.  1.
<scales pt_clust_3="34.86992" pt_clust_4="118.59359" pt_clust_5="31.03185" pt_clust_6="31.03185"></scales>
<clustering>
<clus scale="   31.032">  5  6 -1 -1</clus>
<clus scale="   34.870">  2  3  1 -1</clus>
<clus scale="  118.594">  1  4  2 -1</clus>
<clus scale="  118.594">  1  3  2 -1</clus>
</clustering>
</event>
<event>
 6    0  0.4227619E+002  0.8677890E+02  0.7546771E-02  0.1310845E+00
         21   -1    0    0  502  501  0.00000000000E+00  0.00000000000E+00  0.98708902520E+02  0.98708902520E+02  0.00000000000E+00 0.  1.
         21   -1    0    0  504  502 -0.00000000000E+00 -0.00000000000E+00 -0.16660211720E+04  0.16660211720E+04  0.00000000000E+00 0. -1.
         21    1    1    2  503  505 -0.13903473918E+01  0.68632509512E+02 -0.10755692544E+04  0.10777576608E+04  0.00000000000E+00 0. -1.
         21    1    1    2  504  503  0.36786194914E+01 -0.31719476962E+02 -0.39162736389E+03  0.39292702835E+03  0.00000000000E+00 0.  1.
         21    1    1    2  505  506  0.58817701639E+02  0.29134447481E+02 -0.16862768636E+03  0.18095202310E+03  0.00000000000E+00 0. -1.
         21    1    1    2  506  501 -0.61105973739E+02 -0.66047480031E+02  0.68512035113E+02  0.11309336232E+03  0.00000000000E+00 0.  1.
<scales pt_clust_3="41.85616" pt_clust_4="31.93208" pt_clust_5="86.77890" pt_clust_6="14000.00000"></scales>
<clustering>
<clus scale="   31.932">  2  4  1 -1</clus>
<clus scale="   41.856">  2  3  1 -1</clus>
<clus scale="   86.779">  2  5  1 -1</clus>
<clus scale="   86.779">  1  3  2 -1</clus>
</clustering>
</event>
<event>
 6    0  0.4227619E+002  0.6919423E+02  0.7546771E-02  0.1362855E+00
         21   -1    0    0  504  501  0.00000000000E+00  0.00000000000E+00  0.14699387582E+04  0.14699387582E+04  0.00000000000E+00 0.  1.
         21   -1    0    0  503  502 -0.00000000000E+00 -0.00000000000E+00 -0.21038365459E+02  0.21038365459E+02  0.00000000000E+00 0.  1.
         21    1    1    2  503  506 -0.43482891509E+02  0.47822946316E+02  0.91374047379E+02  0.11192413762E+03  0.00000000000E+00 0.  1.
         21    1    1    2  504  502  0.19802528243E+02 -0.84084113580E+02  0.51269778579E+03  0.51992431933E+03  0.00000000000E+00 0.  1.
         21    1    1    2  505  501 -0.46067405803E+02  0.45837993515E+02  0.62338317192E+03  0.62676144310E+03  0.00000000000E+00 0.  1.
         21    1    1    2  506  505  0.69747769069E+02 -0.95768262501E+01  0.22144538769E+03  0.23236722363E+03  0.00000000000E+00 0.  1.
<scales pt_clust_3="64.63587" pt_clust_4="14000.00000" pt_clust_5="69.19423" pt_clust_6="49.89658"></scales>
<clustering>
<clus scale="   64.636">  2  3  1 -1</clus>
<clus scale="   49.897">  2  6  1 -1</clus>
<clus scale="   69.194">  1  5  2 -1</clus>
<clus scale="   69.194">  1  3  2 -1</clus>
</clustering>
</event>
<event>
 6    0  0.4227619E+002  0.7541737E+02  0.7546771E-02  0.1342583E+00
         21   -1    0    0  504  501  0.00000000000E+00  0.00000000000E+00  0.80581594136E+03  0.80581594136E+03  0.00000000000E+00 0.  1.
         21   -1    0    0  503  502 -0.00000000000E+00 -0.00000000000E+00 -0.71192036381E+02  0.71192036381E+02  0.00000000000E+00 0.  1.
         21    1    1    2  503  505  0.71530924574E+02 -0.56237117232E+01  0.35218732181E+02  0.79929083571E+02  0.00000000000E+00 0.  1.
         21    1    1    2  504  506 -0.38993802686E+02  0.18609345824E+02  0.14285417760E+03  0.14924523596E+03  0.00000000000E+00 0.  1.
         21    1    1    2  505  501  0.84296151727E+02  0.29369015367E+02  0.50576697998E+03  0.51358409077E+03  0.00000000000E+00 0.  1.
         21    1    1    2  506  502 -0.11683327362E+03 -0.42354649468E+02  0.50784015225E+02  0.13424956744E+03  0.00000000000E+00 0.  1.
<scales pt_clust_3="68.24548" pt_clust_4="43.20676" pt_clust_5="14000.00000" pt_clust_6="75.41737"></scales>
<clustering>
<clus scale="   43.207">  1  4  2 -1</clus>
<clus scale="   68.245">  2  3  1 -1</clus>
<clus scale="   75.417">  2  6  1 -1</clus>
<clus scale="   43.207">  1  3  2 -1</clus>
</clustering>
</event>
<event>
 6    0  0.4227619E+002  0.9969406E+02  0.7546771E-02  0.1280941E+00
         21   -1    0    0  505  501  0.00000000000E+00  0.00000000000E+00  0.47513210614E+03  0.47513210614E+03  0.00000000000E+00 0. -1.
         21   -1    0    0  503  502 -0.00000000000E+00 -0.00000000000E+00 -0.37766870494E+03  0.37766870494E+03  0.00000000000E+00 0. -1.
         21    1    1    2  503  506 -0.58985382283E+02 -0.75868721707E+02 -0.20871719681E+03  0.22977860323E+03  0.00000000000E+00 0. -1.
         21    1    1    2  504  502  0.56888518111E+02 -0.26834720537E+02 -0.13928937475E+03  0.15283303189E+03  0.00000000000E+00 0.  1.
         21    1    1    2  505  504  0.37688347860E+02  0.68005905993E+02  0.38062588768E+03  0.38848588286E+03  0.00000000000E+00 0. -1.
         21    1    1    2  506  501 -0.35591483688E+02  0.34697536251E+02  0.64844085081E+02  0.81703293098E+02  0.00000000000E+00 0.  1.
<scales pt_clust_3="14000.00000" pt_clust_4="62.10868" pt_clust_5="99.69406" pt_clust_6="49.70586"></scales>
<clustering>
<clus scale="   49.706">  1  6  2 -1</clus>
<clus scale="   62.109">  2  4  1 -1</clus>
<clus scale="   99.694">  1  5  2 -1</clus>
<clus scale="   49.706">  1  3  2 -1</clus>
</clustering>
</event>
<event>
 6    0  0.4227619E+002  0.6824534E+02  0.7546771E-02  0.1366164E+00
         21   -1    0    0  504  501  0.00000000000E+00  0.00000000000E+00  0.23668760504E+03  0.23668760504E+03  0.00000000000E+00 0. -1.
         21   -1    0    0  505  502 -0.00000000000E+00 -0.00000000000E+00 -0.13882782132E+03  0.13882782132E+03  0.00000000000E+00 0. -1.
         21    1    1    2  503  502 -0.11878017330E+02  0.85031539529E+02 -0.83408070638E+02  0.11970111218E+03  0.00000000000E+00 0. -1.
         21    1    1    2  504  503 -0.42314032496E+02 -0.81197506249E+02  0.14393213077E+03  0.17058713502E+03  0.00000000000E+00 0. -1.
         21    1    1    2  505  506  0.26399809304E+02 -0.26340759884E+02  0.61901802661E+01  0.37803490504E+02  0.00000000000E+00 0. -1.
         21    1    1    2  506  501  0.27792240522E+02  0.22506726603E+02  0.31145543322E+02  0.47423688643E+02  0.00000000000E+00 0. -1.
<scales pt_clust_3="68.24534" pt_clust_4="14000.00000" pt_clust_5="37.92176" pt_clust_6="35.76257"></scales>
<clustering>
<clus scale="   35.763">  1  6  2 -1</clus>
<clus scale="   37.922">  2  5  1 -1</clus>
<clus scale="   68.245">  2  3  1 -1</clus>
<clus scale="   35.763">  1  3  2 -1</clus>
</clustering>
</event>
<event>
 6    0  0.4227619E+002  0.1200641E+03  0.7546771E-02  0.1242991E+00
         21   -1    0    0  503  501  0.00000000000E+00  0.00000000000E+00  0.71307672888E+03  0.71307672888E+03  0.00000000000E+00 0. -1.
         21   -1    0    0  504  502 -0.00000000000E+00 -0.00000000000E+00 -0.45696559452E+03  0.45696559452E+03  0.00000000000E+00 0. -1.
         21    1    1    2  503  502 -0.10712112498E+03 -0.30828301839E+02 -0.24148694247E+02  0.11405471952E+03  0.00000000000E+00 0.  1.
         21    1    1    2  504  506  0.10121864307E+03  0.70783618433E+02 -0.32069846255E+03  0.34366122595E+03  0.00000000000E+00 0. -1.
         21    1    1    2  505  501  0.10278286274E+02  0.32603227756E+02  0.63225959692E+03  0.63318307900E+03  0.00000000000E+00 0. -1.
         21    1    1    2  506  505 -0.43758043669E+01 -0.72558544350E+02 -0.31301305778E+02  0.79143298929E+02  0.00000000000E+00 0.  1.
<scales pt_clust_3="14000.00000" pt_clust_4="120.06407" pt_clust_5="34.18499" pt_clust_6="62.86667"></scales>
<clustering>
<clus scale="   34.185">  1  5  2 -1</clus>
<clus scale="   62.867">  1  6  2 -1</clus>
<clus scale="  120.064">  2  4  1 -1</clus>
<clus scale="   34.185">  1  3  2 -1</clus>
</clustering>
</event>
<event>
 6    0  0.4227619E+002  0.1119310E+03  0.7546771E-02  0.1257035E+00
         21   -1    0    0  504  501  0.00000000000E+00  0.00000000000E+00  0.11404242480E+04  0.11404242480E+04  0.00000000000E+00 0.  1.
         21   -1    0    0  503  502 -0.00000000000E+00 -0.00000000000E+00 -0.20102507724E+03  0.20102507724E+03  0.00000000000E+00 0.  1.
         21    1    1    2  503  505  0.99742129211E+02  0.12160016179E+02 -0.27742960298E+02  0.10424025220E+03  0.00000000000E+00 0.  1.
         21    1    1    2  504  506  0.57865761323E+02 -0.33125522208E+02  0.23011927038E+03  0.23958427568E+03  0.00000000000E+00 0.  1.
         21    1    1    2  505  501 -0.36673656178E+02  0.13403102769E+02  0.83860108278E+03  0.83950960463E+03  0.00000000000E+00 0.  1.
         21    1    1    2  506  502 -0.12093423436E+03  0.75624032602E+01 -0.10157822207E+03  0.15811519276E+03  0.00000000000E+00 0.  1.
<scales pt_clust_3="111.93100" pt_clust_4="37.04212" pt_clust_5="39.04613" pt_clust_6="14000.00000"></scales>
<clustering>
<clus scale="   39.046">  1  5  2 -1</clus>
<clus scale="   37.042">  1  4  2 -1</clus>
<clus scale="  111.931">  1  3  2 -1</clus>
<clus scale="   39.046">  1  3  2 -1</clus>
</clustering>
</event>
<event>
 6    0  0.4227619E+002  0.1350099E+03  0.7546771E-02  0.1220206E+00
         21   -1    0    0  505  501  0.00000000000E+00  0.00000000000E+00  0.14012401874E+03  0.14012401874E+03  0.00000000000E+00 0.  1.
         21   -1    0    0  506  502 -0.00000000000E+00 -0.00000000000E+00 -0.61979541528E+03  0.61979541528E+03  0.00000000000E+00 0.  1.
         21    1    1    2  503  504 -0.44434972301E+02 -0.14784794735E+03 -0.14361579219E+03  0.21085297737E+03  0.00000000000E+00 0.  1.
         21    1    1    2  504  502 -0.65033531511E+02  0.12212051233E+03 -0.11440797583E+03  0.17953262847E+03  0.00000000000E+00 0.  1.
         21    1    1    2  505  503  0.26699390989E+02  0.28249667832E+02  0.62480482400E+02  0.73584725948E+02  0.00000000000E+00 0.  1.
         21    1    1    2  506  501  0.82769112823E+02 -0.25222328071E+01 -0.28412811091E+03  0.29594910222E+03  0.00000000000E+00 0.  1.
<scales pt_clust_3="135.00993" pt_clust_4="14000.00000" pt_clust_5="38.87031" pt_clust_6="84.95834"></scales>
<clustering>
<clus scale="   38.870">  1  5  2 -1</clus>
<clus scale="   84.958">  2  6  1 -1</clus>
<clus scale="  135.010">  1  3  2 -1</clus>
<clus scale="   38.870">  1  3  2 -1</clus>
</clustering>
</event>
<event>
 6    0  0.4227619E+002  0.1013827E+03  0.7546771E-02  0.1277415E+00
         21   -1    0    0  503  501  0.00000000000E+00  0.00000000000E+00  0.14201277313E+03  0.14201277313E+03  0.00000000000E+00 0.  1.
         21   -1    0    0  506  502 -0.00000000000E+00 -0.00000000000E+00 -0.11184251080E+04  0.11184251080E+04  0.00000000000E+00 0.  1.
         21    1    1    2  503  504  0.22363601439E+02 -0.75305728690E+02 -0.41436066964E+03  0.42174144684E+03  0.00000000000E+00 0.  1.
         21    1    1    2  504  502 -0.61854027704E+01 -0.47693412678E+02 -0.59983630891E+03  0.60176118046E+03  0.00000000000E+00 0.  1.
         21    1    1    2  505  501  0.16046286443E+02  0.10156386681E+03  0.11273385855E+03  0.15258317475E+03  0.00000000000E+00 0.  1.
         21    1    1    2  506  505 -0.32224485112E+02  0.21435274554E+02 -0.74949214870E+02  0.84352079082E+02  0.00000000000E+00 0.  1.
<scales pt_clust_3="14000.00000" pt_clust_4="43.15073" pt_clust_5="101.38273" pt_clust_6="38.70256"></scales>
<clustering>
<clus scale="   38.703">  2  6  1 -1</clus>
<clus scale="   43.151">  2  4  1 -1</clus>
<clus scale="  101.383">  1  5  2 -1</clus>
<clus scale="  101.383">  1  3  2 -1</clus>
</clustering>
</event>
<event>
 6    0  0.4227619E+002  0.7017725E+02  0.7546771E-02  0.1359491E+00
         21   -1    0    0  506  501  0.00000000000E+00  0.00000000000E+00  0.14724800948E+03  0.14724800948E+03  0.00000000000E+00 0.  1.
         21   -1    0    0  504  502 -0.00000000000E+00 -0.00000000000E+00 -0.22325127423E+04  0.22325127423E+04  0.00000000000E+00 0.  1.
         21    1    1    2  503  502  0.37743657504E+02 -0.24048398087E+02 -0.80699599208E+02  0.92278569802E+02  0.00000000000E+00 0.  1.
         21    1    1    2  504  505  0.27825697426E+02 -0.34400635615E+02 -0.20913691641E+04  0.20918371480E+04  0.00000000000E+00 0.  1.
         21    1    1    2  505  501 -0.14390543572E+02  0.97368556276E+02  0.15510182634E+02  0.99640801186E+02  0.00000000000E+00 0.  1.
         21    1    1    2  506  503 -0.51178811358E+02 -0.38919522574E+02  0.71293847867E+02  0.96004232787E+02  0.00000000000E+00 0.  1.
<scales pt_clust_3="70.17725" pt_clust_4="44.24560" pt_clust_5="14000.00000" pt_clust_6="64.29700"></scales>
<clustering>
<clus scale="   44.246">  2  4  1 -1</clus>
<clus scale="   64.297">  1  6  2 -1</clus>
<clus scale="   70.177">  2  3  1 -1</clus>
<clus scale="   64.297">  1  3  2 -1</clus>
</clustering>
</event>
<event>
 6    0  0.4227619E+002  0.1104591E+03  0.7546771E-02  0.1259722E+00
         21   -1    0    0  505  501  0.00000000000E+00  0.00000000000E+00  0.10303592755E+03  0.10303592755E+03  0.00000000000E+00 0.  1.
         21   -1    0    0  504  502 -0.00000000000E+00 -0.00000000000E+00 -0.40376188369E+03  0.40376188369E+03  0.00000000000E+00 0.  1.
         21    1    1    2  503  502 -0.33759445233E+02  0.84365853220E+02  0.42793517340E+02  0.10044193576E+03  0.00000000000E+00 0.  1.
         21    1    1    2  504  506  0.35191501089E+01 -0.32743619507E+02 -0.49157037290E+02  0.59168770066E+02  0.00000000000E+00 0.  1.
         21    1    1    2  505  503 -0.51004377437E+02  0.34980545212E+01 -0.18489464747E+02  0.54364907889E+02  0.00000000000E+00 0.  1.
         21    1    1    2  506  501  0.81244672562E+02 -0.55120288234E+02 -0.27587297144E+03  0.29282219753E+03  0.00000000000E+00 0.  1.
<scales pt_clust_3="14000.00000" pt_clust_4="32.93219" pt_clust_5="50.63777" pt_clust_6="110.45914"></scales>
<clustering>
<clus scale="   32.932">  2  4  1 -1</clus>
<clus scale="   50.638">  1  5  2 -1</clus>
<clus scale="  110.459">  2  6  1 -1</clus>
<clus scale="   50.638">  1  3  2 -1</clus>
</clustering>
</event>
<event>
 6    0  0.4227619E+002  0.1314370E+03  0.7546771E-02  0.1225339E+00
         21   -1    0    0  503  501  0.00000000000E+00  0.00000000000E+00  0.53616308938E+03  0.53616308938E+03  0.00000000000E+00 0.  1.
         21   -1    0    0  505  502 -0.00000000000E+00 -0.00000000000E+00 -0.86566387428E+02  0.86566387428E+02  0.00000000000E+00 0.  1.
         21    1    1    2  503  506  0.10404940030E+03  0.78171313056E+02  0.23564234189E+03  0.26919202288E+03  0.00000000000E+00 0.  1.
         21    1    1    2  504  501 -0.13408607971E+03 -0.35399821762E+02  0.20478192133E+03  0.24732136878E+03  0.00000000000E+00 0.  1.
         21    1    1    2  505  504 -0.40546236386E+01 -0.59793382947E+02  0.25024720413E+02  0.64945556036E+02  0.00000000000E+00 0.  1.
         21    1    1    2  506  502  0.34091303041E+02  0.17021891652E+02 -0.15852281685E+02  0.41270529111E+02  0.00000000000E+00 0.  1.
<scales pt_clust_3="131.43696" pt_clust_4="14000.00000" pt_clust_5="54.47946" pt_clust_6="38.10462"></scales>
<clustering>
<clus scale="   38.105">  2  6  1 -1</clus>
<clus scale="   54.479">  2  5  1 -1</clus>
<clus scale="  131.437">  1  3  2 -1</clus>
<clus scale="  131.437">  1  3  2 -1</clus>
</clustering>
</event>
<event>
 6    0  0.4227619E+002  0.1631887E+03  0.7546771E-02  0.1185143E+00
         21   -1    0    0  505  501  0.00000000000E+00  0.00000000000E+00  0.73472545531E+03  0.73472545531E+03  0.00000000000E+00 0. -1.
         21   -1    0    0  506  502 -0.00000000000E+00 -0.00000000000E+00 -0.79627904196E+02  0.79627904196E+02  0.00000000000E+00 0.  1.
         21    1    1    2  503  501 -0.11374395617E+03 -0.43923435538E+02  0.53249753600E+03  0.54627884968E+03  0.00000000000E+00 0. -1.
         21    1    1    2  504  503  0.98244866839E+02  0.36606305060E+02  0.49562141507E+02  0.11596758729E+03  0.00000000000E+00 0.  1.
         21    1    1    2  505  502 -0.36080699855E+02  0.24944541681E+02  0.85586681004E+02  0.96172381830E+02  0.00000000000E+00 0. -1.
         21    1    1    2  506  504  0.51579789185E+02 -0.17627411203E+02 -0.12548807396E+02  0.55934540716E+02  0.00000000000E+00 0.  1.
<scales pt_clust_3="145.80060" pt_clust_4="52.95286" pt_clust_5="43.86396" pt_clust_6="52.95286"></scales>
<clustering>
<clus scale="   43.864">  1  5  2 -1</clus>
<clus scale="   52.953">  4  6 -1 -1</clus>
<clus scale="  145.801">  1  3  2 -1</clus>
<clus scale="   43.864">  1  3  2 -1</clus>
</clustering>
</event>
<event>
 6    0  0.4227619E+002  0.8957844E+02  0.7546771E-02  0.1303876E+00
         21   -1    0    0  503  501  0.00000000000E+00  0.00000000000E+00  0.60229573740E+03  0.60229573740E+03  0.00000000000E+00 0.  1.
         21   -1    0    0  504  502 -0.00000000000E+00 -0.00000000000E+00 -0.27809988007E+03  0.27809988007E+03  0.00000000000E+00 0.  1.
         21    1    1    2  503  505  0.72890422082E+02 -0.79909147232E+01  0.40042829674E+03  0.40708683248E+03  0.00000000000E+00 0.  1.
         21    1    1    2  504  506 -0.23093521144E+02  0.40831631915E+02  0.13791761787E+02  0.48895251067E+02  0.00000000000E+00 0.  1.
         21    1    1    2  505  502  0.15683870536E+02  0.53098112885E+02 -0.23622286360E+03  0.24262447254E+03  0.00000000000E+00 0.  1.
         21    1    1    2  506  501 -0.65480771474E+02 -0.85938830077E+02  0.14619866241E+03  0.18178906138E+03  0.00000000000E+00 0.  1.
<scales pt_clust_3="72.97857" pt_clust_4="46.90984" pt_clust_5="89.57844" pt_clust_6="14000.00000"></scales>
<clustering>
<clus scale="   46.910">  2  4  1 -1</clus>
<clus scale="   72.979">  1  3  2 -1</clus>
<clus scale="   89.578">  2  5  1 -1</clus>
<clus scale="   72.979">  1  3  2 -1</clus>
</clustering>
</event>
<event>
 6    0  0.4227619E+002  0.1273280E+03  0.7546771E-02  0.1231475E+00
         21   -1    0    0  505  501  0.00000000000E+00  0.00000000000E+00  0.75995308598E+02  0.75995308598E+02  0.00000000000E+00 0. -1.
         21   -1    0    0  506  502 -0.00000000000E+00 -0.00000000000E+00 -0.75502601936E+03  0.75502601936E+03  0.00000000000E+00 0. -1.
         21    1    1    2  503  502 -0.45126632725E+02  0.17918540124E+02 -0.23960278039E+03  0.24447286031E+03  0.00000000000E+00 0. -1.
         21    1    1    2  504  503 -0.61176025982E+02 -0.18399194133E+02 -0.21326625461E+03  0.22262868605E+03  0.00000000000E+00 0. -1.
         21    1    1    2  505  504 -0.88009965533E+01  0.11829105006E+03 -0.74841908490E+02  0.14025527202E+03  0.00000000000E+00 0. -1.
         21    1    1    2  506  501  0.11510365526E+03 -0.11781039605E+03 -0.15131976728E+03  0.22366450957E+03  0.00000000000E+00 0. -1.
<scales pt_clust_3="36.91565" pt_clust_4="114.42680" pt_clust_5="127.32796" pt_clust_6="14000.00000"></scales>
<clustering>
<clus scale="   36.916">  3  4 -1 -1</clus>
<clus scale="  114.427">  2  3  1 -1</clus>
<clus scale="  127.328">  1  5  2 -1</clus>
<clus scale="  127.328">  1  3  2 -1</clus>
</clustering>
</event>
<event>
 6    0  0.4227619E+002  0.9767840E+02  0.7546771E-02  0.1285255E+00
         21   -1    0    0  506  501  0.00000000000E+00  0.00000000000E+00  0.33350031213E+03  0.33350031213E+03  0.00000000000E+00 0.  1.
         21   -1    0    0  504  502 -0.00000000000E+00 -0.00000000000E+00 -0.44962397308E+03  0.44962397308E+03  0.00000000000E+00 0. -1.
         21    1    1    2  503  502  0.50679527225E+02 -0.10973918973E+03 -0.25609830532E+03  0.28319153630E+03  0.00000000000E+00 0. -1.
         21    1    1    2  504  501 -0.28425663904E+02  0.74994497938E+02 -0.14634256792E+03  0.16687821990E+03  0.00000000000E+00 0. -1.
         21    1    1    2  505  503 -0.58603019326E+02  0.43012423525E+02  0.38136914215E+02  0.82090234970E+02  0.00000000000E+00 0.  1.
         21    1    1    2  506  505  0.36349156006E+02 -0.82677317312E+01  0.24818029808E+03  0.25096429404E+03  0.00000000000E+00 0.  1.
<scales pt_clust_3="14000.00000" pt_clust_4="97.67840" pt_clust_5="49.35973" pt_clust_6="37.27756"></scales>
<clustering>
<clus scale="   37.278">  1  6  2 -1</clus>
<clus scale="   49.360">  1  5  2 -1</clus>
<clus scale="   97.678">  2  4  1 -1</clus>
<clus scale="   37.278">  1  3  2 -1</clus>
</clustering>
</event>
<event>
 6    0  0.4227619E+002  0.6037284E+02  0.7546771E-02  0.1396274E+00
         21   -1    0    0  504  501  0.00000000000E+00  0.00000000000E+00  0.24723754680E+04  0.24723754680E+04  0.00000000000E+00 0.  1.
         21   -1    0    0  505  502 -0.00000000000E+00 -0.00000000000E+00 -0.18712604354E+03  0.18712604354E+03  0.00000000000E+00 0.  1.
         21    1    1    2  503  501  0.64220116071E+02  0.72535621888E+02  0.21731187434E+04  0.21752771577E+04  0.00000000000E+00 0.  1.
         21    1    1    2  504  506 -0.17593639993E+02 -0.34999507925E+02  0.25502461554E+03  0.25801561242E+03  0.00000000000E+00 0.  1.
         21    1    1    2  505  503 -0.51868345469E+01 -0.68778614936E+02 -0.15779784031E+03  0.17221370309E+03  0.00000000000E+00 0.  1.
         21    1    1    2  506  502 -0.41439641531E+02  0.31242500973E+02  0.14903905790E+02  0.53995038337E+02  0.00000000000E+00 0. -1.
<scales pt_clust_3="14000.00000" pt_clust_4="39.17272" pt_clust_5="60.37284" pt_clust_6="51.79168"></scales>
<clustering>
<clus scale="   39.173">  1  4  2 -1</clus>
<clus scale="   51.792">  2  6  1 -1</clus>
<clus scale="   60.373">  2  5  1 -1</clus>
<clus scale="   39.173">  1  3  2 -1</clus>
</clustering>
</event>
<event>
 6    0  0.4227619E+002  0.1653852E+03  0.7546771E-02  0.1182748E+00
         21   -1    0    0  505  501  0.00000000000E+00  0.00000000000E+00  0.51452744968E+03  0.51452744968E+03  0.00000000000E+00 0. -1.
         21   -1    0    0  506  502 -0.00000000000E+00 -0.00000000000E+00 -0.37598580233E+03  0.37598580233E+03  0.00000000000E+00 0. -1.
         21    1    1    2  503  502 -0.15694894124E+03  0.87376590929E+01  0.12731077426E+02  0.15770668082E+03  0.00000000000E+00 0. -1.
         21    1    1    2  504  501  0.27763984906E+02 -0.42421729972E+02 -0.30990000065E+02  0.59420721434E+02  0.00000000000E+00 0. -1.
         21    1    1    2  505  503  0.37213330545E+02  0.15367790415E+03  0.37554739167E+03  0.40747708351E+03  0.00000000000E+00 0. -1.
         21    1    1    2  506  504  0.91971625793E+02 -0.11999383327E+03 -0.21874682167E+03  0.26590876624E+03  0.00000000000E+00 0. -1.
<scales pt_clust_3="157.19197" pt_clust_4="30.39731" pt_clust_5="156.83401" pt_clust_6="30.39731"></scales>
<clustering>
<clus scale="   30.397">  4  6 -1 -1</clus>
<clus scale="  157.192">  2  3  1 -1</clus>
<clus scale="  156.834">  1  5  2 -1</clus>
<clus scale="  156.834">  1  3  2 -1</clus>
</clustering>
</event>
<event>
 6    0  0.4227619E+002  0.2868344E+03  0.7546771E-02  0.1092014E+00
         21   -1    0    0  505  501  0.00000000000E+00  0.00000000000E+00  0.49331294348E+03  0.49331294348E+03  0.00000000000E+00 0.  1.
         21   -1    0    0  504  502 -0.00000000000E+00 -0.00000000000E+00 -0.45651247040E+03  0.45651247040E+03  0.00000000000E+00 0.  1.
         21    1    1    2  503  506 -0.10079768680E+03  0.32138180086E+03 -0.17264485945E+02  0.33726028237E+03  0.00000000000E+00 0.  1.
         21    1    1    2  504  503  0.53898796622E+02 -0.25377988759E+03 -0.18509566915E+03  0.31870004450E+03  0.00000000000E+00 0.  1.
         21    1    1    2  505  502  0.34538833728E+02  0.70355821819E-01 -0.95347285805E+01  0.35830811243E+02  0.00000000000E+00 0.  1.
         21    1    1    2  506  501  0.12360056446E+02 -0.67672269089E+02  0.24869535676E+03  0.25803427577E+03  0.00000000000E+00 0.  1.
<scales pt_clust_3="14000.00000" pt_clust_4="286.83435" pt_clust_5="34.53891" pt_clust_6="68.85879"></scales>
<clustering>
<clus scale="   34.539">  2  5  1 -1</clus>
<clus scale="   68.859">  1  6  2 -1</clus>
<clus scale="  286.834">  2  4  1 -1</clus>
<clus scale="   68.859">  1  3  2 -1</clus>
</clustering>
</event>
<event>
 6    0  0.4227619E+002  0.1100099E+03  0.7546771E-02  0.1260552E+00
         21   -1    0    0  505  501  0.00000000000E+00  0.00000000000E+00  0.10650407630E+03  0.10650407630E+03  0.00000000000E+00 0. -1.
         21   -1    0    0  504  502 -0.00000000000E+00 -0.00000000000E+00 -0.55759866237E+03  0.55759866237E+03  0.00000000000E+00 0. -1.
         21    1    1    2  503  506  0.16287639820E+02  0.60846273148E+02  0.36745427295E+02  0.72923127977E+02  0.00000000000E+00 0. -1.
         21    1    1    2  504  501  0.39666476271E+02 -0.98489664193E+02 -0.94334371432E+02  0.14203033805E+03  0.00000000000E+00 0. -1.
         21    1    1    2  505  503 -0.17141783342E+02  0.42217619599E+02  0.75566822174E+01  0.46187353105E+02  0.00000000000E+00 0.  1.
         21    1    1    2  506  502 -0.38812332748E+02 -0.45742285541E+01 -0.40106232416E+03  0.40296191954E+03  0.00000000000E+00 0. -1.
<scales pt_clust_3="34.03926" pt_clust_4="102.47162" pt_clust_5="34.03926" pt_clust_6="39.08095"></scales>
<clustering>
<clus scale="   34.039">  3  5 -1 -1</clus>
<clus scale="   39.081">  2  6  1 -1</clus>
<clus scale="  102.472">  2  4  1 -1</clus>
<clus scale="  110.010">  1  3  2 -1</clus>
</clustering>
</event>
<event>
 6    0  0.4227619E+002  0.8713864E+02  0.7546771E-02  0.1309933E+00
         21   -1    0    0  506  501  0.00000000000E+00  0.00000000000E+00  0.13804624643E+04  0.13804624643E+04  0.00000000000E+00 0. -1.
         21   -1    0    0  503  502 -0.00000000000E+00 -0.00000000000E+00 -0.31862618886E+02  0.31862618886E+02  0.00000000000E+00 0. -1.
         21    1    1    2  503  504  0.11505721471E+02  0.10409730915E+03  0.23139338429E+03  0.25399120003E+03  0.00000000000E+00 0. -1.
         21    1    1    2  504  501  0.97505835306E+02 -0.38829654744E+02  0.29492209411E+03  0.31304020764E+03  0.00000000000E+00 0. -1.
         21    1    1    2  505  502 -0.61578392821E+02 -0.46252364583E+02  0.12981155482E+03  0.15093779996E+03  0.00000000000E+00 0.  1.
         21    1    1    2  506  505 -0.47433163956E+02 -0.19015289826E+02  0.69247281221E+03  0.69435587557E+03  0.00000000000E+00 0. -1.
<scales pt_clust_3="82.67253" pt_clust_4="14000.00000" pt_clust_5="87.13864" pt_clust_6="51.10270"></scales>
<clustering>
<clus scale="   51.103">  1  6  2 -1</clus>
<clus scale="   87.139">  2  5  1 -1</clus>
<clus scale="   82.673">  2  3  1 -1</clus>
<clus scale="   51.103">  1  3  2 -1</clus>
</clustering>
</event>
<event>
 6    0  0.4227619E+002  0.3363458E+03  0.7546771E-02  0.1068363E+00
         21   -1    0    0  505  501  0.00000000000E+00  0.00000000000E+00  0.26464193598E+04  0.26464193598E+04  0.00000000000E+00 0. -1.
         21   -1    0    0  503  502 -0.00000000000E+00 -0.00000000000E+00 -0.14548528232E+03  0.14548528232E+03  0.00000000000E+00 0. -1.
         21    1    1    2  503  501 -0.29920712897E+03 -0.16262177949E+03  0.21545630352E+04  0.21813098409E+04  0.00000000000E+00 0. -1.
         21    1    1    2  504  506  0.94657262148E+02 -0.24569192311E+02  0.18502657639E+03  0.20928085545E+03  0.00000000000E+00 0.  1.
         21    1    1    2  505  504  0.25352930535E+03  0.16522372322E+03  0.97571935363E+02  0.31795639632E+03  0.00000000000E+00 0. -1.
         21    1    1    2  506  502 -0.48979438528E+02  0.21967248573E+02  0.63772530558E+02  0.83357549521E+02  0.00000000000E+00 0. -1.
<scales pt_clust_3="14000.00000" pt_clust_4="93.06709" pt_clust_5="336.34580" pt_clust_6="53.68003"></scales>
<clustering>
<clus scale="   53.680">  2  6  1 -1</clus>
<clus scale="   93.067">  2  4  1 -1</clus>
<clus scale="  336.346">  2  5  1 -1</clus>
<clus scale="  336.346">  1  3  2 -1</clus>
</clustering>
</event>
<event>
 6    0  0.4227619E+002  0.9645122E+02  0.7546771E-02  0.1287941E+00
         21   -1    0    0  503  501  0.00000000000E+00  0.00000000000E+00  0.37747468915E+03  0.37747468915E+03  0.00000000000E+00 0. -1.
         21   -1    0    0  504  502 -0.00000000000E+00 -0.00000000000E+00 -0.41724016155E+03  0.41724016155E+03  0.00000000000E+00 0. -1.
         21    1    1    2  503  502 -0.22749533783E+01 -0.96531078324E+02  0.23150829741E+03  0.25083762928E+03  0.00000000000E+00 0. -1.
         21    1    1    2  504  505  0.37901349320E+02 -0.27836262632E+01 -0.22575205116E+03  0.22892848110E+03  0.00000000000E+00 0. -1.
         21    1    1    2  505  506  0.26093945718E+02  0.79434775188E+02 -0.16162182943E+03  0.18196811056E+03  0.00000000000E+00 0. -1.
         21    1    1    2  506  501 -0.61720341660E+02  0.19879929399E+02  0.11610011078E+03  0.13298062976E+03  0.00000000000E+00 0. -1.
<scales pt_clust_3="96.45122" pt_clust_4="38.00343" pt_clust_5="14000.00000" pt_clust_6="63.20287"></scales>
<clustering>
<clus scale="   38.003">  2  4  1 -1</clus>
<clus scale="   63.203">  1  6  2 -1</clus>
<clus scale="   96.451">  1  3  2 -1</clus>
<clus scale="   63.203">  1  3  2 -1</clus>
</clustering>
</event>
<event>
 6    0  0.4227619E+002  0.1353917E+03  0.7546771E-02  0.1219668E+00
         21   -1    0    0  505  501  0.00000000000E+00  0.00000000000E+00  0.77191559571E+03  0.77191559571E+03  0.00000000000E+00 0.  1.
         21   -1    0    0  506  502 -0.00000000000E+00 -0.00000000000E+00 -0.12057361839E+03  0.12057361839E+03  0.00000000000E+00 0. -1.
         21    1    1    2  503  501 -0.36669933735E+02  0.36204175727E+02  0.62228047705E+02  0.80794531382E+02  0.00000000000E+00 0. -1.
         21    1    1    2  504  502 -0.61025152886E+00  0.42124318224E+02  0.19781648693E+03  0.20225279502E+03  0.00000000000E+00 0. -1.
         21    1    1    2  505  504 -0.25288590836E+02  0.37203843020E+02  0.45930130484E+03  0.46149900042E+03  0.00000000000E+00 0.  1.
         21    1    1    2  506  503  0.62568776099E+02 -0.11553233697E+03 -0.68003862146E+02  0.14794288728E+03  0.00000000000E+00 0. -1.
<scales pt_clust_3="51.53083" pt_clust_4="41.04546" pt_clust_5="41.04546" pt_clust_6="128.57669"></scales>
<clustering>
<clus scale="   41.045">  4  5 -1 -1</clus>
<clus scale="   51.531">  1  3  2 -1</clus>
<clus scale="  128.577">  2  6  1 -1</clus>
<clus scale="   51.531">  1  3  2 -1</clus>
</clustering>
</event>
<event>
 6    0  0.4227619E+002  0.8995620E+02  0.7546771E-02  0.1302958E+00
         21   -1    0    0  503  501  0.00000000000E+00  0.00000000000E+00  0.27927113499E+03  0.27927113499E+03  0.00000000000E+00 0. -1.
         21   -1    0    0  506  502 -0.00000000000E+00 -0.00000000000E+00 -0.11072159276E+03  0.11072159276E+03  0.00000000000E+00 0. -1.
         21    1    1    2  503  505  0.29736393713E+02 -0.69121544684E+02 -0.23773894433E+02  0.78912857679E+02  0.00000000000E+00 0. -1.
         21    1    1    2  504  501 -0.15337080208E+02 -0.42496174052E+02  0.38341689849E+02  0.59255683431E+02  0.00000000000E+00 0. -1.
         21    1    1    2  505  502 -0.31922750778E+02 -0.19022647838E+02 -0.12746840450E+02  0.39286194642E+02  0.00000000000E+00 0. -1.
         21    1    1    2  506  504  0.17523437273E+02  0.13064036657E+03  0.16672858727E+03  0.21253799200E+03  0.00000000000E+00 0. -1.
<scales pt_clust_3="14000.00000" pt_clust_4="48.81266" pt_clust_5="37.16077" pt_clust_6="89.95620"></scales>
<clustering>
<clus scale="   37.161">  2  5  1 -1</clus>
<clus scale="   48.813">  1  4  2 -1</clus>
<clus scale="   89.956">  1  6  2 -1</clus>
<clus scale="   48.813">  1  3  2 -1</clus>
</clustering>
</event>
<event>
 6    0  0.4227619E+002  0.8922147E+02  0.7546771E-02  0.1304748E+00
         21   -1    0    0  505  501  0.00000000000E+00  0.00000000000E+00  0.63798159654E+03  0.63798159654E+03  0.00000000000E+00 0. -1.
         21   -1    0    0  506  502 -0.00000000000E+00 -0.00000000000E+00 -0.13389906374E+03  0.13389906374E+03  0.00000000000E+00 0.  1.
         21    1    1    2  503  502 -0.31985767819E+02  0.78601282528E+02 -0.48564212803E+02  0.97773890805E+02  0.00000000000E+00 0.  1.
         21    1    1    2  504  501 -0.55881549538E+02 -0.31384626885E+02  0.21818117765E+03  0.22740001905E+03  0.00000000000E+00 0. -1.
         21    1    1    2  505  503  0.13560226991E+03  0.39593440257E+02  0.31571662798E+03  0.34587946643E+03  0.00000000000E+00 0. -1.
         21    1    1    2  506  504 -0.47734952552E+02 -0.86810095899E+02  0.18748939965E+02  0.10082728398E+03  0.00000000000E+00 0. -1.
<scales pt_clust_3="84.46979" pt_clust_4="64.09167" pt_clust_5="14000.00000" pt_clust_6="89.22147"></scales>
<clustering>
<clus scale="   64.092">  1  4  2 -1</clus>
<clus scale="   84.470">  2  3  1 -1</clus>
<clus scale="   89.221">  2  6  1 -1</clus>
<clus scale="   64.092">  1  3  2 -1</clus>
</clustering>
</event>
<event>
 6    0  0.4227619E+002  0.8123398E+02  0.7546771E-02  0.1325586E+00
         21   -1    0    0  504  501  0.00000000000E+00  0.00000000000E+00  0.12882101617E+04  0.12882101617E+04  0.00000000000E+00 0.  1.
         21   -1    0    0  506  502 -0.00000000000E+00 -0.00000000000E+00 -0.60840707096E+02  0.60840707096E+02  0.00000000000E+00 0. -1.
         21    1    1    2  503  501 -0.63216913457E+01 -0.62706048193E+02  0.85048196369E+03  0.85281392040E+03  0.00000000000E+00 0.  1.
         21    1    1    2  504  505  0.54941376896E+02  0.18779039615E+02  0.22647192874E+03  0.23379636809E+03  0.00000000000E+00 0. -1.
         21    1    1    2  505  502 -0.39758746614E+02 -0.66802444199E+02  0.29199193860E+01  0.77793639923E+02  0.00000000000E+00 0. -1.
         21    1    1    2  506  503 -0.88609389363E+01  0.11072945278E+03  0.14749564276E+03  0.18464694036E+03  0.00000000000E+00 0. -1.
<scales pt_clust_3="60.83870" pt_clust_4="58.06210" pt_clust_5="14000.00000" pt_clust_6="81.23398"></scales>
<clustering>
<clus scale="   58.062">  1  4  2 -1</clus>
<clus scale="   60.839">  1  3  2 -1</clus>
<clus scale="   81.234">  1  6  2 -1</clus>
<clus scale="   58.062">  1  3  2 -1</clus>
</clustering>
</event>
<event>
 6    0  0.4227619E+002  0.1684889E+03  0.7546771E-02  0.1179433E+00
         21   -1    0    0  506  501  0.00000000000E+00  0.00000000000E+00  0.60397088337E+03  0.60397088337E+03  0.00000000000E+00 0. -1.
         21   -1    0    0  503  502 -0.00000000000E+00 -0.00000000000E+00 -0.82967639868E+03  0.82967639868E+03  0.00000000000E+00 0. -1.
         21    1    1    2  503  505  0.22968321606E+02  0.28399198958E+02 -0.37640689385E+03  0.37817483792E+03  0.00000000000E+00 0. -1.
         21    1    1    2  504  501 -0.55924733661E+02  0.44157780991E+01  0.15902320420E+03  0.16862815425E+03  0.00000000000E+00 0. -1.
         21    1    1    2  505  504  0.11385268652E+03  0.15097251678E+03  0.39409419744E+03  0.43711025097E+03  0.00000000000E+00 0. -1.
         21    1    1    2  506  502 -0.80896274462E+02 -0.18378749383E+03 -0.40241602309E+03  0.44973403891E+03  0.00000000000E+00 0. -1.
<scales pt_clust_3="36.52476" pt_clust_4="55.88037" pt_clust_5="14000.00000" pt_clust_6="168.48885"></scales>
<clustering>
<clus scale="   36.525">  2  3  1 -1</clus>
<clus scale="   55.880">  1  4  2 -1</clus>
<clus scale="  168.489">  2  6  1 -1</clus>
<clus scale="   55.880">  1  3  2 -1</clus>
</clustering>
</event>
<event>
 6    0  0.4227619E+002  0.8865747E+02  0.7546771E-02  0.1306136E+00
         21   -1    0    0  505  501  0.00000000000E+00  0.00000000000E+00  0.62615923758E+03  0.62615923758E+03  0.00000000000E+00 0.  1.
         21   -1    0    0  503  502 -0.00000000000E+00 -0.00000000000E+00 -0.11671856207E+03  0.11671856207E+03  0.00000000000E+00 0.  1.
         21    1    1    2  503  506  0.61628188733E+02 -0.19521631409E+02 -0.38537664048E+02  0.75261406376E+02  0.00000000000E+00 0.  1.
         21    1    1    2  504  501 -0.36166626442E+02 -0.42456341747E+02  0.28482357707E+03  0.29023272710E+03  0.00000000000E+00 0.  1.
         21    1    1    2  505  502 -0.13249031030E+02  0.12364650930E+03  0.28490484976E+03  0.31086133484E+03  0.00000000000E+00 0.  1.
         21    1    1    2  506  504 -0.12212531262E+02 -0.61668536141E+02 -0.21750087270E+02  0.66522331332E+02  0.00000000000E+00 0.  1.
<scales pt_clust_3="63.53298" pt_clust_4="55.77245" pt_clust_5="14000.00000" pt_clust_6="88.65747"></scales>
<clustering>
<clus scale="   55.772">  1  4  2 -1</clus>
<clus scale="   63.533">  2  3  1 -1</clus>
<clus scale="   88.657">  2  6  1 -1</clus>
<clus scale="   55.772">  1  3  2 -1</clus>
</clustering>
</event>
<event>
 6    0  0.4227619E+002  0.1386724E+03  0.7546771E-02  0.1215127E+00
         21   -1    0    0  503  501  0.00000000000E+00  0.00000000000E+00  0.47536626748E+03  0.47536626748E+03  0.00000000000E+00 0. -1.
         21   -1    0    0  505  502 -0.00000000000E+00 -0.00000000000E+00 -0.13350161636E+04  0.13350161636E+04  0.00000000000E+00 0. -1.
         21    1    1    2  503  504  0.59589322892E+02  0.87987547391E+02 -0.73377071723E+02  0.12913903574E+03  0.00000000000E+00 0.  1.
         21    1    1    2  504  506  0.60606017548E+01  0.62935060479E+02 -0.10377725978E+04  0.10396968392E+04  0.00000000000E+00 0. -1.
         21    1    1    2  505  501 -0.92547072591E+02 -0.10823091645E+03  0.43161335137E+03  0.45449859956E+03  0.00000000000E+00 0. -1.
         21    1    1    2  506  502  0.26897147945E+02 -0.42691691418E+02 -0.18011357802E+03  0.18704795660E+03  0.00000000000E+00 0. -1.
<scales pt_clust_3="138.67243" pt_clust_4="38.93641" pt_clust_5="14000.00000" pt_clust_6="50.45827"></scales>
<clustering>
<clus scale="   50.458">  2  6  1 -1</clus>
<clus scale="   38.936">  2  4  1 -1</clus>
<clus scale="  138.672">  2  3  1 -1</clus>
<clus scale="  138.672">  1  3  2 -1</clus>
</clustering>
</event>
<event>
 6    0  0.4227619E+002  0.1202607E+03  0.7546771E-02  0.1242668E+00
         21   -1    0    0  503  501  0.00000000000E+00  0.00000000000E+00  0.15923524155E+04  0.15923524155E+04  0.00000000000E+00 0.  1.
         21   -1    0    0  505  502 -0.00000000000E+00 -0.00000000000E+00 -0.20479063166E+03  0.20479063166E+03  0.00000000000E+00 0. -1.
         21    1    1    2  503  504 -0.95413376201E+02 -0.12246015013E+03  0.75137506548E+03  0.76724486949E+03  0.00000000000E+00 0.  1.
         21    1    1    2  504  502  0.10931979142E+03  0.15679779205E+02  0.22977033017E+03  0.25493347544E+03  0.00000000000E+00 0.  1.
         21    1    1    2  505  506 -0.14707034274E+02  0.59391829390E+02 -0.17820961941E+03  0.18842068545E+03  0.00000000000E+00 0. -1.
         21    1    1    2  506  501  0.80061905106E+00  0.47388541535E+02  0.58462600765E+03  0.58654401683E+03  0.00000000000E+00 0.  1.
<scales pt_clust_3="120.26070" pt_clust_4="14000.00000" pt_clust_5="61.41800" pt_clust_6="47.39530"></scales>
<clustering>
<clus scale="   47.395">  1  6  2 -1</clus>
<clus scale="   61.418">  2  5  1 -1</clus>
<clus scale="  120.261">  1  3  2 -1</clus>
<clus scale="   47.395">  1  3  2 -1</clus>
</clustering>
</event>
<event>
 6    0  0.4227619E+002  0.2224934E+03  0.7546771E-02  0.1132038E+00
         21   -1    0    0  506  501  0.00000000000E+00  0.00000000000E+00  0.21510339874E+04  0.21510339874E+04  0.00000000000E+00 0. -1.
         21   -1    0    0  505  502 -0.00000000000E+00 -0.00000000000E+00 -0.58438829851E+02  0.58438829851E+02  0.00000000000E+00 0.  1.
         21    1    1    2  503  504  0.16334641566E+03 -0.82934438283E+02  0.14763360232E+04  0.14876586390E+04  0.00000000000E+00 0. -1.
         21    1    1    2  504  502 -0.14931154238E+03  0.56462707131E+02  0.18790050512E+03  0.24655338937E+03  0.00000000000E+00 0.  1.
         21    1    1    2  505  501 -0.17175392264E+02  0.76459281845E+02  0.48595895304E+02  0.92209418825E+02  0.00000000000E+00 0.  1.
         21    1    1    2  506  503  0.31405189886E+01 -0.49987550692E+02  0.37976273393E+03  0.38305137014E+03  0.00000000000E+00 0. -1.
<scales pt_clust_3="49.78963" pt_clust_4="201.08740" pt_clust_5="78.36463" pt_clust_6="49.78963"></scales>
<clustering>
<clus scale="   49.790">  3  6 -1 -1</clus>
<clus scale="   78.365">  2  5  1 -1</clus>
<clus scale="  201.087">  2  4  1 -1</clus>
<clus scale="  222.493">  1  3  2 -1</clus>
</clustering>
</event>
<event>
 6    0  0.4227619E+002  0.6457472E+02  0.7546771E-02  0.1379578E+00
         21   -1    0    0  505  501  0.00000000000E+00  0.00000000000E+00  0.41433959305E+03  0.41433959305E+03  0.00000000000E+00 0.  1.
         21   -1    0    0  504  502 -0.00000000000E+00 -0.00000000000E+00 -0.79847076781E+03  0.79847076781E+03  0.00000000000E+00 0.  1.
         21    1    1    2  503  501 -0.22305747811E+01 -0.57901557256E+02  0.22259921139E+03  0.23001733566E+03  0.00000000000E+00 0.  1.
         21    1    1    2  504  503  0.67024653315E+02  0.37437708649E+02 -0.10463131342E+02  0.77481373881E+02  0.00000000000E+00 0.  1.
         21    1    1    2  505  506 -0.61577267540E+02  0.65665744781E+02  0.14065588616E+03  0.16699649166E+03  0.00000000000E+00 0.  1.
         21    1    1    2  506  502 -0.32168109940E+01 -0.45201896175E+02 -0.73692314096E+03  0.73831515965E+03  0.00000000000E+00 0.  1.
<scales pt_clust_3="60.70525" pt_clust_4="14000.00000" pt_clust_5="64.57472" pt_clust_6="45.31621"></scales>
<clustering>
<clus scale="   45.316">  2  6  1 -1</clus>
<clus scale="   60.705">  1  3  2 -1</clus>
<clus scale="   64.575">  1  5  2 -1</clus>
<clus scale="   60.705">  1  3  2 -1</clus>
</clustering>
</event>
<event>
 6    0  0.4227619E+002  0.1346746E+03  0.7546771E-02  0.1220680E+00
         21   -1    0    0  503  501  0.00000000000E+00  0.00000000000E+00  0.56074255843E+03  0.56074255843E+03  0.00000000000E+00 0.  1.
         21   -1    0    0  505  502 -0.00000000000E+00 -0.00000000000E+00 -0.88276809682E+02  0.88276809682E+02  0.00000000000E+00 0.  1.
         21    1    1    2  503  506 -0.12487012358E+02  0.15382851291E+03  0.97078182743E+02  0.18232748127E+03  0.00000000000E+00 0.  1.
         21    1    1    2  504  501 -0.28181305580E+02 -0.14909295536E+02  0.24062054396E+03  0.24272354490E+03  0.00000000000E+00 0.  1.
         21    1    1    2  505  504  0.66917880400E+02 -0.10800941973E+03  0.13216246074E+03  0.18333290348E+03  0.00000000000E+00 0.  1.
         21    1    1    2  506  502 -0.26249562462E+02 -0.30909797643E+02  0.26045613106E+01  0.40635438466E+02  0.00000000000E+00 0.  1.
<scales pt_clust_3="134.67461" pt_clust_4="31.88217" pt_clust_5="14000.00000" pt_clust_6="42.56553"></scales>
<clustering>
<clus scale="   31.882">  1  4  2 -1</clus>
<clus scale="   42.566">  2  6  1 -1</clus>
<clus scale="  134.675">  2  3  1 -1</clus>
<clus scale="   31.882">  1  3  2 -1</clus>
</clustering>
</event>
<event>
 6    0  0.4227619E+002  0.7334179E+02  0.7546771E-02  0.1349084E+00
         21   -1    0    0  504  501  0.00000000000E+00  0.00000000000E+00  0.97343343358E+03  0.97343343358E+03  0.00000000000E+00 0. -1.
         21   -1    0    0  505  502 -0.00000000000E+00 -0.00000000000E+00 -0.29014842062E+02  0.29014842062E+02  0.00000000000E+00 0. -1.
         21    1    1    2  503  502 -0.21650810595E+02  0.44560962884E+02  0.88971549949E+02  0.10183503186E+03  0.00000000000E+00 0. -1.
         21    1    1    2  504  503 -0.59181212240E+02 -0.95248312889E+01  0.35940578739E+03  0.36437022148E+03  0.00000000000E+00 0. -1.
         21    1    1    2  505  506 -0.23637867373E+02 -0.41947181147E+02  0.26075531055E+02  0.54756260829E+02  0.00000000000E+00 0. -1.
         21    1    1    2  506  501  0.10446989021E+03  0.69110495516E+01  0.46996572313E+03  0.48148676148E+03  0.00000000000E+00 0. -1.
<scales pt_clust_3="41.35074" pt_clust_4="73.34179" pt_clust_5="48.14888" pt_clust_6="14000.00000"></scales>
<clustering>
<clus scale="   48.149">  2  5  1 -1</clus>
<clus scale="   41.351">  2  3  1 -1</clus>
<clus scale="   73.342">  1  4  2 -1</clus>
<clus scale="   73.342">  1  3  2 -1</clus>
</clustering>
</event>
<event>
 6    0  0.4227619E+002  0.7403540E+02  0.7546771E-02  0.1346884E+00
         21   -1    0    0  505  501  0.00000000000E+00  0.00000000000E+00  0.20078678779E+03  0.20078678779E+03  0.00000000000E+00 0.  1.
         21   -1    0    0  506  502 -0.00000000000E+00 -0.00000000000E+00 -0.18897143398E+03  0.18897143398E+03  0.00000000000E+00 0. -1.
         21    1    1    2  503  501 -0.60680633328E+02 -0.33535649775E+02  0.10993502213E+03  0.12997110509E+03  0.00000000000E+00 0.  1.
         21    1    1    2  504  502 -0.17742681415E+02  0.38930407422E+02 -0.62933559451E+02  0.76098700850E+02  0.00000000000E+00 0. -1.
         21    1    1    2  505  504  0.10941495170E+03  0.40213866409E+02 -0.49614495128E+02  0.12669011340E+03  0.00000000000E+00 0. -1.
         21    1    1    2  506  503 -0.30991636960E+02 -0.45608624055E+02  0.14428386270E+02  0.56998302431E+02  0.00000000000E+00 0.  1.
<scales pt_clust_3="14000.00000" pt_clust_4="42.78293" pt_clust_5="74.03540" pt_clust_6="51.59406"></scales>
<clustering>
<clus scale="   42.783">  2  4  1 -1</clus>
<clus scale="   51.594">  2  6  1 -1</clus>
<clus scale="   74.035">  2  5  1 -1</clus>
<clus scale="   74.035">  1  3  2 -1</clus>
</clustering>
</event>
<event>
 6    0  0.4227619E+002  0.1195372E+03  0.7546771E-02  0.1243862E+00
         21   -1    0    0  504  501  0.00000000000E+00  0.00000000000E+00  0.43351438959E+03  0.43351438959E+03  0.00000000000E+00 0.  1.
         21   -1    0    0  503  502 -0.00000000000E+00 -0.00000000000E+00 -0.24150056474E+03  0.24150056474E+03  0.00000000000E+00 0.  1.
         21    1    1    2  503  505 -0.11222247346E+03  0.79689713928E+02  0.13667467961E+03  0.19396984843E+03  0.00000000000E+00 0.  1.
         21    1    1    2  504  506  0.18383361143E+02 -0.12417087399E+03  0.15131708304E+03  0.19660420528E+03  0.00000000000E+00 0.  1.
         21    1    1    2  505  501  0.25000500834E+02  0.24403954492E+02  0.83853415686E+02  0.90840372957E+02  0.00000000000E+00 0. -1.
         21    1    1    2  506  502  0.68838611481E+02  0.20077205572E+02 -0.17983135348E+03  0.19360052766E+03  0.00000000000E+00 0.  1.
<scales pt_clust_3="14000.00000" pt_clust_4="119.53723" pt_clust_5="34.93677" pt_clust_6="72.32064"></scales>
<clustering>
<clus scale="   34.937">  1  5  2 -1</clus>
<clus scale="   72.321">  2  6  1 -1</clus>
<clus scale="  119.537">  1  4  2 -1</clus>
<clus scale="   34.937">  1  3  2 -1</clus>
</clustering>
</event>
<event>
 6    0  0.4227619E+002  0.1188632E+03  0.7546771E-02  0.1244984E+00
         21   -1    0    0  506  501  0.00000000000E+00  0.00000000000E+00  0.67661518768E+03  0.67661518768E+03  0.00000000000E+00 0. -1.
         21   -1    0    0  503  502 -0.00000000000E+00 -0.00000000000E+00 -0.63025716935E+03  0.63025716935E+03  0.00000000000E+00 0. -1.
         21    1    1    2  503  504  0.12448018123E+02  0.32556130028E+02 -0.44444760981E+03  0.44581221677E+03  0.00000000000E+00 0. -1.
         21    1    1    2  504  505 -0.13373034313E+03 -0.16254130128E+02 -0.15116665317E+03  0.20248298311E+03  0.00000000000E+00 0. -1.
         21    1    1    2  505  501  0.41390130932E+02 -0.28867352416E+01  0.42421381172E+03  0.42623800187E+03  0.00000000000E+00 0. -1.
         21    1    1    2  506  502  0.79892194078E+02 -0.13415264658E+02  0.21775846958E+03  0.23233915528E+03  0.00000000000E+00 0. -1.
<scales pt_clust_3="34.85477" pt_clust_4="14000.00000" pt_clust_5="41.54658" pt_clust_6="118.86316"></scales>
<clustering>
<clus scale="   34.855">  2  3  1 -1</clus>
<clus scale="   41.547">  1  5  2 -1</clus>
<clus scale="  118.863">  1  6  2 -1</clus>
<clus scale="   41.547">  1  3  2 -1</clus>
</clustering>
</event>
<event>
 6    0  0.4227619E+002  0.9453793E+02  0.7546771E-02  0.1292220E+00
         21   -1    0    0  505  501  0.00000000000E+00  0.00000000000E+00  0.49823824844E+03  0.49823824844E+03  0.00000000000E+00 0.  1.
         21   -1    0    0  504  502 -0.00000000000E+00 -0.00000000000E+00 -0.65396070702E+03  0.65396070702E+03  0.00000000000E+00 0.  1.
         21    1    1    2  503  501  0.52715769222E+02 -0.42175084376E+02  0.33241594847E+03  0.33920208264E+03  0.00000000000E+00 0.  1.
         21    1    1    2  504  506 -0.20401322029E+02  0.93025742847E+02 -0.61042227018E+03  0.61780688787E+03  0.00000000000E+00 0.  1.
         21    1    1    2  505  502  0.21432220388E+02  0.29528681629E+02 -0.33664734952E+01  0.36641728306E+02  0.00000000000E+00 0.  1.
         21    1    1    2  506  503 -0.53746667581E+02 -0.80379340099E+02  0.12565033662E+03  0.15854825664E+03  0.00000000000E+00 0.  1.
<scales pt_clust_3="71.01972" pt_clust_4="94.53793" pt_clust_5="36.48675" pt_clust_6="14000.00000"></scales>
<clustering>
<clus scale="   36.487">  1  5  2 -1</clus>
<clus scale="   71.020">  1  3  2 -1</clus>
<clus scale="   94.538">  2  4  1 -1</clus>
<clus scale="   36.487">  1  3  2 -1</clus>
</clustering>
</event>
<event>
 6    0  0.4227619E+002  0.1053456E+03  0.7546771E-02  0.1269440E+00
         21   -1    0    0  506  501  0.00000000000E+00  0.00000000000E+00  0.17200229571E+03  0.17200229571E+03  0.00000000000E+00 0.  1.
         21   -1    0    0  504  502 -0.00000000000E+00 -0.00000000000E+00 -0.26352385896E+03  0.26352385896E+03  0.00000000000E+00 0. -1.
         21    1    1    2  503  501  0.51025171833E+02  0.11134945038E+02  0.77184102942E+02  0.93193030365E+02  0.00000000000E+00 0.  1.
         21    1    1    2  504  503  0.67041690496E+02  0.65350633753E+02  0.86186865054E+01  0.94019015914E+02  0.00000000000E+00 0.  1.
         21    1    1    2  505  502 -0.97160978951E+02 -0.50953021158E+02 -0.18439590784E+03  0.21456541432E+03  0.00000000000E+00 0. -1.
         21    1    1    2  506  505 -0.20905883378E+02 -0.25532557633E+02  0.70715551408E+01  0.33748694067E+02  0.00000000000E+00 0. -1.
<scales pt_clust_3="39.40815" pt_clust_4="14000.00000" pt_clust_5="105.34564" pt_clust_6="32.99951"></scales>
<clustering>
<clus scale="   33.000">  1  6  2 -1</clus>
<clus scale="   39.408">  1  3  2 -1</clus>
<clus scale="  105.346">  2  5  1 -1</clus>
<clus scale="   33.000">  1  3  2 -1</clus>
</clustering>
</event>
<event>
 6    0  0.4227619E+002  0.8385828E+02  0.7546771E-02  0.1318446E+00
         21   -1    0    0  506  501  0.00000000000E+00  0.00000000000E+00  0.18609005785E+03  0.18609005785E+03  0.00000000000E+00 0. -1.
         21   -1    0    0  504  502 -0.00000000000E+00 -0.00000000000E+00 -0.12270287905E+03  0.12270287905E+03  0.00000000000E+00 0. -1.
         21    1    1    2  503  501  0.26180199665E+02  0.31053872491E+02  0.44972431194E+02  0.60599219622E+02  0.00000000000E+00 0.  1.
         21    1    1    2  504  505 -0.14315066915E+02 -0.35882504103E+02 -0.24292139846E+02  0.45635329514E+02  0.00000000000E+00 0. -1.
         21    1    1    2  505  503  0.32079179562E+01 -0.91341061029E+02  0.51344867655E+02  0.10483213058E+03  0.00000000000E+00 0. -1.
         21    1    1    2  506  502 -0.15073050707E+02  0.96169692641E+02 -0.86379802044E+01  0.97726257179E+02  0.00000000000E+00 0. -1.
<scales pt_clust_3="37.36806" pt_clust_4="38.63257" pt_clust_5="83.85828" pt_clust_6="14000.00000"></scales>
<clustering>
<clus scale="   38.633">  2  4  1 -1</clus>
<clus scale="   37.368">  1  3  2 -1</clus>
<clus scale="   83.858">  1  5  2 -1</clus>
<clus scale="   37.368">  1  3  2 -1</clus>
</clustering>
</event>
<event>
 6    0  0.4227619E+002  0.1169530E+03  0.7546771E-02  0.1248210E+00
         21   -1    0    0  505  501  0.00000000000E+00  0.00000000000E+00  0.14442004018E+03  0.14442004018E+03  0.00000000000E+00 0.  1.
         21   -1    0    0  503  502 -0.00000000000E+00 -0.00000000000E+00 -0.25972590970E+03  0.25972590970E+03  0.00000000000E+00 0.  1.
         21    1    1    2  503  501 -0.29976254277E+02 -0.18436895996E+02  0.25254265107E+02  0.43315965423E+02  0.00000000000E+00 0.  1.
         21    1    1    2  504  502 -0.29880372138E+02 -0.42764188456E+02 -0.31997078575E+02  0.61199881460E+02  0.00000000000E+00 0.  1.
         21    1    1    2  505  506 -0.22157788958E+02  0.13023950672E+03  0.18482595893E+02  0.13339753773E+03  0.00000000000E+00 0.  1.
         21    1    1    2  506  504  0.82014415372E+02 -0.69038422266E+02 -0.12704565194E+03  0.16623256527E+03  0.00000000000E+00 0.  1.
<scales pt_clust_3="35.19226" pt_clust_4="56.47955" pt_clust_5="116.95297" pt_clust_6="14000.00000"></scales>
<clustering>
<clus scale="   35.192">  1  3  2 -1</clus>
<clus scale="   56.480">  2  4  1 -1</clus>
<clus scale="  116.953">  1  5  2 -1</clus>
<clus scale="   35.192">  1  3  2 -1</clus>
</clustering>
</event>
<event>
 6    0  0.4227619E+002  0.1158746E+03  0.7546771E-02  0.1250062E+00
         21   -1    0    0  504  501  0.00000000000E+00  0.00000000000E+00  0.27764463357E+03  0.27764463357E+03  0.00000000000E+00 0.  1.
         21   -1    0    0  503  502 -0.00000000000E+00 -0.00000000000E+00 -0.21940926752E+03  0.21940926752E+03  0.00000000000E+00 0. -1.
         21    1    1    2  503  505  0.11857002521E+03 -0.39786357044E+02 -0.14809559463E+03  0.19384042466E+03  0.00000000000E+00 0. -1.
         21    1    1    2  504  502 -0.28375803306E+02 -0.10313464899E+02  0.85401988192E+02  0.90581749589E+02  0.00000000000E+00 0.  1.
         21    1    1    2  505  506 -0.94475212298E+02  0.14550015243E+02  0.10051673200E+02  0.96116100714E+02  0.00000000000E+00 0.  1.
         21    1    1    2  506  501  0.42809903986E+01  0.35549806700E+02  0.11087729929E+03  0.11651562613E+03  0.00000000000E+00 0.  1.
<scales pt_clust_3="14000.00000" pt_clust_4="30.19195" pt_clust_5="115.87456" pt_clust_6="32.00741"></scales>
<clustering>
<clus scale="   30.192">  1  4  2 -1</clus>
<clus scale="   32.007">  1  6  2 -1</clus>
<clus scale="  115.875">  1  5  2 -1</clus>
<clus scale="   30.192">  1  3  2 -1</clus>
</clustering>
</event>
<event>
 6    0  0.4227619E+002  0.1423082E+03  0.7546771E-02  0.1210256E+00
         21   -1    0    0  506  501  0.00000000000E+00  0.00000000000E+00  0.25249145107E+03  0.25249145107E+03  0.00000000000E+00 0. -1.
         21   -1    0    0  505  502 -0.00000000000E+00 -0.00000000000E+00 -0.76626979956E+03  0.76626979956E+03  0.00000000000E+00 0. -1.
         21    1    1    2  503  501  0.49300572294E+02  0.97182018471E+02 -0.18389381177E+02  0.11051271638E+03  0.00000000000E+00 0. -1.
         21    1    1    2  504  503  0.26839911928E+02  0.27920266178E+02 -0.97440091214E+02  0.10485463038E+03  0.00000000000E+00 0. -1.
         21    1    1    2  505  504  0.30652877676E+02  0.85618691672E+02 -0.52660164578E+03  0.53439634412E+03  0.00000000000E+00 0. -1.
         21    1    1    2  506  502 -0.10679336190E+03 -0.21072097632E+03  0.12865276968E+03  0.26899755975E+03  0.00000000000E+00 0. -1.
<scales pt_clust_3="108.97197" pt_clust_4="35.84602" pt_clust_5="35.84602" pt_clust_6="131.27992"></scales>
<clustering>
<clus scale="   35.846">  4  5 -1 -1</clus>
<clus scale="  108.972">  1  3  2 -1</clus>
<clus scale="  131.280">  1  6  2 -1</clus>
<clus scale="  108.972">  1  3  2 -1</clus>
</clustering>
</event>
<event>
 6    0  0.4227619E+002  0.1228513E+03  0.7546771E-02  0.1238466E+00
         21   -1    0    0  504  501  0.00000000000E+00  0.00000000000E+00  0.51281858679E+03  0.51281858679E+03  0.00000000000E+00 0. -1.
         21   -1    0    0  505  502 -0.00000000000E+00 -0.00000000000E+00 -0.14599278499E+04  0.14599278499E+04  0.00000000000E+00 0.  1.
         21    1    1    2  503  501 -0.56626948964E+01 -0.83664657262E+02  0.90460345632E+02  0.12334875403E+03  0.00000000000E+00 0.  1.
         21    1    1    2  504  506  0.42621112273E+02  0.23103740902E+02  0.39151286310E+03  0.39450305959E+03  0.00000000000E+00 0. -1.
         21    1    1    2  505  503 -0.76130099168E+02  0.12402176232E+03 -0.12795318312E+04  0.12877806089E+04  0.00000000000E+00 0.  1.
         21    1    1    2  506  502  0.39171681792E+02 -0.63460845961E+02 -0.14955064061E+03  0.16711401417E+03  0.00000000000E+00 0.  1.
<scales pt_clust_3="70.87241" pt_clust_4="48.48033" pt_clust_5="122.85127" pt_clust_6="14000.00000"></scales>
<clustering>
<clus scale="   48.480">  1  4  2 -1</clus>
<clus scale="   70.872">  1  3  2 -1</clus>
<clus scale="  122.851">  2  5  1 -1</clus>
<clus scale="   48.480">  1  3  2 -1</clus>
</clustering>
</event>
<event>
 6    0  0.4227619E+002  0.2241986E+03  0.7546771E-02  0.1130791E+00
         21   -1    0    0  504  501  0.00000000000E+00  0.00000000000E+00  0.22098792654E+04  0.22098792654E+04  0.00000000000E+00 0. -1.
         21   -1    0    0  506  502 -0.00000000000E+00 -0.00000000000E+00 -0.17863622868E+03  0.17863622868E+03  0.00000000000E+00 0.  1.
         21    1    1    2  503  501  0.30942717972E+02  0.32046789488E+02  0.12801682509E+04  0.12809430898E+04  0.00000000000E+00 0. -1.
         21    1    1    2  504  505  0.18396386763E+03 -0.11268718443E+03  0.80751523665E+03  0.83583608653E+03  0.00000000000E+00 0. -1.
         21    1    1    2  505  502 -0.83688042057E+01  0.53273901811E+02 -0.30033702204E+02  0.61726564509E+02  0.00000000000E+00 0.  1.
         21    1    1    2  506  503 -0.20653778139E+03  0.27366493128E+02 -0.26406748676E+02  0.21000975326E+03  0.00000000000E+00 0.  1.
<scales pt_clust_3="44.54715" pt_clust_4="14000.00000" pt_clust_5="54.38855" pt_clust_6="224.19856"></scales>
<clustering>
<clus scale="   44.547">  1  3  2 -1</clus>
<clus scale="   54.389">  2  5  1 -1</clus>
<clus scale="  224.199">  2  6  1 -1</clus>
<clus scale="   44.547">  1  3  2 -1</clus>
</clustering>
</event>
<event>
 6    0  0.4227619E+002  0.8100639E+02  0.7546771E-02  0.1326219E+00
         21   -1    0    0  504  501  0.00000000000E+00  0.00000000000E+00  0.70453300288E+03  0.70453300288E+03  0.00000000000E+00 0.  1.
         21   -1    0    0  506  502 -0.00000000000E+00 -0.00000000000E+00 -0.15621911382E+03  0.15621911382E+03  0.00000000000E+00 0. -1.
         21    1    1    2  503  501  0.59106881952E+02  0.49232183806E+02  0.64127429194E+02  0.10014868243E+03  0.00000000000E+00 0.  1.
         21    1    1    2  504  505  0.20282340073E+02  0.43589561411E+02  0.39906106107E+03  0.40194670498E+03  0.00000000000E+00 0.  1.
         21    1    1    2  505  502 -0.64359894078E+02 -0.99003568025E+01  0.20332141281E+03  0.21349428550E+03  0.00000000000E+00 0. -1.
         21    1    1    2  506  503 -0.15029327947E+02 -0.82921388415E+02 -0.11819601403E+03  0.14516244379E+03  0.00000000000E+00 0. -1.
<scales pt_clust_3="14000.00000" pt_clust_4="48.07726" pt_clust_5="54.26840" pt_clust_6="81.00639"></scales>
<clustering>
<clus scale="   48.077">  1  4  2 -1</clus>
<clus scale="   54.268">  1  5  2 -1</clus>
<clus scale="   81.006">  2  6  1 -1</clus>
<clus scale="   48.077">  1  3  2 -1</clus>
</clustering>
</event>
<event>
 6    0  0.4227619E+002  0.1519122E+03  0.7546771E-02  0.1198143E+00
         21   -1    0    0  503  501  0.00000000000E+00  0.00000000000E+00  0.13148436401E+04  0.13148436401E+04  0.00000000000E+00 0. -1.
         21   -1    0    0  506  502 -0.00000000000E+00 -0.00000000000E+00 -0.18584386203E+03  0.18584386203E+03  0.00000000000E+00 0. -1.
         21    1    1    2  503  502  0.10636074148E+03 -0.10603068936E+03 -0.27834697800E+00  0.15018386029E+03  0.00000000000E+00 0. -1.
         21    1    1    2  504  501  0.12895141919E+02  0.64020790149E+02  0.75318616980E+03  0.75601213789E+03  0.00000000000E+00 0. -1.
         21    1    1    2  505  504 -0.75414966855E+02  0.87127644931E+02  0.46863275785E+03  0.48259227664E+03  0.00000000000E+00 0. -1.
         21    1    1    2  506  505 -0.43840916541E+02 -0.45117745722E+02 -0.92540802574E+02  0.11189922736E+03  0.00000000000E+00 0. -1.
<scales pt_clust_3="151.91223" pt_clust_4="64.41552" pt_clust_5="14000.00000" pt_clust_6="62.90975"></scales>
<clustering>
<clus scale="   62.910">  2  6  1 -1</clus>
<clus scale="   64.416">  1  4  2 -1</clus>
<clus scale="  151.912">  2  3  1 -1</clus>
<clus scale="   64.416">  1  3  2 -1</clus>
</clustering>
</event>
<event>
 6    0  0.4227619E+002  0.7827863E+02  0.7546771E-02  0.1334009E+00
         21   -1    0    0  503  501  0.00000000000E+00  0.00000000000E+00  0.10997519777E+03  0.10997519777E+03  0.00000000000E+00 0. -1.
         21   -1    0    0  505  502 -0.00000000000E+00 -0.00000000000E+00 -0.15898348642E+04  0.15898348642E+04  0.00000000000E+00 0. -1.
         21    1    1    2  503  504 -0.63331148840E+02  0.66253656491E+02 -0.14223834461E+03  0.16921030728E+03  0.00000000000E+00 0.  1.
         21    1    1    2  504  502 -0.11507565616E+02 -0.68478910413E+02 -0.29466123490E+03  0.30273260246E+03  0.00000000000E+00 0.  1.
         21    1    1    2  505  506  0.33362683678E+02 -0.23063383128E+02 -0.11286431452E+04  0.11293716560E+04  0.00000000000E+00 0. -1.
         21    1    1    2  506  501  0.41476030778E+02  0.25288637050E+02  0.85683058272E+02  0.98495496180E+02  0.00000000000E+00 0. -1.
<scales pt_clust_3="14000.00000" pt_clust_4="78.27863" pt_clust_5="40.55846" pt_clust_6="48.80933"></scales>
<clustering>
<clus scale="   40.558">  2  5  1 -1</clus>
<clus scale="   48.809">  1  6  2 -1</clus>
<clus scale="   78.279">  2  4  1 -1</clus>
<clus scale="   48.809">  1  3  2 -1</clus>
</clustering>
</event>
<event>
 6    0  0.4227619E+002  0.1371873E+03  0.7546771E-02  0.1217165E+00
         21   -1    0    0  503  501  0.00000000000E+00  0.00000000000E+00  0.34793230056E+03  0.34793230056E+03  0.00000000000E+00 0.  1.
         21   -1    0    0  506  502 -0.00000000000E+00 -0.00000000000E+00 -0.15521083223E+04  0.15521083223E+04  0.00000000000E+00 0.  1.
         21    1    1    2  503  504  0.25330610234E+02  0.20635090451E+02  0.38061022599E+02  0.50160624139E+02  0.00000000000E+00 0. -1.
         21    1    1    2  504  505  0.48714195865E+02  0.34220728799E+01 -0.30094001956E+02  0.57362290883E+02  0.00000000000E+00 0. -1.
         21    1    1    2  505  502 -0.76170852385E+02  0.11437168000E+03 -0.14824573156E+04  0.14888124706E+04  0.00000000000E+00 0.  1.
         21    1    1    2  506  501  0.21260462853E+01 -0.13842884333E+03  0.27031427331E+03  0.30370523718E+03  0.00000000000E+00 0.  1.
<scales pt_clust_3="32.67180" pt_clust_4="50.04018" pt_clust_5="137.18727" pt_clust_6="14000.00000"></scales>
<clustering>
<clus scale="   32.672">  1  3  2 -1</clus>
<clus scale="   50.040">  1  4  2 -1</clus>
<clus scale="  137.187">  2  5  1 -1</clus>
<clus scale="   32.672">  1  3  2 -1</clus>
</clustering>
</event>
<event>
 6    0  0.4227619E+002  0.8776563E+02  0.7546771E-02  0.1308355E+00
         21   -1    0    0  504  501  0.00000000000E+00  0.00000000000E+00  0.31519923698E+03  0.31519923698E+03  0.00000000000E+00 0. -1.
         21   -1    0    0  505  502 -0.00000000000E+00 -0.00000000000E+00 -0.27062466659E+03  0.27062466659E+03  0.00000000000E+00 0.  1.
         21    1    1    2  503  506 -0.36605376727E+02  0.24164852573E+02  0.32761286403E+02  0.54746649139E+02  0.00000000000E+00 0. -1.
         21    1    1    2  504  502  0.56347809593E+02 -0.86731116543E+02  0.54322247356E+02  0.11682580529E+03  0.00000000000E+00 0. -1.
         21    1    1    2  505  503  0.81953095370E-01  0.87711232091E+02 -0.21846013373E+03  0.23541048613E+03  0.00000000000E+00 0.  1.
         21    1    1    2  506  501 -0.19824385961E+02 -0.25144968121E+02  0.17595117036E+03  0.17884096301E+03  0.00000000000E+00 0. -1.
<scales pt_clust_3="45.84999" pt_clust_4="87.76563" pt_clust_5="14000.00000" pt_clust_6="32.01993"></scales>
<clustering>
<clus scale="   32.020">  1  6  2 -1</clus>
<clus scale="   45.850">  1  3  2 -1</clus>
<clus scale="   87.766">  1  4  2 -1</clus>
<clus scale="   32.020">  1  3  2 -1</clus>
</clustering>
</event>
<event>
 6    0  0.4227619E+002  0.9993240E+02  0.7546771E-02  0.1280438E+00
         21   -1    0    0  504  501  0.00000000000E+00  0.00000000000E+00  0.58609142233E+03  0.58609142233E+03  0.00000000000E+00 0.  1.
         21   -1    0    0  503  502 -0.00000000000E+00 -0.00000000000E+00 -0.12249056594E+04  0.12249056594E+04  0.00000000000E+00 0.  1.
         21    1    1    2  503  506 -0.41135499460E+02  0.12793461972E+03 -0.10696832101E+04  0.10780916316E+04  0.00000000000E+00 0.  1.
         21    1    1    2  504  505  0.33380959568E+02  0.11654484020E+02  0.33110546673E+03  0.33298790602E+03  0.00000000000E+00 0.  1.
         21    1    1    2  505  502  0.22088865730E+02 -0.30360808329E+02 -0.13525001916E+03  0.14036475467E+03  0.00000000000E+00 0.  1.
         21    1    1    2  506  501 -0.14334325838E+02 -0.10922829541E+03  0.23501352538E+03  0.25955278948E+03  0.00000000000E+00 0.  1.
<scales pt_clust_3="99.93240" pt_clust_4="35.35697" pt_clust_5="37.65029" pt_clust_6="14000.00000"></scales>
<clustering>
<clus scale="   35.357">  1  4  2 -1</clus>
<clus scale="   37.650">  2  5  1 -1</clus>
<clus scale="   99.932">  2  3  1 -1</clus>
<clus scale="   35.357">  1  3  2 -1</clus>
</clustering>
</event>
<event>
 6    0  0.4227619E+002  0.9828554E+02  0.7546771E-02  0.1283943E+00
         21   -1    0    0  504  501  0.00000000000E+00  0.00000000000E+00  0.92109760096E+02  0.92109760096E+02  0.00000000000E+00 0. -1.
         21   -1    0    0  503  502 -0.00000000000E+00 -0.00000000000E+00 -0.98027474523E+03  0.98027474523E+03  0.00000000000E+00 0. -1.
         21    1    1    2  503  505 -0.16748382477E+02 -0.49855001364E+02 -0.62830844972E+03  0.63050577909E+03  0.00000000000E+00 0. -1.
         21    1    1    2  504  506  0.10447262696E+03 -0.24440253364E+02 -0.66519921996E+01  0.10749932450E+03  0.00000000000E+00 0. -1.
         21    1    1    2  505  501 -0.90137602765E+02 -0.24620373569E+02 -0.44683499154E+02  0.10357396064E+03  0.00000000000E+00 0. -1.
         21    1    1    2  506  502  0.24133582815E+01  0.98915628298E+02 -0.20852104406E+03  0.23080544109E+03  0.00000000000E+00 0. -1.
<scales pt_clust_3="52.59306" pt_clust_4="98.28554" pt_clust_5="14000.00000" pt_clust_6="68.18305"></scales>
<clustering>
<clus scale="   52.593">  2  3  1 -1</clus>
<clus scale="   68.183">  2  6  1 -1</clus>
<clus scale="   98.286">  1  4  2 -1</clus>
<clus scale="   98.286">  1  3  2 -1</clus>
</clustering>
</event>
<event>
 6    0  0.4227619E+002  0.9608493E+02  0.7546771E-02  0.1288751E+00
         21   -1    0    0  505  501  0.00000000000E+00  0.00000000000E+00  0.44954784285E+03  0.44954784285E+03  0.00000000000E+00 0.  1.
         21   -1    0    0  503  502 -0.00000000000E+00 -0.00000000000E+00 -0.34122890173E+03  0.34122890173E+03  0.00000000000E+00 0.  1.
         21    1    1    2  503  501  0.76556417713E+02  0.58628165868E+02  0.97515185345E+02  0.13713992234E+03  0.00000000000E+00 0.  1.
         21    1    1    2  504  502  0.46413942667E+02  0.52294791085E+01 -0.25315675271E+03  0.25742949126E+03  0.00000000000E+00 0.  1.
         21    1    1    2  505  506 -0.28018269161E+02  0.13012924393E+02  0.27202503489E+03  0.27377359115E+03  0.00000000000E+00 0.  1.
         21    1    1    2  506  504 -0.94952091219E+02 -0.76870569369E+02 -0.80645263903E+01  0.12243373983E+03  0.00000000000E+00 0.  1.
<scales pt_clust_3="96.08493" pt_clust_4="46.38893" pt_clust_5="30.89271" pt_clust_6="14000.00000"></scales>
<clustering>
<clus scale="   30.893">  1  5  2 -1</clus>
<clus scale="   46.389">  2  4  1 -1</clus>
<clus scale="   96.085">  1  3  2 -1</clus>
<clus scale="   30.893">  1  3  2 -1</clus>
</clustering>
</event>
<event>
 6    0  0.4227619E+002  0.8342867E+02  0.7546771E-02  0.1319594E+00
         21   -1    0    0  506  501  0.00000000000E+00  0.00000000000E+00  0.45310666151E+03  0.45310666151E+03  0.00000000000E+00 0. -1.
         21   -1    0    0  503  502 -0.00000000000E+00 -0.00000000000E+00 -0.21158801533E+03  0.21158801533E+03  0.00000000000E+00 0.  1.
         21    1    1    2  503  505 -0.69148287380E+02  0.11339552903E+03  0.31844443599E+03  0.34503172385E+03  0.00000000000E+00 0. -1.
         21    1    1    2  504  502  0.53080997411E+02 -0.62426596318E+02 -0.15261737480E+03  0.17322452281E+03  0.00000000000E+00 0.  1.
         21    1    1    2  505  501 -0.34926254453E+02  0.17595510298E+02  0.31633327853E+02  0.50300225286E+02  0.00000000000E+00 0. -1.
         21    1    1    2  506  504  0.50993544422E+02 -0.68564443013E+02  0.44058257135E+02  0.96138204894E+02  0.00000000000E+00 0. -1.
<scales pt_clust_3="83.42867" pt_clust_4="14000.00000" pt_clust_5="39.10812" pt_clust_6="79.55778"></scales>
<clustering>
<clus scale="   39.108">  1  5  2 -1</clus>
<clus scale="   79.558">  1  6  2 -1</clus>
<clus scale="   83.429">  1  3  2 -1</clus>
<clus scale="   39.108">  1  3  2 -1</clus>
</clustering>
</event>
<event>
 6    0  0.4227619E+002  0.8582494E+02  0.7546771E-02  0.1313289E+00
         21   -1    0    0  505  501  0.00000000000E+00  0.00000000000E+00  0.51153446433E+02  0.51153446433E+02  0.00000000000E+00 0.  1.
         21   -1    0    0  503  502 -0.00000000000E+00 -0.00000000000E+00 -0.19807211774E+04  0.19807211774E+04  0.00000000000E+00 0. -1.
         21    1    1    2  503  504  0.35560083661E+02 -0.10294239830E+03 -0.15618928968E+04  0.15656854977E+04  0.00000000000E+00 0. -1.
         21    1    1    2  504  506 -0.37738287653E+02  0.40301185812E+02 -0.84198858286E+02  0.10068670056E+03  0.00000000000E+00 0.  1.
         21    1    1    2  505  502  0.34737197857E+02  0.34508266152E+02 -0.31073239653E+03  0.31456655195E+03  0.00000000000E+00 0. -1.
         21    1    1    2  506  501 -0.32558993864E+02  0.28132946333E+02  0.27256420623E+02  0.50935873567E+02  0.00000000000E+00 0.  1.
<scales pt_clust_3="85.82494" pt_clust_4="14000.00000" pt_clust_5="48.92199" pt_clust_6="43.02965"></scales>
<clustering>
<clus scale="   43.030">  1  6  2 -1</clus>
<clus scale="   48.922">  2  5  1 -1</clus>
<clus scale="   85.825">  2  3  1 -1</clus>
<clus scale="   43.030">  1  3  2 -1</clus>
</clustering>
</event>
<event>
 6    0  0.4227619E+002  0.1579439E+03  0.7546771E-02  0.1191038E+00
         21   -1    0    0  506  501  0.00000000000E+00  0.00000000000E+00  0.46369263326E+03  0.46369263326E+03  0.00000000000E+00 0. -1.
         21   -1    0    0  505  502 -0.00000000000E+00 -0.00000000000E+00 -0.20956877598E+03  0.20956877598E+03  0.00000000000E+00 0.  1.
         21    1    1    2  503  502 -0.14288975465E+03  0.82972632586E+02 -0.33521753909E+02  0.16859907392E+03  0.00000000000E+00 0.  1.
         21    1    1    2  504  501 -0.32005258061E+02  0.29843352967E+02  0.75079448929E+02  0.86901587508E+02  0.00000000000E+00 0.  1.
         21    1    1    2  505  504  0.31262360188E+02  0.12514284307E+02 -0.69553599070E+02  0.77276423441E+02  0.00000000000E+00 0.  1.
         21    1    1    2  506  503  0.14363265252E+03 -0.12533026986E+03  0.28211976133E+03  0.34048432437E+03  0.00000000000E+00 0. -1.
<scales pt_clust_3="157.94393" pt_clust_4="43.15842" pt_clust_5="33.67406" pt_clust_6="14000.00000"></scales>
<clustering>
<clus scale="   33.674">  2  5  1 -1</clus>
<clus scale="   43.158">  1  4  2 -1</clus>
<clus scale="  157.944">  2  3  1 -1</clus>
<clus scale="   43.158">  1  3  2 -1</clus>
</clustering>
</event>
<event>
 6    0  0.4227619E+002  0.9737000E+02  0.7546771E-02  0.1285926E+00
         21   -1    0    0  506  501  0.00000000000E+00  0.00000000000E+00  0.13050939526E+04  0.13050939526E+04  0.00000000000E+00 0.  1.
         21   -1    0    0  503  502 -0.00000000000E+00 -0.00000000000E+00 -0.11084986569E+03  0.11084986569E+03  0.00000000000E+00 0.  1.
         21    1    1    2  503  504  0.14524238356E+02 -0.10166298306E+03 -0.75700809776E+02  0.12758106531E+03  0.00000000000E+00 0.  1.
         21    1    1    2  504  505  0.11721867533E+02  0.58009910280E+02  0.19718045367E+03  0.20587054957E+03  0.00000000000E+00 0. -1.
         21    1    1    2  505  501 -0.53605571671E+01  0.66446059415E+02  0.10131308055E+04  0.10153215468E+04  0.00000000000E+00 0.  1.
         21    1    1    2  506  502 -0.20885548722E+02 -0.22792986635E+02  0.59633637548E+02  0.67170656632E+02  0.00000000000E+00 0.  1.
<scales pt_clust_3="97.37000" pt_clust_4="14000.00000" pt_clust_5="52.82260" pt_clust_6="30.91482"></scales>
<clustering>
<clus scale="   30.915">  1  6  2 -1</clus>
<clus scale="   52.823">  1  5  2 -1</clus>
<clus scale="   97.370">  2  3  1 -1</clus>
<clus scale="   30.915">  1  3  2 -1</clus>
</clustering>
</event>
<event>
 6    0  0.4227619E+002  0.1003217E+03  0.7546771E-02  0.1279621E+00
         21   -1    0    0  502  501  0.00000000000E+00  0.00000000000E+00  0.20677374095E+03  0.20677374095E+03  0.00000000000E+00 0. -1.
         21   -1    0    0  503  502 -0.00000000000E+00 -0.00000000000E+00 -0.47477298945E+03  0.47477298945E+03  0.00000000000E+00 0.  1.
         21    1    1    2  503  505  0.47993484314E+02 -0.48826446407E+02 -0.24189708208E+03  0.25139927352E+03  0.00000000000E+00 0.  1.
         21    1    1    2  504  506  0.78628481971E+02  0.62077699130E+02  0.65518065062E+02  0.11970253028E+03  0.00000000000E+00 0. -1.
         21    1    1    2  505  504 -0.13918527411E+03  0.15921673315E+02 -0.17327878880E+03  0.22282634239E+03  0.00000000000E+00 0.  1.
         21    1    1    2  506  501  0.12563307829E+02 -0.29172926038E+02  0.81658557320E+02  0.87618584221E+02  0.00000000000E+00 0. -1.
<scales pt_clust_3="69.61791" pt_clust_4="14000.00000" pt_clust_5="100.32174" pt_clust_6="31.76313"></scales>
<clustering>
<clus scale="   31.763">  1  6  2 -1</clus>
<clus scale="   69.618">  2  3  1 -1</clus>
<clus scale="  100.322">  2  5  1 -1</clus>
<clus scale="   31.763">  1  3  2 -1</clus>
</clustering>
</event>
<event>
 6    0  0.4227619E+002  0.9203390E+02  0.7546771E-02  0.1298000E+00
         21   -1    0    0  504  501  0.00000000000E+00  0.00000000000E+00  0.76737688321E+02  0.76737688321E+02  0.00000000000E+00 0. -1.
         21   -1    0    0  506  502 -0.00000000000E+00 -0.00000000000E+00 -0.18842696207E+04  0.18842696207E+04  0.00000000000E+00 0. -1.
         21    1    1    2  503  502  0.24889091620E+02  0.33698614811E+02 -0.10569592841E+04  0.10577892001E+04  0.00000000000E+00 0. -1.
         21    1    1    2  504  503 -0.18607857391E+02  0.74888293755E+02 -0.24687097427E+03  0.25864993106E+03  0.00000000000E+00 0. -1.
         21    1    1    2  505  501 -0.44542183959E+02 -0.85420180269E+02  0.36128849117E+02  0.10288783741E+03  0.00000000000E+00 0. -1.
         21    1    1    2  506  505  0.38260949730E+02 -0.23166728297E+02 -0.53983052308E+03  0.54168034044E+03  0.00000000000E+00 0. -1.
<scales pt_clust_3="41.89348" pt_clust_4="14000.00000" pt_clust_5="92.03390" pt_clust_6="54.54908"></scales>
<clustering>
<clus scale="   41.893">  2  3  1 -1</clus>
<clus scale="   54.549">  2  6  1 -1</clus>
<clus scale="   92.034">  1  5  2 -1</clus>
<clus scale="   92.034">  1  3  2 -1</clus>
</clustering>
</event>
<event>
 6    0  0.4227619E+002  0.8085224E+02  0.7546771E-02  0.1326650E+00
         21   -1    0    0  504  501  0.00000000000E+00  0.00000000000E+00  0.13033311717E+03  0.13033311717E+03  0.00000000000E+00 0. -1.
         21   -1    0    0  503  502 -0.00000000000E+00 -0.00000000000E+00 -0.20943339804E+03  0.20943339804E+03  0.00000000000E+00 0. -1.
         21    1    1    2  503  506  0.86924672449E+02  0.52227805685E+02 -0.30936817139E+02  0.10602230436E+03  0.00000000000E+00 0. -1.
         21    1    1    2  504  505 -0.81776020246E+02  0.89545786107E+01  0.47829332875E+02  0.95158536394E+02  0.00000000000E+00 0. -1.
         21    1    1    2  505  502 -0.20168017172E+02 -0.30627847690E+02 -0.97842426188E+02  0.10448901537E+03  0.00000000000E+00 0. -1.
         21    1    1    2  506  501  0.15019364970E+02 -0.30554536606E+02  0.18496295846E+01  0.34096659087E+02  0.00000000000E+00 0. -1.
<scales pt_clust_3="80.85224" pt_clust_4="14000.00000" pt_clust_5="37.19230" pt_clust_6="34.04645"></scales>
<clustering>
<clus scale="   34.046">  1  6  2 -1</clus>
<clus scale="   37.192">  2  5  1 -1</clus>
<clus scale="   80.852">  2  3  1 -1</clus>
<clus scale="   34.046">  1  3  2 -1</clus>
</clustering>
</event>
<event>
 6    0  0.4227619E+002  0.1104549E+03  0.7546771E-02  0.1259730E+00
         21   -1    0    0  504  501  0.00000000000E+00  0.00000000000E+00  0.95681141987E+03  0.95681141987E+03  0.00000000000E+00 0. -1.
         21   -1    0    0  506  502 -0.00000000000E+00 -0.00000000000E+00 -0.10651264964E+03  0.10651264964E+03  0.00000000000E+00 0. -1.
         21    1    1    2  503  501  0.29454207129E+01  0.12467727586E+03  0.42305912455E+03  0.44105795706E+03  0.00000000000E+00 0. -1.
         21    1    1    2  504  505  0.13581838949E+02 -0.50938949139E+02  0.35068888194E+03  0.35462929208E+03  0.00000000000E+00 0. -1.
         21    1    1    2  505  502  0.96630957462E+02 -0.73665527847E+02  0.93365657842E+02  0.15323608582E+03  0.00000000000E+00 0. -1.
         21    1    1    2  506  503 -0.11315821712E+03 -0.72798873974E-01 -0.16814894093E+02  0.11440073455E+03  0.00000000000E+00 0. -1.
<scales pt_clust_3="89.15162" pt_clust_4="52.71853" pt_clust_5="110.45495" pt_clust_6="14000.00000"></scales>
<clustering>
<clus scale="   52.719">  1  4  2 -1</clus>
<clus scale="   89.152">  1  3  2 -1</clus>
<clus scale="  110.455">  1  5  2 -1</clus>
<clus scale="   52.719">  1  3  2 -1</clus>
</clustering>
</event>
<event>
 6    0  0.4227619E+002  0.1311462E+03  0.7546771E-02  0.1225765E+00
         21   -1    0    0  503  501  0.00000000000E+00  0.00000000000E+00  0.22492340665E+03  0.22492340665E+03  0.00000000000E+00 0.  1.
         21   -1    0    0  506  502 -0.00000000000E+00 -0.00000000000E+00 -0.13817240979E+03  0.13817240979E+03  0.00000000000E+00 0.  1.
         21    1    1    2  503  505 -0.99280340655E+02  0.93799785844E+00  0.23808856993E+02  0.10209959624E+03  0.00000000000E+00 0.  1.
         21    1    1    2  504  501  0.39876723375E+02 -0.89832693832E+01  0.99188115415E+02  0.10728063402E+03  0.00000000000E+00 0.  1.
         21    1    1    2  505  502 -0.41951610047E+02 -0.70161498461E+01 -0.27985151773E+02  0.50914955209E+02  0.00000000000E+00 0.  1.
         21    1    1    2  506  504  0.10135522733E+03  0.15061421371E+02 -0.82608237785E+01  0.10280063098E+03  0.00000000000E+00 0.  1.
<scales pt_clust_3="38.23588" pt_clust_4="40.87606" pt_clust_5="38.23588" pt_clust_6="117.41689"></scales>
<clustering>
<clus scale="   38.236">  3  5 -1 -1</clus>
<clus scale="   40.876">  1  4  2 -1</clus>
<clus scale="  117.417">  2  6  1 -1</clus>
<clus scale="   40.876">  1  3  2 -1</clus>
</clustering>
</event>
<event>
 6    0  0.4227619E+002  0.8671796E+02  0.7546771E-02  0.1311000E+00
         21   -1    0    0  503  501  0.00000000000E+00  0.00000000000E+00  0.22548065881E+03  0.22548065881E+03  0.00000000000E+00 0.  1.
         21   -1    0    0  504  502 -0.00000000000E+00 -0.00000000000E+00 -0.15078477172E+03  0.15078477172E+03  0.00000000000E+00 0. -1.
         21    1    1    2  503  506  0.55574341763E+02  0.10011908028E+02  0.88231189837E+02  0.10475442055E+03  0.00000000000E+00 0.  1.
         21    1    1    2  504  505 -0.28030502053E+02 -0.83216916822E+02 -0.90133574393E+02  0.12583650314E+03  0.00000000000E+00 0. -1.
         21    1    1    2  505  501 -0.39686100682E+02 -0.90888082830E+01  0.24221070025E+02  0.47373550179E+02  0.00000000000E+00 0.  1.
         21    1    1    2  506  502  0.12142260972E+02  0.82293817077E+02  0.52377201617E+02  0.98300956658E+02  0.00000000000E+00 0.  1.
<scales pt_clust_3="35.79375" pt_clust_4="86.71796" pt_clust_5="40.71355" pt_clust_6="14000.00000"></scales>
<clustering>
<clus scale="   40.714">  1  5  2 -1</clus>
<clus scale="   35.794">  1  3  2 -1</clus>
<clus scale="   86.718">  2  4  1 -1</clus>
<clus scale="   40.714">  1  3  2 -1</clus>
</clustering>
</event>
<event>
 6    0  0.4227619E+002  0.1346866E+03  0.7546771E-02  0.1220663E+00
         21   -1    0    0  506  501  0.00000000000E+00  0.00000000000E+00  0.12114704392E+04  0.12114704392E+04  0.00000000000E+00 0. -1.
         21   -1    0    0  504  502 -0.00000000000E+00 -0.00000000000E+00 -0.37747626935E+03  0.37747626935E+03  0.00000000000E+00 0.  1.
         21    1    1    2  503  501 -0.78555550011E+02 -0.39629188176E+02  0.72000027601E+02  0.11369015335E+03  0.00000000000E+00 0.  1.
         21    1    1    2  504  503 -0.94911716489E+02  0.40542017031E+02 -0.54477770427E+02  0.11670354126E+03  0.00000000000E+00 0.  1.
         21    1    1    2  505  502  0.11443287720E+03  0.97265025605E+02 -0.24692077707E+03  0.28900733337E+03  0.00000000000E+00 0.  1.
         21    1    1    2  506  505  0.59034389305E+02 -0.98177854460E+02  0.10633926897E+04  0.10695456806E+04  0.00000000000E+00 0. -1.
<scales pt_clust_3="87.98549" pt_clust_4="104.80101" pt_clust_5="134.68656" pt_clust_6="14000.00000"></scales>
<clustering>
<clus scale="   87.985">  1  3  2 -1</clus>
<clus scale="  104.801">  2  4  1 -1</clus>
<clus scale="  134.687">  2  5  1 -1</clus>
<clus scale="   87.985">  1  3  2 -1</clus>
</clustering>
</event>
<event>
 6    0  0.4227619E+002  0.9749374E+02  0.7546771E-02  0.1285656E+00
         21   -1    0    0  506  501  0.00000000000E+00  0.00000000000E+00  0.25030078447E+02  0.25030078447E+02  0.00000000000E+00 0. -1.
         21   -1    0    0  503  502 -0.00000000000E+00 -0.00000000000E+00 -0.11115866225E+04  0.11115866225E+04  0.00000000000E+00 0. -1.
         21    1    1    2  503  505 -0.13397590442E+02  0.33713014631E+02 -0.32429663337E+03  0.32631942817E+03  0.00000000000E+00 0. -1.
         21    1    1    2  504  501 -0.90196085097E+02 -0.57401903047E+02 -0.15740733178E+03  0.19028237002E+03  0.00000000000E+00 0. -1.
         21    1    1    2  505  504  0.40701499641E+02 -0.28617653605E+02 -0.31240824552E+03  0.31634552951E+03  0.00000000000E+00 0. -1.
         21    1    1    2  506  502  0.62892175898E+02  0.52306542021E+02 -0.29244433341E+03  0.30366937329E+03  0.00000000000E+00 0.  1.
<scales pt_clust_3="36.27758" pt_clust_4="14000.00000" pt_clust_5="38.45019" pt_clust_6="97.49374"></scales>
<clustering>
<clus scale="   36.278">  2  3  1 -1</clus>
<clus scale="   38.450">  2  5  1 -1</clus>
<clus scale="   97.494">  2  6  1 -1</clus>
<clus scale="   97.494">  1  3  2 -1</clus>
</clustering>
</event>
<event>
 6    0  0.4227619E+002  0.9864515E+02  0.7546771E-02  0.1283171E+00
         21   -1    0    0  506  501  0.00000000000E+00  0.00000000000E+00  0.25202485041E+04  0.25202485041E+04  0.00000000000E+00 0. -1.
         21   -1    0    0  505  502 -0.00000000000E+00 -0.00000000000E+00 -0.28901008895E+02  0.28901008895E+02  0.00000000000E+00 0. -1.
         21    1    1    2  503  504  0.65846759321E+02  0.23052824465E+02  0.23837849941E+03  0.24837781183E+03  0.00000000000E+00 0. -1.
         21    1    1    2  504  501 -0.10271970712E+03  0.37368246699E+02  0.16903074549E+04  0.16938379545E+04  0.00000000000E+00 0. -1.
         21    1    1    2  505  503 -0.30803071137E+02 -0.13170297097E+02 -0.44967148808E+01  0.33800981669E+02  0.00000000000E+00 0. -1.
         21    1    1    2  506  502  0.67676018938E+02 -0.47250774067E+02  0.56715825585E+03  0.57313276504E+03  0.00000000000E+00 0. -1.
<scales pt_clust_3="52.64227" pt_clust_4="14000.00000" pt_clust_5="33.50054" pt_clust_6="98.64515"></scales>
<clustering>
<clus scale="   33.501">  2  5  1 -1</clus>
<clus scale="   52.642">  2  3  1 -1</clus>
<clus scale="   98.645">  2  6  1 -1</clus>
<clus scale="   98.645">  1  3  2 -1</clus>
</clustering>
</event>
<event>
 6    0  0.4227619E+002  0.1218020E+03  0.7546771E-02  0.1240154E+00
         21   -1    0    0  504  501  0.00000000000E+00  0.00000000000E+00  0.15341648823E+04  0.15341648823E+04  0.00000000000E+00 0.  1.
         21   -1    0    0  503  502 -0.00000000000E+00 -0.00000000000E+00 -0.86168444220E+02  0.86168444220E+02  0.00000000000E+00 0. -1.
         21    1    1    2  503  501 -0.65219945062E+02  0.52893420468E+01  0.74102863406E+02  0.98857739900E+02  0.00000000000E+00 0. -1.
         21    1    1    2  504  505  0.10272956198E+03  0.76569903495E+02  0.14048442910E+04  0.14106749431E+04  0.00000000000E+00 0.  1.
         21    1    1    2  505  506 -0.40952526693E+02 -0.44064955477E+02  0.25047657487E+01  0.60208833199E+02  0.00000000000E+00 0. -1.
         21    1    1    2  506  502  0.34429097788E+01 -0.37794290065E+02 -0.33455482107E+02  0.50591810328E+02  0.00000000000E+00 0. -1.
<scales pt_clust_3="64.47344" pt_clust_4="121.80195" pt_clust_5="14000.00000" pt_clust_6="37.95078"></scales>
<clustering>
<clus scale="   37.951">  2  6  1 -1</clus>
<clus scale="   64.473">  2  3  1 -1</clus>
<clus scale="  121.802">  1  4  2 -1</clus>
<clus scale="  121.802">  1  3  2 -1</clus>
</clustering>
</event>
<event>
 6    0  0.4227619E+002  0.9120514E+02  0.7546771E-02  0.1299959E+00
         21   -1    0    0  506  501  0.00000000000E+00  0.00000000000E+00  0.30870404882E+03  0.30870404882E+03  0.00000000000E+00 0. -1.
         21   -1    0    0  503  502 -0.00000000000E+00 -0.00000000000E+00 -0.21645334257E+04  0.21645334257E+04  0.00000000000E+00 0.  1.
         21    1    1    2  503  505 -0.24500623351E+02  0.28427117195E+02 -0.16534285993E+04  0.16538544418E+04  0.00000000000E+00 0.  1.
         21    1    1    2  504  502  0.14126815779E+02 -0.80487413035E+02 -0.44969282941E+03  0.45705736118E+03  0.00000000000E+00 0.  1.
         21    1    1    2  505  501  0.18562677347E+02 -0.38929235052E+02 -0.41242112152E+02  0.59673864856E+02  0.00000000000E+00 0.  1.
         21    1    1    2  506  504 -0.81888697749E+01  0.90989530892E+02  0.28853416400E+03  0.30265180673E+03  0.00000000000E+00 0. -1.
<scales pt_clust_3="37.52841" pt_clust_4="91.20514" pt_clust_5="39.56471" pt_clust_6="14000.00000"></scales>
<clustering>
<clus scale="   37.528">  2  3  1 -1</clus>
<clus scale="   39.565">  2  5  1 -1</clus>
<clus scale="   91.205">  2  4  1 -1</clus>
<clus scale="   91.205">  1  3  2 -1</clus>
</clustering>
</event>
<event>
 6    0  0.4227619E+002  0.1236252E+03  0.7546771E-02  0.1237234E+00
         21   -1    0    0  503  501  0.00000000000E+00  0.00000000000E+00  0.88938604331E+03  0.88938604331E+03  0.00000000000E+00 0. -1.
         21   -1    0    0  504  502 -0.00000000000E+00 -0.00000000000E+00 -0.77983476883E+03  0.77983476883E+03  0.00000000000E+00 0.  1.
         21    1    1    2  503  506 -0.19768325598E+02  0.43258174375E+02  0.42145342463E+02  0.63547511663E+02  0.00000000000E+00 0. -1.
         21    1    1    2  504  505  0.71700827577E+02  0.19342272133E+02 -0.13401737857E+03  0.15321811226E+03  0.00000000000E+00 0.  1.
         21    1    1    2  505  501 -0.15589585931E+02  0.76267360364E+02  0.81682911980E+03  0.82053004601E+03  0.00000000000E+00 0. -1.
         21    1    1    2  506  502 -0.36342916048E+02 -0.13886780687E+03 -0.61540580921E+03  0.63192514220E+03  0.00000000000E+00 0.  1.
<scales pt_clust_3="47.56108" pt_clust_4="74.17615" pt_clust_5="123.62516" pt_clust_6="14000.00000"></scales>
<clustering>
<clus scale="   47.561">  1  3  2 -1</clus>
<clus scale="   74.176">  2  4  1 -1</clus>
<clus scale="  123.625">  1  5  2 -1</clus>
<clus scale="   47.561">  1  3  2 -1</clus>
</clustering>
</event>
<event>
 6    0  0.4227619E+002  0.9629968E+02  0.7546771E-02  0.1288275E+00
         21   -1    0    0  504  501  0.00000000000E+00  0.00000000000E+00  0.82006692249E+03  0.82006692249E+03  0.00000000000E+00 0.  1.
         21   -1    0    0  506  502 -0.00000000000E+00 -0.00000000000E+00 -0.76758305572E+02  0.76758305572E+02  0.00000000000E+00 0. -1.
         21    1    1    2  503  502 -0.69949355293E+02 -0.44043391063E+02  0.19798144526E+03  0.21454459972E+03  0.00000000000E+00 0.  1.
         21    1    1    2  504  503  0.33907742936E+02 -0.75229652019E+02  0.23303228557E+03  0.24721100641E+03  0.00000000000E+00 0.  1.
         21    1    1    2  505  501 -0.44200748869E+01  0.11959637323E+03  0.35595935857E+03  0.37553947130E+03  0.00000000000E+00 0.  1.
         21    1    1    2  506  505  0.40461687244E+02 -0.32333014575E+00 -0.43664472480E+02  0.59530150630E+02  0.00000000000E+00 0. -1.
<scales pt_clust_3="71.80773" pt_clust_4="96.29968" pt_clust_5="14000.00000" pt_clust_6="40.46298"></scales>
<clustering>
<clus scale="   40.463">  2  6  1 -1</clus>
<clus scale="   71.808">  2  3  1 -1</clus>
<clus scale="   96.300">  1  4  2 -1</clus>
<clus scale="   96.300">  1  3  2 -1</clus>
</clustering>
</event>
<event>
 6    0  0.4227619E+002  0.5680654E+02  0.7546771E-02  0.1411744E+00
         21   -1    0    0  506  501  0.00000000000E+00  0.00000000000E+00  0.32722766394E+03  0.32722766394E+03  0.00000000000E+00 0. -1.
         21   -1    0    0  505  502 -0.00000000000E+00 -0.00000000000E+00 -0.47268266977E+03  0.47268266977E+03  0.00000000000E+00 0.  1.
         21    1    1    2  503  501  0.63694199441E+02  0.77175286481E+02  0.27867434789E+03  0.29609520100E+03  0.00000000000E+00 0. -1.
         21    1    1    2  504  502 -0.36444539368E+02 -0.84967825366E+02 -0.30208457727E+03  0.31591585528E+03  0.00000000000E+00 0.  1.
         21    1    1    2  505  503  0.68973907162E+01  0.41447695276E+02 -0.13234995477E+03  0.13885962685E+03  0.00000000000E+00 0.  1.
         21    1    1    2  506  504 -0.34147050789E+02 -0.33655156390E+02  0.10305178318E+02  0.49039650584E+02  0.00000000000E+00 0. -1.
<scales pt_clust_3="14000.00000" pt_clust_4="56.80654" pt_clust_5="42.01768" pt_clust_6="46.01260"></scales>
<clustering>
<clus scale="   42.018">  2  5  1 -1</clus>
<clus scale="   46.013">  1  6  2 -1</clus>
<clus scale="   56.807">  2  4  1 -1</clus>
<clus scale="   46.013">  1  3  2 -1</clus>
</clustering>
</event>
<event>
 6    0  0.4227619E+002  0.7282137E+02  0.7546771E-02  0.1350753E+00
         21   -1    0    0  503  501  0.00000000000E+00  0.00000000000E+00  0.50038500361E+02  0.50038500361E+02  0.00000000000E+00 0. -1.
         21   -1    0    0  506  502 -0.00000000000E+00 -0.00000000000E+00 -0.77707395868E+03  0.77707395868E+03  0.00000000000E+00 0. -1.
         21    1    1    2  503  504 -0.54967200935E+02 -0.23829993093E+02 -0.74236670301E+02  0.95395728242E+02  0.00000000000E+00 0. -1.
         21    1    1    2  504  505  0.97894201031E+01  0.88779686112E+02 -0.21644265335E+03  0.23414757654E+03  0.00000000000E+00 0. -1.
         21    1    1    2  505  502 -0.43479675856E+02 -0.27105343775E+02 -0.38490629218E+03  0.38830147519E+03  0.00000000000E+00 0. -1.
         21    1    1    2  506  501  0.88657456689E+02 -0.37844349244E+02 -0.51449842486E+02  0.10926767906E+03  0.00000000000E+00 0. -1.
<scales pt_clust_3="70.93662" pt_clust_4="72.82137" pt_clust_5="51.23653" pt_clust_6="14000.00000"></scales>
<clustering>
<clus scale="   51.237">  2  5  1 -1</clus>
<clus scale="   70.937">  1  3  2 -1</clus>
<clus scale="   72.821">  2  4  1 -1</clus>
<clus scale="   70.937">  1  3  2 -1</clus>
</clustering>
</event>
<event>
 6    0  0.4227619E+002  0.7752206E+02  0.7546771E-02  0.1336234E+00
         21   -1    0    0  505  501  0.00000000000E+00  0.00000000000E+00  0.37799623215E+03  0.37799623215E+03  0.00000000000E+00 0.  1.
         21   -1    0    0  506  502 -0.00000000000E+00 -0.00000000000E+00 -0.33518786378E+03  0.33518786378E+03  0.00000000000E+00 0. -1.
         21    1    1    2  503  501  0.44763874872E+02 -0.19787073783E+02  0.33822291864E+02  0.59491849941E+02  0.00000000000E+00 0. -1.
         21    1    1    2  504  502  0.13783070674E+02  0.57590896536E+02 -0.35149517262E+01  0.59321490934E+02  0.00000000000E+00 0. -1.
         21    1    1    2  505  504 -0.11628019679E+03 -0.60412243869E+01  0.28823903530E+03  0.31086865720E+03  0.00000000000E+00 0.  1.
         21    1    1    2  506  503  0.57733251248E+02 -0.31762598366E+02 -0.27573800706E+03  0.28350209786E+03  0.00000000000E+00 0. -1.
<scales pt_clust_3="48.94214" pt_clust_4="58.61447" pt_clust_5="77.52206" pt_clust_6="14000.00000"></scales>
<clustering>
<clus scale="   48.942">  1  3  2 -1</clus>
<clus scale="   58.614">  2  4  1 -1</clus>
<clus scale="   77.522">  1  5  2 -1</clus>
<clus scale="   48.942">  1  3  2 -1</clus>
</clustering>
</event>
<event>
 6    0  0.4227619E+002  0.1291393E+03  0.7546771E-02  0.1228738E+00
         21   -1    0    0  504  501  0.00000000000E+00  0.00000000000E+00  0.10974437336E+04  0.10974437336E+04  0.00000000000E+00 0. -1.
         21   -1    0    0  503  502 -0.00000000000E+00 -0.00000000000E+00 -0.44886901331E+02  0.44886901331E+02  0.00000000000E+00 0. -1.
         21    1    1    2  503  505  0.95735480388E+02 -0.50357499198E+02  0.24037108078E+03  0.26358948463E+03  0.00000000000E+00 0. -1.
         21    1    1    2  504  506 -0.55270274533E+02  0.27372272125E+02  0.72596151418E+02  0.95258835438E+02  0.00000000000E+00 0. -1.
         21    1    1    2  505  501  0.31845759658E+02  0.16585906732E+02  0.69975883371E+03  0.70067943460E+03  0.00000000000E+00 0. -1.
         21    1    1    2  506  502 -0.72310965512E+02  0.63993203402E+01  0.39830766382E+02  0.82802880293E+02  0.00000000000E+00 0. -1.
<scales pt_clust_3="122.58992" pt_clust_4="37.35050" pt_clust_5="35.90605" pt_clust_6="37.35050"></scales>
<clustering>
<clus scale="   35.906">  1  5  2 -1</clus>
<clus scale="   37.351">  4  6 -1 -1</clus>
<clus scale="  122.590">  1  3  2 -1</clus>
<clus scale="   35.906">  1  3  2 -1</clus>
</clustering>
</event>
<event>
 6    0  0.4227619E+002  0.1110522E+03  0.7546771E-02  0.1258634E+00
         21   -1    0    0  506  501  0.00000000000E+00  0.00000000000E+00  0.17751669722E+03  0.17751669722E+03  0.00000000000E+00 0. -1.
         21   -1    0    0  504  502 -0.00000000000E+00 -0.00000000000E+00 -0.24963555028E+03  0.24963555028E+03  0.00000000000E+00 0. -1.
         21    1    1    2  503  501 -0.37660770047E+02  0.69034708280E+00 -0.76810511208E+00  0.37674927540E+02  0.00000000000E+00 0. -1.
         21    1    1    2  504  505 -0.31741688650E+02  0.61103229938E+02 -0.33732740565E+02  0.76674880458E+02  0.00000000000E+00 0.  1.
         21    1    1    2  505  503 -0.63144087312E+02  0.47404530468E+02  0.73810752866E+02  0.10808511697E+03  0.00000000000E+00 0. -1.
         21    1    1    2  506  502  0.13254654601E+03 -0.10919810749E+03 -0.11142876025E+03  0.20471732254E+03  0.00000000000E+00 0. -1.
<scales pt_clust_3="37.66710" pt_clust_4="71.42202" pt_clust_5="111.05223" pt_clust_6="14000.00000"></scales>
<clustering>
<clus scale="   37.667">  1  3  2 -1</clus>
<clus scale="   71.422">  2  4  1 -1</clus>
<clus scale="  111.052">  1  5  2 -1</clus>
<clus scale="   37.667">  1  3  2 -1</clus>
</clustering>
</event>
<event>
 6    0  0.4227619E+002  0.1225177E+03  0.7546771E-02  0.1239001E+00
         21   -1    0    0  502  501  0.00000000000E+00  0.00000000000E+00  0.19171044524E+04  0.19171044524E+04  0.00000000000E+00 0.  1.
         21   -1    0    0  504  502 -0.00000000000E+00 -0.00000000000E+00 -0.33293905415E+02  0.33293905415E+02  0.00000000000E+00 0.  1.
         21    1    1    2  503  501 -0.24827952785E+02  0.12908610079E+03  0.16566088740E+04  0.16618160578E+04  0.00000000000E+00 0.  1.
         21    1    1    2  504  506 -0.15513125330E+02 -0.42394461752E+02  0.11349582934E+03  0.12214438474E+03  0.00000000000E+00 0.  1.
         21    1    1    2  505  503  0.16782157806E+01 -0.53858942914E+02  0.15768297439E+02  0.56144824731E+02  0.00000000000E+00 0.  1.
         21    1    1    2  506  505  0.38662862334E+02 -0.32832696125E+02  0.97937546215E+02  0.11029309052E+03  0.00000000000E+00 0. -1.
<scales pt_clust_3="122.51769" pt_clust_4="45.14363" pt_clust_5="14000.00000" pt_clust_6="54.80263"></scales>
<clustering>
<clus scale="   45.144">  2  4  1 -1</clus>
<clus scale="   54.803">  2  6  1 -1</clus>
<clus scale="  122.518">  1  3  2 -1</clus>
<clus scale="  122.518">  1  3  2 -1</clus>
</clustering>
</event>
<event>
 6    0  0.4227619E+002  0.8387857E+02  0.7546771E-02  0.1318392E+00
         21   -1    0    0  504  501  0.00000000000E+00  0.00000000000E+00  0.10259145816E+04  0.10259145816E+04  0.00000000000E+00 0. -1.
         21   -1    0    0  503  502 -0.00000000000E+00 -0.00000000000E+00 -0.80646030259E+02  0.80646030259E+02  0.00000000000E+00 0. -1.
         21    1    1    2  503  506  0.44416452287E+02 -0.38666664085E+02 -0.40179537533E+02  0.71290443831E+02  0.00000000000E+00 0. -1.
         21    1    1    2  504  502  0.20012284219E+02  0.72970932798E+02  0.18256251472E+03  0.19762165958E+03  0.00000000000E+00 0. -1.
         21    1    1    2  505  501  0.51087265354E+02 -0.30305434623E+01  0.59939359973E+03  0.60157441790E+03  0.00000000000E+00 0. -1.
         21    1    1    2  506  505 -0.11551600186E+03 -0.31273725250E+02  0.20349197447E+03  0.23607409059E+03  0.00000000000E+00 0. -1.
<scales pt_clust_3="60.38161" pt_clust_4="83.87857" pt_clust_5="51.17707" pt_clust_6="14000.00000"></scales>
<clustering>
<clus scale="   51.177">  1  5  2 -1</clus>
<clus scale="   60.382">  2  3  1 -1</clus>
<clus scale="   83.879">  1  4  2 -1</clus>
<clus scale="   51.177">  1  3  2 -1</clus>
</clustering>
</event>
<event>
 6    0  0.4227619E+002  0.7619635E+02  0.7546771E-02  0.1340206E+00
         21   -1    0    0  502  501  0.00000000000E+00  0.00000000000E+00  0.58781259105E+02  0.58781259105E+02  0.00000000000E+00 0. -1.
         21   -1    0    0  503  502 -0.00000000000E+00 -0.00000000000E+00 -0.33441342563E+04  0.33441342563E+04  0.00000000000E+00 0. -1.
         21    1    1    2  503  504 -0.11826640355E+02 -0.45759440496E+02 -0.21791467062E+04  0.21796591851E+04  0.00000000000E+00 0. -1.
         21    1    1    2  504  505 -0.54428848557E+02 -0.32085393882E+02 -0.28348102613E+03  0.29043667852E+03  0.00000000000E+00 0. -1.
         21    1    1    2  505  506  0.12362452919E+03  0.12283184168E+03 -0.84000770863E+03  0.85789488640E+03  0.00000000000E+00 0. -1.
         21    1    1    2  506  501 -0.57369040283E+02 -0.44987007306E+02  0.17282443787E+02  0.74924765415E+02  0.00000000000E+00 0. -1.
<scales pt_clust_3="47.26305" pt_clust_4="71.89023" pt_clust_5="14000.00000" pt_clust_6="76.19635"></scales>
<clustering>
<clus scale="   47.263">  2  3  1 -1</clus>
<clus scale="   71.890">  2  4  1 -1</clus>
<clus scale="   76.196">  1  6  2 -1</clus>
<clus scale="   76.196">  1  3  2 -1</clus>
</clustering>
</event>
<event>
 6    0  0.4227619E+002  0.9147805E+02  0.7546771E-02  0.1299311E+00
         21   -1    0    0  504  501  0.00000000000E+00  0.00000000000E+00  0.10396257574E+04  0.10396257574E+04  0.00000000000E+00 0. -1.
         21   -1    0    0  503  502 -0.00000000000E+00 -0.00000000000E+00 -0.83001423292E+03  0.83001423292E+03  0.00000000000E+00 0. -1.
         21    1    1    2  503  501  0.10425921928E+02 -0.53945637272E+02  0.17602557750E+03  0.18440128948E+03  0.00000000000E+00 0. -1.
         21    1    1    2  504  506 -0.77312405564E+02 -0.93148803382E+01  0.85196412208E+03  0.85551554069E+03  0.00000000000E+00 0. -1.
         21    1    1    2  505  502 -0.54870268703E+01  0.53774054514E+02 -0.20459178665E+03  0.21161180394E+03  0.00000000000E+00 0. -1.
         21    1    1    2  506  505  0.72373510506E+02  0.94864630952E+01 -0.61378638846E+03  0.61811135620E+03  0.00000000000E+00 0. -1.
<scales pt_clust_3="54.58137" pt_clust_4="91.47805" pt_clust_5="54.05327" pt_clust_6="14000.00000"></scales>
<clustering>
<clus scale="   54.053">  2  5  1 -1</clus>
<clus scale="   54.581">  1  3  2 -1</clus>
<clus scale="   91.478">  1  4  2 -1</clus>
<clus scale="   54.581">  1  3  2 -1</clus>
</clustering>
</event>
<event>
 6    0  0.4227619E+002  0.9415237E+02  0.7546771E-02  0.1293097E+00
         21   -1    0    0  505  501  0.00000000000E+00  0.00000000000E+00  0.10537608569E+03  0.10537608569E+03  0.00000000000E+00 0. -1.
         21   -1    0    0  503  502 -0.00000000000E+00 -0.00000000000E+00 -0.27866269786E+04  0.27866269786E+04  0.00000000000E+00 0.  1.
         21    1    1    2  503  506 -0.45879788191E+02  0.27791149926E+02 -0.25798826917E+04  0.25804402737E+04  0.00000000000E+00 0.  1.
         21    1    1    2  504  501 -0.16783553164E+02 -0.54293601613E+02  0.34075086964E+02  0.66261560384E+02  0.00000000000E+00 0. -1.
         21    1    1    2  505  502  0.13103221115E+03  0.24702837775E+02 -0.10806421867E+03  0.17163200724E+03  0.00000000000E+00 0. -1.
         21    1    1    2  506  504 -0.68368869795E+02  0.17996139119E+01 -0.27379069467E+02  0.73669222964E+02  0.00000000000E+00 0. -1.
<scales pt_clust_3="53.64050" pt_clust_4="55.96233" pt_clust_5="14000.00000" pt_clust_6="94.15237"></scales>
<clustering>
<clus scale="   53.640">  2  3  1 -1</clus>
<clus scale="   55.962">  1  4  2 -1</clus>
<clus scale="   94.152">  1  6  2 -1</clus>
<clus scale="   55.962">  1  3  2 -1</clus>
</clustering>
</event>
<event>
 6    0  0.4227619E+002  0.8921079E+02  0.7546771E-02  0.1304774E+00
         21   -1    0    0  504  501  0.00000000000E+00  0.00000000000E+00  0.82914950672E+02  0.82914950672E+02  0.00000000000E+00 0. -1.
         21   -1    0    0  503  502 -0.00000000000E+00 -0.00000000000E+00 -0.48755955560E+03  0.48755955560E+03  0.00000000000E+00 0. -1.
         21    1    1    2  503  501  0.11447376260E+03 -0.55218985496E+02 -0.87414630081E+02  0.15425529565E+03  0.00000000000E+00 0. -1.
         21    1    1    2  504  505  0.22387633346E+02  0.23799374734E+02  0.20642016674E+02  0.38648534473E+02  0.00000000000E+00 0. -1.
         21    1    1    2  505  506 -0.66266700388E+02 -0.10911445737E+02 -0.68612893651E+02  0.96010751500E+02  0.00000000000E+00 0. -1.
         21    1    1    2  506  502 -0.70594695556E+02  0.42331056498E+02 -0.26925909787E+03  0.28155992465E+03  0.00000000000E+00 0. -1.
<scales pt_clust_3="14000.00000" pt_clust_4="32.67440" pt_clust_5="60.69884" pt_clust_6="89.21079"></scales>
<clustering>
<clus scale="   32.674">  1  4  2 -1</clus>
<clus scale="   60.699">  1  5  2 -1</clus>
<clus scale="   89.211">  2  6  1 -1</clus>
<clus scale="   32.674">  1  3  2 -1</clus>
</clustering>
</event>
<event>
 6    0  0.4227619E+002  0.7418739E+02  0.7546771E-02  0.1346406E+00
         21   -1    0    0  506  501  0.00000000000E+00  0.00000000000E+00  0.87264071359E+02  0.87264071359E+02  0.00000000000E+00 0. -1.
         21   -1    0    0  503  502 -0.00000000000E+00 -0.00000000000E+00 -0.85128670191E+03  0.85128670191E+03  0.00000000000E+00 0.  1.
         21    1    1    2  503  505  0.39779890901E+02 -0.15373215039E+01 -0.51150941860E+03  0.51305622343E+03  0.00000000000E+00 0.  1.
         21    1    1    2  504  501 -0.86424053270E+02  0.80036781153E+02 -0.97876454349E+02  0.15314961194E+03  0.00000000000E+00 0.  1.
         21    1    1    2  505  504  0.16922433720E+02 -0.49313687520E+02 -0.20237783518E+03  0.20898563757E+03  0.00000000000E+00 0.  1.
         21    1    1    2  506  502  0.29721728649E+02 -0.29185772129E+02  0.47741077586E+02  0.63359300325E+02  0.00000000000E+00 0. -1.
<scales pt_clust_3="39.80959" pt_clust_4="14000.00000" pt_clust_5="74.18739" pt_clust_6="42.33875"></scales>
<clustering>
<clus scale="   39.810">  2  3  1 -1</clus>
<clus scale="   42.339">  1  6  2 -1</clus>
<clus scale="   74.187">  2  5  1 -1</clus>
<clus scale="   42.339">  1  3  2 -1</clus>
</clustering>
</event>
<event>
 6    0  0.4227619E+002  0.1120105E+03  0.7546771E-02  0.1256891E+00
         21   -1    0    0  504  501  0.00000000000E+00  0.00000000000E+00  0.56502695883E+03  0.56502695883E+03  0.00000000000E+00 0. -1.
         21   -1    0    0  503  502 -0.00000000000E+00 -0.00000000000E+00 -0.14614189084E+03  0.14614189084E+03  0.00000000000E+00 0.  1.
         21    1    1    2  503  501  0.22370580445E+02  0.30133955258E+02  0.41608539489E+02  0.56033638891E+02  0.00000000000E+00 0. -1.
         21    1    1    2  504  505  0.10470899238E+03 -0.26901362333E+02  0.46636597400E+03  0.47873257471E+03  0.00000000000E+00 0. -1.
         21    1    1    2  505  506 -0.76490330640E+02  0.10932956017E+02 -0.52276116525E+01  0.77444355070E+02  0.00000000000E+00 0.  1.
         21    1    1    2  506  502 -0.50589242188E+02 -0.14165548942E+02 -0.83861833847E+02  0.98958280999E+02  0.00000000000E+00 0.  1.
<scales pt_clust_3="37.52996" pt_clust_4="112.01053" pt_clust_5="14000.00000" pt_clust_6="52.10235"></scales>
<clustering>
<clus scale="   37.530">  1  3  2 -1</clus>
<clus scale="   52.102">  2  6  1 -1</clus>
<clus scale="  112.011">  1  4  2 -1</clus>
<clus scale="   37.530">  1  3  2 -1</clus>
</clustering>
</event>
<event>
 6    0  0.4227619E+002  0.8980169E+02  0.7546771E-02  0.1303333E+00
         21   -1    0    0  504  501  0.00000000000E+00  0.00000000000E+00  0.33454811470E+02  0.33454811470E+02  0.00000000000E+00 0.  1.
         21   -1    0    0  506  502 -0.00000000000E+00 -0.00000000000E+00 -0.24620721002E+04  0.24620721002E+04  0.00000000000E+00 0.  1.
         21    1    1    2  503  502  0.79117324755E+00  0.46723180174E+02 -0.91724080314E+03  0.91843038521E+03  0.00000000000E+00 0.  1.
         21    1    1    2  504  505  0.27936211014E+02  0.79065187870E+02 -0.48584461158E+02  0.96913289516E+02  0.00000000000E+00 0.  1.
         21    1    1    2  505  503 -0.10644261785E+03 -0.58802314505E+02 -0.69373296687E+03  0.70431042333E+03  0.00000000000E+00 0.  1.
         21    1    1    2  506  501  0.77715233587E+02 -0.66986053539E+02 -0.76905905756E+03  0.77587281362E+03  0.00000000000E+00 0.  1.
<scales pt_clust_3="46.72988" pt_clust_4="85.94608" pt_clust_5="14000.00000" pt_clust_6="89.80169"></scales>
<clustering>
<clus scale="   46.730">  2  3  1 -1</clus>
<clus scale="   85.946">  1  4  2 -1</clus>
<clus scale="   89.802">  2  6  1 -1</clus>
<clus scale="   85.946">  1  3  2 -1</clus>
</clustering>
</event>
<event>
 6    0  0.4227619E+002  0.1658837E+03  0.7546771E-02  0.1182210E+00
         21   -1    0    0  503  501  0.00000000000E+00  0.00000000000E+00  0.34008497137E+03  0.34008497137E+03  0.00000000000E+00 0.  1.
         21   -1    0    0  505  502 -0.00000000000E+00 -0.00000000000E+00 -0.19676855682E+03  0.19676855682E+03  0.00000000000E+00 0.  1.
         21    1    1    2  503  504  0.27578159727E+02 -0.52049320860E+02  0.39135717991E+02  0.70719807116E+02  0.00000000000E+00 0.  1.
         21    1    1    2  504  502  0.15214602434E+03 -0.69373768713E+02 -0.59835540041E+02  0.17759905506E+03  0.00000000000E+00 0.  1.
         21    1    1    2  505  506 -0.14009841695E+03  0.85086506608E+02  0.65919945473E+02  0.17667121795E+03  0.00000000000E+00 0.  1.
         21    1    1    2  506  501 -0.39625767109E+02  0.36336582965E+02  0.98096291125E+02  0.11186344807E+03  0.00000000000E+00 0.  1.
<scales pt_clust_3="47.25577" pt_clust_4="14000.00000" pt_clust_5="165.88374" pt_clust_6="53.76382"></scales>
<clustering>
<clus scale="   53.764">  1  6  2 -1</clus>
<clus scale="   47.256">  1  3  2 -1</clus>
<clus scale="  165.884">  1  5  2 -1</clus>
<clus scale="   53.764">  1  3  2 -1</clus>
</clustering>
</event>
<event>
 6    0  0.4227619E+002  0.1279472E+03  0.7546771E-02  0.1230534E+00
         21   -1    0    0  504  501  0.00000000000E+00  0.00000000000E+00  0.17901556724E+04  0.17901556724E+04  0.00000000000E+00 0. -1.
         21   -1    0    0  506  502 -0.00000000000E+00 -0.00000000000E+00 -0.55636391384E+03  0.55636391384E+03  0.00000000000E+00 0.  1.
         21    1    1    2  503  502 -0.81721096484E+02 -0.11055590890E+03 -0.51552912300E+03  0.53354589611E+03  0.00000000000E+00 0.  1.
         21    1    1    2  504  503  0.64942032387E+02  0.94758580790E+02  0.12772844187E+04  0.12824399177E+04  0.00000000000E+00 0. -1.
         21    1    1    2  505  501 -0.17040541474E+02 -0.51175246595E+02  0.44874412165E+03  0.45197408403E+03  0.00000000000E+00 0. -1.
         21    1    1    2  506  505  0.33819605571E+02  0.66972574705E+02  0.23292341172E+02  0.78559688396E+02  0.00000000000E+00 0. -1.
<scales pt_clust_3="14000.00000" pt_clust_4="66.87645" pt_clust_5="53.93780" pt_clust_6="127.94724"></scales>
<clustering>
<clus scale="   53.938">  1  5  2 -1</clus>
<clus scale="   66.876">  1  4  2 -1</clus>
<clus scale="  127.947">  1  6  2 -1</clus>
<clus scale="   53.938">  1  3  2 -1</clus>
</clustering>
</event>
<event>
 6    0  0.4227619E+002  0.1364591E+03  0.7546771E-02  0.1218175E+00
         21   -1    0    0  505  501  0.00000000000E+00  0.00000000000E+00  0.59485066805E+03  0.59485066805E+03  0.00000000000E+00 0. -1.
         21   -1    0    0  503  502 -0.00000000000E+00 -0.00000000000E+00 -0.25923832117E+03  0.25923832117E+03  0.00000000000E+00 0.  1.
         21    1    1    2  503  506 -0.33202374501E+02  0.38074348368E+01 -0.74039416840E+02  0.81232564151E+02  0.00000000000E+00 0.  1.
         21    1    1    2  504  501  0.86193154492E+02  0.23836374419E+02  0.47204909128E+03  0.48044539461E+03  0.00000000000E+00 0. -1.
         21    1    1    2  505  502 -0.52783455038E+01  0.12453565131E+03 -0.42485625866E+02  0.13168909516E+03  0.00000000000E+00 0.  1.
         21    1    1    2  506  504 -0.47712434487E+02 -0.15217946057E+03 -0.19911701690E+02  0.16072193530E+03  0.00000000000E+00 0.  1.
<scales pt_clust_3="33.41997" pt_clust_4="88.71252" pt_clust_5="136.45909" pt_clust_6="14000.00000"></scales>
<clustering>
<clus scale="   33.420">  2  3  1 -1</clus>
<clus scale="   88.713">  1  4  2 -1</clus>
<clus scale="  136.459">  2  5  1 -1</clus>
<clus scale="   88.713">  1  3  2 -1</clus>
</clustering>
</event>
<event>
 6    0  0.4227619E+002  0.2088013E+03  0.7546771E-02  0.1142519E+00
         21   -1    0    0  504  501  0.00000000000E+00  0.00000000000E+00  0.27457738267E+03  0.27457738267E+03  0.00000000000E+00 0.  1.
         21   -1    0    0  506  502 -0.00000000000E+00 -0.00000000000E+00 -0.39951015080E+03  0.39951015080E+03  0.00000000000E+00 0.  1.
         21    1    1    2  503  501 -0.44338808415E+02  0.36776247578E+02 -0.84608819364E+01  0.58223782432E+02  0.00000000000E+00 0. -1.
         21    1    1    2  504  505 -0.54850619282E+02  0.41734301244E+02  0.11869930275E+03  0.13725839431E+03  0.00000000000E+00 0.  1.
         21    1    1    2  505  502 -0.42221782650E+02  0.75080274146E+02  0.68524692356E+02  0.11006979585E+03  0.00000000000E+00 0.  1.
         21    1    1    2  506  503  0.14141121035E+03 -0.15359082297E+03 -0.30369588130E+03  0.36853556088E+03  0.00000000000E+00 0.  1.
<scales pt_clust_3="57.60575" pt_clust_4="49.39850" pt_clust_5="49.39850" pt_clust_6="201.36604"></scales>
<clustering>
<clus scale="   49.398">  4  5 -1 -1</clus>
<clus scale="   57.606">  1  3  2 -1</clus>
<clus scale="  201.366">  2  6  1 -1</clus>
<clus scale="   57.606">  1  3  2 -1</clus>
</clustering>
</event>
<event>
 6    0  0.4227619E+002  0.8265249E+02  0.7546771E-02  0.1321688E+00
         21   -1    0    0  504  501  0.00000000000E+00  0.00000000000E+00  0.75502982295E+03  0.75502982295E+03  0.00000000000E+00 0.  1.
         21   -1    0    0  506  502 -0.00000000000E+00 -0.00000000000E+00 -0.82739954780E+03  0.82739954780E+03  0.00000000000E+00 0. -1.
         21    1    1    2  503  502 -0.47778528303E+02  0.66084416254E+02 -0.73803379724E+03  0.74252530173E+03  0.00000000000E+00 0. -1.
         21    1    1    2  504  505 -0.32989243008E+02  0.98673509014E+01  0.62650496167E+03  0.62745049347E+03  0.00000000000E+00 0.  1.
         21    1    1    2  505  503 -0.41636553177E+02  0.66579594070E+01 -0.27596479438E+02  0.50393418829E+02  0.00000000000E+00 0.  1.
         21    1    1    2  506  501  0.12240432449E+03 -0.82609726562E+02  0.66755590168E+02  0.16206015672E+03  0.00000000000E+00 0.  1.
<scales pt_clust_3="82.65249" pt_clust_4="34.43334" pt_clust_5="45.20569" pt_clust_6="14000.00000"></scales>
<clustering>
<clus scale="   34.433">  1  4  2 -1</clus>
<clus scale="   45.206">  1  5  2 -1</clus>
<clus scale="   82.652">  2  3  1 -1</clus>
<clus scale="   34.433">  1  3  2 -1</clus>
</clustering>
</event>
<event>
 6    0  0.4227619E+002  0.1138965E+03  0.7546771E-02  0.1253520E+00
         21   -1    0    0  503  501  0.00000000000E+00  0.00000000000E+00  0.27320797226E+03  0.27320797226E+03  0.00000000000E+00 0.  1.
         21   -1    0    0  504  502 -0.00000000000E+00 -0.00000000000E+00 -0.64443385525E+03  0.64443385525E+03  0.00000000000E+00 0.  1.
         21    1    1    2  503  506  0.75371805618E+02 -0.12242597745E+02 -0.20104250685E+02  0.78961833675E+02  0.00000000000E+00 0. -1.
         21    1    1    2  504  505  0.24848463777E+02 -0.77376170839E+02 -0.31669836534E+03  0.32695928274E+03  0.00000000000E+00 0.  1.
         21    1    1    2  505  501 -0.28172926821E+02  0.11185673390E+03  0.21888996461E+03  0.24742364344E+03  0.00000000000E+00 0.  1.
         21    1    1    2  506  502 -0.72047342573E+02 -0.22237965313E+02 -0.25331323159E+03  0.26429706765E+03  0.00000000000E+00 0.  1.
<scales pt_clust_3="67.81965" pt_clust_4="113.89650" pt_clust_5="14000.00000" pt_clust_6="75.40124"></scales>
<clustering>
<clus scale="   75.401">  2  6  1 -1</clus>
<clus scale="   67.820">  2  3  1 -1</clus>
<clus scale="  113.897">  2  4  1 -1</clus>
<clus scale="  113.897">  1  3  2 -1</clus>
</clustering>
</event>
<event>
 6    0  0.4227619E+002  0.8576938E+02  0.7546771E-02  0.1313433E+00
         21   -1    0    0  504  501  0.00000000000E+00  0.00000000000E+00  0.57873560093E+03  0.57873560093E+03  0.00000000000E+00 0. -1.
         21   -1    0    0  501  502 -0.00000000000E+00 -0.00000000000E+00 -0.88476067700E+03  0.88476067700E+03  0.00000000000E+00 0.  1.
         21    1    1    2  503  502  0.21912059662E+02 -0.30044139374E+02 -0.40500820482E+03  0.40671173409E+03  0.00000000000E+00 0.  1.
         21    1    1    2  504  505 -0.30089256712E+02 -0.50977202782E+00  0.38845827555E+03  0.38962219532E+03  0.00000000000E+00 0. -1.
         21    1    1    2  505  506  0.60934611194E+01 -0.81608218662E+02  0.17294486267E+03  0.19132944662E+03  0.00000000000E+00 0. -1.
         21    1    1    2  506  503  0.20837359307E+01  0.11216213006E+03 -0.46242000947E+03  0.47583290190E+03  0.00000000000E+00 0.  1.
<scales pt_clust_3="37.10827" pt_clust_4="30.09357" pt_clust_5="14000.00000" pt_clust_6="85.76938"></scales>
<clustering>
<clus scale="   30.094">  1  4  2 -1</clus>
<clus scale="   37.108">  2  3  1 -1</clus>
<clus scale="   85.769">  2  6  1 -1</clus>
<clus scale="   30.094">  1  3  2 -1</clus>
</clustering>
</event>
<event>
 6    0  0.4227619E+002  0.9114946E+02  0.7546771E-02  0.1300092E+00
         21   -1    0    0  503  501  0.00000000000E+00  0.00000000000E+00  0.11971210654E+03  0.11971210654E+03  0.00000000000E+00 0. -1.
         21   -1    0    0  504  502 -0.00000000000E+00 -0.00000000000E+00 -0.65772067282E+03  0.65772067282E+03  0.00000000000E+00 0.  1.
         21    1    1    2  503  502 -0.25884283701E+02  0.18356181542E+02 -0.37905188633E+02  0.49434288392E+02  0.00000000000E+00 0.  1.
         21    1    1    2  504  506  0.36356345341E+02  0.22753619055E+02 -0.50056106481E+03  0.50239515386E+03  0.00000000000E+00 0.  1.
         21    1    1    2  505  501  0.43172225103E+02  0.70149233246E+02  0.45535716087E+02  0.94118315885E+02  0.00000000000E+00 0. -1.
         21    1    1    2  506  505 -0.53644286743E+02 -0.11125903384E+03 -0.45078028928E+02  0.13148502122E+03  0.00000000000E+00 0.  1.
<scales pt_clust_3="31.73241" pt_clust_4="40.69672" pt_clust_5="91.14946" pt_clust_6="14000.00000"></scales>
<clustering>
<clus scale="   31.732">  2  3  1 -1</clus>
<clus scale="   40.697">  2  4  1 -1</clus>
<clus scale="   91.149">  1  5  2 -1</clus>
<clus scale="   91.149">  1  3  2 -1</clus>
</clustering>
</event>
<event>
 6    0  0.4227619E+002  0.8653079E+02  0.7546771E-02  0.1311477E+00
         21   -1    0    0  503  501  0.00000000000E+00  0.00000000000E+00  0.11978405917E+04  0.11978405917E+04  0.00000000000E+00 0.  1.
         21   -1    0    0  504  502 -0.00000000000E+00 -0.00000000000E+00 -0.25319179972E+02  0.25319179972E+02  0.00000000000E+00 0. -1.
         21    1    1    2  503  505  0.64034417376E+01  0.32877753890E+02  0.23697143544E+03  0.23932699802E+03  0.00000000000E+00 0. -1.
         21    1    1    2  504  501 -0.12548007260E+02 -0.78274774532E+02  0.25843916932E+03  0.27032424430E+03  0.00000000000E+00 0. -1.
         21    1    1    2  505  506 -0.81545880785E+02  0.35294743177E+02  0.55921056789E+03  0.56622602273E+03  0.00000000000E+00 0.  1.
         21    1    1    2  506  502  0.87690446308E+02  0.10102277465E+02  0.11790023904E+03  0.14728250659E+03  0.00000000000E+00 0. -1.
<scales pt_clust_3="33.49553" pt_clust_4="70.05243" pt_clust_5="14000.00000" pt_clust_6="86.53079"></scales>
<clustering>
<clus scale="   33.496">  1  3  2 -1</clus>
<clus scale="   70.052">  1  4  2 -1</clus>
<clus scale="   86.531">  2  6  1 -1</clus>
<clus scale="   33.496">  1  3  2 -1</clus>
</clustering>
</event>
<event>
 6    0  0.4227619E+002  0.1014996E+03  0.7546771E-02  0.1277174E+00
         21   -1    0    0  506  501  0.00000000000E+00  0.00000000000E+00  0.28988905577E+03  0.28988905577E+03  0.00000000000E+00 0. -1.
         21   -1    0    0  501  502 -0.00000000000E+00 -0.00000000000E+00 -0.57537358920E+03  0.57537358920E+03  0.00000000000E+00 0.  1.
         21    1    1    2  503  502 -0.26051344843E+02 -0.30453294755E+02 -0.40895388688E+03  0.41091283422E+03  0.00000000000E+00 0.  1.
         21    1    1    2  504  503 -0.16215785848E+02 -0.69271944276E+02 -0.12365496145E+03  0.14266079863E+03  0.00000000000E+00 0.  1.
         21    1    1    2  505  504  0.74184708677E+02  0.89131153334E+02  0.79197441201E+02  0.14042780419E+03  0.00000000000E+00 0. -1.
         21    1    1    2  506  505 -0.31917577985E+02  0.10594085697E+02  0.16792687369E+03  0.17126120794E+03  0.00000000000E+00 0. -1.
<scales pt_clust_3="40.18006" pt_clust_4="101.49960" pt_clust_5="14000.00000" pt_clust_6="33.62984"></scales>
<clustering>
<clus scale="   33.630">  1  6  2 -1</clus>
<clus scale="   40.180">  2  3  1 -1</clus>
<clus scale="  101.500">  2  4  1 -1</clus>
<clus scale="   33.630">  1  3  2 -1</clus>
</clustering>
</event>
<event>
 6    0  0.4227619E+002  0.1797971E+03  0.7546771E-02  0.1168000E+00
         21   -1    0    0  505  501  0.00000000000E+00  0.00000000000E+00  0.30563642711E+03  0.30563642711E+03  0.00000000000E+00 0. -1.
         21   -1    0    0  506  502 -0.00000000000E+00 -0.00000000000E+00 -0.16447615959E+04  0.16447615959E+04  0.00000000000E+00 0.  1.
         21    1    1    2  503  501  0.16301711222E+03  0.67174626573E+02  0.24813394639E+03  0.30439688679E+03  0.00000000000E+00 0. -1.
         21    1    1    2  504  503 -0.16298869446E+02 -0.91100381116E+02 -0.92751593147E+02  0.13102591582E+03  0.00000000000E+00 0.  1.
         21    1    1    2  505  502 -0.11640903635E+03  0.80134632406E+02 -0.13449462386E+04  0.13523509189E+04  0.00000000000E+00 0.  1.
         21    1    1    2  506  504 -0.30309206419E+02 -0.56208877864E+02 -0.14956128342E+03  0.16262430151E+03  0.00000000000E+00 0. -1.
<scales pt_clust_3="169.36473" pt_clust_4="50.13468" pt_clust_5="141.32453" pt_clust_6="50.13468"></scales>
<clustering>
<clus scale="   50.135">  4  6 -1 -1</clus>
<clus scale="  141.325">  2  5  1 -1</clus>
<clus scale="  169.365">  1  3  2 -1</clus>
<clus scale="  169.365">  1  3  2 -1</clus>
</clustering>
</event>
<event>
 6    0  0.4227619E+002  0.9390887E+02  0.7546771E-02  0.1293653E+00
         21   -1    0    0  505  501  0.00000000000E+00  0.00000000000E+00  0.18332728269E+03  0.18332728269E+03  0.00000000000E+00 0.  1.
         21   -1    0    0  504  502 -0.00000000000E+00 -0.00000000000E+00 -0.10552610729E+04  0.10552610729E+04  0.00000000000E+00 0.  1.
         21    1    1    2  503  506 -0.59391069381E+02  0.35214861282E+02 -0.13606452118E+03  0.15258092772E+03  0.00000000000E+00 0. -1.
         21    1    1    2  504  501  0.11357405877E+03 -0.60986690072E+02 -0.23935733116E+03  0.27186462655E+03  0.00000000000E+00 0.  1.
         21    1    1    2  505  503 -0.23602546936E+02  0.34481379459E+02  0.15567284558E+03  0.16118337570E+03  0.00000000000E+00 0.  1.
         21    1    1    2  506  502 -0.30580442457E+02 -0.87095506687E+01 -0.65218478346E+03  0.65295942562E+03  0.00000000000E+00 0.  1.
<scales pt_clust_3="14000.00000" pt_clust_4="93.90887" pt_clust_5="41.85523" pt_clust_6="31.79654"></scales>
<clustering>
<clus scale="   31.797">  2  6  1 -1</clus>
<clus scale="   41.855">  1  5  2 -1</clus>
<clus scale="   93.909">  1  4  2 -1</clus>
<clus scale="   41.855">  1  3  2 -1</clus>
</clustering>
</event>
<event>
 6    0  0.4227619E+002  0.2363579E+03  0.7546771E-02  0.1122243E+00
         21   -1    0    0  505  501  0.00000000000E+00  0.00000000000E+00  0.20414607866E+04  0.20414607866E+04  0.00000000000E+00 0. -1.
         21   -1    0    0  503  502 -0.00000000000E+00 -0.00000000000E+00 -0.64728105788E+03  0.64728105788E+03  0.00000000000E+00 0.  1.
         21    1    1    2  503  506 -0.11126297318E+03 -0.20961031002E+03 -0.60218346177E+03  0.64725640429E+03  0.00000000000E+00 0.  1.
         21    1    1    2  504  502  0.17964877931E+03  0.13781322037E+03  0.68795802557E+03  0.72425990677E+03  0.00000000000E+00 0. -1.
         21    1    1    2  505  504 -0.20449577658E+02  0.42768150260E+02  0.11112410141E+04  0.11122517212E+04  0.00000000000E+00 0. -1.
         21    1    1    2  506  501 -0.47936228464E+02  0.29028939386E+02  0.19716415084E+03  0.20497381222E+03  0.00000000000E+00 0.  1.
<scales pt_clust_3="14000.00000" pt_clust_4="236.35793" pt_clust_5="47.40569" pt_clust_6="64.85896"></scales>
<clustering>
<clus scale="   47.406">  1  5  2 -1</clus>
<clus scale="   64.859">  1  6  2 -1</clus>
<clus scale="  236.358">  1  4  2 -1</clus>
<clus scale="   47.406">  1  3  2 -1</clus>
</clustering>
</event>
<event>
 6    0  0.4227619E+002  0.9816193E+02  0.7546771E-02  0.1284209E+00
         21   -1    0    0  502  501  0.00000000000E+00  0.00000000000E+00  0.79857381907E+03  0.79857381907E+03  0.00000000000E+00 0. -1.
         21   -1    0    0  505  502 -0.00000000000E+00 -0.00000000000E+00 -0.37480748740E+02  0.37480748740E+02  0.00000000000E+00 0.  1.
         21    1    1    2  503  504  0.14693013497E+02  0.48422446908E+02  0.20644943308E+03  0.21256054767E+03  0.00000000000E+00 0.  1.
         21    1    1    2  504  501 -0.10486855141E+02  0.31918809305E+02  0.26788059540E+03  0.26997925459E+03  0.00000000000E+00 0. -1.
         21    1    1    2  505  506 -0.19608214966E+02  0.55151112714E+02  0.37876242793E+02  0.69718986624E+02  0.00000000000E+00 0. -1.
         21    1    1    2  506  503  0.15402056609E+02 -0.13549236893E+03  0.24888679906E+03  0.28379577891E+03  0.00000000000E+00 0.  1.
<scales pt_clust_3="30.30546" pt_clust_4="30.30546" pt_clust_5="58.53313" pt_clust_6="90.84321"></scales>
<clustering>
<clus scale="   30.305">  3  4 -1 -1</clus>
<clus scale="   58.533">  2  5  1 -1</clus>
<clus scale="   90.843">  2  6  1 -1</clus>
<clus scale="   98.162">  1  3  2 -1</clus>
</clustering>
</event>
<event>
 6    0  0.4227619E+002  0.1260985E+03  0.7546771E-02  0.1233363E+00
         21   -1    0    0  505  501  0.00000000000E+00  0.00000000000E+00  0.27737644680E+03  0.27737644680E+03  0.00000000000E+00 0. -1.
         21   -1    0    0  504  502 -0.00000000000E+00 -0.00000000000E+00 -0.42426001071E+03  0.42426001071E+03  0.00000000000E+00 0.  1.
         21    1    1    2  503  501 -0.26251434401E+02  0.42407707690E+02  0.20501346848E+02  0.53924546379E+02  0.00000000000E+00 0. -1.
         21    1    1    2  504  503 -0.40774265547E+02  0.37374545803E+01  0.14923938318E+02  0.43580193122E+02  0.00000000000E+00 0. -1.
         21    1    1    2  505  506  0.20697632321E+02  0.72668795844E+02  0.19325816881E+03  0.20750389318E+03  0.00000000000E+00 0. -1.
         21    1    1    2  506  502  0.46328067627E+02 -0.11881395811E+03 -0.37556701789E+03  0.39662782482E+03  0.00000000000E+00 0.  1.
<scales pt_clust_3="36.58524" pt_clust_4="36.58524" pt_clust_5="75.55889" pt_clust_6="119.45886"></scales>
<clustering>
<clus scale="   36.585">  3  4 -1 -1</clus>
<clus scale="   75.559">  1  5  2 -1</clus>
<clus scale="  119.459">  2  6  1 -1</clus>
<clus scale="   75.559">  1  3  2 -1</clus>
</clustering>
</event>
<event>
 6    0  0.4227619E+002  0.7593409E+02  0.7546771E-02  0.1341003E+00
         21   -1    0    0  504  501  0.00000000000E+00  0.00000000000E+00  0.65694472097E+03  0.65694472097E+03  0.00000000000E+00 0.  1.
         21   -1    0    0  505  502 -0.00000000000E+00 -0.00000000000E+00 -0.21329835044E+03  0.21329835044E+03  0.00000000000E+00 0. -1.
         21    1    1    2  503  502  0.18774935209E+02 -0.90835620661E+02 -0.11997619996E+03  0.15165057445E+03  0.00000000000E+00 0. -1.
         21    1    1    2  504  503  0.35958126585E+02  0.50023390714E+02  0.45947069739E+03  0.46358240718E+03  0.00000000000E+00 0.  1.
         21    1    1    2  505  506  0.19875264587E+02  0.23924044718E+02 -0.63512693239E+02  0.70719504102E+02  0.00000000000E+00 0. -1.
         21    1    1    2  506  501 -0.74608326381E+02  0.16888185229E+02  0.16766456634E+03  0.18429058568E+03  0.00000000000E+00 0.  1.
<scales pt_clust_3="75.93409" pt_clust_4="62.04258" pt_clust_5="31.10283" pt_clust_6="14000.00000"></scales>
<clustering>
<clus scale="   31.103">  2  5  1 -1</clus>
<clus scale="   62.043">  1  4  2 -1</clus>
<clus scale="   75.934">  2  3  1 -1</clus>
<clus scale="   62.043">  1  3  2 -1</clus>
</clustering>
</event>
<event>
 6    0  0.4227619E+002  0.9447072E+02  0.7546771E-02  0.1292373E+00
         21   -1    0    0  503  501  0.00000000000E+00  0.00000000000E+00  0.10350464624E+04  0.10350464624E+04  0.00000000000E+00 0. -1.
         21   -1    0    0  504  502 -0.00000000000E+00 -0.00000000000E+00 -0.12647322926E+03  0.12647322926E+03  0.00000000000E+00 0. -1.
         21    1    1    2  503  502 -0.15008299689E+02 -0.79247682964E+02  0.81703151617E+03  0.82100301018E+03  0.00000000000E+00 0. -1.
         21    1    1    2  504  505 -0.79378772035E+02  0.80948386303E+02 -0.69020985478E+02  0.13273103304E+03  0.00000000000E+00 0. -1.
         21    1    1    2  505  506  0.54062656629E+02 -0.33404645233E+02  0.35916768266E+02  0.72997639740E+02  0.00000000000E+00 0. -1.
         21    1    1    2  506  501  0.40324415095E+02  0.31703941894E+02  0.12464593421E+03  0.13478800874E+03  0.00000000000E+00 0. -1.
<scales pt_clust_3="54.93620" pt_clust_4="14000.00000" pt_clust_5="94.47072" pt_clust_6="51.29521"></scales>
<clustering>
<clus scale="   51.295">  1  6  2 -1</clus>
<clus scale="   54.936">  1  3  2 -1</clus>
<clus scale="   94.471">  1  5  2 -1</clus>
<clus scale="   51.295">  1  3  2 -1</clus>
</clustering>
</event>
<event>
 6    0  0.4227619E+002  0.7419996E+02  0.7546771E-02  0.1346367E+00
         21   -1    0    0  505  501  0.00000000000E+00  0.00000000000E+00  0.42519761360E+03  0.42519761360E+03  0.00000000000E+00 0.  1.
         21   -1    0    0  504  502 -0.00000000000E+00 -0.00000000000E+00 -0.40206645869E+03  0.40206645869E+03  0.00000000000E+00 0. -1.
         21    1    1    2  503  501 -0.45508422858E+02  0.22858332891E+02  0.37493035048E+03  0.37837321212E+03  0.00000000000E+00 0.  1.
         21    1    1    2  504  503  0.52391818706E+02 -0.20837495159E+02 -0.22973695790E+03  0.23655480062E+03  0.00000000000E+00 0. -1.
         21    1    1    2  505  506  0.35627583097E+02  0.61478155186E+02 -0.33232734591E+01  0.71133201733E+02  0.00000000000E+00 0. -1.
         21    1    1    2  506  502 -0.42510978945E+02 -0.63498992917E+02 -0.11873896422E+03  0.14120285782E+03  0.00000000000E+00 0. -1.
<scales pt_clust_3="50.92661" pt_clust_4="52.82186" pt_clust_5="74.19996" pt_clust_6="14000.00000"></scales>
<clustering>
<clus scale="   50.927">  1  3  2 -1</clus>
<clus scale="   52.822">  2  4  1 -1</clus>
<clus scale="   74.200">  1  5  2 -1</clus>
<clus scale="   50.927">  1  3  2 -1</clus>
</clustering>
</event>
<event>
 6    0  0.4227619E+002  0.1039531E+03  0.7546771E-02  0.1272196E+00
         21   -1    0    0  503  501  0.00000000000E+00  0.00000000000E+00  0.38515863876E+03  0.38515863876E+03  0.00000000000E+00 0. -1.
         21   -1    0    0  506  502 -0.00000000000E+00 -0.00000000000E+00 -0.18368576497E+03  0.18368576497E+03  0.00000000000E+00 0.  1.
         21    1    1    2  503  504  0.13281948833E+03 -0.39366112979E+02  0.15390654983E+03  0.20706987568E+03  0.00000000000E+00 0. -1.
         21    1    1    2  504  502 -0.87550878424E+02 -0.30108268079E+02 -0.11140008091E+03  0.14485041300E+03  0.00000000000E+00 0.  1.
         21    1    1    2  505  501 -0.31318256268E+02  0.34969436088E+02  0.17137781257E+03  0.17769088124E+03  0.00000000000E+00 0. -1.
         21    1    1    2  506  505 -0.13950353635E+02  0.34504944970E+02 -0.12411407710E+02  0.39233233811E+02  0.00000000000E+00 0. -1.
<scales pt_clust_3="14000.00000" pt_clust_4="103.95306" pt_clust_5="47.64424" pt_clust_6="37.21832"></scales>
<clustering>
<clus scale="   37.218">  2  6  1 -1</clus>
<clus scale="   47.644">  1  5  2 -1</clus>
<clus scale="  103.953">  2  4  1 -1</clus>
<clus scale="   47.644">  1  3  2 -1</clus>
</clustering>
</event>
<event>
 6    0  0.4227619E+002  0.1872975E+03  0.7546771E-02  0.1160922E+00
         21   -1    0    0  506  501  0.00000000000E+00  0.00000000000E+00  0.11401891406E+04  0.11401891406E+04  0.00000000000E+00 0.  1.
         21   -1    0    0  503  502 -0.00000000000E+00 -0.00000000000E+00 -0.27625050650E+03  0.27625050650E+03  0.00000000000E+00 0. -1.
         21    1    1    2  503  504  0.19606843463E+03 -0.17124068052E+02 -0.19186085588E+03  0.27485751360E+03  0.00000000000E+00 0. -1.
         21    1    1    2  504  505 -0.10793405504E+03 -0.64504476752E+02  0.35506828408E+03  0.37667502454E+03  0.00000000000E+00 0.  1.
         21    1    1    2  505  501 -0.54025872544E+02  0.10197019483E+03  0.74366575579E+02  0.13728475189E+03  0.00000000000E+00 0.  1.
         21    1    1    2  506  502 -0.34108507045E+02 -0.20341650024E+02  0.62636463030E+03  0.62762235705E+03  0.00000000000E+00 0.  1.
<scales pt_clust_3="187.29753" pt_clust_4="14000.00000" pt_clust_5="115.27491" pt_clust_6="39.71364"></scales>
<clustering>
<clus scale="   39.714">  1  6  2 -1</clus>
<clus scale="  115.275">  1  5  2 -1</clus>
<clus scale="  187.298">  2  3  1 -1</clus>
<clus scale="   39.714">  1  3  2 -1</clus>
</clustering>
</event>
<event>
 6    0  0.4227619E+002  0.9754536E+02  0.7546771E-02  0.1285544E+00
         21   -1    0    0  502  501  0.00000000000E+00  0.00000000000E+00  0.27800239879E+03  0.27800239879E+03  0.00000000000E+00 0. -1.
         21   -1    0    0  504  502 -0.00000000000E+00 -0.00000000000E+00 -0.53959907758E+03  0.53959907758E+03  0.00000000000E+00 0.  1.
         21    1    1    2  503  501 -0.55242657308E+01  0.30238421019E+02  0.17964100613E+03  0.18225194293E+03  0.00000000000E+00 0.  1.
         21    1    1    2  504  506 -0.24707750554E+02 -0.26028543434E+02 -0.14699194362E+03  0.15130958165E+03  0.00000000000E+00 0.  1.
         21    1    1    2  505  503 -0.73117323226E+02  0.30729521987E+02  0.68776485629E+02  0.10497929059E+03  0.00000000000E+00 0. -1.
         21    1    1    2  506  505  0.10334933951E+03 -0.34939399572E+02 -0.36302222693E+03  0.37906066120E+03  0.00000000000E+00 0.  1.
<scales pt_clust_3="30.73889" pt_clust_4="35.48921" pt_clust_5="14000.00000" pt_clust_6="97.54536"></scales>
<clustering>
<clus scale="   30.739">  1  3  2 -1</clus>
<clus scale="   35.489">  2  4  1 -1</clus>
<clus scale="   97.545">  2  6  1 -1</clus>
<clus scale="   30.739">  1  3  2 -1</clus>
</clustering>
</event>
<event>
 6    0  0.4227619E+002  0.9032257E+02  0.7546771E-02  0.1302072E+00
         21   -1    0    0  503  501  0.00000000000E+00  0.00000000000E+00  0.12127928976E+04  0.12127928976E+04  0.00000000000E+00 0. -1.
         21   -1    0    0  505  502 -0.00000000000E+00 -0.00000000000E+00 -0.66359904430E+02  0.66359904430E+02  0.00000000000E+00 0.  1.
         21    1    1    2  503  502  0.36099974103E+02 -0.20774205853E+02  0.65055199510E+03  0.65188394219E+03  0.00000000000E+00 0. -1.
         21    1    1    2  504  501 -0.89317481785E+02 -0.34184651366E+02  0.34814927235E+03  0.36104586798E+03  0.00000000000E+00 0.  1.
         21    1    1    2  505  506 -0.21801923787E+02 -0.66641800631E+02  0.16080015525E+02  0.71937614441E+02  0.00000000000E+00 0.  1.
         21    1    1    2  506  504  0.75019431469E+02  0.12160065785E+03  0.13165171022E+03  0.19428537745E+03  0.00000000000E+00 0.  1.
<scales pt_clust_3="41.65064" pt_clust_4="90.32257" pt_clust_5="70.85716" pt_clust_6="14000.00000"></scales>
<clustering>
<clus scale="   41.651">  1  3  2 -1</clus>
<clus scale="   70.857">  2  5  1 -1</clus>
<clus scale="   90.323">  1  4  2 -1</clus>
<clus scale="   41.651">  1  3  2 -1</clus>
</clustering>
</event>
<event>
 6    0  0.4227619E+002  0.1005876E+03  0.7546771E-02  0.1279065E+00
         21   -1    0    0  505  501  0.00000000000E+00  0.00000000000E+00  0.19894251955E+03  0.19894251955E+03  0.00000000000E+00 0. -1.
         21   -1    0    0  503  502 -0.00000000000E+00 -0.00000000000E+00 -0.38903291327E+03  0.38903291327E+03  0.00000000000E+00 0. -1.
         21    1    1    2  503  506 -0.10349236347E+03  0.20600017290E+02 -0.33603592205E+03  0.35221466596E+03  0.00000000000E+00 0. -1.
         21    1    1    2  504  502  0.70984198731E+02  0.11804974429E+02  0.29814996556E+02  0.77891256957E+02  0.00000000000E+00 0. -1.
         21    1    1    2  505  504  0.63472289682E+02 -0.39562931931E+02  0.87329250556E+02  0.11497980320E+03  0.00000000000E+00 0. -1.
         21    1    1    2  506  501 -0.30964124940E+02  0.71579402110E+01  0.28801281221E+02  0.42889706706E+02  0.00000000000E+00 0.  1.
<scales pt_clust_3="100.58765" pt_clust_4="14000.00000" pt_clust_5="56.50944" pt_clust_6="31.78070"></scales>
<clustering>
<clus scale="   31.781">  1  6  2 -1</clus>
<clus scale="   56.509">  1  5  2 -1</clus>
<clus scale="  100.588">  2  3  1 -1</clus>
<clus scale="   31.781">  1  3  2 -1</clus>
</clustering>
</event>
<event>
 6    0  0.4227619E+002  0.9251256E+02  0.7546771E-02  0.1296879E+00
         21   -1    0    0  505  501  0.00000000000E+00  0.00000000000E+00  0.61177694008E+03  0.61177694008E+03  0.00000000000E+00 0.  1.
         21   -1    0    0  503  502 -0.00000000000E+00 -0.00000000000E+00 -0.79611711480E+02  0.79611711480E+02  0.00000000000E+00 0.  1.
         21    1    1    2  503  506 -0.20003467457E+02  0.32895402781E+02 -0.30974048829E+02  0.49412932875E+02  0.00000000000E+00 0.  1.
         21    1    1    2  504  501 -0.81784471907E+02  0.70133555836E+02  0.13128120903E+03  0.16982983055E+03  0.00000000000E+00 0.  1.
         21    1    1    2  505  502  0.27326271755E+02 -0.45609261992E+02  0.32703492661E+03  0.33132879913E+03  0.00000000000E+00 0.  1.
         21    1    1    2  506  504  0.74461667609E+02 -0.57419696625E+02  0.10482314179E+03  0.14081708901E+03  0.00000000000E+00 0.  1.
<scales pt_clust_3="38.49995" pt_clust_4="92.51256" pt_clust_5="51.07201" pt_clust_6="14000.00000"></scales>
<clustering>
<clus scale="   38.500">  2  3  1 -1</clus>
<clus scale="   51.072">  1  5  2 -1</clus>
<clus scale="   92.513">  1  4  2 -1</clus>
<clus scale="   51.072">  1  3  2 -1</clus>
</clustering>
</event>
<event>
 6    0  0.4227619E+002  0.7976792E+02  0.7546771E-02  0.1329711E+00
         21   -1    0    0  504  501  0.00000000000E+00  0.00000000000E+00  0.69731049478E+03  0.69731049478E+03  0.00000000000E+00 0.  1.
         21   -1    0    0  505  502 -0.00000000000E+00 -0.00000000000E+00 -0.82413506976E+02  0.82413506976E+02  0.00000000000E+00 0.  1.
         21    1    1    2  503  502 -0.99245565686E+01 -0.63619774733E+02 -0.14751634055E+02  0.66057424014E+02  0.00000000000E+00 0.  1.
         21    1    1    2  504  506  0.73149608898E+02  0.32163661348E+02  0.12304031217E+03  0.14671157013E+03  0.00000000000E+00 0.  1.
         21    1    1    2  505  501 -0.58945370033E+01  0.55433559330E+02  0.50151530429E+03  0.50460402842E+03  0.00000000000E+00 0.  1.
         21    1    1    2  506  503 -0.57330515326E+02 -0.23977445945E+02  0.50930054092E+01  0.62350979188E+02  0.00000000000E+00 0.  1.
<scales pt_clust_3="57.30752" pt_clust_4="79.76792" pt_clust_5="55.74608" pt_clust_6="14000.00000"></scales>
<clustering>
<clus scale="   55.746">  1  5  2 -1</clus>
<clus scale="   57.308">  2  3  1 -1</clus>
<clus scale="   79.768">  1  4  2 -1</clus>
<clus scale="   55.746">  1  3  2 -1</clus>
</clustering>
</event>
<event>
 6    0  0.4227619E+002  0.1074773E+03  0.7546771E-02  0.1265314E+00
         21   -1    0    0  504  501  0.00000000000E+00  0.00000000000E+00  0.36203911408E+03  0.36203911408E+03  0.00000000000E+00 0. -1.
         21   -1    0    0  506  502 -0.00000000000E+00 -0.00000000000E+00 -0.77895178273E+03  0.77895178273E+03  0.00000000000E+00 0. -1.
         21    1    1    2  503  502 -0.29613622021E+01 -0.71431318312E+02 -0.67111040546E+02  0.98056589096E+02  0.00000000000E+00 0. -1.
         21    1    1    2  504  503  0.41834628240E+02  0.99102477803E+02  0.32579058178E+03  0.34309028025E+03  0.00000000000E+00 0. -1.
         21    1    1    2  505  501 -0.33179786205E+02 -0.98984095794E+02 -0.30394914487E+03  0.32137802056E+03  0.00000000000E+00 0. -1.
         21    1    1    2  506  505 -0.56934798329E+01  0.71312936304E+02 -0.37164306502E+03  0.37846600689E+03  0.00000000000E+00 0. -1.
<scales pt_clust_3="71.49268" pt_clust_4="14000.00000" pt_clust_5="107.47728" pt_clust_6="33.64002"></scales>
<clustering>
<clus scale="   71.493">  2  3  1 -1</clus>
<clus scale="   33.640">  2  6  1 -1</clus>
<clus scale="  107.477">  2  5  1 -1</clus>
<clus scale="  107.477">  1  3  2 -1</clus>
</clustering>
</event>
<event>
 6    0  0.4227619E+002  0.9544369E+02  0.7546771E-02  0.1290180E+00
         21   -1    0    0  503  501  0.00000000000E+00  0.00000000000E+00  0.45861123216E+03  0.45861123216E+03  0.00000000000E+00 0. -1.
         21   -1    0    0  505  502 -0.00000000000E+00 -0.00000000000E+00 -0.10554422526E+03  0.10554422526E+03  0.00000000000E+00 0.  1.
         21    1    1    2  503  506 -0.25380682478E+02 -0.87491024005E+02  0.29113200477E+03  0.30505196693E+03  0.00000000000E+00 0. -1.
         21    1    1    2  504  501  0.33952065669E+02  0.11115500265E+03  0.68240568554E+02  0.13477741863E+03  0.00000000000E+00 0.  1.
         21    1    1    2  505  504  0.22732375917E+02  0.27449831081E+02 -0.41591235857E+02  0.54773032062E+02  0.00000000000E+00 0.  1.
         21    1    1    2  506  502 -0.31303759107E+02 -0.51113809721E+02  0.35285669428E+02  0.69553039800E+02  0.00000000000E+00 0. -1.
<scales pt_clust_3="14000.00000" pt_clust_4="95.44369" pt_clust_5="35.64062" pt_clust_6="49.42264"></scales>
<clustering>
<clus scale="   35.641">  2  5  1 -1</clus>
<clus scale="   49.423">  2  6  1 -1</clus>
<clus scale="   95.444">  2  4  1 -1</clus>
<clus scale="   95.444">  1  3  2 -1</clus>
</clustering>
</event>
<event>
 6    0  0.4227619E+002  0.9894719E+02  0.7546771E-02  0.1282526E+00
         21   -1    0    0  503  501  0.00000000000E+00  0.00000000000E+00  0.19352674596E+03  0.19352674596E+03  0.00000000000E+00 0. -1.
         21   -1    0    0  504  502 -0.00000000000E+00 -0.00000000000E+00 -0.16079416321E+04  0.16079416321E+04  0.00000000000E+00 0. -1.
         21    1    1    2  503  502  0.93199572775E+01 -0.76317309868E+02 -0.16426799712E+03  0.18137025188E+03  0.00000000000E+00 0. -1.
         21    1    1    2  504  505 -0.25696275531E+02  0.18949642374E+02 -0.98781841131E+03  0.98833425583E+03  0.00000000000E+00 0. -1.
         21    1    1    2  505  506  0.10796453497E+03  0.91775905151E+02 -0.42163670827E+03  0.44481082646E+03  0.00000000000E+00 0. -1.
         21    1    1    2  506  501 -0.91588216716E+02 -0.34408237657E+02  0.15930823062E+03  0.18695304384E+03  0.00000000000E+00 0. -1.
<scales pt_clust_3="71.06683" pt_clust_4="31.92785" pt_clust_5="14000.00000" pt_clust_6="98.94719"></scales>
<clustering>
<clus scale="   31.928">  2  4  1 -1</clus>
<clus scale="   71.067">  2  3  1 -1</clus>
<clus scale="   98.947">  1  6  2 -1</clus>
<clus scale="   98.947">  1  3  2 -1</clus>
</clustering>
</event>
<event>
 6    0  0.4227619E+002  0.9323848E+02  0.7546771E-02  0.1295193E+00
         21   -1    0    0  505  501  0.00000000000E+00  0.00000000000E+00  0.60582598238E+03  0.60582598238E+03  0.00000000000E+00 0. -1.
         21   -1    0    0  503  502 -0.00000000000E+00 -0.00000000000E+00 -0.12866863503E+03  0.12866863503E+03  0.00000000000E+00 0. -1.
         21    1    1    2  503  506  0.12857696379E+02 -0.58497122775E+02  0.19156420640E+02  0.62882447319E+02  0.00000000000E+00 0. -1.
         21    1    1    2  504  502 -0.10883110401E+03  0.72578561825E+02 -0.57460185352E+02  0.14287592427E+03  0.00000000000E+00 0. -1.
         21    1    1    2  505  504  0.56493622524E+02 -0.21635146299E+02  0.43069301621E+03  0.43492077802E+03  0.00000000000E+00 0. -1.
         21    1    1    2  506  501  0.39479785106E+02  0.75537072481E+01  0.84768095846E+02  0.93815467800E+02  0.00000000000E+00 0.  1.
<scales pt_clust_3="60.06551" pt_clust_4="14000.00000" pt_clust_5="93.23848" pt_clust_6="40.19592"></scales>
<clustering>
<clus scale="   40.196">  1  6  2 -1</clus>
<clus scale="   60.066">  2  3  1 -1</clus>
<clus scale="   93.238">  1  5  2 -1</clus>
<clus scale="   40.196">  1  3  2 -1</clus>
</clustering>
</event>
<event>
 6    0  0.4227619E+002  0.9033867E+02  0.7546771E-02  0.1302034E+00
         21   -1    0    0  503  501  0.00000000000E+00  0.00000000000E+00  0.97206531576E+03  0.97206531576E+03  0.00000000000E+00 0. -1.
         21   -1    0    0  506  502 -0.00000000000E+00 -0.00000000000E+00 -0.23954087236E+02  0.23954087236E+02  0.00000000000E+00 0. -1.
         21    1    1    2  503  504  0.22159308728E+02  0.41241955804E+02  0.12932352878E+03  0.13753730032E+03  0.00000000000E+00 0. -1.
         21    1    1    2  504  502  0.86906959527E+02 -0.63427471221E+02  0.21973397080E+03  0.24466074807E+03  0.00000000000E+00 0. -1.
         21    1    1    2  505  501 -0.31598994375E+02  0.10411959417E+02  0.37477281472E+03  0.37624668503E+03  0.00000000000E+00 0. -1.
         21    1    1    2  506  505 -0.77467273879E+02  0.11773556001E+02  0.22428091422E+03  0.23757466958E+03  0.00000000000E+00 0. -1.
<scales pt_clust_3="46.11041" pt_clust_4="90.33867" pt_clust_5="33.27019" pt_clust_6="14000.00000"></scales>
<clustering>
<clus scale="   33.270">  1  5  2 -1</clus>
<clus scale="   46.110">  1  3  2 -1</clus>
<clus scale="   90.339">  1  4  2 -1</clus>
<clus scale="   33.270">  1  3  2 -1</clus>
</clustering>
</event>
<event>
 6    0  0.4227619E+002  0.1090369E+03  0.7546771E-02  0.1262364E+00
         21   -1    0    0  504  501  0.00000000000E+00  0.00000000000E+00  0.17903658533E+04  0.17903658533E+04  0.00000000000E+00 0. -1.
         21   -1    0    0  506  502 -0.00000000000E+00 -0.00000000000E+00 -0.23199837177E+03  0.23199837177E+03  0.00000000000E+00 0.  1.
         21    1    1    2  503  502 -0.60390685502E+02  0.36845502327E+02  0.50115188650E+02  0.86695778851E+02  0.00000000000E+00 0. -1.
         21    1    1    2  504  503  0.41976486037E+02  0.50119194144E+02  0.15679723623E+04  0.15693346641E+04  0.00000000000E+00 0. -1.
         21    1    1    2  505  501  0.78784794322E+02  0.11922798914E+02  0.12502898952E+03  0.14826140823E+03  0.00000000000E+00 0.  1.
         21    1    1    2  506  505 -0.60370594857E+02 -0.98887495385E+02 -0.18474905896E+03  0.21807237388E+03  0.00000000000E+00 0.  1.
<scales pt_clust_3="70.61682" pt_clust_4="65.37552" pt_clust_5="109.03694" pt_clust_6="14000.00000"></scales>
<clustering>
<clus scale="   65.376">  1  4  2 -1</clus>
<clus scale="   70.617">  1  3  2 -1</clus>
<clus scale="  109.037">  1  5  2 -1</clus>
<clus scale="   65.376">  1  3  2 -1</clus>
</clustering>
</event>
<event>
 6    0  0.4227619E+002  0.1156654E+03  0.7546771E-02  0.1250424E+00
         21   -1    0    0  503  501  0.00000000000E+00  0.00000000000E+00  0.45733355939E+03  0.45733355939E+03  0.00000000000E+00 0.  1.
         21   -1    0    0  504  502 -0.00000000000E+00 -0.00000000000E+00 -0.18007271810E+04  0.18007271810E+04  0.00000000000E+00 0.  1.
         21    1    1    2  503  505  0.10762321839E+03 -0.46132929056E+02  0.42743495677E+03  0.44318353596E+03  0.00000000000E+00 0.  1.
         21    1    1    2  504  501 -0.45732986199E+02  0.10053984613E+03 -0.16529035837E+03  0.19879806150E+03  0.00000000000E+00 0.  1.
         21    1    1    2  505  506 -0.11546539847E+03 -0.55031317442E+02 -0.12498734084E+04  0.12564013058E+04  0.00000000000E+00 0.  1.
         21    1    1    2  506  502  0.53575166282E+02  0.62440037228E+00 -0.35566481158E+03  0.35967783712E+03  0.00000000000E+00 0.  1.
<scales pt_clust_3="14000.00000" pt_clust_4="115.66536" pt_clust_5="87.87461" pt_clust_6="53.57880"></scales>
<clustering>
<clus scale="   53.579">  2  6  1 -1</clus>
<clus scale="   87.875">  2  5  1 -1</clus>
<clus scale="  115.665">  2  4  1 -1</clus>
<clus scale="  115.665">  1  3  2 -1</clus>
</clustering>
</event>
<event>
 6    0  0.1014594E+003  0.1632760E+03  0.7546771E-02  0.1185047E+00
         21   -1    0    0  506  501  0.00000000000E+00  0.00000000000E+00  0.32715813115E+03  0.32715813115E+03  0.00000000000E+00 0.  1.
         21   -1    0    0  505  502 -0.00000000000E+00 -0.00000000000E+00 -0.25284394416E+04  0.25284394416E+04  0.00000000000E+00 0.  1.
         21    1    1    2  503  502 -0.54700350914E+02 -0.83745214468E+01 -0.93964348625E+02  0.10904842875E+03  0.00000000000E+00 0.  1.
         21    1    1    2  504  503  0.38383514873E+02  0.33648772733E+02  0.13913451406E+03  0.14820238569E+03  0.00000000000E+00 0.  1.
         21    1    1    2  505  501 -0.91129709734E+02 -0.24632355195E+02 -0.24049820654E+04  0.24068340433E+04  0.00000000000E+00 0.  1.
         21    1    1    2  506  504  0.10744654577E+03 -0.64189609144E+00  0.15853058950E+03  0.19151271508E+03  0.00000000000E+00 0.  1.
<scales pt_clust_3="55.33770" pt_clust_4="45.95763" pt_clust_5="149.04056" pt_clust_6="45.95763"></scales>
<clustering>
<clus scale="   45.958">  4  6 -1 -1</clus>
<clus scale="   55.338">  2  3  1 -1</clus>
<clus scale="  149.041">  2  5  1 -1</clus>
<clus scale="  163.276">  1  3  2 -1</clus>
</clustering>
</event>
<event>
 6    0  0.4227619E+002  0.7105137E+02  0.7546771E-02  0.1356554E+00
         21   -1    0    0  503  501  0.00000000000E+00  0.00000000000E+00  0.24897867408E+03  0.24897867408E+03  0.00000000000E+00 0.  1.
         21   -1    0    0  506  502 -0.00000000000E+00 -0.00000000000E+00 -0.64874276388E+03  0.64874276388E+03  0.00000000000E+00 0.  1.
         21    1    1    2  503  505  0.79517928718E+02  0.63663605236E+01  0.89469707928E+02  0.11986851201E+03  0.00000000000E+00 0.  1.
         21    1    1    2  504  502 -0.47267114626E+02 -0.55498839749E+02 -0.48999874269E+03  0.49539183399E+03  0.00000000000E+00 0.  1.
         21    1    1    2  505  504 -0.95547406081E+01  0.83750845415E+02 -0.12460214009E+03  0.15043666604E+03  0.00000000000E+00 0.  1.
         21    1    1    2  506  501 -0.22696073484E+02 -0.34618366190E+02  0.12536708504E+03  0.13202442593E+03  0.00000000000E+00 0.  1.
<scales pt_clust_3="64.31694" pt_clust_4="71.05137" pt_clust_5="14000.00000" pt_clust_6="41.39496"></scales>
<clustering>
<clus scale="   41.395">  1  6  2 -1</clus>
<clus scale="   64.317">  1  3  2 -1</clus>
<clus scale="   71.051">  2  4  1 -1</clus>
<clus scale="   41.395">  1  3  2 -1</clus>
</clustering>
</event>
<event>
 6    0  0.4227619E+002  0.9652641E+02  0.7546771E-02  0.1287775E+00
         21   -1    0    0  506  501  0.00000000000E+00  0.00000000000E+00  0.25778538796E+03  0.25778538796E+03  0.00000000000E+00 0. -1.
         21   -1    0    0  503  502 -0.00000000000E+00 -0.00000000000E+00 -0.22772122085E+03  0.22772122085E+03  0.00000000000E+00 0.  1.
         21    1    1    2  503  501  0.10927119215E+03  0.12058874239E+03  0.13468966288E+03  0.21124190756E+03  0.00000000000E+00 0. -1.
         21    1    1    2  504  505 -0.73418918911E+02  0.12163450065E+01  0.12051223389E+02  0.74411350844E+02  0.00000000000E+00 0. -1.
         21    1    1    2  505  502 -0.12420464929E+02 -0.68170069399E+02 -0.12280301792E+03  0.14100357273E+03  0.00000000000E+00 0.  1.
         21    1    1    2  506  504 -0.23431808312E+02 -0.53635017993E+02  0.61262987684E+01  0.58849777676E+02  0.00000000000E+00 0. -1.
<scales pt_clust_3="14000.00000" pt_clust_4="96.52641" pt_clust_5="71.59539" pt_clust_6="58.53003"></scales>
<clustering>
<clus scale="   58.530">  1  6  2 -1</clus>
<clus scale="   71.595">  2  5  1 -1</clus>
<clus scale="   96.526">  2  4  1 -1</clus>
<clus scale="   58.530">  1  3  2 -1</clus>
</clustering>
</event>
<event>
 6    0  0.4227619E+002  0.6851121E+02  0.7546771E-02  0.1365230E+00
         21   -1    0    0  506  501  0.00000000000E+00  0.00000000000E+00  0.20415168937E+03  0.20415168937E+03  0.00000000000E+00 0. -1.
         21   -1    0    0  504  502 -0.00000000000E+00 -0.00000000000E+00 -0.24032745693E+03  0.24032745693E+03  0.00000000000E+00 0.  1.
         21    1    1    2  503  505 -0.16957472116E+02  0.76783097664E+02  0.58356930005E+01  0.78849573621E+02  0.00000000000E+00 0. -1.
         21    1    1    2  504  503  0.26965059509E+02 -0.61522150204E+02 -0.16955717259E+03  0.18237797065E+03  0.00000000000E+00 0.  1.
         21    1    1    2  505  501 -0.65570296925E+02  0.89933094945E+01  0.41944381666E+02  0.78356075756E+02  0.00000000000E+00 0.  1.
         21    1    1    2  506  502  0.55562709532E+02 -0.24254256954E+02  0.85601330374E+02  0.10489552628E+03  0.00000000000E+00 0. -1.
<scales pt_clust_3="68.51121" pt_clust_4="14000.00000" pt_clust_5="35.15829" pt_clust_6="60.62577"></scales>
<clustering>
<clus scale="   60.626">  1  6  2 -1</clus>
<clus scale="   35.158">  1  5  2 -1</clus>
<clus scale="   68.511">  1  3  2 -1</clus>
<clus scale="   60.626">  1  3  2 -1</clus>
</clustering>
</event>
<event>
 6    0  0.4227619E+002  0.9779145E+02  0.7546771E-02  0.1285010E+00
         21   -1    0    0  504  501  0.00000000000E+00  0.00000000000E+00  0.31660411390E+02  0.31660411390E+02  0.00000000000E+00 0. -1.
         21   -1    0    0  505  502 -0.00000000000E+00 -0.00000000000E+00 -0.29441268788E+04  0.29441268788E+04  0.00000000000E+00 0. -1.
         21    1    1    2  503  506  0.93478716838E+02 -0.18214264468E+02 -0.11385104191E+04  0.11424867633E+04  0.00000000000E+00 0. -1.
         21    1    1    2  504  502  0.37327818585E+02  0.26159411702E+02 -0.23230563022E+02  0.51159944480E+02  0.00000000000E+00 0. -1.
         21    1    1    2  505  503 -0.14153588457E+02 -0.36933375996E+02 -0.15324237004E+04  0.15329340482E+04  0.00000000000E+00 0. -1.
         21    1    1    2  506  501 -0.11665294697E+03  0.28988228762E+02 -0.21830178483E+03  0.24920653423E+03  0.00000000000E+00 0. -1.
<scales pt_clust_3="97.79145" pt_clust_4="44.72137" pt_clust_5="39.55248" pt_clust_6="14000.00000"></scales>
<clustering>
<clus scale="   39.552">  2  5  1 -1</clus>
<clus scale="   44.721">  1  4  2 -1</clus>
<clus scale="   97.791">  2  3  1 -1</clus>
<clus scale="   44.721">  1  3  2 -1</clus>
</clustering>
</event>
<event>
 6    0  0.4227619E+002  0.1160154E+03  0.7546771E-02  0.1249819E+00
         21   -1    0    0  503  501  0.00000000000E+00  0.00000000000E+00  0.49256831632E+03  0.49256831632E+03  0.00000000000E+00 0. -1.
         21   -1    0    0  506  502 -0.00000000000E+00 -0.00000000000E+00 -0.16633192539E+03  0.16633192539E+03  0.00000000000E+00 0. -1.
         21    1    1    2  503  502 -0.98251954630E+02  0.15288093944E+02 -0.11145984713E+03  0.14936689703E+03  0.00000000000E+00 0. -1.
         21    1    1    2  504  501  0.11240048027E+03  0.34562003910E+02  0.43086965759E+03  0.44662855026E+03  0.00000000000E+00 0. -1.
         21    1    1    2  505  504  0.90542018539E+01 -0.30430254801E+02  0.75692095829E+01  0.32638503522E+02  0.00000000000E+00 0.  1.
         21    1    1    2  506  505 -0.23202727490E+02 -0.19419843053E+02 -0.74262910511E+00  0.30266290906E+02  0.00000000000E+00 0.  1.
<scales pt_clust_3="14000.00000" pt_clust_4="116.01537" pt_clust_5="32.82692" pt_clust_6="30.25718"></scales>
<clustering>
<clus scale="   30.257">  2  6  1 -1</clus>
<clus scale="   32.827">  2  5  1 -1</clus>
<clus scale="  116.015">  1  4  2 -1</clus>
<clus scale="  116.015">  1  3  2 -1</clus>
</clustering>
</event>
<event>
 6    0  0.4227619E+002  0.6749383E+02  0.7546771E-02  0.1368829E+00
         21   -1    0    0  503  501  0.00000000000E+00  0.00000000000E+00  0.26095046473E+03  0.26095046473E+03  0.00000000000E+00 0. -1.
         21   -1    0    0  504  502 -0.00000000000E+00 -0.00000000000E+00 -0.55559672648E+03  0.55559672648E+03  0.00000000000E+00 0.  1.
         21    1    1    2  503  505 -0.25228555007E+02  0.84056590275E+02  0.17271891806E+03  0.19373645762E+03  0.00000000000E+00 0. -1.
         21    1    1    2  504  506  0.78163302528E+02 -0.15969743785E+02 -0.12863668055E+02  0.80808468210E+02  0.00000000000E+00 0.  1.
         21    1    1    2  505  502 -0.32206297223E+02 -0.29740674614E+02 -0.48615764660E+03  0.48813011652E+03  0.00000000000E+00 0.  1.
         21    1    1    2  506  501 -0.20728450298E+02 -0.38346171876E+02  0.31656134845E+02  0.53872148858E+02  0.00000000000E+00 0. -1.
<scales pt_clust_3="67.49383" pt_clust_4="14000.00000" pt_clust_5="44.02428" pt_clust_6="43.59011"></scales>
<clustering>
<clus scale="   43.590">  1  6  2 -1</clus>
<clus scale="   44.024">  2  5  1 -1</clus>
<clus scale="   67.494">  1  3  2 -1</clus>
<clus scale="   43.590">  1  3  2 -1</clus>
</clustering>
</event>
<event>
 6    0  0.4227619E+002  0.2493738E+03  0.7546771E-02  0.1113701E+00
         21   -1    0    0  504  501  0.00000000000E+00  0.00000000000E+00  0.24780399737E+04  0.24780399737E+04  0.00000000000E+00 0. -1.
         21   -1    0    0  506  502 -0.00000000000E+00 -0.00000000000E+00 -0.17478790340E+03  0.17478790340E+03  0.00000000000E+00 0. -1.
         21    1    1    2  503  501  0.22531789407E+03 -0.59622738618E+02  0.12084590637E+04  0.12307300001E+04  0.00000000000E+00 0. -1.
         21    1    1    2  504  502  0.54059763059E+01 -0.40387439235E+02  0.11196134706E+04  0.11203547176E+04  0.00000000000E+00 0. -1.
         21    1    1    2  505  503 -0.21902195938E+03  0.12803565092E+03  0.12036478421E+02  0.25398547874E+03  0.00000000000E+00 0. -1.
         21    1    1    2  506  505 -0.11701910994E+02 -0.28025473068E+02 -0.36856942398E+02  0.47757680686E+02  0.00000000000E+00 0. -1.
<scales pt_clust_3="14000.00000" pt_clust_4="40.82103" pt_clust_5="249.37378" pt_clust_6="30.37041"></scales>
<clustering>
<clus scale="   30.370">  2  6  1 -1</clus>
<clus scale="   40.821">  1  4  2 -1</clus>
<clus scale="  249.374">  2  5  1 -1</clus>
<clus scale="   40.821">  1  3  2 -1</clus>
</clustering>
</event>
<event>
 6    0  0.4227619E+002  0.7432916E+02  0.7546771E-02  0.1345961E+00
         21   -1    0    0  504  501  0.00000000000E+00  0.00000000000E+00  0.42163068409E+03  0.42163068409E+03  0.00000000000E+00 0. -1.
         21   -1    0    0  505  502 -0.00000000000E+00 -0.00000000000E+00 -0.49031726648E+02  0.49031726648E+02  0.00000000000E+00 0.  1.
         21    1    1    2  503  502  0.76251693058E+02  0.74818483680E+02  0.12388483073E+03  0.16358354892E+03  0.00000000000E+00 0.  1.
         21    1    1    2  504  503 -0.32202204418E+02  0.19331156110E+01  0.12695329481E+03  0.13098800697E+03  0.00000000000E+00 0. -1.
         21    1    1    2  505  506 -0.51776738989E+02 -0.10709717801E+02  0.24499332187E+02  0.58273030068E+02  0.00000000000E+00 0. -1.
         21    1    1    2  506  501  0.77272503500E+01 -0.66041881490E+02  0.97261499722E+02  0.11781782478E+03  0.00000000000E+00 0. -1.
<scales pt_clust_3="74.32916" pt_clust_4="32.26018" pt_clust_5="57.28919" pt_clust_6="14000.00000"></scales>
<clustering>
<clus scale="   32.260">  1  4  2 -1</clus>
<clus scale="   57.289">  2  5  1 -1</clus>
<clus scale="   74.329">  2  3  1 -1</clus>
<clus scale="   32.260">  1  3  2 -1</clus>
</clustering>
</event>
<event>
 6    0  0.4227619E+002  0.1842460E+03  0.7546771E-02  0.1163756E+00
         21   -1    0    0  504  501  0.00000000000E+00  0.00000000000E+00  0.20584896827E+03  0.20584896827E+03  0.00000000000E+00 0.  1.
         21   -1    0    0  503  502 -0.00000000000E+00 -0.00000000000E+00 -0.60360677391E+03  0.60360677391E+03  0.00000000000E+00 0. -1.
         21    1    1    2  503  501 -0.90860031433E+02  0.10677284801E+03 -0.39918908541E+02  0.14577210174E+03  0.00000000000E+00 0.  1.
         21    1    1    2  504  505 -0.48458942812E+02  0.31485017487E+02  0.12697234378E+03  0.13950466498E+03  0.00000000000E+00 0.  1.
         21    1    1    2  505  506  0.68395638451E+02 -0.67984674128E+02 -0.19284248110E+03  0.21561099645E+03  0.00000000000E+00 0. -1.
         21    1    1    2  506  502  0.70923335795E+02 -0.70273191372E+02 -0.29196875978E+03  0.30856797902E+03  0.00000000000E+00 0. -1.
<scales pt_clust_3="180.96944" pt_clust_4="57.78906" pt_clust_5="33.99736" pt_clust_6="33.99736"></scales>
<clustering>
<clus scale="   33.997">  5  6 -1 -1</clus>
<clus scale="   57.789">  1  4  2 -1</clus>
<clus scale="  180.969">  1  3  2 -1</clus>
<clus scale="   57.789">  1  3  2 -1</clus>
</clustering>
</event>
<event>
 6    0  0.4227619E+002  0.1285570E+03  0.7546771E-02  0.1229613E+00
         21   -1    0    0  503  501  0.00000000000E+00  0.00000000000E+00  0.28315608648E+03  0.28315608648E+03  0.00000000000E+00 0. -1.
         21   -1    0    0  505  502 -0.00000000000E+00 -0.00000000000E+00 -0.27522836265E+03  0.27522836265E+03  0.00000000000E+00 0.  1.
         21    1    1    2  503  502 -0.17142686554E+02 -0.90362229474E+02 -0.88989547954E+02  0.12797790381E+03  0.00000000000E+00 0.  1.
         21    1    1    2  504  501  0.71075245529E+02  0.11635221233E+03  0.21015300180E+03  0.25050710970E+03  0.00000000000E+00 0. -1.
         21    1    1    2  505  506 -0.34129985897E+02  0.25021486039E+02 -0.11762214868E+03  0.12500360220E+03  0.00000000000E+00 0.  1.
         21    1    1    2  506  504 -0.19802573078E+02 -0.51011468898E+02  0.43864186595E+01  0.54895833433E+02  0.00000000000E+00 0. -1.
<scales pt_clust_3="128.55705" pt_clust_4="14000.00000" pt_clust_5="42.31939" pt_clust_6="53.34285"></scales>
<clustering>
<clus scale="   42.319">  2  5  1 -1</clus>
<clus scale="   53.343">  2  6  1 -1</clus>
<clus scale="  128.557">  2  3  1 -1</clus>
<clus scale="  128.557">  1  3  2 -1</clus>
</clustering>
</event>
<event>
 6    0  0.4227619E+002  0.1152029E+03  0.7546771E-02  0.1251227E+00
         21   -1    0    0  506  501  0.00000000000E+00  0.00000000000E+00  0.10185953591E+04  0.10185953591E+04  0.00000000000E+00 0. -1.
         21   -1    0    0  504  502 -0.00000000000E+00 -0.00000000000E+00 -0.68472661835E+03  0.68472661835E+03  0.00000000000E+00 0.  1.
         21    1    1    2  503  505  0.49219596903E+02 -0.63132421201E+02  0.20025343522E+03  0.21566109905E+03  0.00000000000E+00 0. -1.
         21    1    1    2  504  503 -0.70350631232E+02  0.10281766122E+03 -0.65145375478E+03  0.66325913291E+03  0.00000000000E+00 0.  1.
         21    1    1    2  505  501  0.46896370395E+02 -0.88142474300E+01  0.78266642963E+03  0.78411969787E+03  0.00000000000E+00 0. -1.
         21    1    1    2  506  502 -0.25765336066E+02 -0.30870992585E+02  0.24026306698E+01  0.40282047613E+02  0.00000000000E+00 0. -1.
<scales pt_clust_3="115.20294" pt_clust_4="14000.00000" pt_clust_5="47.69611" pt_clust_6="40.21033"></scales>
<clustering>
<clus scale="   40.210">  2  6  1 -1</clus>
<clus scale="   47.696">  1  5  2 -1</clus>
<clus scale="  115.203">  1  3  2 -1</clus>
<clus scale="   47.696">  1  3  2 -1</clus>
</clustering>
</event>
<event>
 6    0  0.4227619E+002  0.8260007E+02  0.7546771E-02  0.1321831E+00
         21   -1    0    0  505  501  0.00000000000E+00  0.00000000000E+00  0.28730227331E+03  0.28730227331E+03  0.00000000000E+00 0.  1.
         21   -1    0    0  506  502 -0.00000000000E+00 -0.00000000000E+00 -0.24385321299E+03  0.24385321299E+03  0.00000000000E+00 0. -1.
         21    1    1    2  503  504 -0.25430275513E+02  0.13013325278E+03 -0.12335398094E+03  0.18110098565E+03  0.00000000000E+00 0. -1.
         21    1    1    2  504  501  0.16884473063E+02 -0.53668484691E+02  0.93153031227E+02  0.10882499210E+03  0.00000000000E+00 0.  1.
         21    1    1    2  505  502 -0.91363616175E+01 -0.30846189211E+02  0.14842452995E+03  0.15187100310E+03  0.00000000000E+00 0.  1.
         21    1    1    2  506  503  0.17682164067E+02 -0.45618578875E+02 -0.74774519915E+02  0.89358505433E+02  0.00000000000E+00 0. -1.
<scales pt_clust_3="14000.00000" pt_clust_4="82.60007" pt_clust_5="32.17080" pt_clust_6="50.29004"></scales>
<clustering>
<clus scale="   32.171">  1  5  2 -1</clus>
<clus scale="   50.290">  2  6  1 -1</clus>
<clus scale="   82.600">  1  4  2 -1</clus>
<clus scale="   32.171">  1  3  2 -1</clus>
</clustering>
</event>
<event>
 6    0  0.4227619E+002  0.1957242E+03  0.7546771E-02  0.1153397E+00
         21   -1    0    0  504  501  0.00000000000E+00  0.00000000000E+00  0.36296908413E+03  0.36296908413E+03  0.00000000000E+00 0. -1.
         21   -1    0    0  506  502 -0.00000000000E+00 -0.00000000000E+00 -0.15857846131E+04  0.15857846131E+04  0.00000000000E+00 0.  1.
         21    1    1    2  503  502 -0.28245610206E+02  0.29418249449E+02 -0.11416899148E+04  0.11424180975E+04  0.00000000000E+00 0.  1.
         21    1    1    2  504  503 -0.16866824723E+03  0.97723696922E+02 -0.29782383149E+03  0.35594653133E+03  0.00000000000E+00 0.  1.
         21    1    1    2  505  501  0.17085929237E+03 -0.95621017710E+02  0.29962517509E+03  0.35792669971E+03  0.00000000000E+00 0. -1.
         21    1    1    2  506  505  0.26054565064E+02 -0.31520928662E+02 -0.82926957795E+02  0.92462368743E+02  0.00000000000E+00 0. -1.
<scales pt_clust_3="40.78294" pt_clust_4="14000.00000" pt_clust_5="195.72419" pt_clust_6="32.86286"></scales>
<clustering>
<clus scale="   40.783">  2  3  1 -1</clus>
<clus scale="   32.863">  2  6  1 -1</clus>
<clus scale="  195.724">  1  5  2 -1</clus>
<clus scale="  195.724">  1  3  2 -1</clus>
</clustering>
</event>
<event>
 6    0  0.4227619E+002  0.7352298E+02  0.7546771E-02  0.1348507E+00
         21   -1    0    0  504  501  0.00000000000E+00  0.00000000000E+00  0.90105379518E+03  0.90105379518E+03  0.00000000000E+00 0.  1.
         21   -1    0    0  506  502 -0.00000000000E+00 -0.00000000000E+00 -0.17193815154E+03  0.17193815154E+03  0.00000000000E+00 0.  1.
         21    1    1    2  503  505 -0.10176599448E+03 -0.42891988183E+02  0.43055599805E+03  0.44449354072E+03  0.00000000000E+00 0.  1.
         21    1    1    2  504  503  0.34306720878E+02  0.55257284485E+02  0.42586949441E+03  0.43080754967E+03  0.00000000000E+00 0.  1.
         21    1    1    2  505  502  0.37932830842E+02 -0.26406326313E+02  0.17360634955E+02  0.49371908724E+02  0.00000000000E+00 0.  1.
         21    1    1    2  506  501  0.29526442757E+02  0.14041030010E+02 -0.14467048377E+03  0.14831894761E+03  0.00000000000E+00 0.  1.
<scales pt_clust_3="14000.00000" pt_clust_4="73.52298" pt_clust_5="59.17657" pt_clust_6="32.69497"></scales>
<clustering>
<clus scale="   32.695">  2  6  1 -1</clus>
<clus scale="   59.177">  2  5  1 -1</clus>
<clus scale="   73.523">  1  4  2 -1</clus>
<clus scale="   73.523">  1  3  2 -1</clus>
</clustering>
</event>
<event>
 6    0  0.4227619E+002  0.2107811E+03  0.7546771E-02  0.1140949E+00
         21   -1    0    0  504  501  0.00000000000E+00  0.00000000000E+00  0.11231120634E+04  0.11231120634E+04  0.00000000000E+00 0. -1.
         21   -1    0    0  501  502 -0.00000000000E+00 -0.00000000000E+00 -0.66023238616E+03  0.66023238616E+03  0.00000000000E+00 0.  1.
         21    1    1    2  503  505  0.86658941991E+02 -0.32078172982E+02  0.56895095137E+03  0.57640607776E+03  0.00000000000E+00 0. -1.
         21    1    1    2  504  503  0.10740183349E+03 -0.40152352606E+02  0.48548085542E+03  0.49883767524E+03  0.00000000000E+00 0. -1.
         21    1    1    2  505  506 -0.18751788733E+03  0.10424389310E+03 -0.14181781247E+03  0.25718094652E+03  0.00000000000E+00 0.  1.
         21    1    1    2  506  502 -0.65428881534E+01 -0.32013367516E+02 -0.44973431705E+03  0.45091975008E+03  0.00000000000E+00 0.  1.
<scales pt_clust_3="34.12711" pt_clust_4="34.12711" pt_clust_5="207.32302" pt_clust_6="32.67514"></scales>
<clustering>
<clus scale="   32.675">  2  6  1 -1</clus>
<clus scale="   34.127">  3  4 -1 -1</clus>
<clus scale="  207.323">  2  5  1 -1</clus>
<clus scale="  210.781">  1  3  2 -1</clus>
</clustering>
</event>
<event>
 6    0  0.4227619E+002  0.1280960E+03  0.7546771E-02  0.1230309E+00
         21   -1    0    0  504  501  0.00000000000E+00  0.00000000000E+00  0.50394607897E+03  0.50394607897E+03  0.00000000000E+00 0. -1.
         21   -1    0    0  505  502 -0.00000000000E+00 -0.00000000000E+00 -0.10295562082E+03  0.10295562082E+03  0.00000000000E+00 0. -1.
         21    1    1    2  503  506 -0.49993527456E+01  0.53250270401E+02  0.40052460480E+02  0.66819042317E+02  0.00000000000E+00 0. -1.
         21    1    1    2  504  502  0.87429391912E+02 -0.87084221792E+02  0.41997160402E+02  0.13035076424E+03  0.00000000000E+00 0. -1.
         21    1    1    2  505  503 -0.11811345751E+03  0.68279625493E+02  0.65234280215E+02  0.15122303865E+03  0.00000000000E+00 0. -1.
         21    1    1    2  506  501  0.35683418346E+02 -0.34445674102E+02  0.25370655705E+03  0.25850885458E+03  0.00000000000E+00 0. -1.
<scales pt_clust_3="45.90267" pt_clust_4="128.09599" pt_clust_5="14000.00000" pt_clust_6="49.59648"></scales>
<clustering>
<clus scale="   49.596">  1  6  2 -1</clus>
<clus scale="   45.903">  1  3  2 -1</clus>
<clus scale="  128.096">  2  4  1 -1</clus>
<clus scale="   49.596">  1  3  2 -1</clus>
</clustering>
</event>
<event>
 6    0  0.4227619E+002  0.9202471E+02  0.7546771E-02  0.1298021E+00
         21   -1    0    0  506  501  0.00000000000E+00  0.00000000000E+00  0.13630840620E+03  0.13630840620E+03  0.00000000000E+00 0. -1.
         21   -1    0    0  504  502 -0.00000000000E+00 -0.00000000000E+00 -0.25404982945E+03  0.25404982945E+03  0.00000000000E+00 0. -1.
         21    1    1    2  503  502  0.20063710219E+02 -0.10567787671E+03 -0.14156841230E+03  0.17779758563E+03  0.00000000000E+00 0. -1.
         21    1    1    2  504  505 -0.39547266915E+02  0.65972177869E+02 -0.49239677835E+02  0.91328311309E+02  0.00000000000E+00 0.  1.
         21    1    1    2  505  501  0.41215105278E+02 -0.31435043233E+01  0.11057224934E+02  0.42788184651E+02  0.00000000000E+00 0. -1.
         21    1    1    2  506  503 -0.21731548582E+02  0.42849203164E+02  0.62009441947E+02  0.78444154059E+02  0.00000000000E+00 0. -1.
<scales pt_clust_3="14000.00000" pt_clust_4="92.02471" pt_clust_5="41.33481" pt_clust_6="41.10398"></scales>
<clustering>
<clus scale="   41.335">  1  5  2 -1</clus>
<clus scale="   41.104">  1  6  2 -1</clus>
<clus scale="   92.025">  1  4  2 -1</clus>
<clus scale="   41.335">  1  3  2 -1</clus>
</clustering>
</event>
<event>
 6    0  0.4227619E+002  0.7788043E+02  0.7546771E-02  0.1335176E+00
         21   -1    0    0  505  501  0.00000000000E+00  0.00000000000E+00  0.19715083107E+04  0.19715083107E+04  0.00000000000E+00 0. -1.
         21   -1    0    0  506  502 -0.00000000000E+00 -0.00000000000E+00 -0.39787994237E+02  0.39787994237E+02  0.00000000000E+00 0. -1.
         21    1    1    2  503  502 -0.53959363802E+02 -0.15784411126E+02 -0.53534134632E+01  0.56474946766E+02  0.00000000000E+00 0. -1.
         21    1    1    2  504  501 -0.18898017936E+02 -0.46505645556E+02  0.11491436755E+04  0.11502395825E+04  0.00000000000E+00 0. -1.
         21    1    1    2  505  503 -0.34241383062E+02 -0.59403675902E+01  0.21088790371E+03  0.21373223484E+03  0.00000000000E+00 0. -1.
         21    1    1    2  506  504  0.10709876480E+03  0.68230424272E+02  0.57704215069E+03  0.59084954082E+03  0.00000000000E+00 0. -1.
<scales pt_clust_3="56.72241" pt_clust_4="14000.00000" pt_clust_5="34.75285" pt_clust_6="77.88043"></scales>
<clustering>
<clus scale="   34.753">  1  5  2 -1</clus>
<clus scale="   56.722">  2  3  1 -1</clus>
<clus scale="   77.880">  2  6  1 -1</clus>
<clus scale="   34.753">  1  3  2 -1</clus>
</clustering>
</event>
<event>
 6    0  0.4227619E+002  0.8917879E+02  0.7546771E-02  0.1304853E+00
         21   -1    0    0  503  501  0.00000000000E+00  0.00000000000E+00  0.61924064372E+02  0.61924064372E+02  0.00000000000E+00 0.  1.
         21   -1    0    0  505  502 -0.00000000000E+00 -0.00000000000E+00 -0.54897843245E+03  0.54897843245E+03  0.00000000000E+00 0. -1.
         21    1    1    2  503  502 -0.38021666330E+02  0.11379221180E+03 -0.10826358558E+03  0.16160234695E+03  0.00000000000E+00 0.  1.
         21    1    1    2  504  506  0.26290703337E+02 -0.61668331187E+02 -0.78090749690E+02  0.10291913982E+03  0.00000000000E+00 0. -1.
         21    1    1    2  505  504 -0.18781360376E+02 -0.31014962125E+02 -0.30666597161E+03  0.30880201669E+03  0.00000000000E+00 0. -1.
         21    1    1    2  506  501  0.30512323369E+02 -0.21108918486E+02  0.59659387916E+01  0.37578993369E+02  0.00000000000E+00 0.  1.
<scales pt_clust_3="89.17879" pt_clust_4="14000.00000" pt_clust_5="36.25834" pt_clust_6="37.32196"></scales>
<clustering>
<clus scale="   36.258">  2  5  1 -1</clus>
<clus scale="   37.322">  1  6  2 -1</clus>
<clus scale="   89.179">  1  3  2 -1</clus>
<clus scale="   37.322">  1  3  2 -1</clus>
</clustering>
</event>
<event>
 6    0  0.4227619E+002  0.7632248E+02  0.7546771E-02  0.1339824E+00
         21   -1    0    0  504  501  0.00000000000E+00  0.00000000000E+00  0.25416813339E+03  0.25416813339E+03  0.00000000000E+00 0. -1.
         21   -1    0    0  505  502 -0.00000000000E+00 -0.00000000000E+00 -0.15364530974E+03  0.15364530974E+03  0.00000000000E+00 0. -1.
         21    1    1    2  503  502 -0.50744022634E+02 -0.29329541800E+02 -0.19101690038E+02  0.61644565191E+02  0.00000000000E+00 0. -1.
         21    1    1    2  504  503  0.75330064774E+01 -0.76256298130E+02  0.16653193551E+03  0.18331572419E+03  0.00000000000E+00 0. -1.
         21    1    1    2  505  506 -0.35681888370E+02  0.28791437796E+02 -0.14368804063E+02  0.48047961228E+02  0.00000000000E+00 0. -1.
         21    1    1    2  506  501  0.78892904526E+02  0.76794402133E+02 -0.32538617759E+02  0.11480519252E+03  0.00000000000E+00 0. -1.
<scales pt_clust_3="65.58165" pt_clust_4="14000.00000" pt_clust_5="45.84914" pt_clust_6="76.32248"></scales>
<clustering>
<clus scale="   45.849">  2  5  1 -1</clus>
<clus scale="   65.582">  2  3  1 -1</clus>
<clus scale="   76.322">  2  6  1 -1</clus>
<clus scale="   76.322">  1  3  2 -1</clus>
</clustering>
</event>
<event>
 6    0  0.4227619E+002  0.3086614E+03  0.7546771E-02  0.1080989E+00
         21   -1    0    0  505  501  0.00000000000E+00  0.00000000000E+00  0.65696087804E+03  0.65696087804E+03  0.00000000000E+00 0. -1.
         21   -1    0    0  503  502 -0.00000000000E+00 -0.00000000000E+00 -0.16480467179E+04  0.16480467179E+04  0.00000000000E+00 0.  1.
         21    1    1    2  503  506 -0.11448172567E+03 -0.25790168340E+03 -0.14979782796E+04  0.15243222330E+04  0.00000000000E+00 0.  1.
         21    1    1    2  504  502 -0.33172217223E+02 -0.14737850739E+02 -0.42020111362E+02  0.55527380622E+02  0.00000000000E+00 0. -1.
         21    1    1    2  505  504  0.32640739633E+02 -0.20210495494E+02  0.35179546369E+03  0.35388406333E+03  0.00000000000E+00 0. -1.
         21    1    1    2  506  501  0.11501320326E+03  0.29285002963E+03  0.19711708741E+03  0.37127391900E+03  0.00000000000E+00 0. -1.
<scales pt_clust_3="14000.00000" pt_clust_4="36.29876" pt_clust_5="38.37783" pt_clust_6="308.66138"></scales>
<clustering>
<clus scale="   36.299">  2  4  1 -1</clus>
<clus scale="   38.378">  1  5  2 -1</clus>
<clus scale="  308.661">  1  6  2 -1</clus>
<clus scale="   38.378">  1  3  2 -1</clus>
</clustering>
</event>
<event>
 6    0  0.4227619E+002  0.1136824E+03  0.7546771E-02  0.1253899E+00
         21   -1    0    0  506  501  0.00000000000E+00  0.00000000000E+00  0.29219818139E+03  0.29219818139E+03  0.00000000000E+00 0.  1.
         21   -1    0    0  505  502 -0.00000000000E+00 -0.00000000000E+00 -0.64723606042E+02  0.64723606042E+02  0.00000000000E+00 0.  1.
         21    1    1    2  503  504  0.21062051799E+02  0.34910423188E+02  0.72401311103E+01  0.41409747303E+02  0.00000000000E+00 0.  1.
         21    1    1    2  504  502  0.73642299372E+02  0.10066303060E+02  0.32630060101E+02  0.81174130954E+02  0.00000000000E+00 0.  1.
         21    1    1    2  505  501 -0.24460889826E+02  0.29267191877E+02  0.47657996638E+02  0.61042512195E+02  0.00000000000E+00 0.  1.
         21    1    1    2  506  503 -0.70243461344E+02 -0.74243918125E+02  0.13994638750E+03  0.17329539698E+03  0.00000000000E+00 0.  1.
<scales pt_clust_3="36.62502" pt_clust_4="36.62502" pt_clust_5="38.14320" pt_clust_6="102.36377"></scales>
<clustering>
<clus scale="   36.625">  3  4 -1 -1</clus>
<clus scale="   38.143">  1  5  2 -1</clus>
<clus scale="  102.364">  1  6  2 -1</clus>
<clus scale="   38.143">  1  3  2 -1</clus>
</clustering>
</event>
<event>
 6    0  0.4227619E+002  0.7322856E+02  0.7546771E-02  0.1349446E+00
         21   -1    0    0  503  501  0.00000000000E+00  0.00000000000E+00  0.25091498084E+03  0.25091498084E+03  0.00000000000E+00 0. -1.
         21   -1    0    0  506  502 -0.00000000000E+00 -0.00000000000E+00 -0.16339627821E+03  0.16339627821E+03  0.00000000000E+00 0.  1.
         21    1    1    2  503  504  0.16541569928E+02 -0.73638669049E+02  0.15281518236E+03  0.17043695924E+03  0.00000000000E+00 0. -1.
         21    1    1    2  504  505 -0.87603953864E+02  0.36603279013E+02  0.36025501588E+01  0.95011742089E+02  0.00000000000E+00 0. -1.
         21    1    1    2  505  502  0.65130379085E+02 -0.12183627642E+02 -0.73639162179E+02  0.99061260181E+02  0.00000000000E+00 0.  1.
         21    1    1    2  506  501  0.59320048505E+01  0.49219017678E+02  0.47401322951E+01  0.49801297543E+02  0.00000000000E+00 0. -1.
<scales pt_clust_3="14000.00000" pt_clust_4="73.22856" pt_clust_5="71.08027" pt_clust_6="49.57520"></scales>
<clustering>
<clus scale="   49.575">  2  6  1 -1</clus>
<clus scale="   71.080">  2  5  1 -1</clus>
<clus scale="   73.229">  2  4  1 -1</clus>
<clus scale="   73.229">  1  3  2 -1</clus>
</clustering>
</event>
<event>
 6    0  0.4227619E+002  0.2163472E+03  0.7546771E-02  0.1136636E+00
         21   -1    0    0  506  501  0.00000000000E+00  0.00000000000E+00  0.76079039036E+03  0.76079039036E+03  0.00000000000E+00 0. -1.
         21   -1    0    0  504  502 -0.00000000000E+00 -0.00000000000E+00 -0.14164168725E+04  0.14164168725E+04  0.00000000000E+00 0. -1.
         21    1    1    2  503  502 -0.19425944612E+03  0.90357567699E+02 -0.12314730459E+04  0.12499708337E+04  0.00000000000E+00 0. -1.
         21    1    1    2  504  505  0.17770668434E+03 -0.19081455100E+03 -0.25471108230E+02  0.26198976294E+03  0.00000000000E+00 0. -1.
         21    1    1    2  505  501  0.38758683339E+02  0.30014101165E+02  0.58818980199E+03  0.59022904450E+03  0.00000000000E+00 0. -1.
         21    1    1    2  506  503 -0.22205921561E+02  0.70442882131E+02  0.13127869977E+02  0.75017621699E+02  0.00000000000E+00 0. -1.
<scales pt_clust_3="14000.00000" pt_clust_4="216.34717" pt_clust_5="49.02124" pt_clust_6="79.10666"></scales>
<clustering>
<clus scale="   49.021">  1  5  2 -1</clus>
<clus scale="   79.107">  1  6  2 -1</clus>
<clus scale="  216.347">  1  4  2 -1</clus>
<clus scale="   49.021">  1  3  2 -1</clus>
</clustering>
</event>
<event>
 6    0  0.4227619E+002  0.8670614E+02  0.7546771E-02  0.1311030E+00
         21   -1    0    0  506  501  0.00000000000E+00  0.00000000000E+00  0.12891563008E+04  0.12891563008E+04  0.00000000000E+00 0. -1.
         21   -1    0    0  505  502 -0.00000000000E+00 -0.00000000000E+00 -0.18366668546E+03  0.18366668546E+03  0.00000000000E+00 0.  1.
         21    1    1    2  503  502 -0.39430820112E+02 -0.25384843881E+02 -0.14193178972E+03  0.14947846938E+03  0.00000000000E+00 0.  1.
         21    1    1    2  504  501  0.64215749178E+02 -0.87236456753E+02  0.94469711198E+03  0.95088721477E+03  0.00000000000E+00 0. -1.
         21    1    1    2  505  504  0.14566025248E+02  0.10546072994E+03  0.51854101985E+02  0.11841867481E+03  0.00000000000E+00 0. -1.
         21    1    1    2  506  503 -0.39350954314E+02  0.71605706921E+01  0.25087019113E+03  0.25403862733E+03  0.00000000000E+00 0. -1.
<scales pt_clust_3="47.00184" pt_clust_4="14000.00000" pt_clust_5="86.70614" pt_clust_6="39.99714"></scales>
<clustering>
<clus scale="   39.997">  1  6  2 -1</clus>
<clus scale="   47.002">  2  3  1 -1</clus>
<clus scale="   86.706">  2  5  1 -1</clus>
<clus scale="   39.997">  1  3  2 -1</clus>
</clustering>
</event>
<event>
 6    0  0.4227619E+002  0.1034415E+03  0.7546771E-02  0.1273221E+00
         21   -1    0    0  506  501  0.00000000000E+00  0.00000000000E+00  0.11023594925E+03  0.11023594925E+03  0.00000000000E+00 0. -1.
         21   -1    0    0  505  502 -0.00000000000E+00 -0.00000000000E+00 -0.10950037621E+04  0.10950037621E+04  0.00000000000E+00 0.  1.
         21    1    1    2  503  502  0.82930772377E+02 -0.16048242121E+02 -0.89741731268E+03  0.90138387615E+03  0.00000000000E+00 0.  1.
         21    1    1    2  504  503 -0.50234664233E+02 -0.88483077246E+02 -0.25985051078E+02  0.10501428155E+03  0.00000000000E+00 0. -1.
         21    1    1    2  505  501  0.14862814378E+02  0.10158039195E+03 -0.95510545925E+02  0.14022033969E+03  0.00000000000E+00 0.  1.
         21    1    1    2  506  504 -0.47558922521E+02  0.29509274184E+01  0.34145096858E+02  0.58621213937E+02  0.00000000000E+00 0. -1.
<scales pt_clust_3="83.00180" pt_clust_4="103.44154" pt_clust_5="14000.00000" pt_clust_6="47.65038"></scales>
<clustering>
<clus scale="   47.650">  1  6  2 -1</clus>
<clus scale="   83.002">  2  3  1 -1</clus>
<clus scale="  103.442">  1  4  2 -1</clus>
<clus scale="   47.650">  1  3  2 -1</clus>
</clustering>
</event>
<event>
 6    0  0.4227619E+002  0.1948765E+03  0.7546771E-02  0.1154135E+00
         21   -1    0    0  503  501  0.00000000000E+00  0.00000000000E+00  0.16177196731E+04  0.16177196731E+04  0.00000000000E+00 0. -1.
         21   -1    0    0  506  502 -0.00000000000E+00 -0.00000000000E+00 -0.11939468335E+03  0.11939468335E+03  0.00000000000E+00 0. -1.
         21    1    1    2  503  505 -0.22896377051E+02  0.29526910705E+03  0.54234444985E+03  0.61793655980E+03  0.00000000000E+00 0. -1.
         21    1    1    2  504  501 -0.13224925446E+02 -0.28780519213E+02  0.67744745397E+03  0.67818748870E+03  0.00000000000E+00 0.  1.
         21    1    1    2  505  502  0.19408142023E+01 -0.13069452164E+03  0.16582564247E+01  0.13071944981E+03  0.00000000000E+00 0. -1.
         21    1    1    2  506  504  0.34180488294E+02 -0.13579406620E+03  0.27687482948E+03  0.31027085811E+03  0.00000000000E+00 0. -1.
<scales pt_clust_3="14000.00000" pt_clust_4="31.67360" pt_clust_5="132.72511" pt_clust_6="194.87651"></scales>
<clustering>
<clus scale="   31.674">  1  4  2 -1</clus>
<clus scale="  132.725">  2  5  1 -1</clus>
<clus scale="  194.877">  1  6  2 -1</clus>
<clus scale="   31.674">  1  3  2 -1</clus>
</clustering>
</event>
<event>
 6    0  0.4227619E+002  0.1007929E+03  0.7546771E-02  0.1278637E+00
         21   -1    0    0  503  501  0.00000000000E+00  0.00000000000E+00  0.21508461919E+02  0.21508461919E+02  0.00000000000E+00 0. -1.
         21   -1    0    0  506  502 -0.00000000000E+00 -0.00000000000E+00 -0.11915168341E+04  0.11915168341E+04  0.00000000000E+00 0. -1.
         21    1    1    2  503  505  0.74592455509E+02  0.40759669887E+02 -0.29413189352E+03  0.30616818237E+03  0.00000000000E+00 0. -1.
         21    1    1    2  504  501 -0.15999512252E+02  0.35979231604E+02 -0.62851570376E+02  0.74167441629E+02  0.00000000000E+00 0. -1.
         21    1    1    2  505  502  0.31783097295E+02  0.38447213532E+01 -0.42516259634E+03  0.42636625158E+03  0.00000000000E+00 0. -1.
         21    1    1    2  506  504 -0.90376040552E+02 -0.80583622844E+02 -0.38786231195E+03  0.40632342046E+03  0.00000000000E+00 0. -1.
<scales pt_clust_3="14000.00000" pt_clust_4="38.63231" pt_clust_5="32.01480" pt_clust_6="100.79294"></scales>
<clustering>
<clus scale="   32.015">  2  5  1 -1</clus>
<clus scale="   38.632">  1  4  2 -1</clus>
<clus scale="  100.793">  2  6  1 -1</clus>
<clus scale="   38.632">  1  3  2 -1</clus>
</clustering>
</event>
<event>
 6    0  0.4227619E+002  0.1100545E+03  0.7546771E-02  0.1260469E+00
         21   -1    0    0  505  501  0.00000000000E+00  0.00000000000E+00  0.69376615734E+03  0.69376615734E+03  0.00000000000E+00 0.  1.
         21   -1    0    0  506  502 -0.00000000000E+00 -0.00000000000E+00 -0.37269362939E+03  0.37269362939E+03  0.00000000000E+00 0.  1.
         21    1    1    2  503  502  0.36203953605E+02  0.44862978537E+01 -0.18363631311E+03  0.18722486111E+03  0.00000000000E+00 0.  1.
         21    1    1    2  504  503  0.78185057165E+02 -0.44012074659E+02 -0.15388869854E+03  0.17813393113E+03  0.00000000000E+00 0.  1.
         21    1    1    2  505  504 -0.36984393176E+02 -0.14198194644E+01  0.58651550426E+03  0.58768214025E+03  0.00000000000E+00 0.  1.
         21    1    1    2  506  501 -0.77404617594E+02  0.40945596270E+02  0.72082035345E+02  0.11341885424E+03  0.00000000000E+00 0.  1.
<scales pt_clust_3="36.48086" pt_clust_4="110.05445" pt_clust_5="36.89841" pt_clust_6="14000.00000"></scales>
<clustering>
<clus scale="   36.481">  2  3  1 -1</clus>
<clus scale="   36.898">  1  5  2 -1</clus>
<clus scale="  110.054">  2  4  1 -1</clus>
<clus scale="   36.898">  1  3  2 -1</clus>
</clustering>
</event>
<event>
 6    0  0.4227619E+002  0.1179223E+03  0.7546771E-02  0.1246565E+00
         21   -1    0    0  506  501  0.00000000000E+00  0.00000000000E+00  0.53728165459E+02  0.53728165459E+02  0.00000000000E+00 0. -1.
         21   -1    0    0  504  502 -0.00000000000E+00 -0.00000000000E+00 -0.14362030028E+04  0.14362030028E+04  0.00000000000E+00 0. -1.
         21    1    1    2  503  501 -0.17997405312E+02 -0.39426944150E+02 -0.57390587011E+02  0.71917105061E+02  0.00000000000E+00 0. -1.
         21    1    1    2  504  503 -0.49059244000E+02 -0.11306435340E+02 -0.18887094924E+03  0.19546580358E+03  0.00000000000E+00 0. -1.
         21    1    1    2  505  502 -0.72784863315E+02  0.33531384282E+00 -0.10462910278E+04  0.10488196526E+04  0.00000000000E+00 0. -1.
         21    1    1    2  506  505  0.13984151263E+03  0.50398065647E+02 -0.89922273299E+02  0.17372860706E+03  0.00000000000E+00 0. -1.
<scales pt_clust_3="43.34040" pt_clust_4="52.27516" pt_clust_5="14000.00000" pt_clust_6="117.92225"></scales>
<clustering>
<clus scale="   43.340">  1  3  2 -1</clus>
<clus scale="   52.275">  2  4  1 -1</clus>
<clus scale="  117.922">  1  6  2 -1</clus>
<clus scale="   43.340">  1  3  2 -1</clus>
</clustering>
</event>
<event>
 6    0  0.4227619E+002  0.8923729E+02  0.7546771E-02  0.1304709E+00
         21   -1    0    0  504  501  0.00000000000E+00  0.00000000000E+00  0.54593767584E+03  0.54593767584E+03  0.00000000000E+00 0.  1.
         21   -1    0    0  503  502 -0.00000000000E+00 -0.00000000000E+00 -0.18178812827E+03  0.18178812827E+03  0.00000000000E+00 0. -1.
         21    1    1    2  503  505  0.25162908810E+02  0.21569341236E+02 -0.11699512903E+03  0.12159880212E+03  0.00000000000E+00 0. -1.
         21    1    1    2  504  502 -0.78094606927E+02 -0.11363045960E+02 -0.10475526093E+01  0.78923911529E+02  0.00000000000E+00 0. -1.
         21    1    1    2  505  506  0.52173381345E+02 -0.96024647188E+02  0.15987906282E+03  0.19365977723E+03  0.00000000000E+00 0. -1.
         21    1    1    2  506  501  0.75831677223E+00  0.85818351912E+02  0.32231316639E+03  0.33354331323E+03  0.00000000000E+00 0.  1.
<scales pt_clust_3="33.14225" pt_clust_4="62.04175" pt_clust_5="89.23729" pt_clust_6="14000.00000"></scales>
<clustering>
<clus scale="   33.142">  2  3  1 -1</clus>
<clus scale="   62.042">  2  4  1 -1</clus>
<clus scale="   89.237">  2  5  1 -1</clus>
<clus scale="   89.237">  1  3  2 -1</clus>
</clustering>
</event>
<event>
 6    0  0.4227619E+002  0.1023340E+03  0.7546771E-02  0.1275463E+00
         21   -1    0    0  505  501  0.00000000000E+00  0.00000000000E+00  0.11742865489E+03  0.11742865489E+03  0.00000000000E+00 0. -1.
         21   -1    0    0  506  502 -0.00000000000E+00 -0.00000000000E+00 -0.67033841000E+03  0.67033841000E+03  0.00000000000E+00 0. -1.
         21    1    1    2  503  501 -0.23064118249E+02  0.29210553098E+02 -0.92241190143E+01  0.38344417253E+02  0.00000000000E+00 0.  1.
         21    1    1    2  504  502  0.57899490262E+02  0.98243539581E+02 -0.56412175348E+02  0.12722608840E+03  0.00000000000E+00 0. -1.
         21    1    1    2  505  504 -0.31329909239E+02 -0.25121058225E+02  0.56249315964E+02  0.69113069138E+02  0.00000000000E+00 0. -1.
         21    1    1    2  506  503 -0.35054627746E+01 -0.10233303445E+03 -0.54352277671E+03  0.55308349009E+03  0.00000000000E+00 0. -1.
<scales pt_clust_3="37.21841" pt_clust_4="102.33397" pt_clust_5="45.97051" pt_clust_6="14000.00000"></scales>
<clustering>
<clus scale="   37.218">  1  3  2 -1</clus>
<clus scale="   45.971">  1  5  2 -1</clus>
<clus scale="  102.334">  1  4  2 -1</clus>
<clus scale="   37.218">  1  3  2 -1</clus>
</clustering>
</event>
<event>
 6    0  0.4227619E+002  0.7806971E+02  0.7546771E-02  0.1334620E+00
         21   -1    0    0  506  501  0.00000000000E+00  0.00000000000E+00  0.12870680770E+04  0.12870680770E+04  0.00000000000E+00 0. -1.
         21   -1    0    0  505  502 -0.00000000000E+00 -0.00000000000E+00 -0.40013208365E+02  0.40013208365E+02  0.00000000000E+00 0. -1.
         21    1    1    2  503  502  0.25404882367E+02 -0.58229397698E+02  0.62020850203E+02  0.88784326682E+02  0.00000000000E+00 0. -1.
         21    1    1    2  504  503  0.74417443301E+02 -0.25026262217E+02  0.31577559072E+03  0.32538975608E+03  0.00000000000E+00 0. -1.
         21    1    1    2  505  501 -0.97092786262E+02  0.47620146472E+02  0.11521183802E+03  0.15801409783E+03  0.00000000000E+00 0. -1.
         21    1    1    2  506  504 -0.27295394069E+01  0.35635513444E+02  0.75404658970E+03  0.75489310478E+03  0.00000000000E+00 0. -1.
<scales pt_clust_3="58.77493" pt_clust_4="14000.00000" pt_clust_5="78.06971" pt_clust_6="35.73990"></scales>
<clustering>
<clus scale="   35.740">  1  6  2 -1</clus>
<clus scale="   58.775">  2  3  1 -1</clus>
<clus scale="   78.070">  2  5  1 -1</clus>
<clus scale="   35.740">  1  3  2 -1</clus>
</clustering>
</event>
<event>
 6    0  0.4227619E+002  0.1479221E+03  0.7546771E-02  0.1203050E+00
         21   -1    0    0  504  501  0.00000000000E+00  0.00000000000E+00  0.68039613122E+03  0.68039613122E+03  0.00000000000E+00 0.  1.
         21   -1    0    0  506  502 -0.00000000000E+00 -0.00000000000E+00 -0.53038379884E+02  0.53038379884E+02  0.00000000000E+00 0.  1.
         21    1    1    2  503  505  0.21286055978E+02 -0.89760105626E+02  0.82556229370E+02  0.12379621864E+03  0.00000000000E+00 0.  1.
         21    1    1    2  504  503  0.41873493908E+02  0.10225950060E+02  0.15619437687E+03  0.16203284516E+03  0.00000000000E+00 0.  1.
         21    1    1    2  505  502 -0.29771280001E+02 -0.47835964023E+02  0.26428912279E+02  0.62234202583E+02  0.00000000000E+00 0. -1.
         21    1    1    2  506  501 -0.33388269885E+02  0.12737011959E+03  0.36217823282E+03  0.38537124472E+03  0.00000000000E+00 0.  1.
<scales pt_clust_3="46.51708" pt_clust_4="43.10405" pt_clust_5="46.51708" pt_clust_6="134.74442"></scales>
<clustering>
<clus scale="   43.104">  1  4  2 -1</clus>
<clus scale="   46.517">  3  5 -1 -1</clus>
<clus scale="  134.744">  1  6  2 -1</clus>
<clus scale="   43.104">  1  3  2 -1</clus>
</clustering>
</event>
<event>
 6    0  0.4227619E+002  0.2704876E+03  0.7546771E-02  0.1101001E+00
         21   -1    0    0  504  501  0.00000000000E+00  0.00000000000E+00  0.15209632632E+03  0.15209632632E+03  0.00000000000E+00 0.  1.
         21   -1    0    0  503  502 -0.00000000000E+00 -0.00000000000E+00 -0.11348123949E+04  0.11348123949E+04  0.00000000000E+00 0.  1.
         21    1    1    2  503  501  0.49541697031E+02  0.40231405899E+02 -0.76316832351E+01  0.64274321111E+02  0.00000000000E+00 0.  1.
         21    1    1    2  504  505 -0.64820194579E+01 -0.80346978782E+02 -0.11126840197E+03  0.13739836554E+03  0.00000000000E+00 0.  1.
         21    1    1    2  505  506  0.18526211025E+03 -0.12754839824E+03 -0.59739988783E+02  0.23272195781E+03  0.00000000000E+00 0.  1.
         21    1    1    2  506  502 -0.22832178782E+03  0.16766397113E+03 -0.80407599459E+03  0.85251407676E+03  0.00000000000E+00 0.  1.
<scales pt_clust_3="63.81963" pt_clust_4="76.11069" pt_clust_5="270.48764" pt_clust_6="14000.00000"></scales>
<clustering>
<clus scale="   63.820">  1  3  2 -1</clus>
<clus scale="   76.111">  1  4  2 -1</clus>
<clus scale="  270.488">  1  5  2 -1</clus>
<clus scale="   63.820">  1  3  2 -1</clus>
</clustering>
</event>
<event>
 6    0  0.4227619E+002  0.8788662E+02  0.7546771E-02  0.1308052E+00
         21   -1    0    0  505  501  0.00000000000E+00  0.00000000000E+00  0.41911680279E+03  0.41911680279E+03  0.00000000000E+00 0. -1.
         21   -1    0    0  506  502 -0.00000000000E+00 -0.00000000000E+00 -0.25180152486E+03  0.25180152486E+03  0.00000000000E+00 0. -1.
         21    1    1    2  503  501  0.15155819385E+02  0.31859259030E+02  0.28111375791E+03  0.28331900066E+03  0.00000000000E+00 0. -1.
         21    1    1    2  504  502 -0.45424085894E+02  0.74010221314E+02 -0.18900023598E+03  0.20799507119E+03  0.00000000000E+00 0. -1.
         21    1    1    2  505  504 -0.44457346155E+02 -0.36997756445E+02  0.95563337181E+01  0.58622633199E+02  0.00000000000E+00 0. -1.
         21    1    1    2  506  503  0.74725612664E+02 -0.68871723899E+02  0.65645422280E+02  0.12098162260E+03  0.00000000000E+00 0.  1.
<scales pt_clust_3="35.28047" pt_clust_4="87.88662" pt_clust_5="49.99885" pt_clust_6="14000.00000"></scales>
<clustering>
<clus scale="   35.280">  1  3  2 -1</clus>
<clus scale="   49.999">  1  5  2 -1</clus>
<clus scale="   87.887">  2  4  1 -1</clus>
<clus scale="   35.280">  1  3  2 -1</clus>
</clustering>
</event>
<event>
 6    0  0.4227619E+002  0.1792547E+03  0.7546771E-02  0.1168526E+00
         21   -1    0    0  506  501  0.00000000000E+00  0.00000000000E+00  0.38302192544E+03  0.38302192544E+03  0.00000000000E+00 0.  1.
         21   -1    0    0  504  502 -0.00000000000E+00 -0.00000000000E+00 -0.10705258813E+04  0.10705258813E+04  0.00000000000E+00 0. -1.
         21    1    1    2  503  505 -0.10261279093E+03 -0.66131332652E+02 -0.62886018832E+03  0.64059962104E+03  0.00000000000E+00 0. -1.
         21    1    1    2  504  503 -0.55234432031E+02  0.20104570086E+02 -0.39100742300E+03  0.39540086123E+03  0.00000000000E+00 0. -1.
         21    1    1    2  505  501  0.12594056686E+03  0.38360951906E+01  0.59028141293E+02  0.13914044513E+03  0.00000000000E+00 0.  1.
         21    1    1    2  506  502  0.31906656103E+02  0.42190667376E+02  0.27333551421E+03  0.27840687931E+03  0.00000000000E+00 0.  1.
<scales pt_clust_3="54.81108" pt_clust_4="54.81108" pt_clust_5="161.24329" pt_clust_6="52.89695"></scales>
<clustering>
<clus scale="   52.897">  1  6  2 -1</clus>
<clus scale="   54.811">  3  4 -1 -1</clus>
<clus scale="  161.243">  1  5  2 -1</clus>
<clus scale="   52.897">  1  3  2 -1</clus>
</clustering>
</event>
<event>
 6    0  0.4227619E+002  0.1239213E+03  0.7546771E-02  0.1236765E+00
         21   -1    0    0  504  501  0.00000000000E+00  0.00000000000E+00  0.43855259243E+03  0.43855259243E+03  0.00000000000E+00 0.  1.
         21   -1    0    0  505  502 -0.00000000000E+00 -0.00000000000E+00 -0.56965285890E+02  0.56965285890E+02  0.00000000000E+00 0.  1.
         21    1    1    2  503  502  0.39871592246E+02 -0.12531589976E+02  0.31056118007E+02  0.52069828896E+02  0.00000000000E+00 0.  1.
         21    1    1    2  504  506  0.56176991283E+01 -0.33007254864E+02  0.14823665671E+03  0.15197086501E+03  0.00000000000E+00 0.  1.
         21    1    1    2  505  501 -0.11113604229E+03  0.32044582625E+02  0.51797771003E+02  0.12673233310E+03  0.00000000000E+00 0.  1.
         21    1    1    2  506  503  0.65646750920E+02  0.13494262214E+02  0.15049676082E+03  0.16474485132E+03  0.00000000000E+00 0.  1.
<scales pt_clust_3="43.23352" pt_clust_4="33.48190" pt_clust_5="111.55435" pt_clust_6="43.23352"></scales>
<clustering>
<clus scale="   33.482">  1  4  2 -1</clus>
<clus scale="   43.234">  3  6 -1 -1</clus>
<clus scale="  111.554">  2  5  1 -1</clus>
<clus scale="   33.482">  1  3  2 -1</clus>
</clustering>
</event>
<event>
 6    0  0.4227619E+002  0.9919401E+02  0.7546771E-02  0.1282000E+00
         21   -1    0    0  505  501  0.00000000000E+00  0.00000000000E+00  0.26702917894E+03  0.26702917894E+03  0.00000000000E+00 0.  1.
         21   -1    0    0  504  502 -0.00000000000E+00 -0.00000000000E+00 -0.30307892383E+03  0.30307892383E+03  0.00000000000E+00 0.  1.
         21    1    1    2  503  501  0.66681741414E+02 -0.33465486933E+02  0.42715775784E+02  0.85971105346E+02  0.00000000000E+00 0.  1.
         21    1    1    2  504  503 -0.61376276168E+02  0.13331361944E+03 -0.17207386910E+03  0.22616141322E+03  0.00000000000E+00 0.  1.
         21    1    1    2  505  506  0.27401961559E+02 -0.25001046828E+02  0.15259971879E+03  0.15704328707E+03  0.00000000000E+00 0.  1.
         21    1    1    2  506  502 -0.32707426805E+02 -0.74847085675E+02 -0.59291370365E+02  0.10093229712E+03  0.00000000000E+00 0.  1.
<scales pt_clust_3="99.19401" pt_clust_4="14000.00000" pt_clust_5="37.09339" pt_clust_6="84.14907"></scales>
<clustering>
<clus scale="   37.093">  1  5  2 -1</clus>
<clus scale="   84.149">  2  6  1 -1</clus>
<clus scale="   99.194">  1  3  2 -1</clus>
<clus scale="   37.093">  1  3  2 -1</clus>
</clustering>
</event>
<event>
 6    0  0.4227619E+002  0.1287006E+03  0.7546771E-02  0.1229397E+00
         21   -1    0    0  503  501  0.00000000000E+00  0.00000000000E+00  0.29693509172E+02  0.29693509172E+02  0.00000000000E+00 0. -1.
         21   -1    0    0  504  502 -0.00000000000E+00 -0.00000000000E+00 -0.74648189650E+03  0.74648189650E+03  0.00000000000E+00 0. -1.
         21    1    1    2  503  505 -0.14273848379E+02 -0.89411464070E+02 -0.15951561645E+03  0.18342133068E+03  0.00000000000E+00 0. -1.
         21    1    1    2  504  506 -0.12828256956E+01  0.10761074013E+03 -0.28719791756E+03  0.30669913740E+03  0.00000000000E+00 0. -1.
         21    1    1    2  505  502 -0.24398519485E+02 -0.38550355016E+02 -0.17635700150E+03  0.18216259111E+03  0.00000000000E+00 0. -1.
         21    1    1    2  506  501  0.39955193559E+02  0.20351078957E+02 -0.93717851817E+02  0.10389234648E+03  0.00000000000E+00 0. -1.
<scales pt_clust_3="38.69386" pt_clust_4="116.58665" pt_clust_5="38.69386" pt_clust_6="44.83954"></scales>
<clustering>
<clus scale="   38.694">  3  5 -1 -1</clus>
<clus scale="   44.840">  1  6  2 -1</clus>
<clus scale="  116.587">  2  4  1 -1</clus>
<clus scale="   44.840">  1  3  2 -1</clus>
</clustering>
</event>
<event>
 6    0  0.4227619E+002  0.1321357E+03  0.7546771E-02  0.1224321E+00
         21   -1    0    0  504  501  0.00000000000E+00  0.00000000000E+00  0.11428660759E+04  0.11428660759E+04  0.00000000000E+00 0.  1.
         21   -1    0    0  503  502 -0.00000000000E+00 -0.00000000000E+00 -0.12062842424E+03  0.12062842424E+03  0.00000000000E+00 0.  1.
         21    1    1    2  503  506  0.62147497904E+02  0.85287821265E+01 -0.30235587971E+02  0.69636501925E+02  0.00000000000E+00 0.  1.
         21    1    1    2  504  502  0.52331365106E+02 -0.13622981554E+02  0.72005726324E+03  0.72208491173E+03  0.00000000000E+00 0.  1.
         21    1    1    2  505  501  0.84287376556E+02 -0.18824202064E+02  0.23250543275E+03  0.24802719344E+03  0.00000000000E+00 0.  1.
         21    1    1    2  506  505 -0.19876623957E+03  0.23918401491E+02  0.99910543636E+02  0.22374589304E+03  0.00000000000E+00 0.  1.
<scales pt_clust_3="65.07211" pt_clust_4="54.07548" pt_clust_5="132.13571" pt_clust_6="14000.00000"></scales>
<clustering>
<clus scale="   54.075">  1  4  2 -1</clus>
<clus scale="   65.072">  2  3  1 -1</clus>
<clus scale="  132.136">  1  5  2 -1</clus>
<clus scale="   54.075">  1  3  2 -1</clus>
</clustering>
</event>
<event>
 6    0  0.4227619E+002  0.7997202E+02  0.7546771E-02  0.1329131E+00
         21   -1    0    0  506  501  0.00000000000E+00  0.00000000000E+00  0.12413152236E+04  0.12413152236E+04  0.00000000000E+00 0. -1.
         21   -1    0    0  505  502 -0.00000000000E+00 -0.00000000000E+00 -0.44894896479E+02  0.44894896479E+02  0.00000000000E+00 0.  1.
         21    1    1    2  503  502  0.65056605255E+02  0.59231047030E+01  0.11744816639E+03  0.13439314285E+03  0.00000000000E+00 0.  1.
         21    1    1    2  504  501  0.43373230703E+02 -0.28013859130E+02  0.20707922215E+03  0.21341934704E+03  0.00000000000E+00 0.  1.
         21    1    1    2  505  504 -0.80823767953E+02 -0.35397547838E+02  0.28684130680E+02  0.92780640287E+02  0.00000000000E+00 0. -1.
         21    1    1    2  506  503 -0.27606068005E+02  0.57488302265E+02  0.84320880787E+03  0.84561698987E+03  0.00000000000E+00 0. -1.
<scales pt_clust_3="79.97202" pt_clust_4="51.63345" pt_clust_5="14000.00000" pt_clust_6="35.44098"></scales>
<clustering>
<clus scale="   51.633">  1  4  2 -1</clus>
<clus scale="   35.441">  1  6  2 -1</clus>
<clus scale="   79.972">  1  3  2 -1</clus>
<clus scale="   51.633">  1  3  2 -1</clus>
</clustering>
</event>
<event>
 6    0  0.4227619E+002  0.2346596E+03  0.7546771E-02  0.1123402E+00
         21   -1    0    0  504  501  0.00000000000E+00  0.00000000000E+00  0.11407941099E+04  0.11407941099E+04  0.00000000000E+00 0.  1.
         21   -1    0    0  501  502 -0.00000000000E+00 -0.00000000000E+00 -0.51400317733E+03  0.51400317733E+03  0.00000000000E+00 0.  1.
         21    1    1    2  503  502 -0.48543563688E+02 -0.13186224987E+02 -0.24613674922E+03  0.25122430897E+03  0.00000000000E+00 0.  1.
         21    1    1    2  504  505  0.51071072513E+02  0.36927866618E+02  0.56236893453E+03  0.56588933574E+03  0.00000000000E+00 0. -1.
         21    1    1    2  505  506  0.10527226908E+03  0.11211727499E+03  0.53350167254E+03  0.55522659211E+03  0.00000000000E+00 0.  1.
         21    1    1    2  506  503 -0.10779977791E+03 -0.13585891662E+03 -0.22294292533E+03  0.28245705035E+03  0.00000000000E+00 0.  1.
<scales pt_clust_3="50.30263" pt_clust_4="61.97012" pt_clust_5="61.97012" pt_clust_6="213.90252"></scales>
<clustering>
<clus scale="   50.303">  2  3  1 -1</clus>
<clus scale="   61.970">  4  5 -1 -1</clus>
<clus scale="  213.903">  2  6  1 -1</clus>
<clus scale="  234.660">  1  3  2 -1</clus>
</clustering>
</event>
<event>
 6    0  0.4227619E+002  0.9054277E+02  0.7546771E-02  0.1301543E+00
         21   -1    0    0  503  501  0.00000000000E+00  0.00000000000E+00  0.30780675375E+03  0.30780675375E+03  0.00000000000E+00 0. -1.
         21   -1    0    0  504  502 -0.00000000000E+00 -0.00000000000E+00 -0.75731952437E+03  0.75731952437E+03  0.00000000000E+00 0. -1.
         21    1    1    2  503  502 -0.18288851174E+01  0.50203782392E+02  0.25324207975E+03  0.25817690745E+03  0.00000000000E+00 0. -1.
         21    1    1    2  504  505 -0.93662805491E+02  0.23286771871E+02 -0.61526707895E+03  0.62279095475E+03  0.00000000000E+00 0. -1.
         21    1    1    2  505  506  0.55441699004E+02 -0.57483329845E+02 -0.10966267838E+03  0.13566141024E+03  0.00000000000E+00 0. -1.
         21    1    1    2  506  501  0.40049991604E+02 -0.16007224418E+02  0.22174906958E+02  0.48497005677E+02  0.00000000000E+00 0. -1.
<scales pt_clust_3="50.16286" pt_clust_4="14000.00000" pt_clust_5="90.54277" pt_clust_6="43.13042"></scales>
<clustering>
<clus scale="   43.130">  1  6  2 -1</clus>
<clus scale="   50.163">  1  3  2 -1</clus>
<clus scale="   90.543">  1  5  2 -1</clus>
<clus scale="   43.130">  1  3  2 -1</clus>
</clustering>
</event>
<event>
 6    0  0.4227619E+002  0.1393043E+03  0.7546771E-02  0.1214268E+00
         21   -1    0    0  506  501  0.00000000000E+00  0.00000000000E+00  0.14294166163E+04  0.14294166163E+04  0.00000000000E+00 0. -1.
         21   -1    0    0  504  502 -0.00000000000E+00 -0.00000000000E+00 -0.27425312229E+03  0.27425312229E+03  0.00000000000E+00 0.  1.
         21    1    1    2  503  502 -0.16600598972E+02 -0.38571817087E+02  0.82162323220E+01  0.42788683471E+02  0.00000000000E+00 0. -1.
         21    1    1    2  504  505 -0.55913466032E+02 -0.77292827055E+02 -0.20094155167E+03  0.22243651676E+03  0.00000000000E+00 0.  1.
         21    1    1    2  505  501 -0.33537117332E+02 -0.40809584010E+02  0.11923629467E+04  0.11935323863E+04  0.00000000000E+00 0. -1.
         21    1    1    2  506  503  0.10605118234E+03  0.15667422815E+03  0.15552586663E+03  0.24491215208E+03  0.00000000000E+00 0.  1.
<scales pt_clust_3="41.99244" pt_clust_4="14000.00000" pt_clust_5="52.91377" pt_clust_6="139.30426"></scales>
<clustering>
<clus scale="   41.992">  2  3  1 -1</clus>
<clus scale="   52.914">  1  5  2 -1</clus>
<clus scale="  139.304">  1  6  2 -1</clus>
<clus scale="   52.914">  1  3  2 -1</clus>
</clustering>
</event>
<event>
 6    0  0.4227619E+002  0.1159804E+03  0.7546771E-02  0.1249879E+00
         21   -1    0    0  504  501  0.00000000000E+00  0.00000000000E+00  0.10608060816E+04  0.10608060816E+04  0.00000000000E+00 0.  1.
         21   -1    0    0  505  502 -0.00000000000E+00 -0.00000000000E+00 -0.28526423075E+03  0.28526423075E+03  0.00000000000E+00 0.  1.
         21    1    1    2  503  502 -0.84778021222E+02  0.68766013681E+02  0.96593185233E+02  0.14576117780E+03  0.00000000000E+00 0.  1.
         21    1    1    2  504  503  0.27099200800E+02 -0.20645373142E+02  0.49813199959E+03  0.49929559094E+03  0.00000000000E+00 0.  1.
         21    1    1    2  505  506  0.11685941028E+02  0.39706747449E+02 -0.25282115241E+03  0.25618688904E+03  0.00000000000E+00 0.  1.
         21    1    1    2  506  501  0.45992879395E+02 -0.87827387988E+02  0.43363781844E+03  0.44482665457E+03  0.00000000000E+00 0. -1.
<scales pt_clust_3="14000.00000" pt_clust_4="34.06755" pt_clust_5="41.35438" pt_clust_6="115.98035"></scales>
<clustering>
<clus scale="   34.068">  1  4  2 -1</clus>
<clus scale="   41.354">  2  5  1 -1</clus>
<clus scale="  115.980">  1  6  2 -1</clus>
<clus scale="   34.068">  1  3  2 -1</clus>
</clustering>
</event>
<event>
 6    0  0.4227619E+002  0.1429944E+03  0.7546771E-02  0.1209356E+00
         21   -1    0    0  503  501  0.00000000000E+00  0.00000000000E+00  0.27935744272E+03  0.27935744272E+03  0.00000000000E+00 0.  1.
         21   -1    0    0  506  502 -0.00000000000E+00 -0.00000000000E+00 -0.22573276176E+04  0.22573276176E+04  0.00000000000E+00 0. -1.
         21    1    1    2  503  504  0.56740283905E+02 -0.27246413441E+02  0.20179817900E+03  0.21138668811E+03  0.00000000000E+00 0.  1.
         21    1    1    2  504  502 -0.24937480114E+02  0.27113804534E+02 -0.70344037830E+02  0.79406044914E+02  0.00000000000E+00 0.  1.
         21    1    1    2  505  501  0.16726244457E+02 -0.10198188310E+03  0.26732281761E+02  0.10674589745E+03  0.00000000000E+00 0.  1.
         21    1    1    2  506  505 -0.48529048248E+02  0.10211449201E+03 -0.21361565978E+04  0.21391464298E+04  0.00000000000E+00 0. -1.
<scales pt_clust_3="62.86789" pt_clust_4="36.83797" pt_clust_5="14000.00000" pt_clust_6="142.99442"></scales>
<clustering>
<clus scale="   36.838">  2  4  1 -1</clus>
<clus scale="   62.868">  1  3  2 -1</clus>
<clus scale="  142.994">  2  6  1 -1</clus>
<clus scale="   62.868">  1  3  2 -1</clus>
</clustering>
</event>
<event>
 6    0  0.4227619E+002  0.1256870E+03  0.7546771E-02  0.1233999E+00
         21   -1    0    0  505  501  0.00000000000E+00  0.00000000000E+00  0.26697380571E+03  0.26697380571E+03  0.00000000000E+00 0.  1.
         21   -1    0    0  504  502 -0.00000000000E+00 -0.00000000000E+00 -0.30795105719E+03  0.30795105719E+03  0.00000000000E+00 0.  1.
         21    1    1    2  503  501  0.27722738318E+02  0.27468394870E+02  0.19960099275E+02  0.43834558281E+02  0.00000000000E+00 0. -1.
         21    1    1    2  504  506 -0.28251512256E+02  0.24496533399E+02 -0.10277078232E+03  0.10936206742E+03  0.00000000000E+00 0. -1.
         21    1    1    2  505  502 -0.10397159519E+03 -0.29047738180E+02 -0.16016422547E+03  0.19314875826E+03  0.00000000000E+00 0.  1.
         21    1    1    2  506  503  0.10450036913E+03 -0.22917190089E+02  0.20199765702E+03  0.22857947894E+03  0.00000000000E+00 0.  1.
<scales pt_clust_3="38.92177" pt_clust_4="37.39289" pt_clust_5="125.68704" pt_clust_6="14000.00000"></scales>
<clustering>
<clus scale="   37.393">  2  4  1 -1</clus>
<clus scale="   38.922">  1  3  2 -1</clus>
<clus scale="  125.687">  2  5  1 -1</clus>
<clus scale="   38.922">  1  3  2 -1</clus>
</clustering>
</event>
<event>
 6    0  0.4227619E+002  0.7970332E+02  0.7546771E-02  0.1329895E+00
         21   -1    0    0  504  501  0.00000000000E+00  0.00000000000E+00  0.45677061981E+03  0.45677061981E+03  0.00000000000E+00 0. -1.
         21   -1    0    0  503  502 -0.00000000000E+00 -0.00000000000E+00 -0.21588502205E+03  0.21588502205E+03  0.00000000000E+00 0. -1.
         21    1    1    2  503  501  0.83004884417E+02 -0.72156669218E+02 -0.90863461670E+02  0.14266241417E+03  0.00000000000E+00 0. -1.
         21    1    1    2  504  506  0.28999230836E+02  0.11497744542E+02  0.33845061234E+03  0.33988523138E+03  0.00000000000E+00 0. -1.
         21    1    1    2  505  502 -0.41340279894E+02  0.50245791269E+02 -0.69353065150E+02  0.95097349740E+02  0.00000000000E+00 0. -1.
         21    1    1    2  506  505 -0.70663835359E+02  0.10413133406E+02  0.62651512244E+02  0.95010646569E+02  0.00000000000E+00 0. -1.
<scales pt_clust_3="14000.00000" pt_clust_4="31.19541" pt_clust_5="79.70332" pt_clust_6="54.33563"></scales>
<clustering>
<clus scale="   31.195">  1  4  2 -1</clus>
<clus scale="   54.336">  1  6  2 -1</clus>
<clus scale="   79.703">  2  5  1 -1</clus>
<clus scale="   31.195">  1  3  2 -1</clus>
</clustering>
</event>
<event>
 6    0  0.4227619E+002  0.1389217E+03  0.7546771E-02  0.1214787E+00
         21   -1    0    0  503  501  0.00000000000E+00  0.00000000000E+00  0.70382013496E+03  0.70382013496E+03  0.00000000000E+00 0.  1.
         21   -1    0    0  506  502 -0.00000000000E+00 -0.00000000000E+00 -0.55380146465E+02  0.55380146465E+02  0.00000000000E+00 0.  1.
         21    1    1    2  503  505 -0.15959641124E+02 -0.71391453254E+02  0.11307569716E+03  0.13467577002E+03  0.00000000000E+00 0.  1.
         21    1    1    2  504  501  0.15581574818E+02 -0.68788114529E+02  0.27607110757E+03  0.28493832071E+03  0.00000000000E+00 0.  1.
         21    1    1    2  505  502  0.23919927045E+01 -0.34451108985E+02  0.11429785553E+02  0.36376373337E+02  0.00000000000E+00 0.  1.
         21    1    1    2  506  504 -0.20139263989E+01  0.17463067677E+03  0.24786339821E+03  0.30320981735E+03  0.00000000000E+00 0.  1.
<scales pt_clust_3="33.45223" pt_clust_4="70.53077" pt_clust_5="33.45223" pt_clust_6="130.11053"></scales>
<clustering>
<clus scale="   33.452">  3  5 -1 -1</clus>
<clus scale="   70.531">  1  4  2 -1</clus>
<clus scale="  130.111">  1  6  2 -1</clus>
<clus scale="   70.531">  1  3  2 -1</clus>
</clustering>
</event>
<event>
 6    0  0.4227619E+002  0.9093320E+02  0.7546771E-02  0.1300607E+00
         21   -1    0    0  503  501  0.00000000000E+00  0.00000000000E+00  0.93555677117E+02  0.93555677117E+02  0.00000000000E+00 0. -1.
         21   -1    0    0  506  502 -0.00000000000E+00 -0.00000000000E+00 -0.34222725013E+03  0.34222725013E+03  0.00000000000E+00 0. -1.
         21    1    1    2  503  505  0.24184807936E+02 -0.39007830434E+02  0.33294017797E+02  0.56701035186E+02  0.00000000000E+00 0. -1.
         21    1    1    2  504  502  0.35740823608E+02 -0.26988564199E+02 -0.71177017039E+02  0.84094927459E+02  0.00000000000E+00 0. -1.
         21    1    1    2  505  504  0.66592933577E+02  0.16374531562E+02 -0.52525766964E+02  0.86381133827E+02  0.00000000000E+00 0. -1.
         21    1    1    2  506  501 -0.12651856512E+03  0.49621863071E+02 -0.15826280681E+03  0.20860583077E+03  0.00000000000E+00 0. -1.
<scales pt_clust_3="47.74977" pt_clust_4="44.78604" pt_clust_5="14000.00000" pt_clust_6="90.93320"></scales>
<clustering>
<clus scale="   44.786">  2  4  1 -1</clus>
<clus scale="   47.750">  1  3  2 -1</clus>
<clus scale="   90.933">  2  6  1 -1</clus>
<clus scale="   47.750">  1  3  2 -1</clus>
</clustering>
</event>
<event>
 6    0  0.4227619E+002  0.6750245E+02  0.7546771E-02  0.1368798E+00
         21   -1    0    0  504  501  0.00000000000E+00  0.00000000000E+00  0.55110826157E+03  0.55110826157E+03  0.00000000000E+00 0. -1.
         21   -1    0    0  505  502 -0.00000000000E+00 -0.00000000000E+00 -0.53689338012E+02  0.53689338012E+02  0.00000000000E+00 0. -1.
         21    1    1    2  503  502 -0.44718997142E+02  0.15054247780E+02  0.25384492898E+02  0.53579768208E+02  0.00000000000E+00 0.  1.
         21    1    1    2  504  503 -0.86462908683E+02 -0.54032526094E+00  0.33967963414E+03  0.35051159807E+03  0.00000000000E+00 0. -1.
         21    1    1    2  505  506  0.96219295498E+02 -0.22962802714E+02  0.50001072257E+02  0.11084020192E+03  0.00000000000E+00 0. -1.
         21    1    1    2  506  501  0.34962610327E+02  0.84488801946E+01  0.82353724265E+02  0.89866031390E+02  0.00000000000E+00 0. -1.
<scales pt_clust_3="44.63002" pt_clust_4="67.50245" pt_clust_5="14000.00000" pt_clust_6="35.96898"></scales>
<clustering>
<clus scale="   35.969">  1  6  2 -1</clus>
<clus scale="   44.630">  2  3  1 -1</clus>
<clus scale="   67.502">  1  4  2 -1</clus>
<clus scale="   35.969">  1  3  2 -1</clus>
</clustering>
</event>
<event>
 6    0  0.4227619E+002  0.1472323E+03  0.7546771E-02  0.1203916E+00
         21   -1    0    0  502  501  0.00000000000E+00  0.00000000000E+00  0.11250188120E+04  0.11250188120E+04  0.00000000000E+00 0. -1.
         21   -1    0    0  506  502 -0.00000000000E+00 -0.00000000000E+00 -0.20750219803E+03  0.20750219803E+03  0.00000000000E+00 0. -1.
         21    1    1    2  503  504  0.77400021366E+02 -0.14876717146E+02 -0.76410989801E+02  0.10977576865E+03  0.00000000000E+00 0. -1.
         21    1    1    2  504  505 -0.15941148384E+03  0.83506291020E+02  0.26408243473E+03  0.31956979543E+03  0.00000000000E+00 0. -1.
         21    1    1    2  505  501  0.33414670703E+02 -0.26097244456E+02  0.80384264447E+03  0.80496000115E+03  0.00000000000E+00 0. -1.
         21    1    1    2  506  503  0.48596791775E+02 -0.42532329418E+02 -0.73997475457E+02  0.98215444766E+02  0.00000000000E+00 0. -1.
<scales pt_clust_3="34.66600" pt_clust_4="142.16438" pt_clust_5="42.39819" pt_clust_6="34.66600"></scales>
<clustering>
<clus scale="   34.666">  3  6 -1 -1</clus>
<clus scale="   42.398">  1  5  2 -1</clus>
<clus scale="  142.164">  1  4  2 -1</clus>
<clus scale="   42.398">  1  3  2 -1</clus>
</clustering>
</event>
<event>
 6    0  0.4227619E+002  0.1436681E+03  0.7546771E-02  0.1208477E+00
         21   -1    0    0  503  501  0.00000000000E+00  0.00000000000E+00  0.87642363673E+03  0.87642363673E+03  0.00000000000E+00 0.  1.
         21   -1    0    0  505  502 -0.00000000000E+00 -0.00000000000E+00 -0.31373555263E+03  0.31373555263E+03  0.00000000000E+00 0.  1.
         21    1    1    2  503  504  0.48072856736E+01 -0.45552978451E+02  0.37392242246E+03  0.37671761555E+03  0.00000000000E+00 0.  1.
         21    1    1    2  504  502  0.21867984732E+03  0.79931404383E+02  0.15080419091E+03  0.27740189082E+03  0.00000000000E+00 0. -1.
         21    1    1    2  505  506 -0.11323890249E+03  0.68239847758E+00 -0.22326534268E+03  0.25034162249E+03  0.00000000000E+00 0.  1.
         21    1    1    2  506  501 -0.11024823050E+03 -0.35060824410E+02  0.26122681340E+03  0.28569806051E+03  0.00000000000E+00 0.  1.
<scales pt_clust_3="45.80594" pt_clust_4="14000.00000" pt_clust_5="113.11035" pt_clust_6="143.66813"></scales>
<clustering>
<clus scale="   45.806">  1  3  2 -1</clus>
<clus scale="  113.110">  2  5  1 -1</clus>
<clus scale="  143.668">  1  6  2 -1</clus>
<clus scale="   45.806">  1  3  2 -1</clus>
</clustering>
</event>
<event>
 6    0  0.4227619E+002  0.7071965E+02  0.7546771E-02  0.1357663E+00
         21   -1    0    0  503  501  0.00000000000E+00  0.00000000000E+00  0.21786030826E+03  0.21786030826E+03  0.00000000000E+00 0. -1.
         21   -1    0    0  505  502 -0.00000000000E+00 -0.00000000000E+00 -0.21038176741E+03  0.21038176741E+03  0.00000000000E+00 0. -1.
         21    1    1    2  503  506 -0.77314938893E+02 -0.12421858183E+02  0.10142175308E+03  0.12813381418E+03  0.00000000000E+00 0. -1.
         21    1    1    2  504  501  0.33993156561E+02  0.24283276473E+02  0.51249170350E+02  0.66118754305E+02  0.00000000000E+00 0. -1.
         21    1    1    2  505  504  0.10514188035E+03 -0.22212450060E+01 -0.41857889802E+02  0.11318936289E+03  0.00000000000E+00 0. -1.
         21    1    1    2  506  502 -0.61820098022E+02 -0.96401732848E+01 -0.10333449279E+03  0.12080014429E+03  0.00000000000E+00 0. -1.
<scales pt_clust_3="53.04797" pt_clust_4="41.77574" pt_clust_5="14000.00000" pt_clust_6="70.71965"></scales>
<clustering>
<clus scale="   41.776">  1  4  2 -1</clus>
<clus scale="   53.048">  1  3  2 -1</clus>
<clus scale="   70.720">  2  6  1 -1</clus>
<clus scale="   41.776">  1  3  2 -1</clus>
</clustering>
</event>
<event>
 6    0  0.4227619E+002  0.6268537E+02  0.7546771E-02  0.1386896E+00
         21   -1    0    0  503  501  0.00000000000E+00  0.00000000000E+00  0.18311942356E+03  0.18311942356E+03  0.00000000000E+00 0.  1.
         21   -1    0    0  506  502 -0.00000000000E+00 -0.00000000000E+00 -0.16015335757E+03  0.16015335757E+03  0.00000000000E+00 0.  1.
         21    1    1    2  503  502 -0.28212261085E+02  0.55469551700E+02  0.82215447690E+02  0.10311247587E+03  0.00000000000E+00 0.  1.
         21    1    1    2  504  501  0.64173365349E+02 -0.33941230670E+02  0.32988253844E+02  0.79739907519E+02  0.00000000000E+00 0.  1.
         21    1    1    2  505  504 -0.76530469244E+01 -0.66215123061E+02 -0.17604228017E+02  0.68941427990E+02  0.00000000000E+00 0.  1.
         21    1    1    2  506  505 -0.28308057339E+02  0.44686802031E+02 -0.74633407527E+02  0.91478969742E+02  0.00000000000E+00 0.  1.
<scales pt_clust_3="14000.00000" pt_clust_4="62.68537" pt_clust_5="47.39382" pt_clust_6="52.89855"></scales>
<clustering>
<clus scale="   52.899">  2  6  1 -1</clus>
<clus scale="   47.394">  2  5  1 -1</clus>
<clus scale="   62.685">  2  4  1 -1</clus>
<clus scale="   62.685">  1  3  2 -1</clus>
</clustering>
</event>
<event>
 6    0  0.4227619E+002  0.1814193E+03  0.7546771E-02  0.1166436E+00
         21   -1    0    0  503  501  0.00000000000E+00  0.00000000000E+00  0.41096534667E+03  0.41096534667E+03  0.00000000000E+00 0.  1.
         21   -1    0    0  504  502 -0.00000000000E+00 -0.00000000000E+00 -0.71187555226E+03  0.71187555226E+03  0.00000000000E+00 0.  1.
         21    1    1    2  503  506  0.14763197047E+03  0.51968383422E+02 -0.59742705858E+02  0.16752642324E+03  0.00000000000E+00 0.  1.
         21    1    1    2  504  505 -0.21446971021E+03 -0.24612564794E+02 -0.21265656187E+03  0.30302780112E+03  0.00000000000E+00 0.  1.
         21    1    1    2  505  501  0.28904856013E+02 -0.17626978561E+02  0.30983641746E+03  0.31168061643E+03  0.00000000000E+00 0.  1.
         21    1    1    2  506  502  0.37932883733E+02 -0.97288400664E+01 -0.33834735532E+03  0.34060605815E+03  0.00000000000E+00 0.  1.
<scales pt_clust_3="14000.00000" pt_clust_4="181.41935" pt_clust_5="33.85559" pt_clust_6="39.52568"></scales>
<clustering>
<clus scale="   33.856">  1  5  2 -1</clus>
<clus scale="   39.526">  2  6  1 -1</clus>
<clus scale="  181.419">  2  4  1 -1</clus>
<clus scale="   33.856">  1  3  2 -1</clus>
</clustering>
</event>
<event>
 6    0  0.4227619E+002  0.9621840E+02  0.7546771E-02  0.1288455E+00
         21   -1    0    0  505  501  0.00000000000E+00  0.00000000000E+00  0.28179027589E+03  0.28179027589E+03  0.00000000000E+00 0. -1.
         21   -1    0    0  503  502 -0.00000000000E+00 -0.00000000000E+00 -0.13643936133E+03  0.13643936133E+03  0.00000000000E+00 0. -1.
         21    1    1    2  503  501 -0.52860625442E+02  0.42035498339E+01  0.89933337842E+02  0.10440268583E+03  0.00000000000E+00 0. -1.
         21    1    1    2  504  502  0.30584093148E+02  0.14281001675E+02 -0.17102143608E+02  0.37839358854E+02  0.00000000000E+00 0. -1.
         21    1    1    2  505  506  0.12340079515E+02 -0.99486983426E+02  0.13854727189E+03  0.17101252580E+03  0.00000000000E+00 0. -1.
         21    1    1    2  506  504  0.99364527798E+01  0.81002431917E+02 -0.66027551560E+02  0.10497506673E+03  0.00000000000E+00 0. -1.
<scales pt_clust_3="51.09048" pt_clust_4="33.75402" pt_clust_5="96.21840" pt_clust_6="14000.00000"></scales>
<clustering>
<clus scale="   33.754">  2  4  1 -1</clus>
<clus scale="   51.090">  1  3  2 -1</clus>
<clus scale="   96.218">  1  5  2 -1</clus>
<clus scale="   51.090">  1  3  2 -1</clus>
</clustering>
</event>
<event>
 6    0  0.4227619E+002  0.9097131E+02  0.7546771E-02  0.1300516E+00
         21   -1    0    0  505  501  0.00000000000E+00  0.00000000000E+00  0.44937031576E+03  0.44937031576E+03  0.00000000000E+00 0. -1.
         21   -1    0    0  503  502 -0.00000000000E+00 -0.00000000000E+00 -0.53458620513E+03  0.53458620513E+03  0.00000000000E+00 0. -1.
         21    1    1    2  503  504 -0.57218142183E+02 -0.87337657255E+02 -0.28363613342E+03  0.30224367380E+03  0.00000000000E+00 0. -1.
         21    1    1    2  504  501  0.76674296609E+02 -0.65368594464E+02 -0.12536048327E+03  0.16083299310E+03  0.00000000000E+00 0. -1.
         21    1    1    2  505  506 -0.39235016289E+02  0.82020588588E+02  0.40285578825E+03  0.41298855866E+03  0.00000000000E+00 0. -1.
         21    1    1    2  506  502  0.19778861864E+02  0.70685663131E+02 -0.79075060927E+02  0.10789129534E+03  0.00000000000E+00 0. -1.
<scales pt_clust_3="59.79159" pt_clust_4="14000.00000" pt_clust_5="90.97131" pt_clust_6="73.40072"></scales>
<clustering>
<clus scale="   73.401">  2  6  1 -1</clus>
<clus scale="   59.792">  2  3  1 -1</clus>
<clus scale="   90.971">  1  5  2 -1</clus>
<clus scale="   90.971">  1  3  2 -1</clus>
</clustering>
</event>
<event>
 6    0  0.4227619E+002  0.1042706E+03  0.7546771E-02  0.1271563E+00
         21   -1    0    0  503  501  0.00000000000E+00  0.00000000000E+00  0.12371503872E+04  0.12371503872E+04  0.00000000000E+00 0. -1.
         21   -1    0    0  501  502 -0.00000000000E+00 -0.00000000000E+00 -0.10413731743E+03  0.10413731743E+03  0.00000000000E+00 0.  1.
         21    1    1    2  503  506  0.23951744163E+02  0.21074163799E+02  0.85555503047E+03  0.85614964614E+03  0.00000000000E+00 0. -1.
         21    1    1    2  504  502 -0.42441769840E+02 -0.32716332876E+02 -0.49319590902E+02  0.72829144652E+02  0.00000000000E+00 0.  1.
         21    1    1    2  505  504 -0.67224337831E+02  0.63595903427E+02  0.27268037024E+02  0.96473293572E+02  0.00000000000E+00 0.  1.
         21    1    1    2  506  505  0.85714363509E+02 -0.51953734350E+02  0.29950959320E+03  0.31583562029E+03  0.00000000000E+00 0.  1.
<scales pt_clust_3="31.90308" pt_clust_4="52.60648" pt_clust_5="14000.00000" pt_clust_6="104.27057"></scales>
<clustering>
<clus scale="   31.903">  1  3  2 -1</clus>
<clus scale="   52.606">  2  4  1 -1</clus>
<clus scale="  104.271">  1  6  2 -1</clus>
<clus scale="   31.903">  1  3  2 -1</clus>
</clustering>
</event>
<event>
 6    0  0.4227619E+002  0.1051746E+03  0.7546771E-02  0.1269776E+00
         21   -1    0    0  503  501  0.00000000000E+00  0.00000000000E+00  0.13281215761E+03  0.13281215761E+03  0.00000000000E+00 0. -1.
         21   -1    0    0  505  502 -0.00000000000E+00 -0.00000000000E+00 -0.50718936977E+03  0.50718936977E+03  0.00000000000E+00 0.  1.
         21    1    1    2  503  506  0.67564318824E+01  0.38046022020E+02  0.52856905789E+02  0.65475198762E+02  0.00000000000E+00 0. -1.
         21    1    1    2  504  501 -0.13019389818E+02 -0.47098680104E+02  0.84779617089E+01  0.49595020048E+02  0.00000000000E+00 0. -1.
         21    1    1    2  505  504  0.10983386726E+02 -0.10331488676E+03 -0.38987732207E+03  0.40348349021E+03  0.00000000000E+00 0.  1.
         21    1    1    2  506  502 -0.47204287902E+01  0.11236754484E+03 -0.45834757597E+02  0.12144781836E+03  0.00000000000E+00 0. -1.
<scales pt_clust_3="38.64129" pt_clust_4="33.72736" pt_clust_5="14000.00000" pt_clust_6="105.17462"></scales>
<clustering>
<clus scale="   38.641">  1  3  2 -1</clus>
<clus scale="   33.727">  1  4  2 -1</clus>
<clus scale="  105.175">  1  6  2 -1</clus>
<clus scale="   38.641">  1  3  2 -1</clus>
</clustering>
</event>
<event>
 6    0  0.4227619E+002  0.1411130E+03  0.7546771E-02  0.1211839E+00
         21   -1    0    0  503  501  0.00000000000E+00  0.00000000000E+00  0.25548969267E+03  0.25548969267E+03  0.00000000000E+00 0.  1.
         21   -1    0    0  506  502 -0.00000000000E+00 -0.00000000000E+00 -0.66317867231E+03  0.66317867231E+03  0.00000000000E+00 0.  1.
         21    1    1    2  503  505  0.44268614304E+01  0.36898584851E+02  0.10669429553E+03  0.11298130538E+03  0.00000000000E+00 0.  1.
         21    1    1    2  504  502 -0.99587997425E+02  0.10170981594E+03  0.68906475561E+02  0.15814789996E+03  0.00000000000E+00 0.  1.
         21    1    1    2  505  504  0.62226795837E+02  0.30310636908E-01 -0.18307468713E+02  0.64863999642E+02  0.00000000000E+00 0.  1.
         21    1    1    2  506  501  0.32934340157E+02 -0.13863871142E+03 -0.56498228202E+03  0.58267515999E+03  0.00000000000E+00 0.  1.
<scales pt_clust_3="37.16319" pt_clust_4="141.11296" pt_clust_5="63.21283" pt_clust_6="14000.00000"></scales>
<clustering>
<clus scale="   37.163">  1  3  2 -1</clus>
<clus scale="   63.213">  1  5  2 -1</clus>
<clus scale="  141.113">  1  4  2 -1</clus>
<clus scale="   37.163">  1  3  2 -1</clus>
</clustering>
</event>
<event>
 6    0  0.4227619E+002  0.1141197E+03  0.7546771E-02  0.1253126E+00
         21   -1    0    0  505  501  0.00000000000E+00  0.00000000000E+00  0.36653184808E+03  0.36653184808E+03  0.00000000000E+00 0.  1.
         21   -1    0    0  504  502 -0.00000000000E+00 -0.00000000000E+00 -0.79616095504E+03  0.79616095504E+03  0.00000000000E+00 0. -1.
         21    1    1    2  503  502 -0.47567155836E+02  0.19131507671E+02 -0.53236855466E+03  0.53483168090E+03  0.00000000000E+00 0. -1.
         21    1    1    2  504  501 -0.31272896282E+02 -0.28712905069E+02  0.27166554460E+03  0.27496289401E+03  0.00000000000E+00 0.  1.
         21    1    1    2  505  506 -0.83722390839E+02  0.20178747824E+02  0.34072545719E+02  0.92615111960E+02  0.00000000000E+00 0.  1.
         21    1    1    2  506  503  0.16256244296E+03 -0.10597350426E+02 -0.20299864262E+03  0.26028311625E+03  0.00000000000E+00 0.  1.
<scales pt_clust_3="51.51461" pt_clust_4="42.45498" pt_clust_5="114.11973" pt_clust_6="14000.00000"></scales>
<clustering>
<clus scale="   42.455">  1  4  2 -1</clus>
<clus scale="   51.515">  2  3  1 -1</clus>
<clus scale="  114.120">  1  5  2 -1</clus>
<clus scale="   42.455">  1  3  2 -1</clus>
</clustering>
</event>
<event>
 6    0  0.4227619E+002  0.1079265E+03  0.7546771E-02  0.1264459E+00
         21   -1    0    0  505  501  0.00000000000E+00  0.00000000000E+00  0.21854320495E+03  0.21854320495E+03  0.00000000000E+00 0.  1.
         21   -1    0    0  503  502 -0.00000000000E+00 -0.00000000000E+00 -0.12430409735E+04  0.12430409735E+04  0.00000000000E+00 0.  1.
         21    1    1    2  503  506  0.45882067213E+02  0.11164468939E+03 -0.39007169517E+03  0.40832049683E+03  0.00000000000E+00 0.  1.
         21    1    1    2  504  502  0.18610279094E+02 -0.26310350703E+02 -0.79962322286E+03  0.80027237587E+03  0.00000000000E+00 0.  1.
         21    1    1    2  505  504 -0.35114176235E+02  0.23973635883E+02 -0.10681911512E+02  0.43838839214E+02  0.00000000000E+00 0.  1.
         21    1    1    2  506  501 -0.29378170073E+02 -0.10930797457E+03  0.17587906097E+03  0.20915246656E+03  0.00000000000E+00 0.  1.
<scales pt_clust_3="107.92651" pt_clust_4="32.22696" pt_clust_5="40.66511" pt_clust_6="14000.00000"></scales>
<clustering>
<clus scale="   32.227">  2  4  1 -1</clus>
<clus scale="   40.665">  1  5  2 -1</clus>
<clus scale="  107.927">  2  3  1 -1</clus>
<clus scale="   40.665">  1  3  2 -1</clus>
</clustering>
</event>
<event>
 6    0  0.4227619E+002  0.1237737E+03  0.7546771E-02  0.1236998E+00
         21   -1    0    0  506  501  0.00000000000E+00  0.00000000000E+00  0.68679894295E+03  0.68679894295E+03  0.00000000000E+00 0. -1.
         21   -1    0    0  505  502 -0.00000000000E+00 -0.00000000000E+00 -0.12642213334E+04  0.12642213334E+04  0.00000000000E+00 0. -1.
         21    1    1    2  503  501  0.50292885251E+02 -0.30169448038E+02  0.42126080012E+03  0.42532367865E+03  0.00000000000E+00 0. -1.
         21    1    1    2  504  502 -0.80524706305E+02  0.94327230662E+02 -0.12301696763E+04  0.12364057940E+04  0.00000000000E+00 0. -1.
         21    1    1    2  505  503  0.41794357553E+02 -0.10213070256E+03  0.22283861964E+03  0.24866543614E+03  0.00000000000E+00 0. -1.
         21    1    1    2  506  504 -0.11562536499E+02  0.37972919934E+02  0.86478661688E+01  0.40625367542E+02  0.00000000000E+00 0. -1.
<scales pt_clust_3="43.30456" pt_clust_4="14000.00000" pt_clust_5="123.77365" pt_clust_6="39.69427"></scales>
<clustering>
<clus scale="   39.694">  1  6  2 -1</clus>
<clus scale="   43.305">  1  3  2 -1</clus>
<clus scale="  123.774">  1  5  2 -1</clus>
<clus scale="   39.694">  1  3  2 -1</clus>
</clustering>
</event>
<event>
 6    0  0.4227619E+002  0.1749839E+03  0.7546771E-02  0.1172748E+00
         21   -1    0    0  505  501  0.00000000000E+00  0.00000000000E+00  0.14172298183E+04  0.14172298183E+04  0.00000000000E+00 0. -1.
         21   -1    0    0  504  502 -0.00000000000E+00 -0.00000000000E+00 -0.28806849809E+03  0.28806849809E+03  0.00000000000E+00 0. -1.
         21    1    1    2  503  506 -0.14697152155E+03 -0.10170705426E+03  0.10576769822E+04  0.10726721548E+04  0.00000000000E+00 0. -1.
         21    1    1    2  504  503  0.12811592335E+03  0.11911148703E+03 -0.24268047025E+03  0.29915722756E+03  0.00000000000E+00 0. -1.
         21    1    1    2  505  502  0.62977788015E+02 -0.42983752087E+01  0.21626028294E+03  0.22528468166E+03  0.00000000000E+00 0. -1.
         21    1    1    2  506  501 -0.44122189820E+02 -0.13106057559E+02  0.97904525356E+02  0.10818425239E+03  0.00000000000E+00 0. -1.
<scales pt_clust_3="14000.00000" pt_clust_4="174.98392" pt_clust_5="55.94452" pt_clust_6="46.02756"></scales>
<clustering>
<clus scale="   46.028">  1  6  2 -1</clus>
<clus scale="   55.945">  1  5  2 -1</clus>
<clus scale="  174.984">  2  4  1 -1</clus>
<clus scale="   46.028">  1  3  2 -1</clus>
</clustering>
</event>
<event>
 6    0  0.4227619E+002  0.1550612E+03  0.7546771E-02  0.1194388E+00
         21   -1    0    0  504  501  0.00000000000E+00  0.00000000000E+00  0.37164202498E+03  0.37164202498E+03  0.00000000000E+00 0. -1.
         21   -1    0    0  505  502 -0.00000000000E+00 -0.00000000000E+00 -0.33314979009E+03  0.33314979009E+03  0.00000000000E+00 0.  1.
         21    1    1    2  503  501  0.29906177702E+02  0.40694567440E+01  0.30955467495E+01  0.30340111282E+02  0.00000000000E+00 0. -1.
         21    1    1    2  504  506 -0.13027529286E+03  0.10301478809E+03  0.24021883909E+03  0.29204244409E+03  0.00000000000E+00 0. -1.
         21    1    1    2  505  503  0.18924730305E+03 -0.62992397707E+02 -0.20093229808E+03  0.28311900730E+03  0.00000000000E+00 0.  1.
         21    1    1    2  506  502 -0.88878187892E+02 -0.44091847125E+02 -0.38898528672E+01  0.99290252397E+02  0.00000000000E+00 0.  1.
<scales pt_clust_3="30.18178" pt_clust_4="155.06120" pt_clust_5="14000.00000" pt_clust_6="95.37924"></scales>
<clustering>
<clus scale="   30.182">  1  3  2 -1</clus>
<clus scale="   95.379">  2  6  1 -1</clus>
<clus scale="  155.061">  1  4  2 -1</clus>
<clus scale="   30.182">  1  3  2 -1</clus>
</clustering>
</event>
<event>
 6    0  0.4227619E+002  0.1568094E+03  0.7546771E-02  0.1192347E+00
         21   -1    0    0  504  501  0.00000000000E+00  0.00000000000E+00  0.21145096542E+03  0.21145096542E+03  0.00000000000E+00 0. -1.
         21   -1    0    0  506  502 -0.00000000000E+00 -0.00000000000E+00 -0.16719704745E+04  0.16719704745E+04  0.00000000000E+00 0. -1.
         21    1    1    2  503  501 -0.97705495496E+02  0.39164807995E+02 -0.29664510913E+03  0.31476748054E+03  0.00000000000E+00 0.  1.
         21    1    1    2  504  505  0.92297836580E+02 -0.31276594759E+02  0.76566427913E+02  0.12393358665E+03  0.00000000000E+00 0. -1.
         21    1    1    2  505  502  0.53388770694E+02  0.23057868701E+02  0.93201235764E+02  0.10985670891E+03  0.00000000000E+00 0. -1.
         21    1    1    2  506  503 -0.47981111777E+02 -0.30946081937E+02 -0.13336420636E+04  0.13348636638E+04  0.00000000000E+00 0. -1.
<scales pt_clust_3="141.57851" pt_clust_4="52.07740" pt_clust_5="52.07740" pt_clust_6="57.09507"></scales>
<clustering>
<clus scale="   52.077">  4  5 -1 -1</clus>
<clus scale="   57.095">  2  6  1 -1</clus>
<clus scale="  141.579">  2  3  1 -1</clus>
<clus scale="  156.809">  1  3  2 -1</clus>
</clustering>
</event>
<event>
 6    0  0.9794211E+002  0.8900912E+02  0.7546771E-02  0.1305269E+00
         21   -1    0    0  505  501  0.00000000000E+00  0.00000000000E+00  0.23031365603E+04  0.23031365603E+04  0.00000000000E+00 0. -1.
         21   -1    0    0  504  502 -0.00000000000E+00 -0.00000000000E+00 -0.79808116359E+03  0.79808116359E+03  0.00000000000E+00 0.  1.
         21    1    1    2  503  501  0.61263737728E+00  0.98679596200E+02  0.21571459138E+04  0.21594018921E+04  0.00000000000E+00 0. -1.
         21    1    1    2  504  503 -0.17050470701E+02  0.57989596277E+02 -0.74322466355E+03  0.74567849126E+03  0.00000000000E+00 0.  1.
         21    1    1    2  505  506 -0.22124015510E+02 -0.21523583372E+02  0.29432139655E+02  0.42649590246E+02  0.00000000000E+00 0. -1.
         21    1    1    2  506  502  0.38561848834E+02 -0.13514560910E+03  0.61702006774E+02  0.15348775028E+03  0.00000000000E+00 0.  1.
<scales pt_clust_3="14000.00000" pt_clust_4="60.43649" pt_clust_5="30.86643" pt_clust_6="89.00912"></scales>
<clustering>
<clus scale="   30.866">  1  5  2 -1</clus>
<clus scale="   60.436">  2  4  1 -1</clus>
<clus scale="   89.009">  2  6  1 -1</clus>
<clus scale="   30.866">  1  3  2 -1</clus>
</clustering>
</event>
<event>
 6    0  0.4227619E+002  0.8372801E+02  0.7546771E-02  0.1318793E+00
         21   -1    0    0  505  501  0.00000000000E+00  0.00000000000E+00  0.65391219492E+03  0.65391219492E+03  0.00000000000E+00 0. -1.
         21   -1    0    0  503  502 -0.00000000000E+00 -0.00000000000E+00 -0.62384039320E+03  0.62384039320E+03  0.00000000000E+00 0.  1.
         21    1    1    2  503  501  0.85670826896E+02 -0.67997125332E+02 -0.67859231352E+02  0.12871664583E+03  0.00000000000E+00 0.  1.
         21    1    1    2  504  506 -0.58600625006E+02  0.57427806522E+01 -0.24355743106E+02  0.63719816407E+02  0.00000000000E+00 0.  1.
         21    1    1    2  505  504  0.32480790155E+02  0.75110946802E+01  0.59993823371E+03  0.60086379699E+03  0.00000000000E+00 0. -1.
         21    1    1    2  506  502 -0.59550992045E+02  0.54743249999E+02 -0.47765145754E+03  0.48445232889E+03  0.00000000000E+00 0.  1.
<scales pt_clust_3="14000.00000" pt_clust_4="47.42279" pt_clust_5="33.33794" pt_clust_6="83.72801"></scales>
<clustering>
<clus scale="   33.338">  1  5  2 -1</clus>
<clus scale="   47.423">  1  4  2 -1</clus>
<clus scale="   83.728">  2  6  1 -1</clus>
<clus scale="   33.338">  1  3  2 -1</clus>
</clustering>
</event>
<event>
 6    0  0.4227619E+002  0.1433151E+03  0.7546771E-02  0.1208937E+00
         21   -1    0    0  503  501  0.00000000000E+00  0.00000000000E+00  0.59572253085E+02  0.59572253085E+02  0.00000000000E+00 0.  1.
         21   -1    0    0  504  502 -0.00000000000E+00 -0.00000000000E+00 -0.59980884469E+03  0.59980884469E+03  0.00000000000E+00 0.  1.
         21    1    1    2  503  506  0.35164941094E+02 -0.30162613017E+02 -0.11938685421E+03  0.12806083423E+03  0.00000000000E+00 0.  1.
         21    1    1    2  504  501 -0.14179212768E+03  0.17936800095E+02 -0.90159823378E+02  0.16898381586E+03  0.00000000000E+00 0.  1.
         21    1    1    2  505  502  0.31442687928E+02  0.23248806441E+02 -0.24375882674E+03  0.24687550554E+03  0.00000000000E+00 0.  1.
         21    1    1    2  506  505  0.75184498659E+02 -0.11022993519E+02 -0.86931087279E+02  0.11546094214E+03  0.00000000000E+00 0.  1.
<scales pt_clust_3="41.67642" pt_clust_4="132.95380" pt_clust_5="39.10434" pt_clust_6="41.67642"></scales>
<clustering>
<clus scale="   39.104">  2  5  1 -1</clus>
<clus scale="   41.676">  3  6 -1 -1</clus>
<clus scale="  132.954">  1  4  2 -1</clus>
<clus scale="  132.954">  1  3  2 -1</clus>
</clustering>
</event>
<event>
 6    0  0.4227619E+002  0.1669449E+03  0.7546771E-02  0.1181072E+00
         21   -1    0    0  503  501  0.00000000000E+00  0.00000000000E+00  0.10398270482E+04  0.10398270482E+04  0.00000000000E+00 0.  1.
         21   -1    0    0  504  502 -0.00000000000E+00 -0.00000000000E+00 -0.30564576424E+03  0.30564576424E+03  0.00000000000E+00 0. -1.
         21    1    1    2  503  502  0.51900975278E+02 -0.15571695227E+03  0.44111634246E+00  0.16413919411E+03  0.00000000000E+00 0. -1.
         21    1    1    2  504  505  0.29165682518E+02  0.86644248349E+01 -0.21081528240E+03  0.21299951311E+03  0.00000000000E+00 0. -1.
         21    1    1    2  505  506 -0.43959359745E+02  0.16344817598E+03  0.82180103658E+03  0.83904986459E+03  0.00000000000E+00 0.  1.
         21    1    1    2  506  501 -0.37107298052E+02 -0.16395648547E+02  0.12275441344E+03  0.12928424065E+03  0.00000000000E+00 0.  1.
<scales pt_clust_3="166.94486" pt_clust_4="30.42547" pt_clust_5="14000.00000" pt_clust_6="39.51716"></scales>
<clustering>
<clus scale="   30.425">  2  4  1 -1</clus>
<clus scale="   39.517">  1  6  2 -1</clus>
<clus scale="  166.945">  2  3  1 -1</clus>
<clus scale="   39.517">  1  3  2 -1</clus>
</clustering>
</event>
<event>
 6    0  0.1098251E+003  0.8010959E+02  0.7546771E-02  0.1328741E+00
         21   -1    0    0  505  501  0.00000000000E+00  0.00000000000E+00  0.66594832605E+03  0.66594832605E+03  0.00000000000E+00 0. -1.
         21   -1    0    0  506  502 -0.00000000000E+00 -0.00000000000E+00 -0.10152137525E+04  0.10152137525E+04  0.00000000000E+00 0.  1.
         21    1    1    2  503  501  0.50860098397E+02 -0.70624833275E+01  0.12476269982E+03  0.13491612041E+03  0.00000000000E+00 0. -1.
         21    1    1    2  504  502  0.11261944305E+02  0.79370709135E+02 -0.97011895151E+03  0.97342556004E+03  0.00000000000E+00 0.  1.
         21    1    1    2  505  504  0.11872770286E+02 -0.65572774257E+02  0.49401643893E+03  0.49849071539E+03  0.00000000000E+00 0. -1.
         21    1    1    2  506  503 -0.73994812988E+02 -0.67354515499E+01  0.20743862954E+01  0.74329682734E+02  0.00000000000E+00 0.  1.
<scales pt_clust_3="51.34811" pt_clust_4="80.10959" pt_clust_5="14000.00000" pt_clust_6="70.74195"></scales>
<clustering>
<clus scale="   51.348">  1  3  2 -1</clus>
<clus scale="   70.742">  1  6  2 -1</clus>
<clus scale="   80.110">  2  4  1 -1</clus>
<clus scale="   51.348">  1  3  2 -1</clus>
</clustering>
</event>
<event>
 6    0  0.4227619E+002  0.2470328E+03  0.7546771E-02  0.1115195E+00
         21   -1    0    0  505  501  0.00000000000E+00  0.00000000000E+00  0.21987883456E+04  0.21987883456E+04  0.00000000000E+00 0. -1.
         21   -1    0    0  506  502 -0.00000000000E+00 -0.00000000000E+00 -0.32845790924E+03  0.32845790924E+03  0.00000000000E+00 0.  1.
         21    1    1    2  503  504 -0.12022416760E+03  0.22477316917E+03  0.13731333480E+03  0.28953718236E+03  0.00000000000E+00 0.  1.
         21    1    1    2  504  502 -0.79973109335E+02 -0.12465270137E+00 -0.22304603175E+03  0.23694988085E+03  0.00000000000E+00 0.  1.
         21    1    1    2  505  503  0.17385520638E+03 -0.17574440622E+03  0.19169468465E+04  0.19328209802E+04  0.00000000000E+00 0. -1.
         21    1    1    2  506  501  0.26342070564E+02 -0.48904110247E+02  0.39116286794E+02  0.67938211436E+02  0.00000000000E+00 0.  1.
<scales pt_clust_3="247.03277" pt_clust_4="70.52590" pt_clust_5="14000.00000" pt_clust_6="55.54743"></scales>
<clustering>
<clus scale="   55.547">  2  6  1 -1</clus>
<clus scale="   70.526">  2  4  1 -1</clus>
<clus scale="  247.033">  2  3  1 -1</clus>
<clus scale="  247.033">  1  3  2 -1</clus>
</clustering>
</event>
<event>
 6    0  0.4227619E+002  0.7480901E+02  0.7546771E-02  0.1344463E+00
         21   -1    0    0  505  501  0.00000000000E+00  0.00000000000E+00  0.90094389159E+03  0.90094389159E+03  0.00000000000E+00 0. -1.
         21   -1    0    0  503  502 -0.00000000000E+00 -0.00000000000E+00 -0.40081996028E+03  0.40081996028E+03  0.00000000000E+00 0.  1.
         21    1    1    2  503  501  0.91023242606E+02 -0.43565154986E+02  0.51465751823E+03  0.52445735241E+03  0.00000000000E+00 0. -1.
         21    1    1    2  504  506 -0.71098806145E+02  0.16444524922E+02  0.11661014292E+02  0.73901568925E+02  0.00000000000E+00 0. -1.
         21    1    1    2  505  504 -0.34513403789E+02  0.53408666252E+02  0.33498955013E+03  0.34097164012E+03  0.00000000000E+00 0. -1.
         21    1    1    2  506  502  0.14588967329E+02 -0.26288036188E+02 -0.36118415134E+03  0.36243329041E+03  0.00000000000E+00 0.  1.
<scales pt_clust_3="14000.00000" pt_clust_4="59.63282" pt_clust_5="74.80901" pt_clust_6="30.06491"></scales>
<clustering>
<clus scale="   30.065">  2  6  1 -1</clus>
<clus scale="   59.633">  2  4  1 -1</clus>
<clus scale="   74.809">  1  5  2 -1</clus>
<clus scale="   74.809">  1  3  2 -1</clus>
</clustering>
</event>
<event>
 6    0  0.4227619E+002  0.1405768E+03  0.7546771E-02  0.1212555E+00
         21   -1    0    0  506  501  0.00000000000E+00  0.00000000000E+00  0.16754911633E+04  0.16754911633E+04  0.00000000000E+00 0. -1.
         21   -1    0    0  504  502 -0.00000000000E+00 -0.00000000000E+00 -0.63357214444E+02  0.63357214444E+02  0.00000000000E+00 0. -1.
         21    1    1    2  503  502  0.35945398171E+02 -0.29409866679E+02  0.11219544945E+03  0.12142829482E+03  0.00000000000E+00 0. -1.
         21    1    1    2  504  505 -0.90865284785E+02 -0.47605304320E+02  0.30287040964E+02  0.10695826209E+03  0.00000000000E+00 0. -1.
         21    1    1    2  505  501 -0.56286445386E+02  0.11268294901E+02  0.29522650817E+02  0.64550176726E+02  0.00000000000E+00 0.  1.
         21    1    1    2  506  503  0.11120633200E+03  0.65746876098E+02  0.14401288077E+04  0.14459116441E+04  0.00000000000E+00 0. -1.
<scales pt_clust_3="46.44364" pt_clust_4="40.03295" pt_clust_5="40.03295" pt_clust_6="129.99191"></scales>
<clustering>
<clus scale="   40.033">  4  5 -1 -1</clus>
<clus scale="   46.444">  2  3  1 -1</clus>
<clus scale="  129.992">  1  6  2 -1</clus>
<clus scale="  129.992">  1  3  2 -1</clus>
</clustering>
</event>
<event>
 6    0  0.4227619E+002  0.2674197E+03  0.7546771E-02  0.1102766E+00
         21   -1    0    0  505  501  0.00000000000E+00  0.00000000000E+00  0.17105973013E+03  0.17105973013E+03  0.00000000000E+00 0.  1.
         21   -1    0    0  503  502 -0.00000000000E+00 -0.00000000000E+00 -0.17112508177E+04  0.17112508177E+04  0.00000000000E+00 0.  1.
         21    1    1    2  503  504  0.48012456106E+02 -0.47935408337E+01 -0.58642537072E+03  0.58840707797E+03  0.00000000000E+00 0.  1.
         21    1    1    2  504  506  0.44565647867E+02  0.12578371829E+03 -0.63803731621E+03  0.65184297008E+03  0.00000000000E+00 0.  1.
         21    1    1    2  505  502  0.11798441356E+03 -0.26880935220E+03 -0.11317130506E+03  0.31462125478E+03  0.00000000000E+00 0.  1.
         21    1    1    2  506  501 -0.21056251753E+03  0.14781917474E+03 -0.20255709560E+03  0.32743924503E+03  0.00000000000E+00 0.  1.
<scales pt_clust_3="48.25116" pt_clust_4="142.61204" pt_clust_5="14000.00000" pt_clust_6="267.41973"></scales>
<clustering>
<clus scale="   48.251">  2  3  1 -1</clus>
<clus scale="  142.612">  2  4  1 -1</clus>
<clus scale="  267.420">  2  6  1 -1</clus>
<clus scale="  267.420">  1  3  2 -1</clus>
</clustering>
</event>
<event>
 6    0  0.4227619E+002  0.1436635E+03  0.7546771E-02  0.1208483E+00
         21   -1    0    0  506  501  0.00000000000E+00  0.00000000000E+00  0.13569523895E+04  0.13569523895E+04  0.00000000000E+00 0.  1.
         21   -1    0    0  503  502 -0.00000000000E+00 -0.00000000000E+00 -0.26965629801E+02  0.26965629801E+02  0.00000000000E+00 0.  1.
         21    1    1    2  503  505 -0.64432034581E+02 -0.20493980335E+02  0.12075770120E+03  0.13839766151E+03  0.00000000000E+00 0.  1.
         21    1    1    2  504  502  0.59594354724E+02 -0.69817306074E+01  0.25716219956E+03  0.26406936316E+03  0.00000000000E+00 0.  1.
         21    1    1    2  505  501 -0.76957096239E+02  0.76747051825E+02  0.24577904739E+03  0.26873750159E+03  0.00000000000E+00 0.  1.
         21    1    1    2  506  504  0.81794776097E+02 -0.49271340882E+02  0.70628781153E+03  0.71271349303E+03  0.00000000000E+00 0.  1.
<scales pt_clust_3="67.61280" pt_clust_4="41.29281" pt_clust_5="133.88674" pt_clust_6="41.29281"></scales>
<clustering>
<clus scale="   41.293">  4  6 -1 -1</clus>
<clus scale="   67.613">  2  3  1 -1</clus>
<clus scale="  133.887">  2  5  1 -1</clus>
<clus scale="  143.663">  1  3  2 -1</clus>
</clustering>
</event>
<event>
 6    0  0.4227619E+002  0.2225678E+03  0.7546771E-02  0.1131983E+00
         21   -1    0    0  505  501  0.00000000000E+00  0.00000000000E+00  0.18886675943E+03  0.18886675943E+03  0.00000000000E+00 0.  1.
         21   -1    0    0  503  502 -0.00000000000E+00 -0.00000000000E+00 -0.13203445477E+04  0.13203445477E+04  0.00000000000E+00 0. -1.
         21    1    1    2  503  504 -0.53478963222E+02  0.99394638630E+02 -0.69332979253E+03  0.70245675661E+03  0.00000000000E+00 0. -1.
         21    1    1    2  504  501  0.92049688490E+02  0.75088525147E+02 -0.87891248243E+02  0.14777111787E+03  0.00000000000E+00 0. -1.
         21    1    1    2  505  506 -0.19781334141E+03 -0.15778025523E+03  0.21767704215E+02  0.25396566683E+03  0.00000000000E+00 0.  1.
         21    1    1    2  506  502  0.15924261615E+03 -0.16702908545E+02 -0.37202445170E+03  0.40501776580E+03  0.00000000000E+00 0.  1.
<scales pt_clust_3="112.86848" pt_clust_4="124.61884" pt_clust_5="14000.00000" pt_clust_6="222.56778"></scales>
<clustering>
<clus scale="  112.868">  2  3  1 -1</clus>
<clus scale="  124.619">  2  4  1 -1</clus>
<clus scale="  222.568">  2  6  1 -1</clus>
<clus scale="  222.568">  1  3  2 -1</clus>
</clustering>
</event>
<event>
 6    0  0.4227619E+002  0.2646312E+03  0.7546771E-02  0.1104392E+00
         21   -1    0    0  504  501  0.00000000000E+00  0.00000000000E+00  0.15175484740E+04  0.15175484740E+04  0.00000000000E+00 0.  1.
         21   -1    0    0  506  502 -0.00000000000E+00 -0.00000000000E+00 -0.10962176948E+03  0.10962176948E+03  0.00000000000E+00 0.  1.
         21    1    1    2  503  501  0.24657770943E+02  0.44416804120E+02  0.45013150356E+03  0.45298921472E+03  0.00000000000E+00 0.  1.
         21    1    1    2  504  502  0.96486023341E+01 -0.30478609421E+03  0.22725539067E+03  0.38030602328E+03  0.00000000000E+00 0.  1.
         21    1    1    2  505  503  0.29957123114E+02  0.22523908892E+03  0.62818024586E+03  0.66801234846E+03  0.00000000000E+00 0.  1.
         21    1    1    2  506  505 -0.64263496391E+02  0.35130201177E+02  0.10235956438E+03  0.12586265699E+03  0.00000000000E+00 0. -1.
<scales pt_clust_3="50.80215" pt_clust_4="14000.00000" pt_clust_5="264.63120" pt_clust_6="73.40515"></scales>
<clustering>
<clus scale="   50.802">  1  3  2 -1</clus>
<clus scale="   73.405">  2  6  1 -1</clus>
<clus scale="  264.631">  1  5  2 -1</clus>
<clus scale="   50.802">  1  3  2 -1</clus>
</clustering>
</event>
<event>
 6    0  0.4227619E+002  0.1437847E+03  0.7546771E-02  0.1208325E+00
         21   -1    0    0  505  501  0.00000000000E+00  0.00000000000E+00  0.15047174030E+04  0.15047174030E+04  0.00000000000E+00 0. -1.
         21   -1    0    0  504  502 -0.00000000000E+00 -0.00000000000E+00 -0.44599395806E+03  0.44599395806E+03  0.00000000000E+00 0. -1.
         21    1    1    2  503  501  0.67542486478E+01  0.30117880730E+02  0.69253034229E+02  0.75820111873E+02  0.00000000000E+00 0.  1.
         21    1    1    2  504  503 -0.15444040535E+03  0.77897776980E+02 -0.85126031235E+02  0.19278574547E+03  0.00000000000E+00 0. -1.
         21    1    1    2  505  506  0.23559417015E+02 -0.53401616868E+02  0.13625593005E+04  0.13638088671E+04  0.00000000000E+00 0. -1.
         21    1    1    2  506  502  0.12412673969E+03 -0.54614040842E+02 -0.28796285852E+03  0.31829663657E+03  0.00000000000E+00 0. -1.
<scales pt_clust_3="30.86595" pt_clust_4="14000.00000" pt_clust_5="38.87289" pt_clust_6="143.78473"></scales>
<clustering>
<clus scale="   30.866">  1  3  2 -1</clus>
<clus scale="   38.873">  1  5  2 -1</clus>
<clus scale="  143.785">  2  6  1 -1</clus>
<clus scale="   30.866">  1  3  2 -1</clus>
</clustering>
</event>
<event>
 6    0  0.4227619E+002  0.8745800E+02  0.7546771E-02  0.1309127E+00
         21   -1    0    0  506  501  0.00000000000E+00  0.00000000000E+00  0.43743324332E+03  0.43743324332E+03  0.00000000000E+00 0.  1.
         21   -1    0    0  503  502 -0.00000000000E+00 -0.00000000000E+00 -0.13293299435E+03  0.13293299435E+03  0.00000000000E+00 0.  1.
         21    1    1    2  503  504  0.47456347427E+02  0.18802433890E+02  0.77434336859E+01  0.51629421811E+02  0.00000000000E+00 0.  1.
         21    1    1    2  504  505  0.40395780995E+02  0.65545154482E+01  0.26730983252E+03  0.27042434683E+03  0.00000000000E+00 0.  1.
         21    1    1    2  505  501  0.36297917818E+02 -0.77000027572E+01  0.98429743907E+02  0.10519146052E+03  0.00000000000E+00 0.  1.
         21    1    1    2  506  502 -0.12415004624E+03 -0.17656946581E+02 -0.68982761147E+02  0.14312100852E+03  0.00000000000E+00 0.  1.
<scales pt_clust_3="51.04543" pt_clust_4="36.11559" pt_clust_5="36.11559" pt_clust_6="78.80571"></scales>
<clustering>
<clus scale="   36.116">  4  5 -1 -1</clus>
<clus scale="   51.045">  2  3  1 -1</clus>
<clus scale="   78.806">  2  6  1 -1</clus>
<clus scale="   87.458">  1  3  2 -1</clus>
</clustering>
</event>
<event>
 6    0  0.4227619E+002  0.1973666E+03  0.7546771E-02  0.1151980E+00
         21   -1    0    0  506  501  0.00000000000E+00  0.00000000000E+00  0.85199770632E+03  0.85199770632E+03  0.00000000000E+00 0. -1.
         21   -1    0    0  504  502 -0.00000000000E+00 -0.00000000000E+00 -0.51291854454E+03  0.51291854454E+03  0.00000000000E+00 0.  1.
         21    1    1    2  503  505 -0.64623405419E+02  0.20375406160E+03 -0.18219143156E+03  0.28086583965E+03  0.00000000000E+00 0.  1.
         21    1    1    2  504  501 -0.32298313732E+02 -0.16221267270E+02 -0.17386729672E+03  0.17758419820E+03  0.00000000000E+00 0.  1.
         21    1    1    2  505  502  0.55335610453E+02  0.45683542392E+01 -0.85233238912E+02  0.10172317661E+03  0.00000000000E+00 0.  1.
         21    1    1    2  506  503  0.41586108699E+02 -0.19210114857E+03  0.78037112897E+03  0.80474303640E+03  0.00000000000E+00 0. -1.
<scales pt_clust_3="197.36663" pt_clust_4="36.14292" pt_clust_5="46.38177" pt_clust_6="14000.00000"></scales>
<clustering>
<clus scale="   36.143">  2  4  1 -1</clus>
<clus scale="   46.382">  2  5  1 -1</clus>
<clus scale="  197.367">  2  3  1 -1</clus>
<clus scale="  197.367">  1  3  2 -1</clus>
</clustering>
</event>
<event>
 6    0  0.4227619E+002  0.1704636E+03  0.7546771E-02  0.1177365E+00
         21   -1    0    0  504  501  0.00000000000E+00  0.00000000000E+00  0.82733175967E+03  0.82733175967E+03  0.00000000000E+00 0. -1.
         21   -1    0    0  505  502 -0.00000000000E+00 -0.00000000000E+00 -0.23242104075E+04  0.23242104075E+04  0.00000000000E+00 0. -1.
         21    1    1    2  503  502 -0.45800366576E+02 -0.10690146806E+03 -0.70618684842E+03  0.71569928206E+03  0.00000000000E+00 0. -1.
         21    1    1    2  504  503  0.58954427049E+02 -0.33546814083E+02  0.18498454764E+01  0.67855988182E+02  0.00000000000E+00 0.  1.
         21    1    1    2  505  506  0.26671281683E+02 -0.65918892008E+02 -0.15654233931E+04  0.15670376694E+04  0.00000000000E+00 0. -1.
         21    1    1    2  506  501 -0.39825342156E+02  0.20636717415E+03  0.77288174819E+03  0.80094922757E+03  0.00000000000E+00 0. -1.
<scales pt_clust_3="170.46356" pt_clust_4="67.83077" pt_clust_5="71.16439" pt_clust_6="14000.00000"></scales>
<clustering>
<clus scale="   67.831">  1  4  2 -1</clus>
<clus scale="   71.164">  2  5  1 -1</clus>
<clus scale="  170.464">  2  3  1 -1</clus>
<clus scale="   67.831">  1  3  2 -1</clus>
</clustering>
</event>
<event>
 6    0  0.4227619E+002  0.1161796E+03  0.7546771E-02  0.1249536E+00
         21   -1    0    0  505  501  0.00000000000E+00  0.00000000000E+00  0.87273599025E+02  0.87273599025E+02  0.00000000000E+00 0. -1.
         21   -1    0    0  504  502 -0.00000000000E+00 -0.00000000000E+00 -0.52906013169E+03  0.52906013169E+03  0.00000000000E+00 0. -1.
         21    1    1    2  503  502  0.53417562683E+02  0.43047272032E+02 -0.11711421020E+03  0.13572855950E+03  0.00000000000E+00 0. -1.
         21    1    1    2  504  506  0.15216427266E+02 -0.36819455179E+02 -0.85503535430E+02  0.94329563285E+02  0.00000000000E+00 0. -1.
         21    1    1    2  505  503 -0.10695475249E+03  0.39151643091E+02  0.24076955723E+02  0.11641249948E+03  0.00000000000E+00 0. -1.
         21    1    1    2  506  501  0.38320762542E+02 -0.45379459944E+02 -0.26324574276E+03  0.26986310846E+03  0.00000000000E+00 0. -1.
<scales pt_clust_3="68.60396" pt_clust_4="30.50539" pt_clust_5="110.04703" pt_clust_6="30.50539"></scales>
<clustering>
<clus scale="   30.505">  4  6 -1 -1</clus>
<clus scale="   68.604">  2  3  1 -1</clus>
<clus scale="  110.047">  1  5  2 -1</clus>
<clus scale="  110.047">  1  3  2 -1</clus>
</clustering>
</event>
<event>
 6    0  0.4227619E+002  0.1083622E+03  0.7546771E-02  0.1263633E+00
         21   -1    0    0  505  501  0.00000000000E+00  0.00000000000E+00  0.65077190441E+03  0.65077190441E+03  0.00000000000E+00 0. -1.
         21   -1    0    0  504  502 -0.00000000000E+00 -0.00000000000E+00 -0.52707856451E+02  0.52707856451E+02  0.00000000000E+00 0.  1.
         21    1    1    2  503  501 -0.30310388145E+02 -0.25624285336E+01  0.70374845525E+02  0.76667493452E+02  0.00000000000E+00 0.  1.
         21    1    1    2  504  503 -0.59036233004E+02 -0.99441245486E+02  0.47802900207E+02  0.12513574781E+03  0.00000000000E+00 0.  1.
         21    1    1    2  505  506  0.30384358325E+02  0.33671698551E+02  0.26102615739E+03  0.26493706301E+03  0.00000000000E+00 0. -1.
         21    1    1    2  506  502  0.58962262825E+02  0.68331975469E+02  0.21886014483E+03  0.23673945659E+03  0.00000000000E+00 0. -1.
<scales pt_clust_3="30.41851" pt_clust_4="108.36217" pt_clust_5="36.48676" pt_clust_6="14000.00000"></scales>
<clustering>
<clus scale="   30.419">  1  3  2 -1</clus>
<clus scale="   36.487">  1  5  2 -1</clus>
<clus scale="  108.362">  2  4  1 -1</clus>
<clus scale="   30.419">  1  3  2 -1</clus>
</clustering>
</event>
<event>
 6    0  0.4227619E+002  0.1675526E+03  0.7546771E-02  0.1180424E+00
         21   -1    0    0  504  501  0.00000000000E+00  0.00000000000E+00  0.19889754939E+04  0.19889754939E+04  0.00000000000E+00 0. -1.
         21   -1    0    0  503  502 -0.00000000000E+00 -0.00000000000E+00 -0.22668590781E+02  0.22668590781E+02  0.00000000000E+00 0. -1.
         21    1    1    2  503  506 -0.60502669224E+02  0.50512158892E+02  0.49852048710E+03  0.50471251940E+03  0.00000000000E+00 0. -1.
         21    1    1    2  504  502  0.18069344876E+03 -0.40019692900E+02  0.57553359820E+03  0.60455820307E+03  0.00000000000E+00 0. -1.
         21    1    1    2  505  501 -0.59653487231E+02 -0.27697796895E+02  0.58887612793E+03  0.59253759420E+03  0.00000000000E+00 0. -1.
         21    1    1    2  506  505 -0.60537292307E+02  0.17205330902E+02  0.30337668986E+03  0.30983576799E+03  0.00000000000E+00 0. -1.
<scales pt_clust_3="31.12837" pt_clust_4="163.89133" pt_clust_5="65.77010" pt_clust_6="31.12837"></scales>
<clustering>
<clus scale="   31.128">  3  6 -1 -1</clus>
<clus scale="   65.770">  1  5  2 -1</clus>
<clus scale="  163.891">  2  4  1 -1</clus>
<clus scale="   65.770">  1  3  2 -1</clus>
</clustering>
</event>
<event>
 6    0  0.4227619E+002  0.1001219E+03  0.7546771E-02  0.1280040E+00
         21   -1    0    0  505  501  0.00000000000E+00  0.00000000000E+00  0.15029623158E+03  0.15029623158E+03  0.00000000000E+00 0. -1.
         21   -1    0    0  506  502 -0.00000000000E+00 -0.00000000000E+00 -0.59291075776E+03  0.59291075776E+03  0.00000000000E+00 0. -1.
         21    1    1    2  503  504 -0.65940563805E+02  0.59663823075E+02 -0.17601025696E+02  0.90651673147E+02  0.00000000000E+00 0.  1.
         21    1    1    2  504  501  0.95999855201E+02 -0.66708426398E+02 -0.48245747143E+02  0.12646595775E+03  0.00000000000E+00 0. -1.
         21    1    1    2  505  502 -0.61063802414E+02  0.20879788562E+01  0.61504067121E+02  0.86694278320E+02  0.00000000000E+00 0. -1.
         21    1    1    2  506  503  0.31004511017E+02  0.49566244668E+01 -0.43827182046E+03  0.43939508012E+03  0.00000000000E+00 0. -1.
<scales pt_clust_3="100.12193" pt_clust_4="14000.00000" pt_clust_5="58.58240" pt_clust_6="31.39821"></scales>
<clustering>
<clus scale="   31.398">  2  6  1 -1</clus>
<clus scale="   58.582">  1  5  2 -1</clus>
<clus scale="  100.122">  2  3  1 -1</clus>
<clus scale="   58.582">  1  3  2 -1</clus>
</clustering>
</event>
<event>
 6    0  0.4227619E+002  0.1039710E+03  0.7546771E-02  0.1272160E+00
         21   -1    0    0  503  501  0.00000000000E+00  0.00000000000E+00  0.12466124264E+04  0.12466124264E+04  0.00000000000E+00 0.  1.
         21   -1    0    0  505  502 -0.00000000000E+00 -0.00000000000E+00 -0.92299347168E+03  0.92299347168E+03  0.00000000000E+00 0. -1.
         21    1    1    2  503  504  0.31551488689E+02  0.35557600074E+00  0.50821787334E+03  0.50919645487E+03  0.00000000000E+00 0.  1.
         21    1    1    2  504  502  0.13114560640E+03 -0.86875574305E+01 -0.30391999903E+03  0.33112234830E+03  0.00000000000E+00 0. -1.
         21    1    1    2  505  506 -0.29611363639E+02  0.26141408987E+02 -0.59810310177E+03  0.59940597801E+03  0.00000000000E+00 0. -1.
         21    1    1    2  506  501 -0.13308573145E+03 -0.17809427557E+02  0.71742418215E+03  0.72988111687E+03  0.00000000000E+00 0.  1.
<scales pt_clust_3="31.55349" pt_clust_4="103.97099" pt_clust_5="39.47878" pt_clust_6="14000.00000"></scales>
<clustering>
<clus scale="   31.553">  1  3  2 -1</clus>
<clus scale="   39.479">  2  5  1 -1</clus>
<clus scale="  103.971">  2  4  1 -1</clus>
<clus scale="   31.553">  1  3  2 -1</clus>
</clustering>
</event>
<event>
 6    0  0.4227619E+002  0.1767188E+03  0.7546771E-02  0.1171017E+00
         21   -1    0    0  504  501  0.00000000000E+00  0.00000000000E+00  0.13747330324E+04  0.13747330324E+04  0.00000000000E+00 0.  1.
         21   -1    0    0  506  502 -0.00000000000E+00 -0.00000000000E+00 -0.86933958305E+03  0.86933958305E+03  0.00000000000E+00 0.  1.
         21    1    1    2  503  501  0.19930835831E+03 -0.56616450392E+02 -0.28695166263E+03  0.35393572981E+03  0.00000000000E+00 0.  1.
         21    1    1    2  504  505 -0.17627694524E+03  0.21749071129E+01  0.13196696076E+04  0.13313925660E+04  0.00000000000E+00 0.  1.
         21    1    1    2  505  502 -0.18667673308E+02 -0.27188895660E+02 -0.92404410334E+01  0.34250603271E+02  0.00000000000E+00 0. -1.
         21    1    1    2  506  503 -0.43637397614E+01  0.81630438939E+02 -0.51808405462E+03  0.52449371630E+03  0.00000000000E+00 0.  1.
<scales pt_clust_3="176.71879" pt_clust_4="14000.00000" pt_clust_5="32.98057" pt_clust_6="66.81461"></scales>
<clustering>
<clus scale="   32.981">  2  5  1 -1</clus>
<clus scale="   66.815">  2  6  1 -1</clus>
<clus scale="  176.719">  2  3  1 -1</clus>
<clus scale="  176.719">  1  3  2 -1</clus>
</clustering>
</event>
<event>
 6    0  0.4227619E+002  0.5710852E+02  0.7546771E-02  0.1410383E+00
         21   -1    0    0  505  501  0.00000000000E+00  0.00000000000E+00  0.32323854087E+03  0.32323854087E+03  0.00000000000E+00 0.  1.
         21   -1    0    0  506  502 -0.00000000000E+00 -0.00000000000E+00 -0.35938789487E+03  0.35938789487E+03  0.00000000000E+00 0.  1.
         21    1    1    2  503  501  0.63881570295E+02  0.17875028788E+02  0.65331920118E+02  0.93105485681E+02  0.00000000000E+00 0.  1.
         21    1    1    2  504  502  0.19980040432E+02 -0.84683625976E+02 -0.21804651659E+03  0.23476541892E+03  0.00000000000E+00 0.  1.
         21    1    1    2  505  504 -0.53028684615E+02  0.22766338715E+02  0.22577290196E+03  0.23303165199E+03  0.00000000000E+00 0.  1.
         21    1    1    2  506  503 -0.30832926111E+02  0.44042258473E+02 -0.10920765949E+03  0.12172387915E+03  0.00000000000E+00 0.  1.
<scales pt_clust_3="57.10852" pt_clust_4="44.64778" pt_clust_5="14000.00000" pt_clust_6="53.76235"></scales>
<clustering>
<clus scale="   53.762">  2  6  1 -1</clus>
<clus scale="   44.648">  2  4  1 -1</clus>
<clus scale="   57.109">  2  3  1 -1</clus>
<clus scale="   57.109">  1  3  2 -1</clus>
</clustering>
</event>
<event>
 6    0  0.4227619E+002  0.9537335E+02  0.7546771E-02  0.1290337E+00
         21   -1    0    0  504  501  0.00000000000E+00  0.00000000000E+00  0.14070634413E+03  0.14070634413E+03  0.00000000000E+00 0. -1.
         21   -1    0    0  506  502 -0.00000000000E+00 -0.00000000000E+00 -0.69980914803E+03  0.69980914803E+03  0.00000000000E+00 0. -1.
         21    1    1    2  503  505 -0.13057935978E+02  0.77610433388E+02 -0.29602245323E+03  0.30630570004E+03  0.00000000000E+00 0. -1.
         21    1    1    2  504  503 -0.25429137722E+02  0.59500276784E+02 -0.27498956174E+02  0.70307300996E+02  0.00000000000E+00 0. -1.
         21    1    1    2  505  502  0.41348288404E+02  0.15498919193E+02 -0.29634426268E+03  0.29961612019E+03  0.00000000000E+00 0. -1.
         21    1    1    2  506  501 -0.28612147040E+01 -0.15260962937E+03  0.60762868183E+02  0.16428637093E+03  0.00000000000E+00 0. -1.
<scales pt_clust_3="14000.00000" pt_clust_4="64.68649" pt_clust_5="44.15764" pt_clust_6="95.37335"></scales>
<clustering>
<clus scale="   44.158">  2  5  1 -1</clus>
<clus scale="   64.686">  1  4  2 -1</clus>
<clus scale="   95.373">  1  6  2 -1</clus>
<clus scale="   64.686">  1  3  2 -1</clus>
</clustering>
</event>
<event>
 6    0  0.4227619E+002  0.9268610E+02  0.7546771E-02  0.1296474E+00
         21   -1    0    0  503  501  0.00000000000E+00  0.00000000000E+00  0.25425666938E+03  0.25425666938E+03  0.00000000000E+00 0. -1.
         21   -1    0    0  505  502 -0.00000000000E+00 -0.00000000000E+00 -0.33515661143E+03  0.33515661143E+03  0.00000000000E+00 0. -1.
         21    1    1    2  503  506  0.44412677948E+02  0.79041049746E+02  0.17844659632E+03  0.20015784083E+03  0.00000000000E+00 0. -1.
         21    1    1    2  504  502 -0.20370962760E+02  0.41356020428E+02 -0.10804704429E+03  0.11747110423E+03  0.00000000000E+00 0. -1.
         21    1    1    2  505  501 -0.95008926640E+02 -0.88362958784E+02 -0.14361189862E+03  0.19354349912E+03  0.00000000000E+00 0. -1.
         21    1    1    2  506  504  0.70967211452E+02 -0.32034111389E+02 -0.76875954539E+01  0.78240836636E+02  0.00000000000E+00 0. -1.
<scales pt_clust_3="92.68610" pt_clust_4="46.10094" pt_clust_5="14000.00000" pt_clust_6="71.21384"></scales>
<clustering>
<clus scale="   46.101">  2  4  1 -1</clus>
<clus scale="   71.214">  2  6  1 -1</clus>
<clus scale="   92.686">  1  3  2 -1</clus>
<clus scale="   92.686">  1  3  2 -1</clus>
</clustering>
</event>
<event>
 6    0  0.4227619E+002  0.8524785E+02  0.7546771E-02  0.1314786E+00
         21   -1    0    0  505  501  0.00000000000E+00  0.00000000000E+00  0.29440679361E+02  0.29440679361E+02  0.00000000000E+00 0. -1.
         21   -1    0    0  504  502 -0.00000000000E+00 -0.00000000000E+00 -0.13477385019E+04  0.13477385019E+04  0.00000000000E+00 0.  1.
         21    1    1    2  503  506  0.40546976000E+02  0.15945334220E+02 -0.25363288992E+03  0.25734792362E+03  0.00000000000E+00 0.  1.
         21    1    1    2  504  503 -0.28949869015E+02 -0.17395111783E+02 -0.29483733712E+03  0.29676546327E+03  0.00000000000E+00 0. -1.
         21    1    1    2  505  502 -0.20060084773E+02  0.86022110867E+02 -0.71821770733E+03  0.72362896962E+03  0.00000000000E+00 0.  1.
         21    1    1    2  506  501  0.84629777889E+01 -0.84572333303E+02 -0.51609888131E+02  0.99436824699E+02  0.00000000000E+00 0. -1.
<scales pt_clust_3="35.50598" pt_clust_4="33.77403" pt_clust_5="14000.00000" pt_clust_6="85.24785"></scales>
<clustering>
<clus scale="   33.774">  2  4  1 -1</clus>
<clus scale="   35.506">  2  3  1 -1</clus>
<clus scale="   85.248">  1  6  2 -1</clus>
<clus scale="   85.248">  1  3  2 -1</clus>
</clustering>
</event>
<event>
 6    0  0.4227619E+002  0.8904468E+02  0.7546771E-02  0.1305182E+00
         21   -1    0    0  503  501  0.00000000000E+00  0.00000000000E+00  0.49655004654E+03  0.49655004654E+03  0.00000000000E+00 0.  1.
         21   -1    0    0  501  502 -0.00000000000E+00 -0.00000000000E+00 -0.19129508662E+03  0.19129508662E+03  0.00000000000E+00 0.  1.
         21    1    1    2  503  504 -0.23009467806E+02 -0.21127247369E+02  0.20828787922E+03  0.21061727569E+03  0.00000000000E+00 0.  1.
         21    1    1    2  504  506  0.85139476863E+02 -0.35895024686E+02  0.17204217532E+03  0.19528362299E+03  0.00000000000E+00 0.  1.
         21    1    1    2  505  502 -0.12005729138E+02 -0.30590396071E+02 -0.15169899894E+03  0.15521757679E+03  0.00000000000E+00 0.  1.
         21    1    1    2  506  505 -0.50124279919E+02  0.87612668125E+02  0.76623904326E+02  0.12672665768E+03  0.00000000000E+00 0.  1.
<scales pt_clust_3="31.23774" pt_clust_4="14000.00000" pt_clust_5="33.03412" pt_clust_6="89.04468"></scales>
<clustering>
<clus scale="   31.238">  1  3  2 -1</clus>
<clus scale="   33.034">  2  5  1 -1</clus>
<clus scale="   89.045">  2  6  1 -1</clus>
<clus scale="   31.238">  1  3  2 -1</clus>
</clustering>
</event>
<event>
 6    0  0.4227619E+002  0.1446141E+03  0.7546771E-02  0.1207252E+00
         21   -1    0    0  503  501  0.00000000000E+00  0.00000000000E+00  0.41345896487E+02  0.41345896487E+02  0.00000000000E+00 0.  1.
         21   -1    0    0  504  502 -0.00000000000E+00 -0.00000000000E+00 -0.13009233872E+04  0.13009233872E+04  0.00000000000E+00 0.  1.
         21    1    1    2  503  505 -0.18650949936E+02  0.26493687144E+02 -0.63725141404E+02  0.71488929485E+02  0.00000000000E+00 0. -1.
         21    1    1    2  504  506  0.18807726522E+01 -0.60462797349E+02 -0.79443818859E+03  0.79673792596E+03  0.00000000000E+00 0.  1.
         21    1    1    2  505  502 -0.11249724586E+03 -0.98018468210E+01 -0.21695945226E+03  0.24458763349E+03  0.00000000000E+00 0.  1.
         21    1    1    2  506  501  0.12926742314E+03  0.43770957026E+02 -0.18445470843E+03  0.22945479473E+03  0.00000000000E+00 0.  1.
<scales pt_clust_3="32.32637" pt_clust_4="60.49204" pt_clust_5="32.32637" pt_clust_6="131.41971"></scales>
<clustering>
<clus scale="   32.326">  3  5 -1 -1</clus>
<clus scale="   60.492">  2  4  1 -1</clus>
<clus scale="  131.420">  1  6  2 -1</clus>
<clus scale="  131.420">  1  3  2 -1</clus>
</clustering>
</event>
<event>
 6    0  0.4227619E+002  0.1709905E+03  0.7546771E-02  0.1176819E+00
         21   -1    0    0  506  501  0.00000000000E+00  0.00000000000E+00  0.20535889876E+04  0.20535889876E+04  0.00000000000E+00 0.  1.
         21   -1    0    0  504  502 -0.00000000000E+00 -0.00000000000E+00 -0.29872232471E+03  0.29872232471E+03  0.00000000000E+00 0.  1.
         21    1    1    2  503  501 -0.70607972705E+02 -0.20941324825E+02  0.98246631166E+03  0.98522285725E+03  0.00000000000E+00 0.  1.
         21    1    1    2  504  505  0.94913947692E+02  0.13884000507E+03  0.77306182043E+03  0.79114460289E+03  0.00000000000E+00 0.  1.
         21    1    1    2  505  503 -0.66449657223E+01  0.36920642674E+02  0.26516904645E+03  0.26780947074E+03  0.00000000000E+00 0. -1.
         21    1    1    2  506  502 -0.17661009265E+02 -0.15481932292E+03 -0.26583051562E+03  0.30813438145E+03  0.00000000000E+00 0.  1.
<scales pt_clust_3="73.64798" pt_clust_4="32.64313" pt_clust_5="32.64313" pt_clust_6="156.39879"></scales>
<clustering>
<clus scale="   32.643">  4  5 -1 -1</clus>
<clus scale="   73.648">  1  3  2 -1</clus>
<clus scale="  156.399">  2  6  1 -1</clus>
<clus scale="   73.648">  1  3  2 -1</clus>
</clustering>
</event>
<event>
 6    0  0.4227619E+002  0.2545835E+03  0.7546771E-02  0.1110442E+00
         21   -1    0    0  502  501  0.00000000000E+00  0.00000000000E+00  0.23193168352E+03  0.23193168352E+03  0.00000000000E+00 0. -1.
         21   -1    0    0  505  502 -0.00000000000E+00 -0.00000000000E+00 -0.14332115575E+04  0.14332115575E+04  0.00000000000E+00 0.  1.
         21    1    1    2  503  506  0.21856764924E+01 -0.12600560494E+03 -0.25289536538E+03  0.28255664120E+03  0.00000000000E+00 0.  1.
         21    1    1    2  504  503  0.24845691206E+02 -0.90465800750E+02 -0.47633140925E+03  0.48548221483E+03  0.00000000000E+00 0.  1.
         21    1    1    2  505  504  0.42324631677E+02 -0.76045946480E+01 -0.61888267011E+03  0.62037485738E+03  0.00000000000E+00 0.  1.
         21    1    1    2  506  501 -0.69355999375E+02  0.22407600034E+03  0.14682957078E+03  0.27672952758E+03  0.00000000000E+00 0. -1.
<scales pt_clust_3="93.34483" pt_clust_4="93.34483" pt_clust_5="43.00238" pt_clust_6="233.00501"></scales>
<clustering>
<clus scale="   43.002">  2  5  1 -1</clus>
<clus scale="   93.345">  3  4 -1 -1</clus>
<clus scale="  233.005">  1  6  2 -1</clus>
<clus scale="  233.005">  1  3  2 -1</clus>
</clustering>
</event>
<event>
 6    0  0.4227619E+002  0.1083618E+03  0.7546771E-02  0.1263634E+00
         21   -1    0    0  503  501  0.00000000000E+00  0.00000000000E+00  0.44815649088E+02  0.44815649088E+02  0.00000000000E+00 0.  1.
         21   -1    0    0  504  502 -0.00000000000E+00 -0.00000000000E+00 -0.83966481212E+03  0.83966481212E+03  0.00000000000E+00 0. -1.
         21    1    1    2  503  505  0.36762189550E+02 -0.32992394960E+02 -0.16845251721E+02  0.52189263371E+02  0.00000000000E+00 0.  1.
         21    1    1    2  504  501  0.29633000854E+02 -0.95687705757E+01 -0.19451058815E+03  0.19698742349E+03  0.00000000000E+00 0.  1.
         21    1    1    2  505  506  0.76107576051E+02  0.38257226899E+02 -0.10067582454E+03  0.13187721634E+03  0.00000000000E+00 0.  1.
         21    1    1    2  506  502 -0.14250276646E+03  0.43039386368E+01 -0.48281749862E+03  0.50342655800E+03  0.00000000000E+00 0. -1.
<scales pt_clust_3="50.92525" pt_clust_4="31.13962" pt_clust_5="108.36175" pt_clust_6="14000.00000"></scales>
<clustering>
<clus scale="   31.140">  2  4  1 -1</clus>
<clus scale="   50.925">  1  3  2 -1</clus>
<clus scale="  108.362">  1  5  2 -1</clus>
<clus scale="   50.925">  1  3  2 -1</clus>
</clustering>
</event>
<event>
 6    0  0.4227619E+002  0.1015212E+03  0.7546771E-02  0.1277129E+00
         21   -1    0    0  504  501  0.00000000000E+00  0.00000000000E+00  0.16485445066E+03  0.16485445066E+03  0.00000000000E+00 0.  1.
         21   -1    0    0  503  502 -0.00000000000E+00 -0.00000000000E+00 -0.12120685549E+03  0.12120685549E+03  0.00000000000E+00 0.  1.
         21    1    1    2  503  506  0.20007804124E+02  0.60312009067E+02  0.51201373334E+01  0.63750031137E+02  0.00000000000E+00 0.  1.
         21    1    1    2  504  502 -0.97052161884E+02 -0.27373161844E+02  0.70196337771E+02  0.12286552792E+03  0.00000000000E+00 0.  1.
         21    1    1    2  505  501  0.23041399808E+02 -0.29087216893E+02 -0.78425893446E+00  0.37115863909E+02  0.00000000000E+00 0.  1.
         21    1    1    2  506  505  0.54002957952E+02 -0.38516303302E+01 -0.30884620997E+02  0.62329883185E+02  0.00000000000E+00 0.  1.
<scales pt_clust_3="63.54408" pt_clust_4="91.87389" pt_clust_5="35.75995" pt_clust_6="35.75995"></scales>
<clustering>
<clus scale="   35.760">  5  6 -1 -1</clus>
<clus scale="   63.544">  2  3  1 -1</clus>
<clus scale="   91.874">  1  4  2 -1</clus>
<clus scale="   91.874">  1  3  2 -1</clus>
</clustering>
</event>
<event>
 6    0  0.4227619E+002  0.2547053E+03  0.7546771E-02  0.1110367E+00
         21   -1    0    0  504  501  0.00000000000E+00  0.00000000000E+00  0.29558551425E+03  0.29558551425E+03  0.00000000000E+00 0.  1.
         21   -1    0    0  505  502 -0.00000000000E+00 -0.00000000000E+00 -0.53885329631E+03  0.53885329631E+03  0.00000000000E+00 0.  1.
         21    1    1    2  503  502 -0.19052198468E+03  0.28247242545E+02  0.99189432253E+02  0.21664504801E+03  0.00000000000E+00 0.  1.
         21    1    1    2  504  503 -0.59538076053E+02  0.18631121013E+02  0.74422282997E+02  0.97111159898E+02  0.00000000000E+00 0. -1.
         21    1    1    2  505  506  0.26507747898E+02 -0.29761082262E+02 -0.21600946803E+03  0.21965535048E+03  0.00000000000E+00 0. -1.
         21    1    1    2  506  501  0.22355231283E+03 -0.17117281296E+02 -0.20087002928E+03  0.30102725218E+03  0.00000000000E+00 0.  1.
<scales pt_clust_3="34.02542" pt_clust_4="34.02542" pt_clust_5="39.85452" pt_clust_6="247.58935"></scales>
<clustering>
<clus scale="   34.025">  3  4 -1 -1</clus>
<clus scale="   39.855">  2  5  1 -1</clus>
<clus scale="  247.589">  2  6  1 -1</clus>
<clus scale="  254.705">  1  3  2 -1</clus>
</clustering>
</event>
<event>
 6    0  0.4227619E+002  0.1390271E+03  0.7546771E-02  0.1214644E+00
         21   -1    0    0  504  501  0.00000000000E+00  0.00000000000E+00  0.72450328932E+03  0.72450328932E+03  0.00000000000E+00 0. -1.
         21   -1    0    0  503  502 -0.00000000000E+00 -0.00000000000E+00 -0.15469971762E+04  0.15469971762E+04  0.00000000000E+00 0.  1.
         21    1    1    2  503  505  0.11133065996E+03  0.80530307057E+02 -0.14540742566E+04  0.14605518101E+04  0.00000000000E+00 0.  1.
         21    1    1    2  504  502  0.31136102404E+02  0.27001027719E+02  0.12303547985E+02  0.43010343685E+02  0.00000000000E+00 0.  1.
         21    1    1    2  505  506 -0.22014297767E+03 -0.14931048766E+03  0.18308552868E+03  0.32291928272E+03  0.00000000000E+00 0. -1.
         21    1    1    2  506  501  0.77676215300E+02  0.41779152879E+02  0.43619129308E+03  0.44501902903E+03  0.00000000000E+00 0. -1.
<scales pt_clust_3="139.02714" pt_clust_4="41.21301" pt_clust_5="14000.00000" pt_clust_6="113.76761"></scales>
<clustering>
<clus scale="   41.213">  1  4  2 -1</clus>
<clus scale="  113.768">  1  6  2 -1</clus>
<clus scale="  139.027">  2  3  1 -1</clus>
<clus scale="   41.213">  1  3  2 -1</clus>
</clustering>
</event>
<event>
 6    0  0.4227619E+002  0.8585084E+02  0.7546771E-02  0.1313222E+00
         21   -1    0    0  505  501  0.00000000000E+00  0.00000000000E+00  0.89892006169E+03  0.89892006169E+03  0.00000000000E+00 0.  1.
         21   -1    0    0  503  502 -0.00000000000E+00 -0.00000000000E+00 -0.35634635459E+02  0.35634635459E+02  0.00000000000E+00 0.  1.
         21    1    1    2  503  504  0.15309364349E+02 -0.51140026182E+02  0.85237289089E+02  0.10057372602E+03  0.00000000000E+00 0.  1.
         21    1    1    2  504  501  0.21894688606E+02 -0.89433371129E+02  0.42200677016E+03  0.43193450814E+03  0.00000000000E+00 0.  1.
         21    1    1    2  505  506 -0.11475460189E+02  0.78928093580E+02  0.31200581181E+03  0.32203875038E+03  0.00000000000E+00 0.  1.
         21    1    1    2  506  502 -0.25728592767E+02  0.61645303730E+02  0.44035555176E+02  0.80007712612E+02  0.00000000000E+00 0.  1.
<scales pt_clust_3="53.38238" pt_clust_4="14000.00000" pt_clust_5="85.85084" pt_clust_6="32.85028"></scales>
<clustering>
<clus scale="   53.382">  2  3  1 -1</clus>
<clus scale="   32.850">  2  6  1 -1</clus>
<clus scale="   85.851">  2  5  1 -1</clus>
<clus scale="   85.851">  1  3  2 -1</clus>
</clustering>
</event>
<event>
 6    0  0.4227619E+002  0.1131790E+03  0.7546771E-02  0.1254794E+00
         21   -1    0    0  506  501  0.00000000000E+00  0.00000000000E+00  0.35642803013E+03  0.35642803013E+03  0.00000000000E+00 0. -1.
         21   -1    0    0  504  502 -0.00000000000E+00 -0.00000000000E+00 -0.78663031947E+02  0.78663031947E+02  0.00000000000E+00 0. -1.
         21    1    1    2  503  501  0.66145246060E+02  0.86323024477E+02  0.38186087264E+02  0.11526072788E+03  0.00000000000E+00 0. -1.
         21    1    1    2  504  503  0.35464580543E+02 -0.50511664705E+02  0.99784065735E+01  0.62519863580E+02  0.00000000000E+00 0. -1.
         21    1    1    2  505  502 -0.47579658006E+02 -0.18011804599E+02  0.61330898900E+02  0.79685181312E+02  0.00000000000E+00 0. -1.
         21    1    1    2  506  505 -0.54030168597E+02 -0.17799555174E+02  0.16826960545E+03  0.17762528930E+03  0.00000000000E+00 0. -1.
<scales pt_clust_3="104.51894" pt_clust_4="61.71843" pt_clust_5="41.06143" pt_clust_6="41.06143"></scales>
<clustering>
<clus scale="   41.061">  5  6 -1 -1</clus>
<clus scale="   61.718">  2  4  1 -1</clus>
<clus scale="  104.519">  2  3  1 -1</clus>
<clus scale="  113.179">  1  3  2 -1</clus>
</clustering>
</event>
<event>
 6    0  0.4227619E+002  0.1011814E+03  0.7546771E-02  0.1277831E+00
         21   -1    0    0  505  501  0.00000000000E+00  0.00000000000E+00  0.16992115436E+04  0.16992115436E+04  0.00000000000E+00 0. -1.
         21   -1    0    0  504  502 -0.00000000000E+00 -0.00000000000E+00 -0.24264695209E+03  0.24264695209E+03  0.00000000000E+00 0. -1.
         21    1    1    2  503  506 -0.13902609748E+01  0.73088748892E+02 -0.60174715166E+02  0.94683126192E+02  0.00000000000E+00 0. -1.
         21    1    1    2  504  503  0.44397259562E+02  0.21110069658E+02 -0.15419707026E+03  0.16184402422E+03  0.00000000000E+00 0. -1.
         21    1    1    2  505  502 -0.98236352867E+01  0.34837215607E+02  0.69485707613E+02  0.78347935288E+02  0.00000000000E+00 0. -1.
         21    1    1    2  506  501 -0.33183363300E+02 -0.12903603416E+03  0.16014506693E+04  0.16069834100E+04  0.00000000000E+00 0. -1.
<scales pt_clust_3="101.18141" pt_clust_4="49.17486" pt_clust_5="36.19579" pt_clust_6="14000.00000"></scales>
<clustering>
<clus scale="   36.196">  1  5  2 -1</clus>
<clus scale="   49.175">  2  4  1 -1</clus>
<clus scale="  101.181">  2  3  1 -1</clus>
<clus scale="   36.196">  1  3  2 -1</clus>
</clustering>
</event>
<event>
 6    0  0.4227619E+002  0.9004080E+02  0.7546771E-02  0.1302753E+00
         21   -1    0    0  503  501  0.00000000000E+00  0.00000000000E+00  0.84820726346E+03  0.84820726346E+03  0.00000000000E+00 0. -1.
         21   -1    0    0  506  502 -0.00000000000E+00 -0.00000000000E+00 -0.20896702070E+03  0.20896702070E+03  0.00000000000E+00 0. -1.
         21    1    1    2  503  505  0.68855698591E+00  0.67902473132E+02 -0.14212052014E+03  0.15751019717E+03  0.00000000000E+00 0. -1.
         21    1    1    2  504  502 -0.29422734108E+02  0.64747105832E+01 -0.94669664448E+01  0.31579148392E+02  0.00000000000E+00 0. -1.
         21    1    1    2  505  504  0.71649495407E+02  0.53630103298E+01 -0.24074281237E+00  0.71850330750E+02  0.00000000000E+00 0.  1.
         21    1    1    2  506  501 -0.42915318285E+02 -0.79740194045E+02  0.79106847216E+03  0.79623460784E+03  0.00000000000E+00 0. -1.
<scales pt_clust_3="90.04080" pt_clust_4="30.12672" pt_clust_5="66.35074" pt_clust_6="14000.00000"></scales>
<clustering>
<clus scale="   30.127">  2  4  1 -1</clus>
<clus scale="   66.351">  2  5  1 -1</clus>
<clus scale="   90.041">  2  3  1 -1</clus>
<clus scale="   90.041">  1  3  2 -1</clus>
</clustering>
</event>
<event>
 6    0  0.4227619E+002  0.7724542E+02  0.7546771E-02  0.1337055E+00
         21   -1    0    0  503  501  0.00000000000E+00  0.00000000000E+00  0.11965267488E+03  0.11965267488E+03  0.00000000000E+00 0. -1.
         21   -1    0    0  505  502 -0.00000000000E+00 -0.00000000000E+00 -0.19549493607E+03  0.19549493607E+03  0.00000000000E+00 0. -1.
         21    1    1    2  503  506 -0.60923822025E+02  0.96774927497E+02 -0.28844309325E+01  0.11439151465E+03  0.00000000000E+00 0. -1.
         21    1    1    2  504  501  0.33324010836E+02 -0.52476823198E+02  0.16706172484E+02  0.64369269611E+02  0.00000000000E+00 0. -1.
         21    1    1    2  505  504 -0.32052488744E+02 -0.11707618837E+02 -0.22810375394E+02  0.41045628259E+02  0.00000000000E+00 0. -1.
         21    1    1    2  506  502  0.59652299933E+02 -0.32590485462E+02 -0.66853627349E+02  0.95341198438E+02  0.00000000000E+00 0. -1.
<scales pt_clust_3="77.24542" pt_clust_4="14000.00000" pt_clust_5="34.12375" pt_clust_6="58.21659"></scales>
<clustering>
<clus scale="   34.124">  2  5  1 -1</clus>
<clus scale="   58.217">  2  6  1 -1</clus>
<clus scale="   77.245">  2  3  1 -1</clus>
<clus scale="   77.245">  1  3  2 -1</clus>
</clustering>
</event>
<event>
 6    0  0.4227619E+002  0.8203442E+02  0.7546771E-02  0.1323375E+00
         21   -1    0    0  503  501  0.00000000000E+00  0.00000000000E+00  0.31799413942E+03  0.31799413942E+03  0.00000000000E+00 0. -1.
         21   -1    0    0  505  502 -0.00000000000E+00 -0.00000000000E+00 -0.64160320189E+02  0.64160320189E+02  0.00000000000E+00 0. -1.
         21    1    1    2  503  506 -0.11857585187E+01 -0.83477383243E+02  0.14769941770E+03  0.16966142026E+03  0.00000000000E+00 0. -1.
         21    1    1    2  504  502 -0.27551642528E+02  0.16909199796E+02 -0.30981152158E+00  0.32328161515E+02  0.00000000000E+00 0. -1.
         21    1    1    2  505  501  0.54589910326E+02 -0.11904426541E+02  0.17003056198E+02  0.58402719122E+02  0.00000000000E+00 0. -1.
         21    1    1    2  506  504 -0.25852509280E+02  0.78472609987E+02  0.89441156850E+02  0.12176215871E+03  0.00000000000E+00 0. -1.
<scales pt_clust_3="82.03442" pt_clust_4="32.32668" pt_clust_5="42.91493" pt_clust_6="14000.00000"></scales>
<clustering>
<clus scale="   32.327">  2  4  1 -1</clus>
<clus scale="   42.915">  2  5  1 -1</clus>
<clus scale="   82.034">  1  3  2 -1</clus>
<clus scale="   82.034">  1  3  2 -1</clus>
</clustering>
</event>
<event>
 6    0  0.4227619E+002  0.2098790E+03  0.7546771E-02  0.1141662E+00
         21   -1    0    0  504  501  0.00000000000E+00  0.00000000000E+00  0.44653661086E+03  0.44653661086E+03  0.00000000000E+00 0. -1.
         21   -1    0    0  501  502 -0.00000000000E+00 -0.00000000000E+00 -0.75961444548E+03  0.75961444548E+03  0.00000000000E+00 0. -1.
         21    1    1    2  503  505 -0.14018616240E+03 -0.56175892117E+02 -0.31726723640E+03  0.35137784546E+03  0.00000000000E+00 0. -1.
         21    1    1    2  504  506  0.42030210338E+02  0.18639348620E+02  0.15546191022E+03  0.16211838090E+03  0.00000000000E+00 0. -1.
         21    1    1    2  505  502 -0.39859060598E+02 -0.40443516654E+02 -0.39655831221E+03  0.40060319236E+03  0.00000000000E+00 0. -1.
         21    1    1    2  506  503  0.13801501266E+03  0.77980060150E+02  0.24528580378E+03  0.29205163762E+03  0.00000000000E+00 0. -1.
<scales pt_clust_3="200.32256" pt_clust_4="33.71926" pt_clust_5="56.78400" pt_clust_6="33.71926"></scales>
<clustering>
<clus scale="   33.719">  4  6 -1 -1</clus>
<clus scale="   56.784">  2  5  1 -1</clus>
<clus scale="  200.323">  2  3  1 -1</clus>
<clus scale="  209.879">  1  3  2 -1</clus>
</clustering>
</event>
<event>
 6    0  0.4227619E+002  0.1109824E+03  0.7546771E-02  0.1258761E+00
         21   -1    0    0  505  501  0.00000000000E+00  0.00000000000E+00  0.32303059890E+03  0.32303059890E+03  0.00000000000E+00 0.  1.
         21   -1    0    0  504  502 -0.00000000000E+00 -0.00000000000E+00 -0.15889203176E+04  0.15889203176E+04  0.00000000000E+00 0.  1.
         21    1    1    2  503  501  0.42893612385E+02  0.23726572161E+01  0.24495386946E+03  0.24869235945E+03  0.00000000000E+00 0.  1.
         21    1    1    2  504  506 -0.24233025382E+02 -0.22213007320E+02 -0.12493430106E+04  0.12497754260E+04  0.00000000000E+00 0.  1.
         21    1    1    2  505  502  0.26294623833E+02 -0.92878136653E+02  0.27222761527E+02  0.10029373986E+03  0.00000000000E+00 0.  1.
         21    1    1    2  506  503 -0.44955210837E+02  0.11271848676E+03 -0.28872333905E+03  0.31318939118E+03  0.00000000000E+00 0.  1.
<scales pt_clust_3="42.81931" pt_clust_4="32.87335" pt_clust_5="14000.00000" pt_clust_6="110.98241"></scales>
<clustering>
<clus scale="   32.873">  2  4  1 -1</clus>
<clus scale="   42.819">  1  3  2 -1</clus>
<clus scale="  110.982">  2  6  1 -1</clus>
<clus scale="   42.819">  1  3  2 -1</clus>
</clustering>
</event>
<event>
 6    0  0.4227619E+002  0.1128879E+03  0.7546771E-02  0.1255313E+00
         21   -1    0    0  504  501  0.00000000000E+00  0.00000000000E+00  0.35852760270E+03  0.35852760270E+03  0.00000000000E+00 0. -1.
         21   -1    0    0  505  502 -0.00000000000E+00 -0.00000000000E+00 -0.40629669494E+03  0.40629669494E+03  0.00000000000E+00 0. -1.
         21    1    1    2  503  502  0.10973874471E+03  0.23678943583E+02 -0.18854795659E+03  0.21943932281E+03  0.00000000000E+00 0. -1.
         21    1    1    2  504  503  0.34275674427E+02 -0.38873234055E+02  0.25148419743E+03  0.25676886833E+03  0.00000000000E+00 0. -1.
         21    1    1    2  505  506 -0.53347099068E+01 -0.42818064726E+02 -0.13007836872E+03  0.13704826816E+03  0.00000000000E+00 0. -1.
         21    1    1    2  506  501 -0.13867970923E+03  0.58012355198E+02  0.19373035642E+02  0.15156783834E+03  0.00000000000E+00 0. -1.
<scales pt_clust_3="14000.00000" pt_clust_4="52.10407" pt_clust_5="43.14911" pt_clust_6="112.88795"></scales>
<clustering>
<clus scale="   43.149">  2  5  1 -1</clus>
<clus scale="   52.104">  1  4  2 -1</clus>
<clus scale="  112.888">  1  6  2 -1</clus>
<clus scale="   52.104">  1  3  2 -1</clus>
</clustering>
</event>
<event>
 6    0  0.4227619E+002  0.1530226E+03  0.7546771E-02  0.1196807E+00
         21   -1    0    0  506  501  0.00000000000E+00  0.00000000000E+00  0.31695525415E+03  0.31695525415E+03  0.00000000000E+00 0.  1.
         21   -1    0    0  503  502 -0.00000000000E+00 -0.00000000000E+00 -0.44889842507E+03  0.44889842507E+03  0.00000000000E+00 0.  1.
         21    1    1    2  503  505 -0.27292644528E+02  0.56532236527E+02 -0.22415426337E+02  0.66657584339E+02  0.00000000000E+00 0.  1.
         21    1    1    2  504  502  0.47300131455E+02  0.12680380237E+02 -0.29929786976E+02  0.57392391717E+02  0.00000000000E+00 0. -1.
         21    1    1    2  505  501  0.10096839744E+03  0.10955891063E+03  0.22416184233E+03  0.26915851043E+03  0.00000000000E+00 0.  1.
         21    1    1    2  506  504 -0.12097588437E+03 -0.17877152740E+03 -0.30375979993E+03  0.37264519273E+03  0.00000000000E+00 0.  1.
<scales pt_clust_3="61.99644" pt_clust_4="48.97034" pt_clust_5="14000.00000" pt_clust_6="153.02261"></scales>
<clustering>
<clus scale="   48.970">  2  4  1 -1</clus>
<clus scale="   61.996">  2  3  1 -1</clus>
<clus scale="  153.023">  2  6  1 -1</clus>
<clus scale="  153.023">  1  3  2 -1</clus>
</clustering>
</event>
<event>
 6    0  0.4227619E+002  0.9192251E+02  0.7546771E-02  0.1298262E+00
         21   -1    0    0  505  501  0.00000000000E+00  0.00000000000E+00  0.87206540874E+03  0.87206540874E+03  0.00000000000E+00 0.  1.
         21   -1    0    0  506  502 -0.00000000000E+00 -0.00000000000E+00 -0.15534332394E+03  0.15534332394E+03  0.00000000000E+00 0. -1.
         21    1    1    2  503  501 -0.50884189916E+01 -0.33747927538E+02  0.44999544319E+03  0.45128783887E+03  0.00000000000E+00 0.  1.
         21    1    1    2  504  502 -0.99380621606E+02  0.56466881885E+02 -0.73470888756E+02  0.13587857887E+03  0.00000000000E+00 0. -1.
         21    1    1    2  505  504  0.28556446395E+02 -0.19865888352E+02  0.36004865520E+03  0.36172525246E+03  0.00000000000E+00 0. -1.
         21    1    1    2  506  503  0.75912594202E+02 -0.28530659949E+01 -0.19851124836E+02  0.78517062485E+02  0.00000000000E+00 0. -1.
<scales pt_clust_3="34.12938" pt_clust_4="14000.00000" pt_clust_5="54.43998" pt_clust_6="91.92251"></scales>
<clustering>
<clus scale="   34.129">  1  3  2 -1</clus>
<clus scale="   54.440">  1  5  2 -1</clus>
<clus scale="   91.923">  2  6  1 -1</clus>
<clus scale="   34.129">  1  3  2 -1</clus>
</clustering>
</event>
<event>
 6    0  0.4227619E+002  0.1148470E+03  0.7546771E-02  0.1251848E+00
         21   -1    0    0  505  501  0.00000000000E+00  0.00000000000E+00  0.96138371722E+03  0.96138371722E+03  0.00000000000E+00 0. -1.
         21   -1    0    0  504  502 -0.00000000000E+00 -0.00000000000E+00 -0.49990395731E+03  0.49990395731E+03  0.00000000000E+00 0. -1.
         21    1    1    2  503  501  0.12312021489E+02  0.37571403065E+02  0.44473092193E+03  0.44648492597E+03  0.00000000000E+00 0. -1.
         21    1    1    2  504  506 -0.19462503236E+02 -0.77554172792E+02 -0.40828943469E+03  0.41604531151E+03  0.00000000000E+00 0. -1.
         21    1    1    2  505  502 -0.58052549966E+02  0.82195739675E+01 -0.74036116132E+02  0.94440491558E+02  0.00000000000E+00 0. -1.
         21    1    1    2  506  503  0.65203031712E+02  0.31763195760E+02  0.49907438880E+03  0.50431694549E+03  0.00000000000E+00 0. -1.
<scales pt_clust_3="36.46975" pt_clust_4="103.68202" pt_clust_5="58.63156" pt_clust_6="36.46975"></scales>
<clustering>
<clus scale="   36.470">  3  6 -1 -1</clus>
<clus scale="   58.632">  2  5  1 -1</clus>
<clus scale="  103.682">  2  4  1 -1</clus>
<clus scale="  114.847">  1  3  2 -1</clus>
</clustering>
</event>
<event>
 6    0  0.4227619E+002  0.7526613E+02  0.7546771E-02  0.1343049E+00
         21   -1    0    0  503  501  0.00000000000E+00  0.00000000000E+00  0.49129278734E+03  0.49129278734E+03  0.00000000000E+00 0. -1.
         21   -1    0    0  505  502 -0.00000000000E+00 -0.00000000000E+00 -0.14035199072E+03  0.14035199072E+03  0.00000000000E+00 0. -1.
         21    1    1    2  503  504  0.89060410136E+01  0.29960224664E+02  0.10686131536E+03  0.11133855284E+03  0.00000000000E+00 0.  1.
         21    1    1    2  504  506 -0.55113160777E+00 -0.86949895344E+02  0.13064461466E+03  0.15693502919E+03  0.00000000000E+00 0. -1.
         21    1    1    2  505  501 -0.68986736010E+02  0.97028158641E+01  0.22067702136E+03  0.23141232063E+03  0.00000000000E+00 0. -1.
         21    1    1    2  506  502  0.60631826604E+02  0.47286854817E+02 -0.10724215477E+03  0.13195887540E+03  0.00000000000E+00 0. -1.
<scales pt_clust_3="31.25592" pt_clust_4="14000.00000" pt_clust_5="69.36965" pt_clust_6="75.26613"></scales>
<clustering>
<clus scale="   31.256">  1  3  2 -1</clus>
<clus scale="   69.370">  1  5  2 -1</clus>
<clus scale="   75.266">  2  6  1 -1</clus>
<clus scale="   31.256">  1  3  2 -1</clus>
</clustering>
</event>
<event>
 6    0  0.4227619E+002  0.1058556E+03  0.7546771E-02  0.1268443E+00
         21   -1    0    0  506  501  0.00000000000E+00  0.00000000000E+00  0.10999555536E+04  0.10999555536E+04  0.00000000000E+00 0.  1.
         21   -1    0    0  504  502 -0.00000000000E+00 -0.00000000000E+00 -0.26381906038E+03  0.26381906038E+03  0.00000000000E+00 0.  1.
         21    1    1    2  503  505  0.45113434993E+02 -0.72479468292E+02 -0.77826575392E+02  0.11552260029E+03  0.00000000000E+00 0.  1.
         21    1    1    2  504  503  0.39556221874E+02  0.41878499197E+01 -0.15939457273E+03  0.16428287370E+03  0.00000000000E+00 0.  1.
         21    1    1    2  505  501 -0.11485636904E+02  0.48336987326E+02  0.16168511074E+03  0.16914626580E+03  0.00000000000E+00 0.  1.
         21    1    1    2  506  502 -0.73184019963E+02  0.19954631046E+02  0.91167253057E+03  0.91482287415E+03  0.00000000000E+00 0.  1.
<scales pt_clust_3="14000.00000" pt_clust_4="39.77729" pt_clust_5="49.51840" pt_clust_6="105.85559"></scales>
<clustering>
<clus scale="   39.777">  2  4  1 -1</clus>
<clus scale="   49.518">  1  5  2 -1</clus>
<clus scale="  105.856">  1  6  2 -1</clus>
<clus scale="   49.518">  1  3  2 -1</clus>
</clustering>
</event>
<event>
 6    0  0.4227619E+002  0.3698968E+03  0.7546771E-02  0.1054732E+00
         21   -1    0    0  504  501  0.00000000000E+00  0.00000000000E+00  0.16703277740E+04  0.16703277740E+04  0.00000000000E+00 0. -1.
         21   -1    0    0  505  502 -0.00000000000E+00 -0.00000000000E+00 -0.22402941853E+04  0.22402941853E+04  0.00000000000E+00 0.  1.
         21    1    1    2  503  502 -0.50379890091E+02 -0.16539811188E+02 -0.28307210613E+03  0.28799568738E+03  0.00000000000E+00 0.  1.
         21    1    1    2  504  503 -0.21533001079E+03 -0.24454007963E+03 -0.12907135210E+04  0.13312055654E+04  0.00000000000E+00 0.  1.
         21    1    1    2  505  506  0.26399460565E+03  0.21469613472E+03 -0.59847868417E+03  0.68845066452E+03  0.00000000000E+00 0.  1.
         21    1    1    2  506  501  0.17152952253E+01  0.46383756101E+02  0.16022979000E+04  0.16029700420E+04  0.00000000000E+00 0. -1.
<scales pt_clust_3="31.88467" pt_clust_4="31.88467" pt_clust_5="361.35388" pt_clust_6="46.41546"></scales>
<clustering>
<clus scale="   31.885">  3  4 -1 -1</clus>
<clus scale="   46.415">  1  6  2 -1</clus>
<clus scale="  361.354">  1  5  2 -1</clus>
<clus scale="   46.415">  1  3  2 -1</clus>
</clustering>
</event>
<event>
 6    0  0.4227619E+002  0.1009792E+03  0.7546771E-02  0.1278250E+00
         21   -1    0    0  505  501  0.00000000000E+00  0.00000000000E+00  0.52120476006E+02  0.52120476006E+02  0.00000000000E+00 0. -1.
         21   -1    0    0  506  502 -0.00000000000E+00 -0.00000000000E+00 -0.62461203699E+03  0.62461203699E+03  0.00000000000E+00 0. -1.
         21    1    1    2  503  502 -0.47599454053E+02 -0.29539493599E+02 -0.68022680149E+02  0.88121363601E+02  0.00000000000E+00 0. -1.
         21    1    1    2  504  501  0.57549405728E+02  0.18915054654E+02 -0.15087007425E+02  0.62428608708E+02  0.00000000000E+00 0.  1.
         21    1    1    2  505  503 -0.97678713687E+01 -0.71342391248E+02 -0.75776401035E+02  0.10453330117E+03  0.00000000000E+00 0. -1.
         21    1    1    2  506  504 -0.18208030566E+00  0.81966830194E+02 -0.41360547238E+03  0.42164923952E+03  0.00000000000E+00 0. -1.
<scales pt_clust_3="48.06436" pt_clust_4="60.57816" pt_clust_5="48.06436" pt_clust_6="85.01369"></scales>
<clustering>
<clus scale="   48.064">  3  5 -1 -1</clus>
<clus scale="   60.578">  1  4  2 -1</clus>
<clus scale="   85.014">  2  6  1 -1</clus>
<clus scale="   60.578">  1  3  2 -1</clus>
</clustering>
</event>
<event>
 6    0  0.4227619E+002  0.2390162E+03  0.7546771E-02  0.1120450E+00
         21   -1    0    0  506  501  0.00000000000E+00  0.00000000000E+00  0.46326836537E+03  0.46326836537E+03  0.00000000000E+00 0. -1.
         21   -1    0    0  505  502 -0.00000000000E+00 -0.00000000000E+00 -0.29127681909E+03  0.29127681909E+03  0.00000000000E+00 0.  1.
         21    1    1    2  503  502 -0.17092744263E+03  0.21381328280E+03  0.91350706673E+02  0.28857800012E+03  0.00000000000E+00 0. -1.
         21    1    1    2  504  503  0.26823201311E+02 -0.30756203073E+02  0.69130371410E+02  0.80277247133E+02  0.00000000000E+00 0. -1.
         21    1    1    2  505  501  0.10798432055E+03 -0.20002176023E+03 -0.11378193304E+03  0.25419607853E+03  0.00000000000E+00 0.  1.
         21    1    1    2  506  504  0.36119920767E+02  0.16964680503E+02  0.12529240124E+03  0.13149385868E+03  0.00000000000E+00 0. -1.
<scales pt_clust_3="239.01619" pt_clust_4="44.09247" pt_clust_5="14000.00000" pt_clust_6="39.90550"></scales>
<clustering>
<clus scale="   39.906">  1  6  2 -1</clus>
<clus scale="   44.092">  1  4  2 -1</clus>
<clus scale="  239.016">  1  3  2 -1</clus>
<clus scale="   39.906">  1  3  2 -1</clus>
</clustering>
</event>
<event>
 6    0  0.4227619E+002  0.8845613E+02  0.7546771E-02  0.1306634E+00
         21   -1    0    0  506  501  0.00000000000E+00  0.00000000000E+00  0.13281218010E+03  0.13281218010E+03  0.00000000000E+00 0. -1.
         21   -1    0    0  504  502 -0.00000000000E+00 -0.00000000000E+00 -0.27725811016E+03  0.27725811016E+03  0.00000000000E+00 0.  1.
         21    1    1    2  503  502  0.68209489988E+02 -0.50920519525E+02 -0.18662067237E+03  0.20511633087E+03  0.00000000000E+00 0.  1.
         21    1    1    2  504  505  0.43366506858E+02 -0.31193976121E+01  0.30527067360E+02  0.53125195530E+02  0.00000000000E+00 0. -1.
         21    1    1    2  505  501 -0.31396721183E+02 -0.12490491703E+02  0.31003940245E+02  0.45858595647E+02  0.00000000000E+00 0. -1.
         21    1    1    2  506  503 -0.80179275664E+02  0.66530408840E+02 -0.19356265294E+02  0.10597016822E+03  0.00000000000E+00 0. -1.
<scales pt_clust_3="88.45613" pt_clust_4="30.69792" pt_clust_5="33.79004" pt_clust_6="14000.00000"></scales>
<clustering>
<clus scale="   33.790">  1  5  2 -1</clus>
<clus scale="   30.698">  1  4  2 -1</clus>
<clus scale="   88.456">  2  3  1 -1</clus>
<clus scale="   33.790">  1  3  2 -1</clus>
</clustering>
</event>
<event>
 6    0  0.4227619E+002  0.1574634E+03  0.7546771E-02  0.1191591E+00
         21   -1    0    0  506  501  0.00000000000E+00  0.00000000000E+00  0.13023915749E+04  0.13023915749E+04  0.00000000000E+00 0.  1.
         21   -1    0    0  504  502 -0.00000000000E+00 -0.00000000000E+00 -0.15601131940E+03  0.15601131940E+03  0.00000000000E+00 0.  1.
         21    1    1    2  503  505  0.16545237771E+03 -0.48556397856E+02  0.10061679072E+04  0.10208359665E+04  0.00000000000E+00 0.  1.
         21    1    1    2  504  501 -0.26145257853E+02 -0.26771476941E+02 -0.92202360280E+02  0.99506591375E+02  0.00000000000E+00 0.  1.
         21    1    1    2  505  502 -0.13225673058E+03  0.44244680940E+02  0.42937973200E+02  0.14592156838E+03  0.00000000000E+00 0. -1.
         21    1    1    2  506  503 -0.70503892740E+01  0.31083193856E+02  0.18947673539E+03  0.19213876804E+03  0.00000000000E+00 0.  1.
<scales pt_clust_3="14000.00000" pt_clust_4="37.36363" pt_clust_5="157.46343" pt_clust_6="31.87276"></scales>
<clustering>
<clus scale="   31.873">  1  6  2 -1</clus>
<clus scale="   37.364">  2  4  1 -1</clus>
<clus scale="  157.463">  2  5  1 -1</clus>
<clus scale="   31.873">  1  3  2 -1</clus>
</clustering>
</event>
<event>
 6    0  0.4227619E+002  0.1024692E+03  0.7546771E-02  0.1275188E+00
         21   -1    0    0  506  501  0.00000000000E+00  0.00000000000E+00  0.17615366383E+03  0.17615366383E+03  0.00000000000E+00 0. -1.
         21   -1    0    0  504  502 -0.00000000000E+00 -0.00000000000E+00 -0.13661362488E+03  0.13661362488E+03  0.00000000000E+00 0. -1.
         21    1    1    2  503  502 -0.34476486154E+02  0.16520817646E+02 -0.36127044705E+02  0.52599704109E+02  0.00000000000E+00 0. -1.
         21    1    1    2  504  501  0.95775461826E+02  0.54451913486E+01 -0.20402047198E+01  0.95951819326E+02  0.00000000000E+00 0. -1.
         21    1    1    2  505  503 -0.50183942880E+02  0.38046223408E+02 -0.29790052065E+01  0.63046155399E+02  0.00000000000E+00 0. -1.
         21    1    1    2  506  505 -0.11115032792E+02 -0.60012232403E+02  0.80686293574E+02  0.10116960988E+03  0.00000000000E+00 0. -1.
<scales pt_clust_3="32.12241" pt_clust_4="93.80944" pt_clust_5="32.12241" pt_clust_6="61.03288"></scales>
<clustering>
<clus scale="   32.122">  3  5 -1 -1</clus>
<clus scale="   61.033">  1  6  2 -1</clus>
<clus scale="   93.809">  1  4  2 -1</clus>
<clus scale="   61.033">  1  3  2 -1</clus>
</clustering>
</event>
<event>
 6    0  0.4227619E+002  0.2313842E+03  0.7546771E-02  0.1125669E+00
         21   -1    0    0  505  501  0.00000000000E+00  0.00000000000E+00  0.81654544704E+03  0.81654544704E+03  0.00000000000E+00 0. -1.
         21   -1    0    0  504  502 -0.00000000000E+00 -0.00000000000E+00 -0.29140045078E+03  0.29140045078E+03  0.00000000000E+00 0. -1.
         21    1    1    2  503  506 -0.21520467294E+03  0.20125821506E+03  0.70388567607E+02  0.30293971485E+03  0.00000000000E+00 0. -1.
         21    1    1    2  504  503  0.14195130034E+01  0.40941845411E+02  0.31881676036E+02  0.51910413114E+02  0.00000000000E+00 0. -1.
         21    1    1    2  505  502  0.80940113182E+02 -0.10506022156E+03 -0.11923691606E+03  0.17834347262E+03  0.00000000000E+00 0. -1.
         21    1    1    2  506  501  0.13284504675E+03 -0.13713983891E+03  0.54211166867E+03  0.57475229723E+03  0.00000000000E+00 0. -1.
<scales pt_clust_3="39.27486" pt_clust_4="39.27486" pt_clust_5="132.62335" pt_clust_6="206.01994"></scales>
<clustering>
<clus scale="   39.275">  3  4 -1 -1</clus>
<clus scale="  132.623">  2  5  1 -1</clus>
<clus scale="  206.020">  1  6  2 -1</clus>
<clus scale="  206.020">  1  3  2 -1</clus>
</clustering>
</event>
<event>
 6    0  0.4227619E+002  0.6846216E+02  0.7546771E-02  0.1365402E+00
         21   -1    0    0  503  501  0.00000000000E+00  0.00000000000E+00  0.19870517092E+04  0.19870517092E+04  0.00000000000E+00 0.  1.
         21   -1    0    0  505  502 -0.00000000000E+00 -0.00000000000E+00 -0.82997861128E+02  0.82997861128E+02  0.00000000000E+00 0. -1.
         21    1    1    2  503  506  0.25260236977E+01  0.33521420783E+02  0.11048422631E+04  0.11053535600E+04  0.00000000000E+00 0.  1.
         21    1    1    2  504  502 -0.61168261619E+02 -0.28982111026E+02 -0.58684997960E+02  0.89584864651E+02  0.00000000000E+00 0. -1.
         21    1    1    2  505  501 -0.55558776555E+02  0.12814276313E+02  0.30329144619E+03  0.30860441453E+03  0.00000000000E+00 0. -1.
         21    1    1    2  506  504  0.11420101448E+03 -0.17353586071E+02  0.55460513680E+03  0.56650673114E+03  0.00000000000E+00 0.  1.
<scales pt_clust_3="33.61646" pt_clust_4="14000.00000" pt_clust_5="59.89680" pt_clust_6="68.46216"></scales>
<clustering>
<clus scale="   33.616">  1  3  2 -1</clus>
<clus scale="   59.897">  1  5  2 -1</clus>
<clus scale="   68.462">  1  6  2 -1</clus>
<clus scale="   33.616">  1  3  2 -1</clus>
</clustering>
</event>
<event>
 6    0  0.4227619E+002  0.8890193E+02  0.7546771E-02  0.1305533E+00
         21   -1    0    0  503  501  0.00000000000E+00  0.00000000000E+00  0.56996334657E+03  0.56996334657E+03  0.00000000000E+00 0. -1.
         21   -1    0    0  506  502 -0.00000000000E+00 -0.00000000000E+00 -0.67184829262E+02  0.67184829262E+02  0.00000000000E+00 0. -1.
         21    1    1    2  503  502 -0.10986482322E+03  0.27964488913E+02  0.10942520380E+03  0.15756321667E+03  0.00000000000E+00 0. -1.
         21    1    1    2  504  501  0.11258084243E+02 -0.28188658033E+02  0.14180850761E+03  0.14502068036E+03  0.00000000000E+00 0. -1.
         21    1    1    2  505  504  0.75156784429E+02  0.32627934411E+02  0.27584933208E+03  0.28776027932E+03  0.00000000000E+00 0. -1.
         21    1    1    2  506  505  0.23449954548E+02 -0.32403765291E+02 -0.24304526182E+02  0.46803999469E+02  0.00000000000E+00 0. -1.
<scales pt_clust_3="88.90193" pt_clust_4="30.35366" pt_clust_5="14000.00000" pt_clust_6="40.77562"></scales>
<clustering>
<clus scale="   30.354">  1  4  2 -1</clus>
<clus scale="   40.776">  2  6  1 -1</clus>
<clus scale="   88.902">  2  3  1 -1</clus>
<clus scale="   30.354">  1  3  2 -1</clus>
</clustering>
</event>
<event>
 6    0  0.4227619E+002  0.1276035E+03  0.7546771E-02  0.1231056E+00
         21   -1    0    0  506  501  0.00000000000E+00  0.00000000000E+00  0.50203259398E+03  0.50203259398E+03  0.00000000000E+00 0. -1.
         21   -1    0    0  505  502 -0.00000000000E+00 -0.00000000000E+00 -0.21234329456E+04  0.21234329456E+04  0.00000000000E+00 0. -1.
         21    1    1    2  503  501  0.28906829406E+02  0.52488470364E+02  0.37202028985E+02  0.70531094334E+02  0.00000000000E+00 0. -1.
         21    1    1    2  504  502  0.25734370683E+02  0.25230283594E+02 -0.77909171191E+02  0.85840922644E+02  0.00000000000E+00 0.  1.
         21    1    1    2  505  503 -0.55226278180E+02 -0.14989088406E+03 -0.20187855897E+04  0.20250956709E+04  0.00000000000E+00 0. -1.
         21    1    1    2  506  504  0.58507809231E+00  0.72172130097E+02  0.43809238029E+03  0.44399785174E+03  0.00000000000E+00 0. -1.
<scales pt_clust_3="60.20378" pt_clust_4="36.03922" pt_clust_5="14000.00000" pt_clust_6="127.60349"></scales>
<clustering>
<clus scale="   36.039">  2  4  1 -1</clus>
<clus scale="   60.204">  1  3  2 -1</clus>
<clus scale="  127.603">  1  6  2 -1</clus>
<clus scale="   60.204">  1  3  2 -1</clus>
</clustering>
</event>
<event>
 6    0  0.4227619E+002  0.1048182E+03  0.7546771E-02  0.1270478E+00
         21   -1    0    0  505  501  0.00000000000E+00  0.00000000000E+00  0.68561961252E+03  0.68561961252E+03  0.00000000000E+00 0. -1.
         21   -1    0    0  506  502 -0.00000000000E+00 -0.00000000000E+00 -0.60970498369E+03  0.60970498369E+03  0.00000000000E+00 0. -1.
         21    1    1    2  503  502  0.50292320579E+02  0.15804059365E+03  0.69554768276E+02  0.17984441204E+03  0.00000000000E+00 0. -1.
         21    1    1    2  504  501  0.58240211190E+02 -0.48840435938E+02  0.51274958124E+03  0.51835262461E+03  0.00000000000E+00 0. -1.
         21    1    1    2  505  503 -0.91554948019E+02 -0.83016361715E+01 -0.12530289516E+02  0.92780568145E+02  0.00000000000E+00 0. -1.
         21    1    1    2  506  504 -0.16977583749E+02 -0.10089852154E+03 -0.49385943117E+03  0.50434699142E+03  0.00000000000E+00 0. -1.
<scales pt_clust_3="104.81819" pt_clust_4="76.00862" pt_clust_5="80.29973" pt_clust_6="14000.00000"></scales>
<clustering>
<clus scale="   76.009">  1  4  2 -1</clus>
<clus scale="   80.300">  1  5  2 -1</clus>
<clus scale="  104.818">  1  3  2 -1</clus>
<clus scale="   76.009">  1  3  2 -1</clus>
</clustering>
</event>
<event>
 6    0  0.4227619E+002  0.9345134E+02  0.7546771E-02  0.1294703E+00
         21   -1    0    0  505  501  0.00000000000E+00  0.00000000000E+00  0.20273512207E+03  0.20273512207E+03  0.00000000000E+00 0.  1.
         21   -1    0    0  506  502 -0.00000000000E+00 -0.00000000000E+00 -0.20446960804E+03  0.20446960804E+03  0.00000000000E+00 0. -1.
         21    1    1    2  503  504 -0.15492122532E+01 -0.95274776993E+02  0.21468859786E+02  0.97675970075E+02  0.00000000000E+00 0. -1.
         21    1    1    2  504  502  0.71428934863E+00  0.48618685944E+02 -0.86142369963E+02  0.98918121369E+02  0.00000000000E+00 0. -1.
         21    1    1    2  505  503  0.34947964945E+02  0.75948318256E+02 -0.44092546622E+02  0.94518040433E+02  0.00000000000E+00 0. -1.
         21    1    1    2  506  501 -0.34113042040E+02 -0.29292227208E+02  0.10703157082E+03  0.11609259823E+03  0.00000000000E+00 0.  1.
<scales pt_clust_3="93.45134" pt_clust_4="46.59652" pt_clust_5="14000.00000" pt_clust_6="44.96370"></scales>
<clustering>
<clus scale="   44.964">  1  6  2 -1</clus>
<clus scale="   46.597">  2  4  1 -1</clus>
<clus scale="   93.451">  2  3  1 -1</clus>
<clus scale="   44.964">  1  3  2 -1</clus>
</clustering>
</event>
<event>
 6    0  0.4227619E+002  0.9809388E+02  0.7546771E-02  0.1284356E+00
         21   -1    0    0  506  501  0.00000000000E+00  0.00000000000E+00  0.80222500258E+03  0.80222500258E+03  0.00000000000E+00 0.  1.
         21   -1    0    0  504  502 -0.00000000000E+00 -0.00000000000E+00 -0.18264200737E+03  0.18264200737E+03  0.00000000000E+00 0.  1.
         21    1    1    2  503  505 -0.51056929746E+02  0.56351555867E+02  0.44101981700E+03  0.44752741470E+03  0.00000000000E+00 0.  1.
         21    1    1    2  504  501 -0.18683664730E+02  0.27650663268E+02 -0.48864482706E+01  0.33727079381E+02  0.00000000000E+00 0. -1.
         21    1    1    2  505  502  0.66222310710E+02 -0.11435962271E+03 -0.13194359066E+03  0.18674214538E+03  0.00000000000E+00 0.  1.
         21    1    1    2  506  503  0.35182837651E+01  0.30357403575E+02  0.31539321715E+03  0.31687037049E+03  0.00000000000E+00 0.  1.
<scales pt_clust_3="14000.00000" pt_clust_4="34.06411" pt_clust_5="98.09388" pt_clust_6="30.56060"></scales>
<clustering>
<clus scale="   30.561">  1  6  2 -1</clus>
<clus scale="   34.064">  2  4  1 -1</clus>
<clus scale="   98.094">  2  5  1 -1</clus>
<clus scale="   30.561">  1  3  2 -1</clus>
</clustering>
</event>
<event>
 6    0  0.4227619E+002  0.7583004E+02  0.7546771E-02  0.1341320E+00
         21   -1    0    0  506  501  0.00000000000E+00  0.00000000000E+00  0.10152595733E+04  0.10152595733E+04  0.00000000000E+00 0.  1.
         21   -1    0    0  505  502 -0.00000000000E+00 -0.00000000000E+00 -0.41924607189E+02  0.41924607189E+02  0.00000000000E+00 0.  1.
         21    1    1    2  503  504  0.79377765418E+02 -0.10368611270E+03  0.27212955198E+03  0.30183792451E+03  0.00000000000E+00 0.  1.
         21    1    1    2  504  502 -0.11633273465E+02  0.66590966751E+02  0.32769933625E+02  0.75123621147E+02  0.00000000000E+00 0.  1.
         21    1    1    2  505  501 -0.35704878520E+02  0.42838151385E+02  0.13874559580E+03  0.14953356118E+03  0.00000000000E+00 0.  1.
         21    1    1    2  506  503 -0.32039613433E+02 -0.57430054331E+01  0.52968988473E+03  0.53068907368E+03  0.00000000000E+00 0.  1.
<scales pt_clust_3="75.83004" pt_clust_4="14000.00000" pt_clust_5="61.13228" pt_clust_6="32.55025"></scales>
<clustering>
<clus scale="   32.550">  1  6  2 -1</clus>
<clus scale="   61.132">  1  5  2 -1</clus>
<clus scale="   75.830">  1  3  2 -1</clus>
<clus scale="   32.550">  1  3  2 -1</clus>
</clustering>
</event>
<event>
 6    0  0.4227619E+002  0.8285073E+02  0.7546771E-02  0.1321151E+00
         21   -1    0    0  506  501  0.00000000000E+00  0.00000000000E+00  0.41493904857E+03  0.41493904857E+03  0.00000000000E+00 0.  1.
         21   -1    0    0  504  502 -0.00000000000E+00 -0.00000000000E+00 -0.11591133704E+03  0.11591133704E+03  0.00000000000E+00 0.  1.
         21    1    1    2  503  505 -0.27118254130E+02  0.62328339386E+02 -0.95277469338E+01  0.68636721653E+02  0.00000000000E+00 0.  1.
         21    1    1    2  504  501  0.33746007492E+02  0.47277983643E+02  0.79059539698E+02  0.98104085420E+02  0.00000000000E+00 0.  1.
         21    1    1    2  505  502 -0.27702872167E+02 -0.26887607122E+02 -0.54936298965E+02  0.67144541751E+02  0.00000000000E+00 0.  1.
         21    1    1    2  506  503  0.21075118805E+02 -0.82718715907E+02  0.28443221773E+03  0.29696503679E+03  0.00000000000E+00 0.  1.
<scales pt_clust_3="14000.00000" pt_clust_4="51.50932" pt_clust_5="38.60560" pt_clust_6="82.85073"></scales>
<clustering>
<clus scale="   38.606">  2  5  1 -1</clus>
<clus scale="   51.509">  2  4  1 -1</clus>
<clus scale="   82.851">  1  6  2 -1</clus>
<clus scale="   82.851">  1  3  2 -1</clus>
</clustering>
</event>
<event>
 6    0  0.4227619E+002  0.8550041E+02  0.7546771E-02  0.1314129E+00
         21   -1    0    0  506  501  0.00000000000E+00  0.00000000000E+00  0.16088142814E+03  0.16088142814E+03  0.00000000000E+00 0. -1.
         21   -1    0    0  503  502 -0.00000000000E+00 -0.00000000000E+00 -0.63084983823E+03  0.63084983823E+03  0.00000000000E+00 0. -1.
         21    1    1    2  503  501 -0.36958828411E+01 -0.37810855305E+02  0.12987455088E+02  0.40149649047E+02  0.00000000000E+00 0. -1.
         21    1    1    2  504  502  0.18106910297E+02 -0.46868801616E+02 -0.48223843678E+03  0.48484889880E+03  0.00000000000E+00 0. -1.
         21    1    1    2  505  504 -0.63524135633E+02  0.11704187995E+03 -0.89345082518E+02  0.16036415198E+03  0.00000000000E+00 0. -1.
         21    1    1    2  506  505  0.49113108178E+02 -0.32362223024E+02  0.88627654118E+02  0.10636856654E+03  0.00000000000E+00 0. -1.
<scales pt_clust_3="37.99106" pt_clust_4="50.57493" pt_clust_5="85.50041" pt_clust_6="14000.00000"></scales>
<clustering>
<clus scale="   37.991">  1  3  2 -1</clus>
<clus scale="   50.575">  2  4  1 -1</clus>
<clus scale="   85.500">  2  5  1 -1</clus>
<clus scale="   37.991">  1  3  2 -1</clus>
</clustering>
</event>
<event>
 6    0  0.4227619E+002  0.7364190E+02  0.7546771E-02  0.1348129E+00
         21   -1    0    0  506  501  0.00000000000E+00  0.00000000000E+00  0.15219581168E+04  0.15219581168E+04  0.00000000000E+00 0. -1.
         21   -1    0    0  504  502 -0.00000000000E+00 -0.00000000000E+00 -0.11568948843E+04  0.11568948843E+04  0.00000000000E+00 0. -1.
         21    1    1    2  503  501 -0.53041327997E+02  0.31508030160E+02  0.14869024346E+04  0.14881817727E+04  0.00000000000E+00 0. -1.
         21    1    1    2  504  503  0.66684521067E+02 -0.44076201131E+02 -0.48811881316E+02  0.93659685103E+02  0.00000000000E+00 0.  1.
         21    1    1    2  505  502 -0.43613110523E+02 -0.59002150147E+02 -0.94111774443E+03  0.94397349858E+03  0.00000000000E+00 0. -1.
         21    1    1    2  506  505  0.29969917454E+02  0.71570321117E+02 -0.13190957639E+03  0.15303804482E+03  0.00000000000E+00 0.  1.
<scales pt_clust_3="61.69391" pt_clust_4="39.83078" pt_clust_5="14000.00000" pt_clust_6="73.64190"></scales>
<clustering>
<clus scale="   61.694">  1  3  2 -1</clus>
<clus scale="   39.831">  1  4  2 -1</clus>
<clus scale="   73.642">  1  6  2 -1</clus>
<clus scale="   61.694">  1  3  2 -1</clus>
</clustering>
</event>
<event>
 6    0  0.4227619E+002  0.7964258E+02  0.7546771E-02  0.1330069E+00
         21   -1    0    0  504  501  0.00000000000E+00  0.00000000000E+00  0.64199440369E+02  0.64199440369E+02  0.00000000000E+00 0. -1.
         21   -1    0    0  503  502 -0.00000000000E+00 -0.00000000000E+00 -0.37159375109E+03  0.37159375109E+03  0.00000000000E+00 0. -1.
         21    1    1    2  503  506  0.45870707486E+02 -0.47755377518E+02 -0.13236448178E+03  0.14800356051E+03  0.00000000000E+00 0. -1.
         21    1    1    2  504  505 -0.17172578336E+02  0.32951035876E+02 -0.96022740955E-01  0.37157468056E+02  0.00000000000E+00 0. -1.
         21    1    1    2  505  502 -0.21459478021E+02  0.95364574832E+02 -0.10777669333E+03  0.14550163901E+03  0.00000000000E+00 0. -1.
         21    1    1    2  506  501 -0.72386511296E+01 -0.80560233190E+02 -0.67157112868E+02  0.10513052388E+03  0.00000000000E+00 0. -1.
<scales pt_clust_3="60.13780" pt_clust_4="37.15734" pt_clust_5="79.64258" pt_clust_6="14000.00000"></scales>
<clustering>
<clus scale="   37.157">  1  4  2 -1</clus>
<clus scale="   60.138">  2  3  1 -1</clus>
<clus scale="   79.643">  2  5  1 -1</clus>
<clus scale="   37.157">  1  3  2 -1</clus>
</clustering>
</event>
<event>
 6    0  0.4227619E+002  0.7837906E+02  0.7546771E-02  0.1333715E+00
         21   -1    0    0  503  501  0.00000000000E+00  0.00000000000E+00  0.12841811114E+04  0.12841811114E+04  0.00000000000E+00 0. -1.
         21   -1    0    0  504  502 -0.00000000000E+00 -0.00000000000E+00 -0.38870630833E+03  0.38870630833E+03  0.00000000000E+00 0. -1.
         21    1    1    2  503  502  0.46968096649E+02 -0.33630816071E+02 -0.33497173102E+03  0.33991630511E+03  0.00000000000E+00 0. -1.
         21    1    1    2  504  506  0.29577794745E+02  0.41488465734E+02 -0.25454395084E+02  0.56956693725E+02  0.00000000000E+00 0. -1.
         21    1    1    2  505  501  0.48438599392E+02  0.11760609628E+02  0.83559478212E+03  0.83708019315E+03  0.00000000000E+00 0. -1.
         21    1    1    2  506  505 -0.12498449079E+03 -0.19618259291E+02  0.42030614710E+03  0.43893422779E+03  0.00000000000E+00 0. -1.
<scales pt_clust_3="14000.00000" pt_clust_4="52.29067" pt_clust_5="49.84586" pt_clust_6="78.37906"></scales>
<clustering>
<clus scale="   49.846">  1  5  2 -1</clus>
<clus scale="   52.291">  2  4  1 -1</clus>
<clus scale="   78.379">  1  6  2 -1</clus>
<clus scale="   49.846">  1  3  2 -1</clus>
</clustering>
</event>
<event>
 6    0  0.4227619E+002  0.1273135E+03  0.7546771E-02  0.1231497E+00
         21   -1    0    0  503  501  0.00000000000E+00  0.00000000000E+00  0.24867612660E+03  0.24867612660E+03  0.00000000000E+00 0. -1.
         21   -1    0    0  506  502 -0.00000000000E+00 -0.00000000000E+00 -0.10819587103E+03  0.10819587103E+03  0.00000000000E+00 0. -1.
         21    1    1    2  503  504  0.27799042890E+02 -0.16414090368E+02  0.46805092548E+02  0.56858823736E+02  0.00000000000E+00 0.  1.
         21    1    1    2  504  505 -0.40315499167E+02 -0.94461205587E+00 -0.96175509687E+01  0.41457557232E+02  0.00000000000E+00 0. -1.
         21    1    1    2  505  502 -0.45369064709E+02 -0.76506388413E+02 -0.22016258766E+02  0.91631300060E+02  0.00000000000E+00 0. -1.
         21    1    1    2  506  501  0.57885520987E+02  0.93865090837E+02  0.12530897276E+03  0.16692431660E+03  0.00000000000E+00 0. -1.
<scales pt_clust_3="32.28326" pt_clust_4="37.98253" pt_clust_5="37.98253" pt_clust_6="113.30169"></scales>
<clustering>
<clus scale="   32.283">  1  3  2 -1</clus>
<clus scale="   37.983">  4  5 -1 -1</clus>
<clus scale="  113.302">  1  6  2 -1</clus>
<clus scale="   32.283">  1  3  2 -1</clus>
</clustering>
</event>
<event>
 6    0  0.4227619E+002  0.8840468E+02  0.7546771E-02  0.1306762E+00
         21   -1    0    0  503  501  0.00000000000E+00  0.00000000000E+00  0.10673320649E+04  0.10673320649E+04  0.00000000000E+00 0.  1.
         21   -1    0    0  505  502 -0.00000000000E+00 -0.00000000000E+00 -0.56450659302E+02  0.56450659302E+02  0.00000000000E+00 0. -1.
         21    1    1    2  503  506 -0.14029125543E+02 -0.87853806329E+02  0.42966964588E+03  0.43878367363E+03  0.00000000000E+00 0.  1.
         21    1    1    2  504  501  0.33180467231E+02  0.13141515240E+02  0.11704457085E+03  0.12236451444E+03  0.00000000000E+00 0.  1.
         21    1    1    2  505  504  0.69192301693E+02 -0.27515226682E+01 -0.13653172567E+02  0.70580129015E+02  0.00000000000E+00 0. -1.
         21    1    1    2  506  502 -0.88343643381E+02  0.77463813757E+02  0.47782036147E+03  0.49205440716E+03  0.00000000000E+00 0.  1.
<scales pt_clust_3="88.40468" pt_clust_4="35.68813" pt_clust_5="70.22849" pt_clust_6="14000.00000"></scales>
<clustering>
<clus scale="   35.688">  1  4  2 -1</clus>
<clus scale="   70.228">  2  5  1 -1</clus>
<clus scale="   88.405">  1  3  2 -1</clus>
<clus scale="   35.688">  1  3  2 -1</clus>
</clustering>
</event>
<event>
 6    0  0.4227619E+002  0.9554522E+02  0.7546771E-02  0.1289953E+00
         21   -1    0    0  505  501  0.00000000000E+00  0.00000000000E+00  0.38635297715E+03  0.38635297715E+03  0.00000000000E+00 0. -1.
         21   -1    0    0  504  502 -0.00000000000E+00 -0.00000000000E+00 -0.14113162392E+04  0.14113162392E+04  0.00000000000E+00 0. -1.
         21    1    1    2  503  501 -0.83099321314E+01  0.58324330298E+02 -0.12630449502E+03  0.13936860456E+03  0.00000000000E+00 0.  1.
         21    1    1    2  504  503  0.11946850654E+02  0.43618000359E+02 -0.12191797224E+04  0.12200182182E+04  0.00000000000E+00 0. -1.
         21    1    1    2  505  506 -0.20564858429E+02  0.33806153682E+02  0.29681830737E+03  0.29944428032E+03  0.00000000000E+00 0. -1.
         21    1    1    2  506  502  0.16927939907E+02 -0.13574848434E+03  0.23702648080E+02  0.13883811319E+03  0.00000000000E+00 0.  1.
<scales pt_clust_3="95.54522" pt_clust_4="45.35386" pt_clust_5="39.56980" pt_clust_6="14000.00000"></scales>
<clustering>
<clus scale="   39.570">  1  5  2 -1</clus>
<clus scale="   45.354">  2  4  1 -1</clus>
<clus scale="   95.545">  2  3  1 -1</clus>
<clus scale="   39.570">  1  3  2 -1</clus>
</clustering>
</event>
<event>
 6    0  0.4227619E+002  0.1599990E+03  0.7546771E-02  0.1188698E+00
         21   -1    0    0  505  501  0.00000000000E+00  0.00000000000E+00  0.10181453986E+03  0.10181453986E+03  0.00000000000E+00 0.  1.
         21   -1    0    0  504  502 -0.00000000000E+00 -0.00000000000E+00 -0.46612605497E+03  0.46612605497E+03  0.00000000000E+00 0.  1.
         21    1    1    2  503  506 -0.69483628864E+02 -0.18084692326E+02  0.80624772062E+01  0.72249804950E+02  0.00000000000E+00 0.  1.
         21    1    1    2  504  503  0.17944306437E+03  0.22938052774E+02 -0.25553210923E+03  0.31308565356E+03  0.00000000000E+00 0.  1.
         21    1    1    2  505  502 -0.50737867682E+02  0.37903550233E+02 -0.75962334863E+02  0.98900387537E+02  0.00000000000E+00 0.  1.
         21    1    1    2  506  501 -0.59221567824E+02 -0.42756910681E+02 -0.40879548220E+02  0.83704748785E+02  0.00000000000E+00 0. -1.
<scales pt_clust_3="54.10523" pt_clust_4="150.40455" pt_clust_5="63.33254" pt_clust_6="54.10523"></scales>
<clustering>
<clus scale="   54.105">  3  6 -1 -1</clus>
<clus scale="   63.333">  2  5  1 -1</clus>
<clus scale="  150.405">  2  4  1 -1</clus>
<clus scale="  159.999">  1  3  2 -1</clus>
</clustering>
</event>
<event>
 6    0  0.4227619E+002  0.1429857E+03  0.7546771E-02  0.1209367E+00
         21   -1    0    0  503  501  0.00000000000E+00  0.00000000000E+00  0.13170072515E+04  0.13170072515E+04  0.00000000000E+00 0. -1.
         21   -1    0    0  504  502 -0.00000000000E+00 -0.00000000000E+00 -0.11714944865E+03  0.11714944865E+03  0.00000000000E+00 0. -1.
         21    1    1    2  503  506 -0.10825919536E+03 -0.34596929207E+02  0.72622464110E+03  0.73506409940E+03  0.00000000000E+00 0. -1.
         21    1    1    2  504  505  0.10295516889E+03 -0.15297828462E+02  0.22940431558E+03  0.25191294203E+03  0.00000000000E+00 0. -1.
         21    1    1    2  505  501  0.58938659948E+02 -0.17989457027E+01  0.32905041464E+03  0.33429205377E+03  0.00000000000E+00 0. -1.
         21    1    1    2  506  502 -0.53634633472E+02  0.51693703372E+02 -0.84821568458E+02  0.11288760495E+03  0.00000000000E+00 0. -1.
<scales pt_clust_3="123.21611" pt_clust_4="54.60224" pt_clust_5="54.60224" pt_clust_6="74.49103"></scales>
<clustering>
<clus scale="   54.602">  4  5 -1 -1</clus>
<clus scale="   74.491">  2  6  1 -1</clus>
<clus scale="  123.216">  1  3  2 -1</clus>
<clus scale="  123.216">  1  3  2 -1</clus>
</clustering>
</event>
<event>
 6    0  0.4227619E+002  0.1011713E+03  0.7546771E-02  0.1277852E+00
         21   -1    0    0  503  501  0.00000000000E+00  0.00000000000E+00  0.13387345945E+04  0.13387345945E+04  0.00000000000E+00 0.  1.
         21   -1    0    0  504  502 -0.00000000000E+00 -0.00000000000E+00 -0.50837435011E+03  0.50837435011E+03  0.00000000000E+00 0.  1.
         21    1    1    2  503  506  0.16143534811E+02 -0.13398791451E+03  0.15529200948E+03  0.20574008642E+03  0.00000000000E+00 0. -1.
         21    1    1    2  504  505 -0.17860411371E+01  0.73519708609E+02  0.36109745032E+03  0.36851011672E+03  0.00000000000E+00 0. -1.
         21    1    1    2  505  501 -0.15206295761E+02  0.29393363573E+02  0.79256518984E+03  0.79325581082E+03  0.00000000000E+00 0.  1.
         21    1    1    2  506  502  0.84880208742E+00  0.31074842331E+02 -0.47859440528E+03  0.47960293062E+03  0.00000000000E+00 0.  1.
<scales pt_clust_3="14000.00000" pt_clust_4="101.17133" pt_clust_5="33.41524" pt_clust_6="31.08643"></scales>
<clustering>
<clus scale="   31.086">  2  6  1 -1</clus>
<clus scale="   33.415">  1  5  2 -1</clus>
<clus scale="  101.171">  1  4  2 -1</clus>
<clus scale="   33.415">  1  3  2 -1</clus>
</clustering>
</event>
<event>
 6    0  0.4227619E+002  0.6162939E+02  0.7546771E-02  0.1391118E+00
         21   -1    0    0  505  501  0.00000000000E+00  0.00000000000E+00  0.12339571037E+04  0.12339571037E+04  0.00000000000E+00 0. -1.
         21   -1    0    0  506  502 -0.00000000000E+00 -0.00000000000E+00 -0.21866235580E+03  0.21866235580E+03  0.00000000000E+00 0. -1.
         21    1    1    2  503  502  0.87208360044E+02 -0.43675996147E+01 -0.28483661983E+02  0.91846028700E+02  0.00000000000E+00 0. -1.
         21    1    1    2  504  501 -0.84850848104E+02 -0.15148889822E+02  0.18775898454E+03  0.20659765624E+03  0.00000000000E+00 0. -1.
         21    1    1    2  505  503  0.33863227602E+02 -0.55946691176E+01  0.10015396585E+04  0.10021275897E+04  0.00000000000E+00 0. -1.
         21    1    1    2  506  504 -0.36220739542E+02  0.25111158555E+02 -0.14552023316E+03  0.15204818485E+03  0.00000000000E+00 0. -1.
<scales pt_clust_3="61.62939" pt_clust_4="14000.00000" pt_clust_5="34.32227" pt_clust_6="43.63829"></scales>
<clustering>
<clus scale="   34.322">  1  5  2 -1</clus>
<clus scale="   43.638">  2  6  1 -1</clus>
<clus scale="   61.629">  2  3  1 -1</clus>
<clus scale="   34.322">  1  3  2 -1</clus>
</clustering>
</event>
<event>
 6    0  0.4227619E+002  0.6726070E+02  0.7546771E-02  0.1369664E+00
         21   -1    0    0  504  501  0.00000000000E+00  0.00000000000E+00  0.20325762205E+04  0.20325762205E+04  0.00000000000E+00 0.  1.
         21   -1    0    0  505  502 -0.00000000000E+00 -0.00000000000E+00 -0.10186555548E+04  0.10186555548E+04  0.00000000000E+00 0. -1.
         21    1    1    2  503  506 -0.70639609851E+02 -0.81208321353E+01  0.43075229902E+03  0.43658154508E+03  0.00000000000E+00 0.  1.
         21    1    1    2  504  503  0.28720716764E+02  0.51665638041E+02  0.13610879329E+04  0.13623709402E+04  0.00000000000E+00 0.  1.
         21    1    1    2  505  501 -0.17979508708E+02  0.53809378283E+02 -0.10004770711E+04  0.10020843685E+04  0.00000000000E+00 0. -1.
         21    1    1    2  506  502  0.59898401796E+02 -0.97354184189E+02  0.22255750486E+03  0.25019492138E+03  0.00000000000E+00 0.  1.
<scales pt_clust_3="67.26070" pt_clust_4="60.54556" pt_clust_5="56.73369" pt_clust_6="14000.00000"></scales>
<clustering>
<clus scale="   56.734">  2  5  1 -1</clus>
<clus scale="   60.546">  1  4  2 -1</clus>
<clus scale="   67.261">  1  3  2 -1</clus>
<clus scale="   60.546">  1  3  2 -1</clus>
</clustering>
</event>
<event>
 6    0  0.4227619E+002  0.1310736E+03  0.7546771E-02  0.1225871E+00
         21   -1    0    0  504  501  0.00000000000E+00  0.00000000000E+00  0.19333823074E+03  0.19333823074E+03  0.00000000000E+00 0.  1.
         21   -1    0    0  503  502 -0.00000000000E+00 -0.00000000000E+00 -0.22095440727E+03  0.22095440727E+03  0.00000000000E+00 0.  1.
         21    1    1    2  503  501 -0.76339599491E+02 -0.16838615884E+02 -0.26071507936E+02  0.82407505492E+02  0.00000000000E+00 0.  1.
         21    1    1    2  504  505  0.94666065879E+02 -0.82982657417E+02  0.11284937412E+03  0.16906438626E+03  0.00000000000E+00 0.  1.
         21    1    1    2  505  506  0.14855754332E+02  0.67704415209E+02 -0.62212245117E+02  0.93139383282E+02  0.00000000000E+00 0.  1.
         21    1    1    2  506  502 -0.33182220720E+02  0.32116858091E+02 -0.52181797604E+02  0.69681362980E+02  0.00000000000E+00 0.  1.
<scales pt_clust_3="78.17463" pt_clust_4="118.55736" pt_clust_5="45.62449" pt_clust_6="45.62449"></scales>
<clustering>
<clus scale="   45.624">  5  6 -1 -1</clus>
<clus scale="   78.175">  2  3  1 -1</clus>
<clus scale="  118.557">  1  4  2 -1</clus>
<clus scale="  118.557">  1  3  2 -1</clus>
</clustering>
</event>
<event>
 6    0  0.4227619E+002  0.1364346E+03  0.7546771E-02  0.1218209E+00
         21   -1    0    0  506  501  0.00000000000E+00  0.00000000000E+00  0.17006338942E+04  0.17006338942E+04  0.00000000000E+00 0.  1.
         21   -1    0    0  505  502 -0.00000000000E+00 -0.00000000000E+00 -0.20584823624E+03  0.20584823624E+03  0.00000000000E+00 0.  1.
         21    1    1    2  503  504 -0.96571712335E+02 -0.54173433863E+02  0.13193425349E+03  0.17224257256E+03  0.00000000000E+00 0.  1.
         21    1    1    2  504  501  0.29363312863E+02 -0.83050965784E+02  0.13216293519E+04  0.13245617430E+04  0.00000000000E+00 0.  1.
         21    1    1    2  505  503 -0.25278738464E+02 -0.16583693507E+02 -0.14672243965E+03  0.14980489914E+03  0.00000000000E+00 0.  1.
         21    1    1    2  506  502  0.92487137935E+02  0.15380809315E+03  0.18794449217E+03  0.25987291575E+03  0.00000000000E+00 0.  1.
<scales pt_clust_3="136.43463" pt_clust_4="88.27569" pt_clust_5="30.23299" pt_clust_6="14000.00000"></scales>
<clustering>
<clus scale="   30.233">  2  5  1 -1</clus>
<clus scale="   88.276">  1  4  2 -1</clus>
<clus scale="  136.435">  1  3  2 -1</clus>
<clus scale="   88.276">  1  3  2 -1</clus>
</clustering>
</event>
<event>
 6    0  0.4227619E+002  0.8801263E+02  0.7546771E-02  0.1307737E+00
         21   -1    0    0  504  501  0.00000000000E+00  0.00000000000E+00  0.22925370541E+03  0.22925370541E+03  0.00000000000E+00 0.  1.
         21   -1    0    0  503  502 -0.00000000000E+00 -0.00000000000E+00 -0.14322224928E+04  0.14322224928E+04  0.00000000000E+00 0. -1.
         21    1    1    2  503  505  0.10018010135E+03 -0.40437392969E+01 -0.11111108979E+04  0.11156253099E+04  0.00000000000E+00 0. -1.
         21    1    1    2  504  506 -0.52021941972E+02  0.10100249885E+02  0.21297787938E+03  0.21947180822E+03  0.00000000000E+00 0.  1.
         21    1    1    2  505  501 -0.53002962382E+02  0.42339850315E+02 -0.18526346557E+03  0.19729300196E+03  0.00000000000E+00 0. -1.
         21    1    1    2  506  502  0.48448030072E+01 -0.48396360903E+02 -0.11957230324E+03  0.12908607813E+03  0.00000000000E+00 0.  1.
<scales pt_clust_3="88.01263" pt_clust_4="52.95879" pt_clust_5="14000.00000" pt_clust_6="48.63826"></scales>
<clustering>
<clus scale="   48.638">  2  6  1 -1</clus>
<clus scale="   52.959">  1  4  2 -1</clus>
<clus scale="   88.013">  2  3  1 -1</clus>
<clus scale="   52.959">  1  3  2 -1</clus>
</clustering>
</event>
<event>
 6    0  0.4227619E+002  0.8293880E+02  0.7546771E-02  0.1320913E+00
         21   -1    0    0  505  501  0.00000000000E+00  0.00000000000E+00  0.13272963065E+04  0.13272963065E+04  0.00000000000E+00 0.  1.
         21   -1    0    0  504  502 -0.00000000000E+00 -0.00000000000E+00 -0.26438873181E+02  0.26438873181E+02  0.00000000000E+00 0.  1.
         21    1    1    2  503  502  0.43208207769E+02  0.58341732026E+02  0.78615666634E+02  0.10700995260E+03  0.00000000000E+00 0.  1.
         21    1    1    2  504  501 -0.65548235073E+02  0.59495150609E+02  0.33096223173E+03  0.34259632646E+03  0.00000000000E+00 0.  1.
         21    1    1    2  505  506 -0.28799934875E+01 -0.32918712202E+02  0.56716621275E+03  0.56812802154E+03  0.00000000000E+00 0.  1.
         21    1    1    2  506  503  0.25220020792E+02 -0.84918170433E+02  0.32411332220E+03  0.33600087909E+03  0.00000000000E+00 0.  1.
<scales pt_clust_3="69.19034" pt_clust_4="82.93880" pt_clust_5="33.04445" pt_clust_6="14000.00000"></scales>
<clustering>
<clus scale="   33.044">  1  5  2 -1</clus>
<clus scale="   69.190">  2  3  1 -1</clus>
<clus scale="   82.939">  1  4  2 -1</clus>
<clus scale="   33.044">  1  3  2 -1</clus>
</clustering>
</event>
<event>
 6    0  0.4227619E+002  0.8389892E+02  0.7546771E-02  0.1318337E+00
         21   -1    0    0  503  501  0.00000000000E+00  0.00000000000E+00  0.89113506677E+03  0.89113506677E+03  0.00000000000E+00 0.  1.
         21   -1    0    0  506  502 -0.00000000000E+00 -0.00000000000E+00 -0.19119598525E+04  0.19119598525E+04  0.00000000000E+00 0. -1.
         21    1    1    2  503  504  0.46809638566E+02 -0.32412376683E+02  0.46653207816E+03  0.46999349397E+03  0.00000000000E+00 0.  1.
         21    1    1    2  504  502 -0.10883890474E+03  0.25927118856E+02 -0.85613865697E+03  0.86341850955E+03  0.00000000000E+00 0. -1.
         21    1    1    2  505  501  0.37212837026E+02  0.32415501349E+02  0.41747188204E+03  0.42037879616E+03  0.00000000000E+00 0.  1.
         21    1    1    2  506  505  0.24816429148E+02 -0.25930243522E+02 -0.10486900890E+04  0.10493041196E+04  0.00000000000E+00 0. -1.
<scales pt_clust_3="14000.00000" pt_clust_4="83.89892" pt_clust_5="49.35426" pt_clust_6="35.89196"></scales>
<clustering>
<clus scale="   35.892">  2  6  1 -1</clus>
<clus scale="   49.354">  1  5  2 -1</clus>
<clus scale="   83.899">  2  4  1 -1</clus>
<clus scale="   49.354">  1  3  2 -1</clus>
</clustering>
</event>
<event>
 6    0  0.4227619E+002  0.1516097E+03  0.7546771E-02  0.1198509E+00
         21   -1    0    0  504  501  0.00000000000E+00  0.00000000000E+00  0.58742390761E+03  0.58742390761E+03  0.00000000000E+00 0. -1.
         21   -1    0    0  505  502 -0.00000000000E+00 -0.00000000000E+00 -0.12449812236E+04  0.12449812236E+04  0.00000000000E+00 0.  1.
         21    1    1    2  503  501 -0.12572400326E+03  0.85509459951E+02  0.55635945664E+03  0.57676185530E+03  0.00000000000E+00 0. -1.
         21    1    1    2  504  502  0.64310384265E+02 -0.93878628403E+02 -0.10596008759E+04  0.10656936890E+04  0.00000000000E+00 0.  1.
         21    1    1    2  505  506  0.16988235603E+02 -0.39301370682E+02 -0.41268988221E+02  0.59467026789E+02  0.00000000000E+00 0. -1.
         21    1    1    2  506  503  0.44425383394E+02  0.47670539134E+02 -0.11304690850E+03  0.13048256018E+03  0.00000000000E+00 0. -1.
<scales pt_clust_3="151.60975" pt_clust_4="14000.00000" pt_clust_5="42.81586" pt_clust_6="63.53790"></scales>
<clustering>
<clus scale="   42.816">  2  5  1 -1</clus>
<clus scale="   63.538">  2  6  1 -1</clus>
<clus scale="  151.610">  1  3  2 -1</clus>
<clus scale="  151.610">  1  3  2 -1</clus>
</clustering>
</event>
<event>
 6    0  0.4227619E+002  0.1042940E+03  0.7546771E-02  0.1271517E+00
         21   -1    0    0  506  501  0.00000000000E+00  0.00000000000E+00  0.89989975949E+03  0.89989975949E+03  0.00000000000E+00 0.  1.
         21   -1    0    0  503  502 -0.00000000000E+00 -0.00000000000E+00 -0.54582496791E+02  0.54582496791E+02  0.00000000000E+00 0.  1.
         21    1    1    2  503  505  0.25445254165E+02 -0.25053771019E+02 -0.12702060656E+02  0.37901118014E+02  0.00000000000E+00 0.  1.
         21    1    1    2  504  501  0.85710798912E+02  0.66913334301E+02  0.71122779571E+03  0.71949198241E+03  0.00000000000E+00 0.  1.
         21    1    1    2  505  504 -0.41513263755E+02  0.31405843951E+01  0.81626011999E+02  0.91629799590E+02  0.00000000000E+00 0.  1.
         21    1    1    2  506  502 -0.69642789321E+02 -0.45000147677E+02  0.65165515645E+02  0.10545935627E+03  0.00000000000E+00 0.  1.
<scales pt_clust_3="35.70928" pt_clust_4="104.29403" pt_clust_5="37.18405" pt_clust_6="14000.00000"></scales>
<clustering>
<clus scale="   35.709">  2  3  1 -1</clus>
<clus scale="   37.184">  2  5  1 -1</clus>
<clus scale="  104.294">  1  4  2 -1</clus>
<clus scale="  104.294">  1  3  2 -1</clus>
</clustering>
</event>
<event>
 6    0  0.4227619E+002  0.1084855E+03  0.7546771E-02  0.1263400E+00
         21   -1    0    0  504  501  0.00000000000E+00  0.00000000000E+00  0.43127834221E+03  0.43127834221E+03  0.00000000000E+00 0. -1.
         21   -1    0    0  505  502 -0.00000000000E+00 -0.00000000000E+00 -0.12088663147E+03  0.12088663147E+03  0.00000000000E+00 0. -1.
         21    1    1    2  503  506 -0.19457824678E+02 -0.38420418579E+02  0.21367901676E+02  0.48076217894E+02  0.00000000000E+00 0. -1.
         21    1    1    2  504  502 -0.22371519878E+02 -0.10425905319E+03  0.29004548173E+03  0.30902559206E+03  0.00000000000E+00 0. -1.
         21    1    1    2  505  503  0.13880387798E+02  0.30522218624E+02 -0.57387463414E+02  0.66464967857E+02  0.00000000000E+00 0. -1.
         21    1    1    2  506  501  0.27948956759E+02  0.11215725314E+03  0.56365790741E+02  0.12859819587E+03  0.00000000000E+00 0. -1.
<scales pt_clust_3="35.48040" pt_clust_4="108.48554" pt_clust_5="33.53015" pt_clust_6="14000.00000"></scales>
<clustering>
<clus scale="   33.530">  2  5  1 -1</clus>
<clus scale="   35.480">  2  3  1 -1</clus>
<clus scale="  108.486">  1  4  2 -1</clus>
<clus scale="  108.486">  1  3  2 -1</clus>
</clustering>
</event>
<event>
 6    0  0.4227619E+002  0.1748610E+03  0.7546771E-02  0.1172871E+00
         21   -1    0    0  504  501  0.00000000000E+00  0.00000000000E+00  0.11279963156E+04  0.11279963156E+04  0.00000000000E+00 0. -1.
         21   -1    0    0  503  502 -0.00000000000E+00 -0.00000000000E+00 -0.53064824134E+03  0.53064824134E+03  0.00000000000E+00 0. -1.
         21    1    1    2  503  506  0.14807730330E+02 -0.14296515672E+03  0.18372819193E+02  0.14489950103E+03  0.00000000000E+00 0. -1.
         21    1    1    2  504  505 -0.73576513028E+02 -0.46960863035E+02  0.15544872636E+03  0.17827824448E+03  0.00000000000E+00 0. -1.
         21    1    1    2  505  502  0.11582134970E+03  0.15154450494E+03 -0.43458786490E+03  0.47460186930E+03  0.00000000000E+00 0. -1.
         21    1    1    2  506  501 -0.57052567005E+02  0.38381514813E+02  0.85811439356E+03  0.86086494209E+03  0.00000000000E+00 0. -1.
<scales pt_clust_3="14000.00000" pt_clust_4="111.45381" pt_clust_5="174.86099" pt_clust_6="68.76144"></scales>
<clustering>
<clus scale="   68.761">  1  6  2 -1</clus>
<clus scale="  111.454">  1  4  2 -1</clus>
<clus scale="  174.861">  2  5  1 -1</clus>
<clus scale="   68.761">  1  3  2 -1</clus>
</clustering>
</event>
<event>
 6    0  0.4227619E+002  0.1385193E+03  0.7546771E-02  0.1215335E+00
         21   -1    0    0  506  501  0.00000000000E+00  0.00000000000E+00  0.48795261657E+03  0.48795261657E+03  0.00000000000E+00 0.  1.
         21   -1    0    0  505  502 -0.00000000000E+00 -0.00000000000E+00 -0.26391550350E+03  0.26391550350E+03  0.00000000000E+00 0.  1.
         21    1    1    2  503  501  0.26956328542E+02 -0.25675716226E+02  0.22296726489E+03  0.22605372650E+03  0.00000000000E+00 0.  1.
         21    1    1    2  504  502  0.38949394605E+02  0.69965787299E+02 -0.11464304419E+03  0.13984024569E+03  0.00000000000E+00 0.  1.
         21    1    1    2  505  503 -0.13858453556E+03  0.88480743569E+02  0.15881298477E+03  0.22859588713E+03  0.00000000000E+00 0.  1.
         21    1    1    2  506  504  0.72678812416E+02 -0.13277081464E+03 -0.43100092392E+02  0.15737826076E+03  0.00000000000E+00 0.  1.
<scales pt_clust_3="37.22749" pt_clust_4="79.64947" pt_clust_5="14000.00000" pt_clust_6="138.51926"></scales>
<clustering>
<clus scale="   37.227">  1  3  2 -1</clus>
<clus scale="   79.649">  2  4  1 -1</clus>
<clus scale="  138.519">  2  6  1 -1</clus>
<clus scale="   37.227">  1  3  2 -1</clus>
</clustering>
</event>
<event>
 6    0  0.4227619E+002  0.1573142E+03  0.7546771E-02  0.1191763E+00
         21   -1    0    0  506  501  0.00000000000E+00  0.00000000000E+00  0.25326758458E+03  0.25326758458E+03  0.00000000000E+00 0. -1.
         21   -1    0    0  505  502 -0.00000000000E+00 -0.00000000000E+00 -0.89487741311E+03  0.89487741311E+03  0.00000000000E+00 0. -1.
         21    1    1    2  503  501  0.46079972475E+01 -0.16409492202E+03 -0.60244508100E+03  0.62441048413E+03  0.00000000000E+00 0. -1.
         21    1    1    2  504  502 -0.90030079779E+02  0.11174545188E+03  0.85717649964E+02  0.16715255546E+03  0.00000000000E+00 0. -1.
         21    1    1    2  505  503  0.30093140381E+02  0.80549389071E+01 -0.22873654394E+03  0.23084818750E+03  0.00000000000E+00 0. -1.
         21    1    1    2  506  504  0.55328942151E+02  0.44294531235E+02  0.10385414644E+03  0.12573377060E+03  0.00000000000E+00 0. -1.
<scales pt_clust_3="157.31418" pt_clust_4="14000.00000" pt_clust_5="31.15251" pt_clust_6="71.34474"></scales>
<clustering>
<clus scale="   31.153">  2  5  1 -1</clus>
<clus scale="   71.345">  1  6  2 -1</clus>
<clus scale="  157.314">  2  3  1 -1</clus>
<clus scale="   71.345">  1  3  2 -1</clus>
</clustering>
</event>
<event>
 6    0  0.4227619E+002  0.6447814E+02  0.7546771E-02  0.1379945E+00
         21   -1    0    0  503  501  0.00000000000E+00  0.00000000000E+00  0.28841930758E+03  0.28841930758E+03  0.00000000000E+00 0. -1.
         21   -1    0    0  506  502 -0.00000000000E+00 -0.00000000000E+00 -0.63312512324E+02  0.63312512324E+02  0.00000000000E+00 0. -1.
         21    1    1    2  503  504  0.31892301814E+01 -0.44496703162E+02  0.81473347571E+02  0.92887211961E+02  0.00000000000E+00 0. -1.
         21    1    1    2  504  505  0.46835044579E+02 -0.18496384213E+02  0.54611398938E+02  0.74283527943E+02  0.00000000000E+00 0. -1.
         21    1    1    2  505  502 -0.64132242803E+02 -0.22849927111E+02  0.13605170783E+02  0.69427403868E+02  0.00000000000E+00 0. -1.
         21    1    1    2  506  501  0.14107968042E+02  0.85843014485E+02  0.75416877966E+02  0.11513367614E+03  0.00000000000E+00 0. -1.
<scales pt_clust_3="44.61085" pt_clust_4="57.98772" pt_clust_5="14000.00000" pt_clust_6="64.47814"></scales>
<clustering>
<clus scale="   44.611">  1  3  2 -1</clus>
<clus scale="   57.988">  1  4  2 -1</clus>
<clus scale="   64.478">  1  6  2 -1</clus>
<clus scale="   44.611">  1  3  2 -1</clus>
</clustering>
</event>
<event>
 6    0  0.4227619E+002  0.8294626E+02  0.7546771E-02  0.1320892E+00
         21   -1    0    0  505  501  0.00000000000E+00  0.00000000000E+00  0.49262219268E+03  0.49262219268E+03  0.00000000000E+00 0. -1.
         21   -1    0    0  504  502 -0.00000000000E+00 -0.00000000000E+00 -0.88975869331E+02  0.88975869331E+02  0.00000000000E+00 0. -1.
         21    1    1    2  503  501 -0.23634749580E+02 -0.36783849399E+02  0.16555738393E+03  0.17123346735E+03  0.00000000000E+00 0. -1.
         21    1    1    2  504  503  0.98944924367E+02  0.34436048675E+02  0.32276773305E+02  0.10962540582E+03  0.00000000000E+00 0. -1.
         21    1    1    2  505  506 -0.61196065329E+02  0.50681455023E+02  0.23111093888E+03  0.24438869525E+03  0.00000000000E+00 0. -1.
         21    1    1    2  506  502 -0.14114109457E+02 -0.48333654299E+02 -0.25298772778E+02  0.56350493589E+02  0.00000000000E+00 0. -1.
<scales pt_clust_3="43.72245" pt_clust_4="14000.00000" pt_clust_5="82.94626" pt_clust_6="52.36367"></scales>
<clustering>
<clus scale="   43.722">  1  3  2 -1</clus>
<clus scale="   52.364">  2  6  1 -1</clus>
<clus scale="   82.946">  1  5  2 -1</clus>
<clus scale="   43.722">  1  3  2 -1</clus>
</clustering>
</event>
<event>
 6    0  0.4227619E+002  0.1028478E+03  0.7546771E-02  0.1274419E+00
         21   -1    0    0  505  501  0.00000000000E+00  0.00000000000E+00  0.31799434620E+03  0.31799434620E+03  0.00000000000E+00 0.  1.
         21   -1    0    0  504  502 -0.00000000000E+00 -0.00000000000E+00 -0.16840247599E+03  0.16840247599E+03  0.00000000000E+00 0.  1.
         21    1    1    2  503  506 -0.29687945738E+02  0.32086327024E+02 -0.53074108759E+02  0.68758763257E+02  0.00000000000E+00 0. -1.
         21    1    1    2  504  503 -0.20514884097E+01  0.60486317657E+02 -0.52594621316E+02  0.80181029051E+02  0.00000000000E+00 0.  1.
         21    1    1    2  505  502  0.99482735037E+02  0.66058907893E+01  0.10058843172E+03  0.14162798085E+03  0.00000000000E+00 0.  1.
         21    1    1    2  506  501 -0.67743300889E+02 -0.99178535470E+02  0.15467216857E+03  0.19582904903E+03  0.00000000000E+00 0.  1.
<scales pt_clust_3="32.25166" pt_clust_4="32.25166" pt_clust_5="99.70182" pt_clust_6="95.59063"></scales>
<clustering>
<clus scale="   32.252">  3  4 -1 -1</clus>
<clus scale="   99.702">  1  5  2 -1</clus>
<clus scale="   95.591">  1  6  2 -1</clus>
<clus scale="   99.702">  1  3  2 -1</clus>
</clustering>
</event>
<event>
 6    0  0.4227619E+002  0.7116724E+02  0.7546771E-02  0.1356168E+00
         21   -1    0    0  506  501  0.00000000000E+00  0.00000000000E+00  0.83807405684E+02  0.83807405684E+02  0.00000000000E+00 0. -1.
         21   -1    0    0  503  502 -0.00000000000E+00 -0.00000000000E+00 -0.28915572632E+03  0.28915572632E+03  0.00000000000E+00 0. -1.
         21    1    1    2  503  504 -0.64352135919E+02  0.22524004708E+02 -0.15264231878E+03  0.16717716851E+03  0.00000000000E+00 0. -1.
         21    1    1    2  504  501 -0.36754074746E+02  0.34330043310E+02 -0.28641642468E+02  0.57877090178E+02  0.00000000000E+00 0. -1.
         21    1    1    2  505  502  0.61490049671E+02 -0.78485918582E+02 -0.24887415933E+02  0.10276404574E+03  0.00000000000E+00 0. -1.
         21    1    1    2  506  505  0.39616160994E+02  0.21631870564E+02  0.82305654723E+00  0.45144827590E+02  0.00000000000E+00 0. -1.
<scales pt_clust_3="14000.00000" pt_clust_4="48.00178" pt_clust_5="71.16724" pt_clust_6="45.13732"></scales>
<clustering>
<clus scale="   45.137">  1  6  2 -1</clus>
<clus scale="   48.002">  1  4  2 -1</clus>
<clus scale="   71.167">  1  5  2 -1</clus>
<clus scale="   45.137">  1  3  2 -1</clus>
</clustering>
</event>
<event>
 6    0  0.4227619E+002  0.7221630E+02  0.7546771E-02  0.1352715E+00
         21   -1    0    0  506  501  0.00000000000E+00  0.00000000000E+00  0.45716602501E+02  0.45716602501E+02  0.00000000000E+00 0.  1.
         21   -1    0    0  504  502 -0.00000000000E+00 -0.00000000000E+00 -0.55046472185E+03  0.55046472185E+03  0.00000000000E+00 0.  1.
         21    1    1    2  503  502  0.10293018015E+02  0.56335571304E+02 -0.10127152704E+03  0.11634244713E+03  0.00000000000E+00 0.  1.
         21    1    1    2  504  501 -0.57599728614E+02  0.75179776847E+00 -0.25938490589E+03  0.26570439089E+03  0.00000000000E+00 0.  1.
         21    1    1    2  505  503  0.39603434132E+02 -0.93720904818E+02 -0.14446493893E+03  0.17669793031E+03  0.00000000000E+00 0.  1.
         21    1    1    2  506  505  0.77032764673E+01  0.36633535746E+02  0.37325251132E+00  0.37436556025E+02  0.00000000000E+00 0.  1.
<scales pt_clust_3="14000.00000" pt_clust_4="56.91807" pt_clust_5="72.21630" pt_clust_6="37.43470"></scales>
<clustering>
<clus scale="   37.435">  1  6  2 -1</clus>
<clus scale="   56.918">  2  4  1 -1</clus>
<clus scale="   72.216">  1  5  2 -1</clus>
<clus scale="   37.435">  1  3  2 -1</clus>
</clustering>
</event>
<event>
 6    0  0.4227619E+002  0.7328340E+02  0.7546771E-02  0.1349271E+00
         21   -1    0    0  506  501  0.00000000000E+00  0.00000000000E+00  0.14592603034E+03  0.14592603034E+03  0.00000000000E+00 0.  1.
         21   -1    0    0  503  502 -0.00000000000E+00 -0.00000000000E+00 -0.10685283920E+04  0.10685283920E+04  0.00000000000E+00 0.  1.
         21    1    1    2  503  501 -0.29106752158E+02 -0.10715549056E+02 -0.80286909931E+03  0.80346799354E+03  0.00000000000E+00 0.  1.
         21    1    1    2  504  502  0.10520457290E+02  0.72605464313E+02 -0.13464080814E+03  0.15333095150E+03  0.00000000000E+00 0.  1.
         21    1    1    2  505  504  0.81673742181E+02 -0.21863516884E+02 -0.93459481287E+02  0.12602891801E+03  0.00000000000E+00 0.  1.
         21    1    1    2  506  505 -0.63087447313E+02 -0.40026398373E+02  0.10836702704E+03  0.13162655934E+03  0.00000000000E+00 0.  1.
<scales pt_clust_3="31.01654" pt_clust_4="66.99897" pt_clust_5="73.28340" pt_clust_6="14000.00000"></scales>
<clustering>
<clus scale="   31.017">  2  3  1 -1</clus>
<clus scale="   66.999">  2  4  1 -1</clus>
<clus scale="   73.283">  2  5  1 -1</clus>
<clus scale="   73.283">  1  3  2 -1</clus>
</clustering>
</event>
<event>
 6    0  0.4227619E+002  0.1966558E+03  0.7546771E-02  0.1152592E+00
         21   -1    0    0  503  501  0.00000000000E+00  0.00000000000E+00  0.13994193673E+03  0.13994193673E+03  0.00000000000E+00 0. -1.
         21   -1    0    0  506  502 -0.00000000000E+00 -0.00000000000E+00 -0.11742289527E+04  0.11742289527E+04  0.00000000000E+00 0. -1.
         21    1    1    2  503  505 -0.41486566654E+02 -0.11441462757E+02  0.10221142533E+03  0.11090183836E+03  0.00000000000E+00 0. -1.
         21    1    1    2  504  501  0.11438063424E+02 -0.70127930105E+02 -0.17034054034E+03  0.18456612787E+03  0.00000000000E+00 0. -1.
         21    1    1    2  505  502  0.46534404976E+02  0.19381070644E+03 -0.48515794936E+03  0.52450574506E+03  0.00000000000E+00 0. -1.
         21    1    1    2  506  504 -0.16485901746E+02 -0.11224131358E+03 -0.48099995159E+03  0.49419717812E+03  0.00000000000E+00 0. -1.
<scales pt_clust_3="43.03536" pt_clust_4="44.47733" pt_clust_5="188.36759" pt_clust_6="44.47733"></scales>
<clustering>
<clus scale="   43.035">  1  3  2 -1</clus>
<clus scale="   44.477">  4  6 -1 -1</clus>
<clus scale="  188.368">  1  5  2 -1</clus>
<clus scale="   43.035">  1  3  2 -1</clus>
</clustering>
</event>
<event>
 6    0  0.4227619E+002  0.1116641E+03  0.7546771E-02  0.1257519E+00
         21   -1    0    0  506  501  0.00000000000E+00  0.00000000000E+00  0.15683417552E+03  0.15683417552E+03  0.00000000000E+00 0.  1.
         21   -1    0    0  504  502 -0.00000000000E+00 -0.00000000000E+00 -0.20500385422E+03  0.20500385422E+03  0.00000000000E+00 0.  1.
         21    1    1    2  503  501 -0.26007477414E+02 -0.52329230925E+02  0.24976324961E+02  0.63549619190E+02  0.00000000000E+00 0.  1.
         21    1    1    2  504  503  0.32630690589E+02 -0.93780931049E+02 -0.24588173449E+01  0.99326083077E+02  0.00000000000E+00 0.  1.
         21    1    1    2  505  502  0.26447795361E+02  0.75752203981E+02 -0.88237401727E+02  0.11926324392E+03  0.00000000000E+00 0.  1.
         21    1    1    2  506  505 -0.33071008535E+02  0.70357957993E+02  0.17550215413E+02  0.79699083555E+02  0.00000000000E+00 0.  1.
<scales pt_clust_3="52.19598" pt_clust_4="52.19598" pt_clust_5="88.54077" pt_clust_6="77.74274"></scales>
<clustering>
<clus scale="   52.196">  3  4 -1 -1</clus>
<clus scale="   77.743">  1  6  2 -1</clus>
<clus scale="   88.541">  2  5  1 -1</clus>
<clus scale="   77.743">  1  3  2 -1</clus>
</clustering>
</event>
<event>
 6    0  0.4227619E+002  0.6971346E+02  0.7546771E-02  0.1361070E+00
         21   -1    0    0  505  501  0.00000000000E+00  0.00000000000E+00  0.18263223632E+03  0.18263223632E+03  0.00000000000E+00 0. -1.
         21   -1    0    0  506  502 -0.00000000000E+00 -0.00000000000E+00 -0.17908862236E+04  0.17908862236E+04  0.00000000000E+00 0.  1.
         21    1    1    2  503  502 -0.44598535502E+01  0.68806401951E+02 -0.16058022731E+04  0.16072819141E+04  0.00000000000E+00 0.  1.
         21    1    1    2  504  501 -0.27235042451E+02  0.13860090794E+02  0.13898576649E+03  0.14230563215E+03  0.00000000000E+00 0. -1.
         21    1    1    2  505  503  0.43120928582E+02  0.24212422142E+02 -0.94466449308E+02  0.10662816660E+03  0.00000000000E+00 0.  1.
         21    1    1    2  506  504 -0.11426032581E+02 -0.10687891489E+03 -0.46971031313E+02  0.11730274699E+03  0.00000000000E+00 0.  1.
<scales pt_clust_3="14000.00000" pt_clust_4="30.55895" pt_clust_5="47.14101" pt_clust_6="69.71346"></scales>
<clustering>
<clus scale="   30.559">  1  4  2 -1</clus>
<clus scale="   47.141">  1  5  2 -1</clus>
<clus scale="   69.713">  1  6  2 -1</clus>
<clus scale="   30.559">  1  3  2 -1</clus>
</clustering>
</event>
<event>
 6    0  0.4227619E+002  0.6551540E+02  0.7546771E-02  0.1376043E+00
         21   -1    0    0  506  501  0.00000000000E+00  0.00000000000E+00  0.13460765144E+03  0.13460765144E+03  0.00000000000E+00 0. -1.
         21   -1    0    0  505  502 -0.00000000000E+00 -0.00000000000E+00 -0.15997452665E+03  0.15997452665E+03  0.00000000000E+00 0. -1.
         21    1    1    2  503  502  0.35754829127E+02 -0.41577830362E+02 -0.44647782096E+02  0.70714554581E+02  0.00000000000E+00 0. -1.
         21    1    1    2  504  501  0.15326526395E+02  0.28285710995E+02  0.75243581825E+01  0.33039367788E+02  0.00000000000E+00 0.  1.
         21    1    1    2  505  504 -0.37579887084E+02  0.83761426356E+02 -0.42213250993E+02  0.10104545026E+03  0.00000000000E+00 0. -1.
         21    1    1    2  506  503 -0.13501468439E+02 -0.70469306989E+02  0.53969799698E+02  0.89782805464E+02  0.00000000000E+00 0. -1.
<scales pt_clust_3="14000.00000" pt_clust_4="32.17117" pt_clust_5="65.51540" pt_clust_6="52.82779"></scales>
<clustering>
<clus scale="   32.171">  1  4  2 -1</clus>
<clus scale="   52.828">  1  6  2 -1</clus>
<clus scale="   65.515">  1  5  2 -1</clus>
<clus scale="   32.171">  1  3  2 -1</clus>
</clustering>
</event>
<event>
 6    0  0.4227619E+002  0.1024978E+03  0.7546771E-02  0.1275129E+00
         21   -1    0    0  503  501  0.00000000000E+00  0.00000000000E+00  0.44093380753E+03  0.44093380753E+03  0.00000000000E+00 0. -1.
         21   -1    0    0  504  502 -0.00000000000E+00 -0.00000000000E+00 -0.11158235475E+04  0.11158235475E+04  0.00000000000E+00 0.  1.
         21    1    1    2  503  502 -0.12755769180E+03  0.41789861326E+02 -0.56891721507E+03  0.58453755641E+03  0.00000000000E+00 0.  1.
         21    1    1    2  504  505  0.31375629877E+02 -0.23223134459E+02 -0.17108392931E+03  0.17548063993E+03  0.00000000000E+00 0.  1.
         21    1    1    2  505  506  0.80440007236E+02  0.76695653877E+02 -0.35172425065E+03  0.36886686837E+03  0.00000000000E+00 0. -1.
         21    1    1    2  506  501  0.15742054685E+02 -0.95262380745E+02  0.41683565507E+03  0.42787229030E+03  0.00000000000E+00 0. -1.
<scales pt_clust_3="102.49784" pt_clust_4="39.03517" pt_clust_5="14000.00000" pt_clust_6="96.71853"></scales>
<clustering>
<clus scale="   39.035">  2  4  1 -1</clus>
<clus scale="   96.719">  1  6  2 -1</clus>
<clus scale="  102.498">  2  3  1 -1</clus>
<clus scale="   96.719">  1  3  2 -1</clus>
</clustering>
</event>
<event>
 6    0  0.4227619E+002  0.7798854E+02  0.7546771E-02  0.1334859E+00
         21   -1    0    0  505  501  0.00000000000E+00  0.00000000000E+00  0.27919264970E+02  0.27919264970E+02  0.00000000000E+00 0.  1.
         21   -1    0    0  503  502 -0.00000000000E+00 -0.00000000000E+00 -0.29041079715E+04  0.29041079715E+04  0.00000000000E+00 0. -1.
         21    1    1    2  503  506 -0.49937589513E+02  0.80647442480E+01 -0.74712111443E+03  0.74883159828E+03  0.00000000000E+00 0. -1.
         21    1    1    2  504  502  0.68768029656E+02 -0.29033152193E+02 -0.18955906272E+04  0.18970597755E+04  0.00000000000E+00 0. -1.
         21    1    1    2  505  504 -0.59859947893E+02  0.64487087011E+02 -0.71197285968E+02  0.11318503118E+03  0.00000000000E+00 0.  1.
         21    1    1    2  506  501  0.41029507751E+02 -0.43518679066E+02 -0.16227967887E+03  0.17295083148E+03  0.00000000000E+00 0.  1.
<scales pt_clust_3="50.58461" pt_clust_4="33.14788" pt_clust_5="77.98854" pt_clust_6="14000.00000"></scales>
<clustering>
<clus scale="   50.585">  2  3  1 -1</clus>
<clus scale="   33.148">  2  4  1 -1</clus>
<clus scale="   77.989">  1  5  2 -1</clus>
<clus scale="   77.989">  1  3  2 -1</clus>
</clustering>
</event>
<event>
 6    0  0.4227619E+002  0.1000072E+03  0.7546771E-02  0.1280281E+00
         21   -1    0    0  503  501  0.00000000000E+00  0.00000000000E+00  0.67530182414E+03  0.67530182414E+03  0.00000000000E+00 0. -1.
         21   -1    0    0  506  502 -0.00000000000E+00 -0.00000000000E+00 -0.65440036494E+03  0.65440036494E+03  0.00000000000E+00 0.  1.
         21    1    1    2  503  504  0.22996635396E+02  0.90220519032E+02  0.47610295695E+02  0.10457211650E+03  0.00000000000E+00 0. -1.
         21    1    1    2  504  502 -0.41817916688E+02  0.26723379615E+02 -0.57583491956E+03  0.57796949033E+03  0.00000000000E+00 0.  1.
         21    1    1    2  505  501 -0.30901408268E+02 -0.12777245541E+01  0.51606549262E+03  0.51699141413E+03  0.00000000000E+00 0. -1.
         21    1    1    2  506  505  0.49722689560E+02 -0.11566617409E+03  0.33060590442E+02  0.13016916811E+03  0.00000000000E+00 0. -1.
<scales pt_clust_3="14000.00000" pt_clust_4="49.79793" pt_clust_5="30.92781" pt_clust_6="100.00718"></scales>
<clustering>
<clus scale="   30.928">  1  5  2 -1</clus>
<clus scale="   49.798">  2  4  1 -1</clus>
<clus scale="  100.007">  2  6  1 -1</clus>
<clus scale="   30.928">  1  3  2 -1</clus>
</clustering>
</event>
<event>
 6    0  0.4227619E+002  0.9152591E+02  0.7546771E-02  0.1299198E+00
         21   -1    0    0  504  501  0.00000000000E+00  0.00000000000E+00  0.14370919406E+04  0.14370919406E+04  0.00000000000E+00 0.  1.
         21   -1    0    0  503  502 -0.00000000000E+00 -0.00000000000E+00 -0.18467756488E+03  0.18467756488E+03  0.00000000000E+00 0.  1.
         21    1    1    2  503  506  0.21323474717E+02  0.47313165317E+02 -0.13250736432E+01  0.51913216106E+02  0.00000000000E+00 0.  1.
         21    1    1    2  504  502  0.57564729170E+02 -0.37200796534E+01 -0.14018112958E+03  0.15158590346E+03  0.00000000000E+00 0.  1.
         21    1    1    2  505  501  0.40717118279E+02  0.28008066991E+02  0.98506498817E+03  0.98630389153E+03  0.00000000000E+00 0.  1.
         21    1    1    2  506  505 -0.11960532217E+03 -0.71601152655E+02  0.40885559082E+03  0.43196649441E+03  0.00000000000E+00 0. -1.
<scales pt_clust_3="54.28353" pt_clust_4="91.52591" pt_clust_5="49.41999" pt_clust_6="14000.00000"></scales>
<clustering>
<clus scale="   49.420">  1  5  2 -1</clus>
<clus scale="   54.284">  2  3  1 -1</clus>
<clus scale="   91.526">  2  4  1 -1</clus>
<clus scale="   49.420">  1  3  2 -1</clus>
</clustering>
</event>
<event>
 6    0  0.4227619E+002  0.1417273E+03  0.7546771E-02  0.1211024E+00
         21   -1    0    0  503  501  0.00000000000E+00  0.00000000000E+00  0.27674291031E+04  0.27674291031E+04  0.00000000000E+00 0.  1.
         21   -1    0    0  504  502 -0.00000000000E+00 -0.00000000000E+00 -0.24872980043E+02  0.24872980043E+02  0.00000000000E+00 0.  1.
         21    1    1    2  503  505  0.16147706025E+02 -0.35317622244E+02  0.11172531280E+04  0.11179278308E+04  0.00000000000E+00 0.  1.
         21    1    1    2  504  501 -0.16460427703E+02  0.15184022585E+03  0.29126051036E+03  0.32887548519E+03  0.00000000000E+00 0.  1.
         21    1    1    2  505  506  0.45011619611E+02 -0.10577672593E+03  0.11527711688E+04  0.11584887264E+04  0.00000000000E+00 0.  1.
         21    1    1    2  506  502 -0.44698897933E+02 -0.10745877674E+02  0.18127131587E+03  0.18701004070E+03  0.00000000000E+00 0.  1.
<scales pt_clust_3="38.83404" pt_clust_4="14000.00000" pt_clust_5="141.72728" pt_clust_6="45.34148"></scales>
<clustering>
<clus scale="   38.834">  1  3  2 -1</clus>
<clus scale="   45.341">  2  6  1 -1</clus>
<clus scale="  141.727">  1  5  2 -1</clus>
<clus scale="   38.834">  1  3  2 -1</clus>
</clustering>
</event>
<event>
 6    0  0.4227619E+002  0.6751240E+02  0.7546771E-02  0.1368763E+00
         21   -1    0    0  506  501  0.00000000000E+00  0.00000000000E+00  0.23354197880E+02  0.23354197880E+02  0.00000000000E+00 0. -1.
         21   -1    0    0  503  502 -0.00000000000E+00 -0.00000000000E+00 -0.93490403119E+03  0.93490403119E+03  0.00000000000E+00 0. -1.
         21    1    1    2  503  501  0.61303818464E+02  0.54349328547E+02 -0.22364371595E+03  0.23817749549E+03  0.00000000000E+00 0. -1.
         21    1    1    2  504  502 -0.68598683174E+02  0.21700718846E+02 -0.48054421416E+03  0.48590065064E+03  0.00000000000E+00 0. -1.
         21    1    1    2  505  504  0.37708035560E+02 -0.55834742150E+02 -0.16514481677E+03  0.17835981858E+03  0.00000000000E+00 0. -1.
         21    1    1    2  506  505 -0.30413170849E+02 -0.20215305243E+02 -0.42217086428E+02  0.55820264364E+02  0.00000000000E+00 0. -1.
<scales pt_clust_3="66.08563" pt_clust_4="67.51240" pt_clust_5="14000.00000" pt_clust_6="36.51876"></scales>
<clustering>
<clus scale="   36.519">  1  6  2 -1</clus>
<clus scale="   66.086">  1  3  2 -1</clus>
<clus scale="   67.512">  2  4  1 -1</clus>
<clus scale="   36.519">  1  3  2 -1</clus>
</clustering>
</event>
<event>
 6    0  0.4227619E+002  0.8487977E+02  0.7546771E-02  0.1315747E+00
         21   -1    0    0  504  501  0.00000000000E+00  0.00000000000E+00  0.96324463923E+03  0.96324463923E+03  0.00000000000E+00 0. -1.
         21   -1    0    0  505  502 -0.00000000000E+00 -0.00000000000E+00 -0.15101804898E+03  0.15101804898E+03  0.00000000000E+00 0. -1.
         21    1    1    2  503  502 -0.20405260697E+01  0.86463618107E+02 -0.11582858593E+03  0.14455581040E+03  0.00000000000E+00 0. -1.
         21    1    1    2  504  506  0.43932610315E+02 -0.93525788816E+01  0.41731087837E+03  0.41972123390E+03  0.00000000000E+00 0. -1.
         21    1    1    2  505  501 -0.10457831318E+03 -0.38266238401E+02  0.41174296001E+03  0.42653627478E+03  0.00000000000E+00 0. -1.
         21    1    1    2  506  503  0.62686228940E+02 -0.38844800824E+02  0.99001337795E+02  0.12344936912E+03  0.00000000000E+00 0. -1.
<scales pt_clust_3="84.87977" pt_clust_4="44.91709" pt_clust_5="14000.00000" pt_clust_6="82.43540"></scales>
<clustering>
<clus scale="   44.917">  1  4  2 -1</clus>
<clus scale="   82.435">  1  6  2 -1</clus>
<clus scale="   84.880">  2  3  1 -1</clus>
<clus scale="   44.917">  1  3  2 -1</clus>
</clustering>
</event>
<event>
 6    0  0.4227619E+002  0.6648282E+02  0.7546771E-02  0.1372479E+00
         21   -1    0    0  503  501  0.00000000000E+00  0.00000000000E+00  0.53946871541E+03  0.53946871541E+03  0.00000000000E+00 0.  1.
         21   -1    0    0  504  502 -0.00000000000E+00 -0.00000000000E+00 -0.38229119888E+03  0.38229119888E+03  0.00000000000E+00 0. -1.
         21    1    1    2  503  506  0.61616680265E+01  0.44095248791E+02  0.40166663311E+02  0.59964305718E+02  0.00000000000E+00 0. -1.
         21    1    1    2  504  501 -0.60300652861E+02 -0.67895580491E+02  0.47030778872E+03  0.47899414894E+03  0.00000000000E+00 0.  1.
         21    1    1    2  505  502  0.69164048610E+02 -0.37411259314E+02 -0.24708863998E+03  0.25929917846E+03  0.00000000000E+00 0. -1.
         21    1    1    2  506  505 -0.15025063775E+02  0.61211591014E+02 -0.10620829553E+03  0.12350228118E+03  0.00000000000E+00 0. -1.
<scales pt_clust_3="44.52367" pt_clust_4="59.85539" pt_clust_5="14000.00000" pt_clust_6="66.48282"></scales>
<clustering>
<clus scale="   44.524">  1  3  2 -1</clus>
<clus scale="   59.855">  1  4  2 -1</clus>
<clus scale="   66.483">  1  6  2 -1</clus>
<clus scale="   44.524">  1  3  2 -1</clus>
</clustering>
</event>
<event>
 6    0  0.4227619E+002  0.8817749E+02  0.7546771E-02  0.1307326E+00
         21   -1    0    0  504  501  0.00000000000E+00  0.00000000000E+00  0.14751260154E+03  0.14751260154E+03  0.00000000000E+00 0.  1.
         21   -1    0    0  503  502 -0.00000000000E+00 -0.00000000000E+00 -0.10199070814E+04  0.10199070814E+04  0.00000000000E+00 0.  1.
         21    1    1    2  503  501  0.64858641885E+02 -0.10400083544E+02 -0.75317179685E+03  0.75603079351E+03  0.00000000000E+00 0.  1.
         21    1    1    2  504  505  0.60899622568E+02  0.55748909124E+02  0.33551113719E+02  0.89120043364E+02  0.00000000000E+00 0.  1.
         21    1    1    2  505  506 -0.10281648876E+03 -0.14203547572E+02  0.50444274663E+02  0.11540188894E+03  0.00000000000E+00 0.  1.
         21    1    1    2  506  502 -0.22941775689E+02 -0.31145278007E+02 -0.20321807143E+03  0.20686695717E+03  0.00000000000E+00 0.  1.
<scales pt_clust_3="58.66920" pt_clust_4="88.17749" pt_clust_5="14000.00000" pt_clust_6="38.68273"></scales>
<clustering>
<clus scale="   38.683">  2  6  1 -1</clus>
<clus scale="   58.669">  2  3  1 -1</clus>
<clus scale="   88.177">  1  4  2 -1</clus>
<clus scale="   88.177">  1  3  2 -1</clus>
</clustering>
</event>
<event>
 6    0  0.4227619E+002  0.1094124E+03  0.7546771E-02  0.1261662E+00
         21   -1    0    0  503  501  0.00000000000E+00  0.00000000000E+00  0.20405122651E+04  0.20405122651E+04  0.00000000000E+00 0.  1.
         21   -1    0    0  506  502 -0.00000000000E+00 -0.00000000000E+00 -0.15570721341E+02  0.15570721341E+02  0.00000000000E+00 0.  1.
         21    1    1    2  503  505  0.31556444063E+02  0.94791514938E+01  0.59504318614E+03  0.59595474396E+03  0.00000000000E+00 0.  1.
         21    1    1    2  504  501 -0.11255733916E+03 -0.49311639044E+02  0.74844794538E+03  0.75846893099E+03  0.00000000000E+00 0.  1.
         21    1    1    2  505  502  0.71963763864E+02  0.90189133240E+02  0.44271268492E+03  0.45750123984E+03  0.00000000000E+00 0.  1.
         21    1    1    2  506  504  0.90371312322E+01 -0.50356645690E+02  0.23873772736E+03  0.24415807169E+03  0.00000000000E+00 0.  1.
<scales pt_clust_3="32.94941" pt_clust_4="109.41242" pt_clust_5="14000.00000" pt_clust_6="50.82870"></scales>
<clustering>
<clus scale="   32.949">  1  3  2 -1</clus>
<clus scale="   50.829">  2  6  1 -1</clus>
<clus scale="  109.412">  1  4  2 -1</clus>
<clus scale="   32.949">  1  3  2 -1</clus>
</clustering>
</event>
<event>
 6    0  0.4227619E+002  0.1542898E+03  0.7546771E-02  0.1195299E+00
         21   -1    0    0  503  501  0.00000000000E+00  0.00000000000E+00  0.19921367169E+04  0.19921367169E+04  0.00000000000E+00 0. -1.
         21   -1    0    0  504  502 -0.00000000000E+00 -0.00000000000E+00 -0.18301632952E+02  0.18301632952E+02  0.00000000000E+00 0. -1.
         21    1    1    2  503  505 -0.85134084973E+02 -0.10594555120E+03  0.11216593784E+04  0.11298637234E+04  0.00000000000E+00 0. -1.
         21    1    1    2  504  506  0.34461701139E+02  0.27711766227E+02  0.36464751101E+03  0.36731915022E+03  0.00000000000E+00 0. -1.
         21    1    1    2  505  502 -0.38738548144E+02  0.56581920458E+01  0.70740670490E+02  0.80851299996E+02  0.00000000000E+00 0. -1.
         21    1    1    2  506  501  0.89410931978E+02  0.72575592927E+02  0.41678752398E+03  0.43240417620E+03  0.00000000000E+00 0. -1.
<scales pt_clust_3="142.44520" pt_clust_4="36.73779" pt_clust_5="39.14959" pt_clust_6="36.73779"></scales>
<clustering>
<clus scale="   36.738">  4  6 -1 -1</clus>
<clus scale="   39.150">  2  5  1 -1</clus>
<clus scale="  142.445">  1  3  2 -1</clus>
<clus scale="  142.445">  1  3  2 -1</clus>
</clustering>
</event>
<event>
 6    0  0.4227619E+002  0.7527188E+02  0.7546771E-02  0.1343031E+00
         21   -1    0    0  503  501  0.00000000000E+00  0.00000000000E+00  0.27326939881E+03  0.27326939881E+03  0.00000000000E+00 0.  1.
         21   -1    0    0  504  502 -0.00000000000E+00 -0.00000000000E+00 -0.41228446378E+04  0.41228446378E+04  0.00000000000E+00 0.  1.
         21    1    1    2  503  502  0.21170427423E+02  0.21628346364E+02 -0.11040017940E+04  0.11044165580E+04  0.00000000000E+00 0.  1.
         21    1    1    2  504  505 -0.49620217696E+02 -0.10482122928E+01 -0.28702434652E+04  0.28706725369E+04  0.00000000000E+00 0.  1.
         21    1    1    2  505  506  0.96783418039E+02 -0.49028570359E+02 -0.12213233371E+03  0.16336198351E+03  0.00000000000E+00 0.  1.
         21    1    1    2  506  501 -0.68333627766E+02  0.28448436288E+02  0.24680235384E+03  0.25766295828E+03  0.00000000000E+00 0.  1.
<scales pt_clust_3="30.26504" pt_clust_4="35.36341" pt_clust_5="75.27188" pt_clust_6="14000.00000"></scales>
<clustering>
<clus scale="   30.265">  2  3  1 -1</clus>
<clus scale="   35.363">  2  4  1 -1</clus>
<clus scale="   75.272">  2  5  1 -1</clus>
<clus scale="   75.272">  1  3  2 -1</clus>
</clustering>
</event>
<event>
 6    0  0.4227619E+002  0.7840907E+02  0.7546771E-02  0.1333628E+00
         21   -1    0    0  506  501  0.00000000000E+00  0.00000000000E+00  0.30326997570E+03  0.30326997570E+03  0.00000000000E+00 0. -1.
         21   -1    0    0  503  502 -0.00000000000E+00 -0.00000000000E+00 -0.10483187881E+03  0.10483187881E+03  0.00000000000E+00 0. -1.
         21    1    1    2  503  505  0.22239892355E+02  0.41478756344E+02 -0.16959260724E+02  0.50027158265E+02  0.00000000000E+00 0. -1.
         21    1    1    2  504  501  0.30962142524E+02  0.34999608865E+02  0.15447155333E+03  0.16138490536E+03  0.00000000000E+00 0. -1.
         21    1    1    2  505  504  0.46076593107E+02  0.13395651124E+02  0.37137753770E+02  0.60677085102E+02  0.00000000000E+00 0. -1.
         21    1    1    2  506  502 -0.99278627985E+02 -0.89874016333E+02  0.23788050512E+02  0.13601270578E+03  0.00000000000E+00 0. -1.
<scales pt_clust_3="52.25250" pt_clust_4="46.72929" pt_clust_5="14000.00000" pt_clust_6="78.40907"></scales>
<clustering>
<clus scale="   46.729">  1  4  2 -1</clus>
<clus scale="   52.253">  2  3  1 -1</clus>
<clus scale="   78.409">  2  6  1 -1</clus>
<clus scale="   46.729">  1  3  2 -1</clus>
</clustering>
</event>
<event>
 6    0  0.4227619E+002  0.1056750E+03  0.7546771E-02  0.1268795E+00
         21   -1    0    0  503  501  0.00000000000E+00  0.00000000000E+00  0.70788175263E+03  0.70788175263E+03  0.00000000000E+00 0. -1.
         21   -1    0    0  505  502 -0.00000000000E+00 -0.00000000000E+00 -0.36961764935E+03  0.36961764935E+03  0.00000000000E+00 0.  1.
         21    1    1    2  503  502 -0.28192961788E+02 -0.32656831887E+02 -0.19467568696E+03  0.19939893394E+03  0.00000000000E+00 0.  1.
         21    1    1    2  504  501  0.53341841111E+02 -0.45485254467E+01  0.58580526026E+03  0.58824641439E+03  0.00000000000E+00 0. -1.
         21    1    1    2  505  506  0.20325695923E+02 -0.78889337516E+02 -0.12244553319E+03  0.14706994964E+03  0.00000000000E+00 0. -1.
         21    1    1    2  506  504 -0.45474575246E+02  0.11609469485E+03  0.69580063184E+02  0.14278410401E+03  0.00000000000E+00 0. -1.
<scales pt_clust_3="43.14292" pt_clust_4="53.35694" pt_clust_5="105.67496" pt_clust_6="14000.00000"></scales>
<clustering>
<clus scale="   43.143">  2  3  1 -1</clus>
<clus scale="   53.357">  1  4  2 -1</clus>
<clus scale="  105.675">  2  5  1 -1</clus>
<clus scale="   53.357">  1  3  2 -1</clus>
</clustering>
</event>
<event>
 6    0  0.4227619E+002  0.9558036E+02  0.7546771E-02  0.1289874E+00
         21   -1    0    0  505  501  0.00000000000E+00  0.00000000000E+00  0.52653633374E+03  0.52653633374E+03  0.00000000000E+00 0.  1.
         21   -1    0    0  506  502 -0.00000000000E+00 -0.00000000000E+00 -0.79997672698E+02  0.79997672698E+02  0.00000000000E+00 0.  1.
         21    1    1    2  503  504  0.18750788617E+01  0.89074163078E+02  0.21539832432E+03  0.23309689094E+03  0.00000000000E+00 0.  1.
         21    1    1    2  504  501 -0.37202478092E+02 -0.36965874835E+01  0.10333395836E+03  0.10988901713E+03  0.00000000000E+00 0.  1.
         21    1    1    2  505  502  0.87258885340E+02 -0.87523484151E+02  0.16017833550E+03  0.20231552712E+03  0.00000000000E+00 0.  1.
         21    1    1    2  506  503 -0.51931486109E+02  0.21459085568E+01 -0.32371957136E+02  0.61232571249E+02  0.00000000000E+00 0.  1.
<scales pt_clust_3="95.58036" pt_clust_4="37.38568" pt_clust_5="14000.00000" pt_clust_6="53.24820"></scales>
<clustering>
<clus scale="   37.386">  1  4  2 -1</clus>
<clus scale="   53.248">  2  6  1 -1</clus>
<clus scale="   95.580">  1  3  2 -1</clus>
<clus scale="   37.386">  1  3  2 -1</clus>
</clustering>
</event>
<event>
 6    0  0.4227619E+002  0.1341148E+03  0.7546771E-02  0.1221475E+00
         21   -1    0    0  505  501  0.00000000000E+00  0.00000000000E+00  0.13450122682E+03  0.13450122682E+03  0.00000000000E+00 0.  1.
         21   -1    0    0  503  502 -0.00000000000E+00 -0.00000000000E+00 -0.46312726308E+03  0.46312726308E+03  0.00000000000E+00 0.  1.
         21    1    1    2  503  504 -0.58870429979E+01 -0.65696902753E+02 -0.28353570337E+03  0.29110691402E+03  0.00000000000E+00 0.  1.
         21    1    1    2  504  501 -0.26631335313E+02 -0.51728313371E+02 -0.10657870281E+03  0.12142514697E+03  0.00000000000E+00 0.  1.
         21    1    1    2  505  506 -0.38297003437E+02  0.11705235249E+02  0.38961360078E+02  0.55871822805E+02  0.00000000000E+00 0.  1.
         21    1    1    2  506  502  0.70815381748E+02  0.10571998088E+03  0.22527009842E+02  0.12922460610E+03  0.00000000000E+00 0.  1.
<scales pt_clust_3="53.14210" pt_clust_4="53.14210" pt_clust_5="40.04589" pt_clust_6="121.81729"></scales>
<clustering>
<clus scale="   40.046">  1  5  2 -1</clus>
<clus scale="   53.142">  3  4 -1 -1</clus>
<clus scale="  121.817">  1  6  2 -1</clus>
<clus scale="   40.046">  1  3  2 -1</clus>
</clustering>
</event>
<event>
 6    0  0.4227619E+002  0.7968599E+02  0.7546771E-02  0.1329945E+00
         21   -1    0    0  505  501  0.00000000000E+00  0.00000000000E+00  0.27960377337E+02  0.27960377337E+02  0.00000000000E+00 0.  1.
         21   -1    0    0  504  502 -0.00000000000E+00 -0.00000000000E+00 -0.11939269435E+04  0.11939269435E+04  0.00000000000E+00 0.  1.
         21    1    1    2  503  502  0.38218044729E+02  0.80022841572E+01 -0.15731597477E+03  0.16208939328E+03  0.00000000000E+00 0.  1.
         21    1    1    2  504  501  0.36086849544E+02  0.50845105691E+02 -0.10177211330E+03  0.11935262263E+03  0.00000000000E+00 0.  1.
         21    1    1    2  505  506 -0.10179413667E+03  0.56147324383E+01 -0.15634735600E+03  0.18664958401E+03  0.00000000000E+00 0.  1.
         21    1    1    2  506  503  0.27489242401E+02 -0.64462122287E+02 -0.75053112211E+03  0.75379572094E+03  0.00000000000E+00 0.  1.
<scales pt_clust_3="39.04684" pt_clust_4="65.47350" pt_clust_5="14000.00000" pt_clust_6="79.68599"></scales>
<clustering>
<clus scale="   39.047">  2  3  1 -1</clus>
<clus scale="   65.474">  1  4  2 -1</clus>
<clus scale="   79.686">  2  6  1 -1</clus>
<clus scale="   65.474">  1  3  2 -1</clus>
</clustering>
</event>
<event>
 6    0  0.4227619E+002  0.8633855E+02  0.7546771E-02  0.1311969E+00
         21   -1    0    0  506  501  0.00000000000E+00  0.00000000000E+00  0.13728852264E+04  0.13728852264E+04  0.00000000000E+00 0. -1.
         21   -1    0    0  504  502 -0.00000000000E+00 -0.00000000000E+00 -0.35852600537E+02  0.35852600537E+02  0.00000000000E+00 0. -1.
         21    1    1    2  503  502 -0.51736042531E+01 -0.36099944869E+02  0.15461594705E+02  0.39611022599E+02  0.00000000000E+00 0. -1.
         21    1    1    2  504  505 -0.16225209884E+02  0.13192993543E+03  0.47627505811E+03  0.49447618373E+03  0.00000000000E+00 0. -1.
         21    1    1    2  505  501 -0.19291523293E+02 -0.75767097811E+02  0.81795107999E+03  0.82167924718E+03  0.00000000000E+00 0. -1.
         21    1    1    2  506  503  0.40690337430E+02 -0.20062892754E+02  0.27344893033E+02  0.52971373408E+02  0.00000000000E+00 0. -1.
<scales pt_clust_3="36.46878" pt_clust_4="86.33855" pt_clust_5="14000.00000" pt_clust_6="54.75509"></scales>
<clustering>
<clus scale="   36.469">  2  3  1 -1</clus>
<clus scale="   54.755">  2  6  1 -1</clus>
<clus scale="   86.339">  2  4  1 -1</clus>
<clus scale="   86.339">  1  3  2 -1</clus>
</clustering>
</event>
<event>
 6    0  0.4227619E+002  0.1864567E+03  0.7546771E-02  0.1161697E+00
         21   -1    0    0  505  501  0.00000000000E+00  0.00000000000E+00  0.60353949579E+03  0.60353949579E+03  0.00000000000E+00 0.  1.
         21   -1    0    0  506  502 -0.00000000000E+00 -0.00000000000E+00 -0.25529340298E+03  0.25529340298E+03  0.00000000000E+00 0.  1.
         21    1    1    2  503  501 -0.15078501592E+03  0.11882065394E+03  0.39485511882E+03  0.43905014940E+03  0.00000000000E+00 0.  1.
         21    1    1    2  504  502  0.87168595386E+02 -0.16877003307E+03  0.48431734128E+02  0.19602887786E+03  0.00000000000E+00 0.  1.
         21    1    1    2  505  504 -0.21930547063E+02 -0.29397693111E+02  0.33839191055E+02  0.49902546087E+02  0.00000000000E+00 0. -1.
         21    1    1    2  506  503  0.85546967593E+02  0.79347072239E+02 -0.12887995119E+03  0.17385132544E+03  0.00000000000E+00 0.  1.
<scales pt_clust_3="186.45671" pt_clust_4="14000.00000" pt_clust_5="36.67660" pt_clust_6="115.23635"></scales>
<clustering>
<clus scale="   36.677">  1  5  2 -1</clus>
<clus scale="  115.236">  2  6  1 -1</clus>
<clus scale="  186.457">  1  3  2 -1</clus>
<clus scale="   36.677">  1  3  2 -1</clus>
</clustering>
</event>
<event>
 6    0  0.4227619E+002  0.2240042E+03  0.7546771E-02  0.1130932E+00
         21   -1    0    0  504  501  0.00000000000E+00  0.00000000000E+00  0.80890905162E+03  0.80890905162E+03  0.00000000000E+00 0.  1.
         21   -1    0    0  505  502 -0.00000000000E+00 -0.00000000000E+00 -0.91014078914E+03  0.91014078914E+03  0.00000000000E+00 0.  1.
         21    1    1    2  503  502 -0.30406459150E+02  0.50320468184E+02 -0.30025910857E+03  0.30596116511E+03  0.00000000000E+00 0.  1.
         21    1    1    2  504  506 -0.28745433258E+02  0.17742315331E+02  0.69887406314E+03  0.69968996407E+03  0.00000000000E+00 0.  1.
         21    1    1    2  505  501  0.21223985714E+03  0.89110899411E+02 -0.42180242205E+03  0.48052449740E+03  0.00000000000E+00 0.  1.
         21    1    1    2  506  503 -0.15308796473E+03 -0.15717368293E+03 -0.78044270045E+02  0.23287421419E+03  0.00000000000E+00 0. -1.
<scales pt_clust_3="59.57662" pt_clust_4="33.78002" pt_clust_5="224.00425" pt_clust_6="14000.00000"></scales>
<clustering>
<clus scale="   33.780">  1  4  2 -1</clus>
<clus scale="   59.577">  2  3  1 -1</clus>
<clus scale="  224.004">  2  5  1 -1</clus>
<clus scale="   33.780">  1  3  2 -1</clus>
</clustering>
</event>
<event>
 6    0  0.4227619E+002  0.1410740E+03  0.7546771E-02  0.1211891E+00
         21   -1    0    0  505  501  0.00000000000E+00  0.00000000000E+00  0.74673937502E+02  0.74673937502E+02  0.00000000000E+00 0.  1.
         21   -1    0    0  504  502 -0.00000000000E+00 -0.00000000000E+00 -0.15648995818E+04  0.15648995818E+04  0.00000000000E+00 0.  1.
         21    1    1    2  503  501  0.19839549797E+02 -0.29310159094E+02  0.40635940548E+02  0.53888522215E+02  0.00000000000E+00 0.  1.
         21    1    1    2  504  503 -0.80527672322E+02 -0.14095565011E+03 -0.81146301735E+03  0.82754179945E+03  0.00000000000E+00 0.  1.
         21    1    1    2  505  506  0.35562948175E+02  0.44485936559E+02 -0.47647784112E+02  0.74256536179E+02  0.00000000000E+00 0.  1.
         21    1    1    2  506  502  0.25125174350E+02  0.12577987264E+03 -0.67175078342E+03  0.68388666150E+03  0.00000000000E+00 0.  1.
<scales pt_clust_3="35.39341" pt_clust_4="14000.00000" pt_clust_5="54.38756" pt_clust_6="141.07396"></scales>
<clustering>
<clus scale="   35.393">  1  3  2 -1</clus>
<clus scale="   54.388">  1  5  2 -1</clus>
<clus scale="  141.074">  2  6  1 -1</clus>
<clus scale="   35.393">  1  3  2 -1</clus>
</clustering>
</event>
<event>
 6    0  0.4227619E+002  0.8652837E+02  0.7546771E-02  0.1311483E+00
         21   -1    0    0  506  501  0.00000000000E+00  0.00000000000E+00  0.21954288852E+04  0.21954288852E+04  0.00000000000E+00 0.  1.
         21   -1    0    0  504  502 -0.00000000000E+00 -0.00000000000E+00 -0.25417496847E+02  0.25417496847E+02  0.00000000000E+00 0.  1.
         21    1    1    2  503  505  0.97214426855E+02  0.70714052431E+02  0.42317808589E+03  0.43992137295E+03  0.00000000000E+00 0.  1.
         21    1    1    2  504  501 -0.29661616838E+02 -0.59568925201E+02  0.45160474056E+03  0.45648122640E+03  0.00000000000E+00 0.  1.
         21    1    1    2  505  502 -0.36716581130E+02 -0.57315540161E+01  0.95295735612E+01  0.38363665278E+02  0.00000000000E+00 0.  1.
         21    1    1    2  506  503 -0.30836228887E+02 -0.54135732133E+01  0.12856989884E+04  0.12860801174E+04  0.00000000000E+00 0.  1.
<scales pt_clust_3="86.52837" pt_clust_4="14000.00000" pt_clust_5="37.98538" pt_clust_6="31.30782"></scales>
<clustering>
<clus scale="   31.308">  1  6  2 -1</clus>
<clus scale="   37.985">  2  5  1 -1</clus>
<clus scale="   86.528">  2  3  1 -1</clus>
<clus scale="   31.308">  1  3  2 -1</clus>
</clustering>
</event>
<event>
 6    0  0.4227619E+002  0.1269405E+03  0.7546771E-02  0.1232067E+00
         21   -1    0    0  503  501  0.00000000000E+00  0.00000000000E+00  0.15898558937E+03  0.15898558937E+03  0.00000000000E+00 0.  1.
         21   -1    0    0  504  502 -0.00000000000E+00 -0.00000000000E+00 -0.19962360140E+04  0.19962360140E+04  0.00000000000E+00 0.  1.
         21    1    1    2  503  506 -0.54734420730E+02  0.19953412201E+00 -0.21781979046E+02  0.58909687129E+02  0.00000000000E+00 0.  1.
         21    1    1    2  504  505 -0.31952068957E+02 -0.10833099017E+02 -0.77185861120E+03  0.77259562931E+03  0.00000000000E+00 0.  1.
         21    1    1    2  505  501 -0.53286476621E+02 -0.66761552881E+02  0.12103384612E+03  0.14814096476E+03  0.00000000000E+00 0.  1.
         21    1    1    2  506  502  0.13997296631E+03  0.77395117776E+02 -0.11646436805E+04  0.11755753221E+04  0.00000000000E+00 0.  1.
<scales pt_clust_3="55.78785" pt_clust_4="33.73856" pt_clust_5="14000.00000" pt_clust_6="126.94049"></scales>
<clustering>
<clus scale="   33.739">  2  4  1 -1</clus>
<clus scale="   55.788">  1  3  2 -1</clus>
<clus scale="  126.940">  2  6  1 -1</clus>
<clus scale="   55.788">  1  3  2 -1</clus>
</clustering>
</event>
<event>
 6    0  0.4227619E+002  0.1475696E+03  0.7546771E-02  0.1203492E+00
         21   -1    0    0  506  501  0.00000000000E+00  0.00000000000E+00  0.84717342715E+03  0.84717342715E+03  0.00000000000E+00 0. -1.
         21   -1    0    0  503  502 -0.00000000000E+00 -0.00000000000E+00 -0.37243917185E+03  0.37243917185E+03  0.00000000000E+00 0. -1.
         21    1    1    2  503  505 -0.70186473505E+02 -0.11284804804E+03  0.52833877798E+03  0.54479600524E+03  0.00000000000E+00 0. -1.
         21    1    1    2  504  502  0.89570209700E+02  0.11782989740E+03 -0.33844536059E+03  0.36939405692E+03  0.00000000000E+00 0. -1.
         21    1    1    2  505  501  0.31887891220E+02 -0.28080922529E+02  0.19388759604E+03  0.19848872944E+03  0.00000000000E+00 0.  1.
         21    1    1    2  506  504 -0.51271627415E+02  0.23099073171E+02  0.90953241859E+02  0.10693380739E+03  0.00000000000E+00 0. -1.
<scales pt_clust_3="147.56957" pt_clust_4="14000.00000" pt_clust_5="42.48971" pt_clust_6="50.09877"></scales>
<clustering>
<clus scale="   42.490">  1  5  2 -1</clus>
<clus scale="   50.099">  1  6  2 -1</clus>
<clus scale="  147.570">  1  3  2 -1</clus>
<clus scale="   42.490">  1  3  2 -1</clus>
</clustering>
</event>
<event>
 6    0  0.4227619E+002  0.1083755E+03  0.7546771E-02  0.1263608E+00
         21   -1    0    0  504  501  0.00000000000E+00  0.00000000000E+00  0.36760084693E+03  0.36760084693E+03  0.00000000000E+00 0. -1.
         21   -1    0    0  505  502 -0.00000000000E+00 -0.00000000000E+00 -0.41939064811E+03  0.41939064811E+03  0.00000000000E+00 0.  1.
         21    1    1    2  503  501 -0.10078784404E+02  0.34294950242E+02  0.74728882993E+01  0.36518071782E+02  0.00000000000E+00 0.  1.
         21    1    1    2  504  502 -0.55499776894E+02 -0.20645300692E+02  0.79292862164E+02  0.98963688624E+02  0.00000000000E+00 0. -1.
         21    1    1    2  505  506  0.48354011788E+02  0.97540847757E+02 -0.37455730159E+03  0.39005832848E+03  0.00000000000E+00 0.  1.
         21    1    1    2  506  503  0.17224549510E+02 -0.11119049731E+03  0.23600174995E+03  0.26145140615E+03  0.00000000000E+00 0. -1.
<scales pt_clust_3="35.74529" pt_clust_4="59.28538" pt_clust_5="108.37547" pt_clust_6="14000.00000"></scales>
<clustering>
<clus scale="   35.745">  1  3  2 -1</clus>
<clus scale="   59.285">  1  4  2 -1</clus>
<clus scale="  108.375">  2  5  1 -1</clus>
<clus scale="   35.745">  1  3  2 -1</clus>
</clustering>
</event>
<event>
 6    0  0.5122148E+002  0.7716739E+02  0.7546771E-02  0.1337288E+00
         21   -1    0    0  504  501  0.00000000000E+00  0.00000000000E+00  0.14528534167E+04  0.14528534167E+04  0.00000000000E+00 0. -1.
         21   -1    0    0  506  502 -0.00000000000E+00 -0.00000000000E+00 -0.70329133238E+03  0.70329133238E+03  0.00000000000E+00 0. -1.
         21    1    1    2  503  501  0.41939727118E+02 -0.19407411152E+02  0.81376124418E+02  0.93582380520E+02  0.00000000000E+00 0. -1.
         21    1    1    2  504  505 -0.88057781225E+02  0.80370149839E+02  0.13515929862E+04  0.13568408654E+04  0.00000000000E+00 0. -1.
         21    1    1    2  505  502 -0.10364676327E+02  0.34914932727E+02 -0.45993531355E+02  0.58667571700E+02  0.00000000000E+00 0. -1.
         21    1    1    2  506  503  0.56482730434E+02 -0.95877671413E+02 -0.63741349491E+03  0.64705393145E+03  0.00000000000E+00 0. -1.
<scales pt_clust_3="45.98748" pt_clust_4="77.16739" pt_clust_5="36.42086" pt_clust_6="14000.00000"></scales>
<clustering>
<clus scale="   36.421">  2  5  1 -1</clus>
<clus scale="   45.987">  1  3  2 -1</clus>
<clus scale="   77.167">  1  4  2 -1</clus>
<clus scale="   45.987">  1  3  2 -1</clus>
</clustering>
</event>
<event>
 6    0  0.4227619E+002  0.8041001E+02  0.7546771E-02  0.1327892E+00
         21   -1    0    0  505  501  0.00000000000E+00  0.00000000000E+00  0.13740018452E+03  0.13740018452E+03  0.00000000000E+00 0.  1.
         21   -1    0    0  506  502 -0.00000000000E+00 -0.00000000000E+00 -0.72304235704E+03  0.72304235704E+03  0.00000000000E+00 0.  1.
         21    1    1    2  503  504 -0.25539380727E+02  0.80169788533E+02  0.67918239880E+02  0.10813113460E+03  0.00000000000E+00 0.  1.
         21    1    1    2  504  502  0.46417902540E+02 -0.65662500623E+02 -0.60810797469E+03  0.61340157690E+03  0.00000000000E+00 0.  1.
         21    1    1    2  505  503  0.49689468355E+02  0.18922342139E+02 -0.19115122851E+02  0.56502090396E+02  0.00000000000E+00 0.  1.
         21    1    1    2  506  501 -0.70567990168E+02 -0.33429630049E+02 -0.26337314862E+02  0.82407739659E+02  0.00000000000E+00 0. -1.
<scales pt_clust_3="80.41001" pt_clust_4="14000.00000" pt_clust_5="53.17046" pt_clust_6="65.57447"></scales>
<clustering>
<clus scale="   53.170">  1  5  2 -1</clus>
<clus scale="   65.574">  1  6  2 -1</clus>
<clus scale="   80.410">  1  3  2 -1</clus>
<clus scale="   53.170">  1  3  2 -1</clus>
</clustering>
</event>
<event>
 6    0  0.4227619E+002  0.5561286E+02  0.7546771E-02  0.1417223E+00
         21   -1    0    0  503  501  0.00000000000E+00  0.00000000000E+00  0.14840455772E+04  0.14840455772E+04  0.00000000000E+00 0.  1.
         21   -1    0    0  505  502 -0.00000000000E+00 -0.00000000000E+00 -0.34679756080E+02  0.34679756080E+02  0.00000000000E+00 0.  1.
         21    1    1    2  503  506  0.62822787811E+01  0.53664900255E+02  0.80435274444E+03  0.80616544582E+03  0.00000000000E+00 0.  1.
         21    1    1    2  504  501  0.46969335912E+02  0.40328972112E+02  0.49957846710E+02  0.79550807384E+02  0.00000000000E+00 0. -1.
         21    1    1    2  505  504 -0.55610613203E+02 -0.44614443853E+01  0.35047556743E+02  0.65884565874E+02  0.00000000000E+00 0.  1.
         21    1    1    2  506  502  0.23589985100E+01 -0.89532427981E+02  0.56000767327E+03  0.56712451424E+03  0.00000000000E+00 0.  1.
<scales pt_clust_3="54.03137" pt_clust_4="55.61286" pt_clust_5="14000.00000" pt_clust_6="45.61027"></scales>
<clustering>
<clus scale="   54.031">  1  3  2 -1</clus>
<clus scale="   45.610">  1  6  2 -1</clus>
<clus scale="   55.613">  1  4  2 -1</clus>
<clus scale="   54.031">  1  3  2 -1</clus>
</clustering>
</event>
<event>
 6    0  0.4227619E+002  0.1156029E+03  0.7546771E-02  0.1250532E+00
         21   -1    0    0  504  501  0.00000000000E+00  0.00000000000E+00  0.34851325190E+03  0.34851325190E+03  0.00000000000E+00 0.  1.
         21   -1    0    0  506  502 -0.00000000000E+00 -0.00000000000E+00 -0.25092690105E+03  0.25092690105E+03  0.00000000000E+00 0.  1.
         21    1    1    2  503  501  0.12169303991E+02  0.92426991760E+02  0.36338700283E+02  0.10005669345E+03  0.00000000000E+00 0.  1.
         21    1    1    2  504  505 -0.33486518910E+02  0.34068281930E+02  0.17871761692E+03  0.18499184139E+03  0.00000000000E+00 0.  1.
         21    1    1    2  505  502  0.11399437751E+03 -0.12953036495E+03 -0.10559464413E+02  0.17287086462E+03  0.00000000000E+00 0.  1.
         21    1    1    2  506  503 -0.92677162588E+02  0.30350912557E+01 -0.10691050194E+03  0.14152075349E+03  0.00000000000E+00 0.  1.
<scales pt_clust_3="115.60289" pt_clust_4="47.77023" pt_clust_5="14000.00000" pt_clust_6="96.37864"></scales>
<clustering>
<clus scale="   47.770">  1  4  2 -1</clus>
<clus scale="   96.379">  2  6  1 -1</clus>
<clus scale="  115.603">  1  3  2 -1</clus>
<clus scale="   47.770">  1  3  2 -1</clus>
</clustering>
</event>
<event>
 6    0  0.4227619E+002  0.8413356E+02  0.7546771E-02  0.1317714E+00
         21   -1    0    0  504  501  0.00000000000E+00  0.00000000000E+00  0.79184906910E+03  0.79184906910E+03  0.00000000000E+00 0. -1.
         21   -1    0    0  506  502 -0.00000000000E+00 -0.00000000000E+00 -0.20237605898E+03  0.20237605898E+03  0.00000000000E+00 0. -1.
         21    1    1    2  503  501  0.49126666920E+02 -0.75331879378E+02  0.62471920396E+03  0.63115957194E+03  0.00000000000E+00 0. -1.
         21    1    1    2  504  502 -0.48867101585E+02  0.46317813064E+02  0.10146227151E+03  0.12176997152E+03  0.00000000000E+00 0.  1.
         21    1    1    2  505  503 -0.14903603916E+02  0.64394208277E+02  0.28301815211E+02  0.71900794248E+02  0.00000000000E+00 0.  1.
         21    1    1    2  506  505  0.14644038581E+02 -0.35380141962E+02 -0.16501028056E+03  0.16939479036E+03  0.00000000000E+00 0. -1.
<scales pt_clust_3="14000.00000" pt_clust_4="84.13356" pt_clust_5="42.86466" pt_clust_6="38.29102"></scales>
<clustering>
<clus scale="   38.291">  2  6  1 -1</clus>
<clus scale="   42.865">  2  5  1 -1</clus>
<clus scale="   84.134">  2  4  1 -1</clus>
<clus scale="   84.134">  1  3  2 -1</clus>
</clustering>
</event>
<event>
 6    0  0.4227619E+002  0.1059664E+03  0.7546771E-02  0.1268227E+00
         21   -1    0    0  505  501  0.00000000000E+00  0.00000000000E+00  0.37095700283E+03  0.37095700283E+03  0.00000000000E+00 0.  1.
         21   -1    0    0  503  502 -0.00000000000E+00 -0.00000000000E+00 -0.26991432321E+03  0.26991432321E+03  0.00000000000E+00 0.  1.
         21    1    1    2  503  504  0.14198222881E+03 -0.72501057364E+02 -0.17118090148E+03  0.23391934005E+03  0.00000000000E+00 0.  1.
         21    1    1    2  504  501  0.21168697737E+02  0.44803010970E+02  0.16048180462E+03  0.16795783152E+03  0.00000000000E+00 0.  1.
         21    1    1    2  505  506 -0.11053405368E+03 -0.38960837861E+00  0.13543526678E+03  0.17481601845E+03  0.00000000000E+00 0.  1.
         21    1    1    2  506  502 -0.52616872867E+02  0.28087654773E+02 -0.23693490301E+02  0.64178136025E+02  0.00000000000E+00 0.  1.
<scales pt_clust_3="105.96644" pt_clust_4="49.55223" pt_clust_5="14000.00000" pt_clust_6="60.07749"></scales>
<clustering>
<clus scale="   49.552">  1  4  2 -1</clus>
<clus scale="   60.077">  2  6  1 -1</clus>
<clus scale="  105.966">  2  3  1 -1</clus>
<clus scale="   49.552">  1  3  2 -1</clus>
</clustering>
</event>
<event>
 6    0  0.4227619E+002  0.8586647E+02  0.7546771E-02  0.1313182E+00
         21   -1    0    0  504  501  0.00000000000E+00  0.00000000000E+00  0.30828758628E+03  0.30828758628E+03  0.00000000000E+00 0. -1.
         21   -1    0    0  506  502 -0.00000000000E+00 -0.00000000000E+00 -0.93517750913E+02  0.93517750913E+02  0.00000000000E+00 0. -1.
         21    1    1    2  503  501 -0.31302051409E+02  0.40042121658E+02  0.11474440776E+03  0.12549688858E+03  0.00000000000E+00 0. -1.
         21    1    1    2  504  505  0.51672644570E+02  0.68665006079E+01  0.65560978101E+02  0.83758300347E+02  0.00000000000E+00 0. -1.
         21    1    1    2  505  502  0.78589795985E+02 -0.25024777362E+02 -0.75772802811E+01  0.82825181506E+02  0.00000000000E+00 0.  1.
         21    1    1    2  506  503 -0.98960389146E+02 -0.21883844903E+02  0.42041729780E+02  0.10972496676E+03  0.00000000000E+00 0. -1.
<scales pt_clust_3="50.82509" pt_clust_4="45.37109" pt_clust_5="85.86647" pt_clust_6="14000.00000"></scales>
<clustering>
<clus scale="   50.825">  1  3  2 -1</clus>
<clus scale="   45.371">  1  4  2 -1</clus>
<clus scale="   85.866">  2  5  1 -1</clus>
<clus scale="   50.825">  1  3  2 -1</clus>
</clustering>
</event>
<event>
 6    0  0.4227619E+002  0.1439483E+03  0.7546771E-02  0.1208113E+00
         21   -1    0    0  505  501  0.00000000000E+00  0.00000000000E+00  0.18708843830E+03  0.18708843830E+03  0.00000000000E+00 0.  1.
         21   -1    0    0  504  502 -0.00000000000E+00 -0.00000000000E+00 -0.16176436803E+03  0.16176436803E+03  0.00000000000E+00 0. -1.
         21    1    1    2  503  501 -0.26921439792E+02 -0.20793023838E+02  0.22013927500E+02  0.40518227562E+02  0.00000000000E+00 0.  1.
         21    1    1    2  504  506  0.71362070690E+02 -0.45648824626E+02  0.96745586545E+01  0.85264045225E+02  0.00000000000E+00 0.  1.
         21    1    1    2  505  502 -0.94150833896E+02  0.94355082606E+02 -0.58731050117E+02  0.14565918229E+03  0.00000000000E+00 0. -1.
         21    1    1    2  506  503  0.49710202998E+02 -0.27913234142E+02  0.52366634231E+02  0.77411351255E+02  0.00000000000E+00 0.  1.
<scales pt_clust_3="34.01637" pt_clust_4="40.64005" pt_clust_5="134.82139" pt_clust_6="40.64005"></scales>
<clustering>
<clus scale="   34.016">  1  3  2 -1</clus>
<clus scale="   40.640">  4  6 -1 -1</clus>
<clus scale="  134.821">  2  5  1 -1</clus>
<clus scale="   34.016">  1  3  2 -1</clus>
</clustering>
</event>
<event>
 6    0  0.4227619E+002  0.7481383E+02  0.7546771E-02  0.1344449E+00
         21   -1    0    0  505  501  0.00000000000E+00  0.00000000000E+00  0.82798676045E+03  0.82798676045E+03  0.00000000000E+00 0. -1.
         21   -1    0    0  506  502 -0.00000000000E+00 -0.00000000000E+00 -0.28724248768E+03  0.28724248768E+03  0.00000000000E+00 0. -1.
         21    1    1    2  503  501  0.10735960128E+02  0.46987558066E+02  0.45582250670E+03  0.45836366465E+03  0.00000000000E+00 0. -1.
         21    1    1    2  504  502  0.93061671756E+01  0.56097938918E+02 -0.18937058349E+03  0.19772405364E+03  0.00000000000E+00 0. -1.
         21    1    1    2  505  504 -0.45651363077E+02  0.20787946660E+02  0.32055359769E+03  0.32445461111E+03  0.00000000000E+00 0.  1.
         21    1    1    2  506  503  0.25609235773E+02 -0.12387344364E+03 -0.46261248146E+02  0.13468691873E+03  0.00000000000E+00 0. -1.
<scales pt_clust_3="48.19846" pt_clust_4="57.40641" pt_clust_5="74.81383" pt_clust_6="14000.00000"></scales>
<clustering>
<clus scale="   48.198">  1  3  2 -1</clus>
<clus scale="   57.406">  2  4  1 -1</clus>
<clus scale="   74.814">  1  5  2 -1</clus>
<clus scale="   48.198">  1  3  2 -1</clus>
</clustering>
</event>
<event>
 6    0  0.4227619E+002  0.1142348E+03  0.7546771E-02  0.1252923E+00
         21   -1    0    0  504  501  0.00000000000E+00  0.00000000000E+00  0.20393964772E+03  0.20393964772E+03  0.00000000000E+00 0. -1.
         21   -1    0    0  505  502 -0.00000000000E+00 -0.00000000000E+00 -0.64864481074E+03  0.64864481074E+03  0.00000000000E+00 0. -1.
         21    1    1    2  503  501  0.32355575070E+02  0.15498665551E+02  0.87238186874E+02  0.94327054024E+02  0.00000000000E+00 0. -1.
         21    1    1    2  504  502 -0.32150406619E+02  0.43117490442E+02 -0.15795915870E+03  0.16686480289E+03  0.00000000000E+00 0.  1.
         21    1    1    2  505  506 -0.87091914466E+02 -0.36615551590E+02 -0.45854097740E+03  0.46817254099E+03  0.00000000000E+00 0. -1.
         21    1    1    2  506  503  0.86886746016E+02 -0.22000604403E+02  0.84556786203E+02  0.12322006054E+03  0.00000000000E+00 0. -1.
<scales pt_clust_3="35.87606" pt_clust_4="53.53022" pt_clust_5="114.23481" pt_clust_6="14000.00000"></scales>
<clustering>
<clus scale="   35.876">  1  3  2 -1</clus>
<clus scale="   53.530">  2  4  1 -1</clus>
<clus scale="  114.235">  2  5  1 -1</clus>
<clus scale="   35.876">  1  3  2 -1</clus>
</clustering>
</event>
<event>
 6    0  0.4227619E+002  0.7171184E+02  0.7546771E-02  0.1354367E+00
         21   -1    0    0  504  501  0.00000000000E+00  0.00000000000E+00  0.19470936706E+04  0.19470936706E+04  0.00000000000E+00 0. -1.
         21   -1    0    0  506  502 -0.00000000000E+00 -0.00000000000E+00 -0.63103540650E+02  0.63103540650E+02  0.00000000000E+00 0. -1.
         21    1    1    2  503  502  0.65372250232E+02 -0.39732227317E+01 -0.16687644427E+02  0.67585464975E+02  0.00000000000E+00 0. -1.
         21    1    1    2  504  503  0.72741494130E+02 -0.36849150065E+01  0.79830291673E+03  0.80161864401E+03  0.00000000000E+00 0. -1.
         21    1    1    2  505  501 -0.20979020752E+02 -0.26477832090E+02  0.92551990036E+03  0.92613621075E+03  0.00000000000E+00 0. -1.
         21    1    1    2  506  505 -0.11713472361E+03  0.34135969828E+02  0.17685495727E+03  0.21485689149E+03  0.00000000000E+00 0. -1.
<scales pt_clust_3="71.71184" pt_clust_4="61.37783" pt_clust_5="33.78158" pt_clust_6="14000.00000"></scales>
<clustering>
<clus scale="   33.782">  1  5  2 -1</clus>
<clus scale="   61.378">  1  4  2 -1</clus>
<clus scale="   71.712">  2  3  1 -1</clus>
<clus scale="   33.782">  1  3  2 -1</clus>
</clustering>
</event>
<event>
 6    0  0.4227619E+002  0.7370994E+02  0.7546771E-02  0.1347913E+00
         21   -1    0    0  506  501  0.00000000000E+00  0.00000000000E+00  0.16716539366E+03  0.16716539366E+03  0.00000000000E+00 0.  1.
         21   -1    0    0  505  502 -0.00000000000E+00 -0.00000000000E+00 -0.16921534097E+03  0.16921534097E+03  0.00000000000E+00 0.  1.
         21    1    1    2  503  504 -0.61227814228E+02  0.10062414419E+02 -0.41235783681E+02  0.74501592432E+02  0.00000000000E+00 0.  1.
         21    1    1    2  504  501 -0.33397446471E+02  0.95914443310E+01  0.13623385976E+02  0.37322672474E+02  0.00000000000E+00 0. -1.
         21    1    1    2  505  503  0.35283343835E+01 -0.64120432956E+02 -0.62991411932E+02  0.89954416474E+02  0.00000000000E+00 0.  1.
         21    1    1    2  506  502  0.91096926316E+02  0.44466574206E+02  0.88553862327E+02  0.13460205325E+03  0.00000000000E+00 0.  1.
<scales pt_clust_3="73.70994" pt_clust_4="34.74745" pt_clust_5="63.20882" pt_clust_6="14000.00000"></scales>
<clustering>
<clus scale="   34.747">  1  4  2 -1</clus>
<clus scale="   63.209">  2  5  1 -1</clus>
<clus scale="   73.710">  2  3  1 -1</clus>
<clus scale="   34.747">  1  3  2 -1</clus>
</clustering>
</event>
<event>
 6    0  0.4227619E+002  0.1106125E+03  0.7546771E-02  0.1259440E+00
         21   -1    0    0  504  501  0.00000000000E+00  0.00000000000E+00  0.61671691535E+03  0.61671691535E+03  0.00000000000E+00 0.  1.
         21   -1    0    0  506  502 -0.00000000000E+00 -0.00000000000E+00 -0.24064559129E+03  0.24064559129E+03  0.00000000000E+00 0.  1.
         21    1    1    2  503  502 -0.15570587066E+01  0.40674297711E+02 -0.15634943598E+03  0.16156103818E+03  0.00000000000E+00 0.  1.
         21    1    1    2  504  505 -0.43253454348E+02  0.17039516592E+02  0.42869989410E+03  0.43121317888E+03  0.00000000000E+00 0.  1.
         21    1    1    2  505  503  0.80138079661E+02  0.56986369160E+02 -0.10516622300E+02  0.98894678453E+02  0.00000000000E+00 0.  1.
         21    1    1    2  506  501 -0.35327566607E+02 -0.11470018346E+03  0.11423748824E+03  0.16569361112E+03  0.00000000000E+00 0.  1.
<scales pt_clust_3="40.70409" pt_clust_4="46.74391" pt_clust_5="14000.00000" pt_clust_6="110.61250"></scales>
<clustering>
<clus scale="   40.704">  2  3  1 -1</clus>
<clus scale="   46.744">  1  4  2 -1</clus>
<clus scale="  110.612">  1  6  2 -1</clus>
<clus scale="   46.744">  1  3  2 -1</clus>
</clustering>
</event>
<event>
 6    0  0.4227619E+002  0.1104205E+03  0.7546771E-02  0.1259793E+00
         21   -1    0    0  504  501  0.00000000000E+00  0.00000000000E+00  0.29733208171E+03  0.29733208171E+03  0.00000000000E+00 0.  1.
         21   -1    0    0  503  502 -0.00000000000E+00 -0.00000000000E+00 -0.16127495441E+04  0.16127495441E+04  0.00000000000E+00 0. -1.
         21    1    1    2  503  501 -0.65976839737E+02 -0.54664470476E+02 -0.80953668416E+02  0.11787554515E+03  0.00000000000E+00 0. -1.
         21    1    1    2  504  506  0.30553423532E+02  0.19793799653E+02  0.31426373002E+02  0.48092859286E+02  0.00000000000E+00 0. -1.
         21    1    1    2  505  502 -0.47108092192E+02  0.12727147848E+02 -0.14969571315E+04  0.14977522513E+04  0.00000000000E+00 0. -1.
         21    1    1    2  506  505  0.82531508397E+02  0.22143522974E+02  0.23106696453E+03  0.24636097009E+03  0.00000000000E+00 0.  1.
<scales pt_clust_3="110.42049" pt_clust_4="36.40476" pt_clust_5="48.75952" pt_clust_6="14000.00000"></scales>
<clustering>
<clus scale="   36.405">  1  4  2 -1</clus>
<clus scale="   48.760">  2  5  1 -1</clus>
<clus scale="  110.420">  2  3  1 -1</clus>
<clus scale="   36.405">  1  3  2 -1</clus>
</clustering>
</event>
<event>
 6    0  0.4227619E+002  0.1024229E+03  0.7546771E-02  0.1275282E+00
         21   -1    0    0  504  501  0.00000000000E+00  0.00000000000E+00  0.11578672623E+03  0.11578672623E+03  0.00000000000E+00 0.  1.
         21   -1    0    0  505  502 -0.00000000000E+00 -0.00000000000E+00 -0.83160340747E+03  0.83160340747E+03  0.00000000000E+00 0. -1.
         21    1    1    2  503  501  0.97395106793E+02 -0.96821460681E+02  0.28192957068E+02  0.14019645111E+03  0.00000000000E+00 0.  1.
         21    1    1    2  504  506 -0.35200221411E+02  0.10345037056E+02  0.20529895206E+01  0.36746294304E+02  0.00000000000E+00 0. -1.
         21    1    1    2  505  503 -0.73813675116E+02  0.34372509141E+02 -0.13938236503E+03  0.16142295903E+03  0.00000000000E+00 0. -1.
         21    1    1    2  506  502  0.11618789734E+02  0.52103914484E+02 -0.60668026279E+03  0.60902442927E+03  0.00000000000E+00 0. -1.
<scales pt_clust_3="14000.00000" pt_clust_4="36.68890" pt_clust_5="102.42293" pt_clust_6="53.41513"></scales>
<clustering>
<clus scale="   36.689">  1  4  2 -1</clus>
<clus scale="   53.415">  2  6  1 -1</clus>
<clus scale="  102.423">  2  5  1 -1</clus>
<clus scale="   36.689">  1  3  2 -1</clus>
</clustering>
</event>
<event>
 6    0  0.4227619E+002  0.2147365E+03  0.7546771E-02  0.1137869E+00
         21   -1    0    0  503  501  0.00000000000E+00  0.00000000000E+00  0.86913859100E+03  0.86913859100E+03  0.00000000000E+00 0. -1.
         21   -1    0    0  504  502 -0.00000000000E+00 -0.00000000000E+00 -0.19037823934E+04  0.19037823934E+04  0.00000000000E+00 0. -1.
         21    1    1    2  503  502 -0.41678312956E+02  0.16373285198E+03 -0.11411827133E+04  0.11536219111E+04  0.00000000000E+00 0. -1.
         21    1    1    2  504  506 -0.11742742278E+03 -0.15472278162E+03 -0.66435201071E+03  0.69216467182E+03  0.00000000000E+00 0. -1.
         21    1    1    2  505  501  0.69291055096E+02 -0.21524363384E+03  0.61003747731E+03  0.65059726095E+03  0.00000000000E+00 0. -1.
         21    1    1    2  506  505  0.89814680636E+02  0.20623356349E+03  0.16085344430E+03  0.27653714056E+03  0.00000000000E+00 0. -1.
<scales pt_clust_3="168.95422" pt_clust_4="155.00254" pt_clust_5="214.73645" pt_clust_6="14000.00000"></scales>
<clustering>
<clus scale="  168.954">  2  3  1 -1</clus>
<clus scale="  155.003">  2  4  1 -1</clus>
<clus scale="  214.736">  1  5  2 -1</clus>
<clus scale="  214.736">  1  3  2 -1</clus>
</clustering>
</event>
<event>
 6    0  0.4227619E+002  0.7572485E+02  0.7546771E-02  0.1341641E+00
         21   -1    0    0  505  501  0.00000000000E+00  0.00000000000E+00  0.12553253386E+04  0.12553253386E+04  0.00000000000E+00 0. -1.
         21   -1    0    0  504  502 -0.00000000000E+00 -0.00000000000E+00 -0.35477936947E+02  0.35477936947E+02  0.00000000000E+00 0.  1.
         21    1    1    2  503  502  0.20925183125E+02  0.83763317773E+02  0.15958405978E+03  0.18144208120E+03  0.00000000000E+00 0.  1.
         21    1    1    2  504  506  0.30073731511E+02 -0.63693776092E+02  0.61158141726E+02  0.93282606842E+02  0.00000000000E+00 0.  1.
         21    1    1    2  505  503  0.39594412706E+02  0.35290044471E+02  0.62364549197E+03  0.62589680013E+03  0.00000000000E+00 0. -1.
         21    1    1    2  506  501 -0.90593327342E+02 -0.55359586152E+02  0.37545970814E+03  0.39018178734E+03  0.00000000000E+00 0.  1.
<scales pt_clust_3="75.72485" pt_clust_4="68.88124" pt_clust_5="53.03871" pt_clust_6="14000.00000"></scales>
<clustering>
<clus scale="   53.039">  1  5  2 -1</clus>
<clus scale="   68.881">  2  4  1 -1</clus>
<clus scale="   75.725">  2  3  1 -1</clus>
<clus scale="   53.039">  1  3  2 -1</clus>
</clustering>
</event>
<event>
 6    0  0.4227619E+002  0.1007108E+03  0.7546771E-02  0.1278808E+00
         21   -1    0    0  505  501  0.00000000000E+00  0.00000000000E+00  0.65227330156E+03  0.65227330156E+03  0.00000000000E+00 0. -1.
         21   -1    0    0  504  502 -0.00000000000E+00 -0.00000000000E+00 -0.13899336826E+03  0.13899336826E+03  0.00000000000E+00 0. -1.
         21    1    1    2  503  501 -0.81720011744E+02  0.23400875968E+01  0.40511148077E+03  0.41327829386E+03  0.00000000000E+00 0. -1.
         21    1    1    2  504  503  0.61044787709E+02 -0.98611414205E+02  0.16100242151E+03  0.19842494009E+03  0.00000000000E+00 0. -1.
         21    1    1    2  505  506 -0.24430073072E+02  0.10962360988E+03 -0.49238580825E+01  0.11242067734E+03  0.00000000000E+00 0. -1.
         21    1    1    2  506  502  0.45105297107E+02 -0.13352283275E+02 -0.47910110902E+02  0.67142758525E+02  0.00000000000E+00 0. -1.
<scales pt_clust_3="79.47674" pt_clust_4="100.71082" pt_clust_5="14000.00000" pt_clust_6="47.04010"></scales>
<clustering>
<clus scale="   47.040">  2  6  1 -1</clus>
<clus scale="   79.477">  1  3  2 -1</clus>
<clus scale="  100.711">  1  4  2 -1</clus>
<clus scale="   79.477">  1  3  2 -1</clus>
</clustering>
</event>
<event>
 6    0  0.4227619E+002  0.1779452E+03  0.7546771E-02  0.1169807E+00
         21   -1    0    0  506  501  0.00000000000E+00  0.00000000000E+00  0.11539646207E+04  0.11539646207E+04  0.00000000000E+00 0.  1.
         21   -1    0    0  503  502 -0.00000000000E+00 -0.00000000000E+00 -0.13433172700E+04  0.13433172700E+04  0.00000000000E+00 0. -1.
         21    1    1    2  503  505  0.14962668207E+03  0.89449620167E+02 -0.11762632853E+04  0.11891108842E+04  0.00000000000E+00 0. -1.
         21    1    1    2  504  501  0.33066021996E+02 -0.16766261190E+02  0.23911839009E+03  0.24197535785E+03  0.00000000000E+00 0.  1.
         21    1    1    2  505  504 -0.21722365989E+03 -0.73363433114E+02 -0.76102020125E+02  0.24157779120E+03  0.00000000000E+00 0.  1.
         21    1    1    2  506  502  0.34530955827E+02  0.68007413738E+00  0.82389426597E+03  0.82461785750E+03  0.00000000000E+00 0.  1.
<scales pt_clust_3="177.94524" pt_clust_4="60.48816" pt_clust_5="14000.00000" pt_clust_6="34.53765"></scales>
<clustering>
<clus scale="   34.538">  1  6  2 -1</clus>
<clus scale="   60.488">  1  4  2 -1</clus>
<clus scale="  177.945">  2  3  1 -1</clus>
<clus scale="   34.538">  1  3  2 -1</clus>
</clustering>
</event>
<event>
 6    0  0.4227619E+002  0.1099527E+03  0.7546771E-02  0.1260657E+00
         21   -1    0    0  502  501  0.00000000000E+00  0.00000000000E+00  0.75045692239E+02  0.75045692239E+02  0.00000000000E+00 0. -1.
         21   -1    0    0  504  502 -0.00000000000E+00 -0.00000000000E+00 -0.19188732929E+04  0.19188732929E+04  0.00000000000E+00 0. -1.
         21    1    1    2  503  505  0.65843389686E+02 -0.50312509405E+02 -0.61082551051E+03  0.61642072066E+03  0.00000000000E+00 0. -1.
         21    1    1    2  504  503  0.12009418188E+02 -0.31500366833E+02 -0.12210703385E+04  0.12215356200E+04  0.00000000000E+00 0. -1.
         21    1    1    2  505  506 -0.61082454159E+02  0.10797702819E+03 -0.13841085662E+02  0.12482660163E+03  0.00000000000E+00 0. -1.
         21    1    1    2  506  501 -0.16770353716E+02 -0.26164151953E+02  0.19093340089E+01  0.31136042901E+02  0.00000000000E+00 0. -1.
<scales pt_clust_3="109.95272" pt_clust_4="33.78559" pt_clust_5="14000.00000" pt_clust_6="31.07745"></scales>
<clustering>
<clus scale="   31.077">  1  6  2 -1</clus>
<clus scale="   33.786">  2  4  1 -1</clus>
<clus scale="  109.953">  2  3  1 -1</clus>
<clus scale="   31.077">  1  3  2 -1</clus>
</clustering>
</event>
<event>
 6    0  0.4227619E+002  0.7394532E+02  0.7546771E-02  0.1347168E+00
         21   -1    0    0  506  501  0.00000000000E+00  0.00000000000E+00  0.11729110732E+04  0.11729110732E+04  0.00000000000E+00 0. -1.
         21   -1    0    0  504  502 -0.00000000000E+00 -0.00000000000E+00 -0.11384925691E+04  0.11384925691E+04  0.00000000000E+00 0.  1.
         21    1    1    2  503  501 -0.12826552811E+03  0.10977854330E+02 -0.46842594114E+03  0.48579359950E+03  0.00000000000E+00 0.  1.
         21    1    1    2  504  503  0.32295335275E+02 -0.16806325169E+02 -0.12885235379E+03  0.13389686451E+03  0.00000000000E+00 0. -1.
         21    1    1    2  505  502  0.32673634341E+02 -0.32255481219E+02 -0.52783633818E+03  0.52982938985E+03  0.00000000000E+00 0. -1.
         21    1    1    2  506  505  0.63296558494E+02  0.38083952058E+02  0.11595331372E+04  0.11618837885E+04  0.00000000000E+00 0. -1.
<scales pt_clust_3="73.94532" pt_clust_4="36.40661" pt_clust_5="64.42757" pt_clust_6="14000.00000"></scales>
<clustering>
<clus scale="   36.407">  2  4  1 -1</clus>
<clus scale="   64.428">  2  5  1 -1</clus>
<clus scale="   73.945">  2  3  1 -1</clus>
<clus scale="   73.945">  1  3  2 -1</clus>
</clustering>
</event>
<event>
 6    0  0.4227619E+002  0.7087272E+02  0.7546771E-02  0.1357150E+00
         21   -1    0    0  503  501  0.00000000000E+00  0.00000000000E+00  0.45569518081E+03  0.45569518081E+03  0.00000000000E+00 0.  1.
         21   -1    0    0  504  502 -0.00000000000E+00 -0.00000000000E+00 -0.63980936922E+02  0.63980936922E+02  0.00000000000E+00 0.  1.
         21    1    1    2  503  505 -0.10304243933E+03 -0.17369638212E+02  0.11756165073E+03  0.15729014704E+03  0.00000000000E+00 0.  1.
         21    1    1    2  504  506  0.49963941700E+02 -0.47513741002E+02  0.20756849551E+03  0.21872044116E+03  0.00000000000E+00 0. -1.
         21    1    1    2  505  502  0.42877332040E+02  0.28826096271E+02 -0.15073587510E+02  0.53820279352E+02  0.00000000000E+00 0.  1.
         21    1    1    2  506  501  0.10201165595E+02  0.36057282943E+02  0.81657685169E+02  0.89845250180E+02  0.00000000000E+00 0.  1.
<scales pt_clust_3="70.87272" pt_clust_4="14000.00000" pt_clust_5="53.17833" pt_clust_6="37.47254"></scales>
<clustering>
<clus scale="   37.473">  1  6  2 -1</clus>
<clus scale="   53.178">  2  5  1 -1</clus>
<clus scale="   70.873">  2  3  1 -1</clus>
<clus scale="   37.473">  1  3  2 -1</clus>
</clustering>
</event>
<event>
 6    0  0.4227619E+002  0.1161474E+03  0.7546771E-02  0.1249591E+00
         21   -1    0    0  506  501  0.00000000000E+00  0.00000000000E+00  0.13854892300E+03  0.13854892300E+03  0.00000000000E+00 0.  1.
         21   -1    0    0  504  502 -0.00000000000E+00 -0.00000000000E+00 -0.38797570397E+03  0.38797570397E+03  0.00000000000E+00 0.  1.
         21    1    1    2  503  501 -0.55141089473E+02 -0.73912543089E+02 -0.41090434846E+02  0.10095557246E+03  0.00000000000E+00 0.  1.
         21    1    1    2  504  503  0.31752660849E+01 -0.48816878724E+02 -0.22865011405E+03  0.23382481609E+03  0.00000000000E+00 0.  1.
         21    1    1    2  505  502  0.96582493414E+02  0.10480154808E+03  0.13049225418E+02  0.14311472600E+03  0.00000000000E+00 0.  1.
         21    1    1    2  506  505 -0.44616670026E+02  0.17927873737E+02  0.72645425167E+01  0.48629512427E+02  0.00000000000E+00 0.  1.
<scales pt_clust_3="116.14743" pt_clust_4="48.44440" pt_clust_5="14000.00000" pt_clust_6="48.08384"></scales>
<clustering>
<clus scale="   48.084">  1  6  2 -1</clus>
<clus scale="   48.444">  2  4  1 -1</clus>
<clus scale="  116.147">  2  3  1 -1</clus>
<clus scale="   48.084">  1  3  2 -1</clus>
</clustering>
</event>
<event>
 6    0  0.4227619E+002  0.1371128E+03  0.7546771E-02  0.1217268E+00
         21   -1    0    0  504  501  0.00000000000E+00  0.00000000000E+00  0.11335214793E+03  0.11335214793E+03  0.00000000000E+00 0. -1.
         21   -1    0    0  505  502 -0.00000000000E+00 -0.00000000000E+00 -0.15251635055E+04  0.15251635055E+04  0.00000000000E+00 0. -1.
         21    1    1    2  503  506  0.99820116766E+01  0.12369913182E+03 -0.27761144686E+02  0.12716838021E+03  0.00000000000E+00 0. -1.
         21    1    1    2  504  502  0.10322679809E+03 -0.64711874969E+02 -0.68071269359E+03  0.69152958709E+03  0.00000000000E+00 0. -1.
         21    1    1    2  505  503 -0.75887653928E+02 -0.86268666623E+02 -0.74726502804E+03  0.75604645426E+03  0.00000000000E+00 0. -1.
         21    1    1    2  506  501 -0.37321155834E+02  0.27281409772E+02  0.43927508746E+02  0.63771231888E+02  0.00000000000E+00 0. -1.
<scales pt_clust_3="137.11279" pt_clust_4="14000.00000" pt_clust_5="115.25407" pt_clust_6="46.22925"></scales>
<clustering>
<clus scale="   46.229">  1  6  2 -1</clus>
<clus scale="  115.254">  2  5  1 -1</clus>
<clus scale="  137.113">  1  3  2 -1</clus>
<clus scale="   46.229">  1  3  2 -1</clus>
</clustering>
</event>
<event>
 6    0  0.4227619E+002  0.1302607E+03  0.7546771E-02  0.1227069E+00
         21   -1    0    0  504  501  0.00000000000E+00  0.00000000000E+00  0.17389427099E+04  0.17389427099E+04  0.00000000000E+00 0.  1.
         21   -1    0    0  503  502 -0.00000000000E+00 -0.00000000000E+00 -0.19703703718E+03  0.19703703718E+03  0.00000000000E+00 0.  1.
         21    1    1    2  503  505  0.13299668408E+03 -0.72409407879E+02 -0.86299378732E+02  0.17429521822E+03  0.00000000000E+00 0.  1.
         21    1    1    2  504  506 -0.38178812239E+02  0.53237282126E+02  0.43673536337E+03  0.44162156597E+03  0.00000000000E+00 0.  1.
         21    1    1    2  505  501 -0.87275281106E+02 -0.14248327319E+02  0.12495259326E+04  0.12526512067E+04  0.00000000000E+00 0.  1.
         21    1    1    2  506  502 -0.75425907298E+01  0.33420453072E+02 -0.58056244439E+02  0.67411756221E+02  0.00000000000E+00 0. -1.
<scales pt_clust_3="130.26068" pt_clust_4="66.08651" pt_clust_5="14000.00000" pt_clust_6="34.26102"></scales>
<clustering>
<clus scale="   34.261">  2  6  1 -1</clus>
<clus scale="   66.087">  1  4  2 -1</clus>
<clus scale="  130.261">  2  3  1 -1</clus>
<clus scale="   66.087">  1  3  2 -1</clus>
</clustering>
</event>
<event>
 6    0  0.4227619E+002  0.9614405E+02  0.7546771E-02  0.1288620E+00
         21   -1    0    0  504  501  0.00000000000E+00  0.00000000000E+00  0.72444732300E+03  0.72444732300E+03  0.00000000000E+00 0.  1.
         21   -1    0    0  503  502 -0.00000000000E+00 -0.00000000000E+00 -0.95302636542E+03  0.95302636542E+03  0.00000000000E+00 0.  1.
         21    1    1    2  503  501  0.32237794692E+02 -0.29240070453E+01  0.24217936809E+02  0.40426893117E+02  0.00000000000E+00 0. -1.
         21    1    1    2  504  505  0.36929325740E+02 -0.58129981599E+02  0.61362133264E+03  0.61747389396E+03  0.00000000000E+00 0.  1.
         21    1    1    2  505  506 -0.10348707503E+03  0.84185084615E+02  0.17623050898E+02  0.13456327542E+03  0.00000000000E+00 0.  1.
         21    1    1    2  506  502  0.34319954593E+02 -0.23131095971E+02 -0.88404136277E+03  0.88500962592E+03  0.00000000000E+00 0.  1.
<scales pt_clust_3="32.37013" pt_clust_4="14000.00000" pt_clust_5="96.14405" pt_clust_6="41.40712"></scales>
<clustering>
<clus scale="   32.370">  1  3  2 -1</clus>
<clus scale="   41.407">  2  6  1 -1</clus>
<clus scale="   96.144">  2  5  1 -1</clus>
<clus scale="   32.370">  1  3  2 -1</clus>
</clustering>
</event>
<event>
 6    0  0.4227619E+002  0.8024618E+02  0.7546771E-02  0.1328354E+00
         21   -1    0    0  503  501  0.00000000000E+00  0.00000000000E+00  0.40137640627E+03  0.40137640627E+03  0.00000000000E+00 0.  1.
         21   -1    0    0  504  502 -0.00000000000E+00 -0.00000000000E+00 -0.34367974985E+03  0.34367974985E+03  0.00000000000E+00 0. -1.
         21    1    1    2  503  506 -0.83915094006E+02  0.14890435728E+02  0.34528557512E+03  0.35564813575E+03  0.00000000000E+00 0.  1.
         21    1    1    2  504  501 -0.31260136625E+02  0.15324217779E+02 -0.12127215879E+03  0.12617037802E+03  0.00000000000E+00 0.  1.
         21    1    1    2  505  502  0.55036411527E+02 -0.50661416079E+02 -0.18288581389E+03  0.19759252666E+03  0.00000000000E+00 0. -1.
         21    1    1    2  506  505  0.60138819104E+02  0.20446762571E+02  0.16569053968E+02  0.65645115677E+02  0.00000000000E+00 0. -1.
<scales pt_clust_3="80.24618" pt_clust_4="34.81419" pt_clust_5="46.72614" pt_clust_6="14000.00000"></scales>
<clustering>
<clus scale="   34.814">  2  4  1 -1</clus>
<clus scale="   46.726">  2  5  1 -1</clus>
<clus scale="   80.246">  1  3  2 -1</clus>
<clus scale="   80.246">  1  3  2 -1</clus>
</clustering>
</event>
<event>
 6    0  0.4227619E+002  0.7616042E+02  0.7546771E-02  0.1340315E+00
         21   -1    0    0  505  501  0.00000000000E+00  0.00000000000E+00  0.37781410610E+03  0.37781410610E+03  0.00000000000E+00 0. -1.
         21   -1    0    0  503  502 -0.00000000000E+00 -0.00000000000E+00 -0.17002673183E+03  0.17002673183E+03  0.00000000000E+00 0. -1.
         21    1    1    2  503  504 -0.74953129929E+02  0.60897778020E+01  0.99236813280E+01  0.75852070051E+02  0.00000000000E+00 0. -1.
         21    1    1    2  504  501 -0.57133846045E+02 -0.37471054464E+02  0.15614076791E+03  0.17043560570E+03  0.00000000000E+00 0. -1.
         21    1    1    2  505  506  0.87269989167E+02  0.28446070854E+02  0.15475288672E+03  0.17992689044E+03  0.00000000000E+00 0. -1.
         21    1    1    2  506  502  0.44816986808E+02  0.29352058076E+01 -0.11302996168E+03  0.12162627174E+03  0.00000000000E+00 0. -1.
<scales pt_clust_3="47.58380" pt_clust_4="14000.00000" pt_clust_5="76.16042" pt_clust_6="44.91300"></scales>
<clustering>
<clus scale="   44.913">  2  6  1 -1</clus>
<clus scale="   47.584">  2  3  1 -1</clus>
<clus scale="   76.160">  2  5  1 -1</clus>
<clus scale="   76.160">  1  3  2 -1</clus>
</clustering>
</event>
<event>
 6    0  0.4227619E+002  0.8418762E+02  0.7546771E-02  0.1317571E+00
         21   -1    0    0  503  501  0.00000000000E+00  0.00000000000E+00  0.29659115839E+03  0.29659115839E+03  0.00000000000E+00 0.  1.
         21   -1    0    0  506  502 -0.00000000000E+00 -0.00000000000E+00 -0.95534107190E+02  0.95534107190E+02  0.00000000000E+00 0.  1.
         21    1    1    2  503  502  0.71930899511E+01  0.35559601968E+02 -0.88630190008E+01  0.37346739362E+02  0.00000000000E+00 0.  1.
         21    1    1    2  504  505  0.96558183637E+02  0.53845780589E+02  0.97052214902E+02  0.14711214543E+03  0.00000000000E+00 0.  1.
         21    1    1    2  505  501 -0.64620573430E+02 -0.46675139195E+01  0.91161060300E+02  0.11183891591E+03  0.00000000000E+00 0.  1.
         21    1    1    2  506  504 -0.39130700158E+02 -0.84737868638E+02  0.21706794995E+02  0.95827464879E+02  0.00000000000E+00 0.  1.
<scales pt_clust_3="36.27983" pt_clust_4="14000.00000" pt_clust_5="63.59511" pt_clust_6="84.18762"></scales>
<clustering>
<clus scale="   36.280">  2  3  1 -1</clus>
<clus scale="   63.595">  1  5  2 -1</clus>
<clus scale="   84.188">  2  6  1 -1</clus>
<clus scale="   63.595">  1  3  2 -1</clus>
</clustering>
</event>
<event>
 6    0  0.4227619E+002  0.1309341E+03  0.7546771E-02  0.1226076E+00
         21   -1    0    0  504  501  0.00000000000E+00  0.00000000000E+00  0.59557520921E+03  0.59557520921E+03  0.00000000000E+00 0. -1.
         21   -1    0    0  503  502 -0.00000000000E+00 -0.00000000000E+00 -0.30021693501E+03  0.30021693501E+03  0.00000000000E+00 0.  1.
         21    1    1    2  503  506 -0.86025937564E+02  0.31422522702E+02  0.34042943543E+03  0.35253373934E+03  0.00000000000E+00 0. -1.
         21    1    1    2  504  505  0.84595328596E+02 -0.30355903421E+02 -0.10757064927E+03  0.14017594329E+03  0.00000000000E+00 0.  1.
         21    1    1    2  505  502  0.19194059000E+02 -0.34978504396E+02 -0.16634241681E+03  0.17106053694E+03  0.00000000000E+00 0.  1.
         21    1    1    2  506  501 -0.17763450032E+02  0.33911885115E+02  0.22884190483E+03  0.23202192465E+03  0.00000000000E+00 0. -1.
<scales pt_clust_3="32.93267" pt_clust_4="120.61959" pt_clust_5="39.89872" pt_clust_6="32.93267"></scales>
<clustering>
<clus scale="   32.933">  3  6 -1 -1</clus>
<clus scale="   39.899">  2  5  1 -1</clus>
<clus scale="  120.620">  2  4  1 -1</clus>
<clus scale="  130.934">  1  3  2 -1</clus>
</clustering>
</event>
<event>
 6    0  0.4227619E+002  0.8244700E+02  0.7546771E-02  0.1322247E+00
         21   -1    0    0  503  501  0.00000000000E+00  0.00000000000E+00  0.40784967987E+03  0.40784967987E+03  0.00000000000E+00 0. -1.
         21   -1    0    0  506  502 -0.00000000000E+00 -0.00000000000E+00 -0.13596055936E+04  0.13596055936E+04  0.00000000000E+00 0. -1.
         21    1    1    2  503  505 -0.19723770668E+02  0.27831501619E+02  0.20243838496E+03  0.20529227778E+03  0.00000000000E+00 0. -1.
         21    1    1    2  504  501  0.61642627768E+02  0.86054207282E+01  0.18974433799E+03  0.19969171395E+03  0.00000000000E+00 0. -1.
         21    1    1    2  505  502 -0.93563990341E+02 -0.87665295727E+02 -0.52999455730E+03  0.54528309632E+03  0.00000000000E+00 0.  1.
         21    1    1    2  506  504  0.51645133240E+02  0.51228373379E+02 -0.81394407937E+03  0.81718818540E+03  0.00000000000E+00 0. -1.
<scales pt_clust_3="34.11187" pt_clust_4="55.40961" pt_clust_5="82.44700" pt_clust_6="14000.00000"></scales>
<clustering>
<clus scale="   34.112">  1  3  2 -1</clus>
<clus scale="   55.410">  1  4  2 -1</clus>
<clus scale="   82.447">  1  5  2 -1</clus>
<clus scale="   34.112">  1  3  2 -1</clus>
</clustering>
</event>
<event>
 6    0  0.4227619E+002  0.7490898E+02  0.7546771E-02  0.1344153E+00
         21   -1    0    0  504  501  0.00000000000E+00  0.00000000000E+00  0.27226938208E+02  0.27226938208E+02  0.00000000000E+00 0.  1.
         21   -1    0    0  505  502 -0.00000000000E+00 -0.00000000000E+00 -0.11604812825E+04  0.11604812825E+04  0.00000000000E+00 0. -1.
         21    1    1    2  503  502 -0.18570797249E+01  0.35144533166E+02 -0.24256674255E+03  0.24510653102E+03  0.00000000000E+00 0.  1.
         21    1    1    2  504  503  0.36512804302E+02 -0.93935322425E+02 -0.74195724180E+03  0.74877071146E+03  0.00000000000E+00 0. -1.
         21    1    1    2  505  506 -0.67221704547E+02  0.44845488174E+02 -0.13172211172E+03  0.15453345944E+03  0.00000000000E+00 0.  1.
         21    1    1    2  506  501  0.32565979971E+02  0.13945301085E+02 -0.17008248188E+02  0.39297518754E+02  0.00000000000E+00 0.  1.
<scales pt_clust_3="35.19356" pt_clust_4="74.90898" pt_clust_5="14000.00000" pt_clust_6="35.81303"></scales>
<clustering>
<clus scale="   35.194">  2  3  1 -1</clus>
<clus scale="   35.813">  1  6  2 -1</clus>
<clus scale="   74.909">  2  4  1 -1</clus>
<clus scale="   35.813">  1  3  2 -1</clus>
</clustering>
</event>
<event>
 6    0  0.4227619E+002  0.1114742E+03  0.7546771E-02  0.1257864E+00
         21   -1    0    0  505  501  0.00000000000E+00  0.00000000000E+00  0.11880384009E+04  0.11880384009E+04  0.00000000000E+00 0. -1.
         21   -1    0    0  503  502 -0.00000000000E+00 -0.00000000000E+00 -0.10051203470E+03  0.10051203470E+03  0.00000000000E+00 0. -1.
         21    1    1    2  503  504  0.31843251928E+02 -0.71615054970E+00 -0.81336989128E+02  0.87351081077E+02  0.00000000000E+00 0. -1.
         21    1    1    2  504  501 -0.10926517123E+03  0.48407335199E+02  0.68784207780E+03  0.69814674083E+03  0.00000000000E+00 0. -1.
         21    1    1    2  505  506 -0.15111177652E+02 -0.29267059958E+02  0.26870948057E+03  0.27072069267E+03  0.00000000000E+00 0.  1.
         21    1    1    2  506  502  0.92533096954E+02 -0.18424124691E+02  0.21231179698E+03  0.23233192105E+03  0.00000000000E+00 0.  1.
<scales pt_clust_3="31.85130" pt_clust_4="111.47417" pt_clust_5="32.11827" pt_clust_6="14000.00000"></scales>
<clustering>
<clus scale="   31.851">  2  3  1 -1</clus>
<clus scale="   32.118">  1  5  2 -1</clus>
<clus scale="  111.474">  1  4  2 -1</clus>
<clus scale="   32.118">  1  3  2 -1</clus>
</clustering>
</event>
<event>
 6    0  0.4227619E+002  0.1225602E+03  0.7546771E-02  0.1238932E+00
         21   -1    0    0  503  501  0.00000000000E+00  0.00000000000E+00  0.18299287130E+03  0.18299287130E+03  0.00000000000E+00 0. -1.
         21   -1    0    0  505  502 -0.00000000000E+00 -0.00000000000E+00 -0.55308758649E+03  0.55308758649E+03  0.00000000000E+00 0.  1.
         21    1    1    2  503  504  0.16179291254E+02  0.26300625995E+02  0.13635697238E+02  0.33755364497E+02  0.00000000000E+00 0.  1.
         21    1    1    2  504  502 -0.11268982173E+03  0.38133338188E+02 -0.44362483414E+03  0.45929961994E+03  0.00000000000E+00 0.  1.
         21    1    1    2  505  506  0.14672772566E+03 -0.94448543217E+02  0.29084664011E+02  0.17690525847E+03  0.00000000000E+00 0. -1.
         21    1    1    2  506  501 -0.50217195183E+02  0.30014579035E+02  0.30809757701E+02  0.66120214884E+02  0.00000000000E+00 0.  1.
<scales pt_clust_3="30.87867" pt_clust_4="122.56016" pt_clust_5="14000.00000" pt_clust_6="59.13424"></scales>
<clustering>
<clus scale="   30.879">  1  3  2 -1</clus>
<clus scale="   59.134">  1  6  2 -1</clus>
<clus scale="  122.560">  2  4  1 -1</clus>
<clus scale="   30.879">  1  3  2 -1</clus>
</clustering>
</event>
<event>
 6    0  0.4227619E+002  0.7341077E+02  0.7546771E-02  0.1348864E+00
         21   -1    0    0  506  501  0.00000000000E+00  0.00000000000E+00  0.16682042721E+03  0.16682042721E+03  0.00000000000E+00 0.  1.
         21   -1    0    0  505  502 -0.00000000000E+00 -0.00000000000E+00 -0.29875481674E+03  0.29875481674E+03  0.00000000000E+00 0.  1.
         21    1    1    2  503  501  0.30077118547E+02  0.18740616083E+02  0.28134982638E+02  0.45248436430E+02  0.00000000000E+00 0. -1.
         21    1    1    2  504  502 -0.69684123795E+02  0.40396287455E+02 -0.28060601270E+02  0.85294398954E+02  0.00000000000E+00 0.  1.
         21    1    1    2  505  503  0.57448618699E+02  0.35909921940E+02 -0.20368671358E+03  0.21465820173E+03  0.00000000000E+00 0.  1.
         21    1    1    2  506  504 -0.17841613451E+02 -0.95046825478E+02  0.71677942681E+02  0.12037420683E+03  0.00000000000E+00 0.  1.
<scales pt_clust_3="35.43789" pt_clust_4="14000.00000" pt_clust_5="69.24248" pt_clust_6="73.41077"></scales>
<clustering>
<clus scale="   35.438">  1  3  2 -1</clus>
<clus scale="   69.242">  2  5  1 -1</clus>
<clus scale="   73.411">  1  6  2 -1</clus>
<clus scale="   35.438">  1  3  2 -1</clus>
</clustering>
</event>
<event>
 6    0  0.4227619E+002  0.1136193E+03  0.7546771E-02  0.1254011E+00
         21   -1    0    0  505  501  0.00000000000E+00  0.00000000000E+00  0.15161377301E+03  0.15161377301E+03  0.00000000000E+00 0.  1.
         21   -1    0    0  503  502 -0.00000000000E+00 -0.00000000000E+00 -0.10176079955E+04  0.10176079955E+04  0.00000000000E+00 0.  1.
         21    1    1    2  503  504 -0.23782505490E+02  0.28022359180E+02 -0.73819784019E+03  0.73911224550E+03  0.00000000000E+00 0.  1.
         21    1    1    2  504  506 -0.22656985713E+02  0.10160897846E+03 -0.12590436490E+03  0.16336961960E+03  0.00000000000E+00 0.  1.
         21    1    1    2  505  502  0.64119261484E+02 -0.62952273192E+01  0.90878394297E+02  0.11139924654E+03  0.00000000000E+00 0.  1.
         21    1    1    2  506  501 -0.17679770282E+02 -0.12333611032E+03 -0.92770411642E+02  0.15534065682E+03  0.00000000000E+00 0.  1.
<scales pt_clust_3="36.75405" pt_clust_4="14000.00000" pt_clust_5="63.46323" pt_clust_6="113.61925"></scales>
<clustering>
<clus scale="   36.754">  2  3  1 -1</clus>
<clus scale="   63.463">  1  5  2 -1</clus>
<clus scale="  113.619">  1  6  2 -1</clus>
<clus scale="   63.463">  1  3  2 -1</clus>
</clustering>
</event>
<event>
 6    0  0.6985672E+002  0.1466868E+03  0.7546771E-02  0.1204604E+00
         21   -1    0    0  502  501  0.00000000000E+00  0.00000000000E+00  0.40543309440E+03  0.40543309440E+03  0.00000000000E+00 0. -1.
         21   -1    0    0  503  502 -0.00000000000E+00 -0.00000000000E+00 -0.16776229710E+04  0.16776229710E+04  0.00000000000E+00 0.  1.
         21    1    1    2  503  504 -0.26685299464E+02  0.25485699387E+02 -0.12002662528E+04  0.12008333371E+04  0.00000000000E+00 0.  1.
         21    1    1    2  504  506 -0.11128195093E+03  0.34625077652E+02 -0.45137366540E+03  0.46617674162E+03  0.00000000000E+00 0.  1.
         21    1    1    2  505  501  0.58919463991E+02 -0.22216949346E+02  0.68806798804E+02  0.93270958165E+02  0.00000000000E+00 0. -1.
         21    1    1    2  506  505  0.79047786405E+02 -0.37893827694E+02  0.31064324277E+03  0.32277502845E+03  0.00000000000E+00 0. -1.
<scales pt_clust_3="36.90022" pt_clust_4="14000.00000" pt_clust_5="62.09935" pt_clust_6="146.68676"></scales>
<clustering>
<clus scale="   36.900">  2  3  1 -1</clus>
<clus scale="   62.099">  1  5  2 -1</clus>
<clus scale="  146.687">  1  6  2 -1</clus>
<clus scale="   62.099">  1  3  2 -1</clus>
</clustering>
</event>
<event>
 6    0  0.4227619E+002  0.1442440E+03  0.7546771E-02  0.1207730E+00
         21   -1    0    0  503  501  0.00000000000E+00  0.00000000000E+00  0.16718199085E+03  0.16718199085E+03  0.00000000000E+00 0.  1.
         21   -1    0    0  504  502 -0.00000000000E+00 -0.00000000000E+00 -0.13716894185E+04  0.13716894185E+04  0.00000000000E+00 0.  1.
         21    1    1    2  503  505  0.38232697147E+02 -0.31135499184E+02  0.56415302269E+02  0.74925594897E+02  0.00000000000E+00 0.  1.
         21    1    1    2  504  506 -0.13625602891E+03  0.36409052437E+02 -0.13247335057E+04  0.13322200215E+04  0.00000000000E+00 0.  1.
         21    1    1    2  505  502  0.57411874667E+02 -0.13044927927E+01  0.69904839336E+02  0.90468290671E+02  0.00000000000E+00 0.  1.
         21    1    1    2  506  501  0.40611457091E+02 -0.39690604605E+01 -0.60940635880E+01  0.41257502336E+02  0.00000000000E+00 0. -1.
<scales pt_clust_3="32.07354" pt_clust_4="140.02934" pt_clust_5="32.07354" pt_clust_6="40.80495"></scales>
<clustering>
<clus scale="   32.074">  3  5 -1 -1</clus>
<clus scale="   40.805">  1  6  2 -1</clus>
<clus scale="  140.029">  2  4  1 -1</clus>
<clus scale="   40.805">  1  3  2 -1</clus>
</clustering>
</event>
<event>
 6    0  0.4227619E+002  0.9270389E+02  0.7546771E-02  0.1296433E+00
         21   -1    0    0  505  501  0.00000000000E+00  0.00000000000E+00  0.77677230474E+03  0.77677230474E+03  0.00000000000E+00 0. -1.
         21   -1    0    0  503  502 -0.00000000000E+00 -0.00000000000E+00 -0.27737799116E+03  0.27737799116E+03  0.00000000000E+00 0. -1.
         21    1    1    2  503  504 -0.29478673648E+01  0.45567392387E+02 -0.48748873822E+01  0.45922126452E+02  0.00000000000E+00 0.  1.
         21    1    1    2  504  501  0.10070182963E+03  0.31608107686E+02  0.54175185620E+03  0.55193750068E+03  0.00000000000E+00 0. -1.
         21    1    1    2  505  506 -0.86427975585E+01 -0.42272629747E+02  0.19771465395E+03  0.20236787680E+03  0.00000000000E+00 0. -1.
         21    1    1    2  506  502 -0.89111164707E+02 -0.34902870326E+02 -0.23519730919E+03  0.25392279197E+03  0.00000000000E+00 0. -1.
<scales pt_clust_3="44.18317" pt_clust_4="14000.00000" pt_clust_5="43.14711" pt_clust_6="92.70389"></scales>
<clustering>
<clus scale="   43.147">  1  5  2 -1</clus>
<clus scale="   44.183">  2  3  1 -1</clus>
<clus scale="   92.704">  2  6  1 -1</clus>
<clus scale="   43.147">  1  3  2 -1</clus>
</clustering>
</event>
<event>
 6    0  0.4227619E+002  0.6676391E+02  0.7546771E-02  0.1371457E+00
         21   -1    0    0  504  501  0.00000000000E+00  0.00000000000E+00  0.22237985685E+02  0.22237985685E+02  0.00000000000E+00 0.  1.
         21   -1    0    0  503  502 -0.00000000000E+00 -0.00000000000E+00 -0.26544609847E+04  0.26544609847E+04  0.00000000000E+00 0. -1.
         21    1    1    2  503  506  0.57824869718E+02  0.11632281881E+02 -0.19863272195E+04  0.19872027699E+04  0.00000000000E+00 0. -1.
         21    1    1    2  504  502 -0.45782626721E+02  0.22083060470E+02 -0.28220455205E+03  0.28674574045E+03  0.00000000000E+00 0.  1.
         21    1    1    2  505  501 -0.63722566945E+02  0.19717865574E+02 -0.58775277692E+02  0.88903841473E+02  0.00000000000E+00 0.  1.
         21    1    1    2  506  505  0.51680323948E+02 -0.53433207925E+02 -0.30491594977E+03  0.31384661861E+03  0.00000000000E+00 0. -1.
<scales pt_clust_3="35.87213" pt_clust_4="50.83021" pt_clust_5="66.76391" pt_clust_6="14000.00000"></scales>
<clustering>
<clus scale="   50.830">  2  4  1 -1</clus>
<clus scale="   35.872">  2  3  1 -1</clus>
<clus scale="   66.764">  1  5  2 -1</clus>
<clus scale="   66.764">  1  3  2 -1</clus>
</clustering>
</event>
<event>
 6    0  0.4227619E+002  0.1395370E+03  0.7546771E-02  0.1213953E+00
         21   -1    0    0  503  501  0.00000000000E+00  0.00000000000E+00  0.20524172955E+04  0.20524172955E+04  0.00000000000E+00 0.  1.
         21   -1    0    0  505  502 -0.00000000000E+00 -0.00000000000E+00 -0.58044017922E+03  0.58044017922E+03  0.00000000000E+00 0. -1.
         21    1    1    2  503  504 -0.12340543330E+03  0.12032025569E+02  0.79991036761E+03  0.80946294962E+03  0.00000000000E+00 0. -1.
         21    1    1    2  504  506  0.13694769287E+03 -0.10270447250E+03  0.12139226644E+04  0.12259327529E+04  0.00000000000E+00 0.  1.
         21    1    1    2  505  501  0.91279692355E+01  0.66671214013E+02 -0.14201358910E+02  0.68775353109E+02  0.00000000000E+00 0. -1.
         21    1    1    2  506  502 -0.22670228808E+02  0.24001232917E+02 -0.52765455684E+03  0.52868641916E+03  0.00000000000E+00 0. -1.
<scales pt_clust_3="14000.00000" pt_clust_4="139.53705" pt_clust_5="86.17916" pt_clust_6="33.01512"></scales>
<clustering>
<clus scale="   33.015">  2  6  1 -1</clus>
<clus scale="   86.179">  2  5  1 -1</clus>
<clus scale="  139.537">  2  4  1 -1</clus>
<clus scale="  139.537">  1  3  2 -1</clus>
</clustering>
</event>
<event>
 6    0  0.4227619E+002  0.1354202E+03  0.7546771E-02  0.1219628E+00
         21   -1    0    0  504  501  0.00000000000E+00  0.00000000000E+00  0.11284100447E+03  0.11284100447E+03  0.00000000000E+00 0.  1.
         21   -1    0    0  506  502 -0.00000000000E+00 -0.00000000000E+00 -0.38544518424E+03  0.38544518424E+03  0.00000000000E+00 0.  1.
         21    1    1    2  503  501 -0.70972485451E+01  0.46096594726E+02  0.54101991893E+01  0.46952499800E+02  0.00000000000E+00 0. -1.
         21    1    1    2  504  502 -0.19899151520E+02  0.22827481036E+02 -0.21698101178E+03  0.21908406969E+03  0.00000000000E+00 0.  1.
         21    1    1    2  505  503  0.60186125587E+02  0.59383862725E+02  0.39529883202E+01  0.84643009055E+02  0.00000000000E+00 0.  1.
         21    1    1    2  506  505 -0.33189725521E+02 -0.12830793849E+03 -0.64986355501E+02  0.14760661015E+03  0.00000000000E+00 0.  1.
<scales pt_clust_3="43.81544" pt_clust_4="30.28317" pt_clust_5="43.81544" pt_clust_6="122.69266"></scales>
<clustering>
<clus scale="   30.283">  2  4  1 -1</clus>
<clus scale="   43.815">  3  5 -1 -1</clus>
<clus scale="  122.693">  2  6  1 -1</clus>
<clus scale="  135.420">  1  3  2 -1</clus>
</clustering>
</event>
<event>
 6    0  0.4227619E+002  0.6397466E+02  0.7546771E-02  0.1381870E+00
         21   -1    0    0  503  501  0.00000000000E+00  0.00000000000E+00  0.46536693624E+02  0.46536693624E+02  0.00000000000E+00 0.  1.
         21   -1    0    0  505  502 -0.00000000000E+00 -0.00000000000E+00 -0.56552436464E+03  0.56552436464E+03  0.00000000000E+00 0.  1.
         21    1    1    2  503  506  0.66103279910E+02 -0.40594797605E+02 -0.12271462562E+03  0.14517734172E+03  0.00000000000E+00 0.  1.
         21    1    1    2  504  501 -0.42500371439E+02  0.34050538620E+02 -0.82897862041E+01  0.55085763207E+02  0.00000000000E+00 0.  1.
         21    1    1    2  505  504 -0.67799239777E+02  0.25667905924E+02 -0.12550087518E+03  0.14493463347E+03  0.00000000000E+00 0.  1.
         21    1    1    2  506  502  0.44196331306E+02 -0.19123646940E+02 -0.26248238401E+03  0.26686331987E+03  0.00000000000E+00 0.  1.
<scales pt_clust_3="14000.00000" pt_clust_4="49.58419" pt_clust_5="63.97466" pt_clust_6="48.15630"></scales>
<clustering>
<clus scale="   48.156">  2  6  1 -1</clus>
<clus scale="   49.584">  1  4  2 -1</clus>
<clus scale="   63.975">  2  5  1 -1</clus>
<clus scale="   49.584">  1  3  2 -1</clus>
</clustering>
</event>
<event>
 6    0  0.4227619E+002  0.7668825E+02  0.7546771E-02  0.1338721E+00
         21   -1    0    0  504  501  0.00000000000E+00  0.00000000000E+00  0.83455287139E+03  0.83455287139E+03  0.00000000000E+00 0.  1.
         21   -1    0    0  505  502 -0.00000000000E+00 -0.00000000000E+00 -0.38262586975E+02  0.38262586975E+02  0.00000000000E+00 0. -1.
         21    1    1    2  503  502  0.42035337477E+02  0.70682578156E+02  0.74569149508E+02  0.11101150620E+03  0.00000000000E+00 0. -1.
         21    1    1    2  504  503  0.13219200729E+02  0.57510116287E+02  0.15370332560E+03  0.16464165039E+03  0.00000000000E+00 0. -1.
         21    1    1    2  505  506 -0.29522083829E+02 -0.42890390954E+02  0.52283862089E+02  0.73788490327E+02  0.00000000000E+00 0. -1.
         21    1    1    2  506  501 -0.25732454377E+02 -0.85302303489E+02  0.51573394722E+03  0.52337381144E+03  0.00000000000E+00 0.  1.
<scales pt_clust_3="47.88068" pt_clust_4="14000.00000" pt_clust_5="52.06860" pt_clust_6="76.68825"></scales>
<clustering>
<clus scale="   52.069">  2  5  1 -1</clus>
<clus scale="   47.881">  2  3  1 -1</clus>
<clus scale="   76.688">  1  6  2 -1</clus>
<clus scale="   76.688">  1  3  2 -1</clus>
</clustering>
</event>
<event>
 6    0  0.4227619E+002  0.8220960E+02  0.7546771E-02  0.1322895E+00
         21   -1    0    0  506  501  0.00000000000E+00  0.00000000000E+00  0.37505208289E+03  0.37505208289E+03  0.00000000000E+00 0. -1.
         21   -1    0    0  503  502 -0.00000000000E+00 -0.00000000000E+00 -0.52175933831E+03  0.52175933831E+03  0.00000000000E+00 0.  1.
         21    1    1    2  503  504  0.12050910053E+03  0.34991763882E+02 -0.41172678773E+03  0.43042515561E+03  0.00000000000E+00 0.  1.
         21    1    1    2  504  501 -0.58729596344E+01 -0.56749754940E+02  0.22810415222E+03  0.23513087973E+03  0.00000000000E+00 0. -1.
         21    1    1    2  505  502 -0.61196881598E+02  0.25376523380E+02 -0.79275539489E+02  0.10331329739E+03  0.00000000000E+00 0.  1.
         21    1    1    2  506  505 -0.53439259296E+02 -0.36185323227E+01  0.11619091957E+03  0.12794208847E+03  0.00000000000E+00 0.  1.
<scales pt_clust_3="14000.00000" pt_clust_4="82.20960" pt_clust_5="68.53838" pt_clust_6="53.56163"></scales>
<clustering>
<clus scale="   53.562">  1  6  2 -1</clus>
<clus scale="   68.538">  2  5  1 -1</clus>
<clus scale="   82.210">  1  4  2 -1</clus>
<clus scale="   53.562">  1  3  2 -1</clus>
</clustering>
</event>
<event>
 6    0  0.4227619E+002  0.1127925E+03  0.7546771E-02  0.1255484E+00
         21   -1    0    0  503  501  0.00000000000E+00  0.00000000000E+00  0.83241791717E+03  0.83241791717E+03  0.00000000000E+00 0. -1.
         21   -1    0    0  504  502 -0.00000000000E+00 -0.00000000000E+00 -0.80961251209E+02  0.80961251209E+02  0.00000000000E+00 0.  1.
         21    1    1    2  503  502 -0.10632419882E+03  0.67562271952E+02  0.34479561481E+03  0.36708788026E+03  0.00000000000E+00 0. -1.
         21    1    1    2  504  505  0.40046950321E+02 -0.10681151305E+03 -0.14110264978E+02  0.11494153787E+03  0.00000000000E+00 0.  1.
         21    1    1    2  505  506  0.49368385213E+02  0.92318971699E+01  0.14536257433E+03  0.15379448429E+03  0.00000000000E+00 0. -1.
         21    1    1    2  506  501  0.16908863290E+02  0.30017343930E+02  0.27540874181E+03  0.27755526595E+03  0.00000000000E+00 0. -1.
<scales pt_clust_3="14000.00000" pt_clust_4="112.79245" pt_clust_5="56.62782" pt_clust_6="34.45215"></scales>
<clustering>
<clus scale="   34.452">  1  6  2 -1</clus>
<clus scale="   56.628">  1  5  2 -1</clus>
<clus scale="  112.792">  2  4  1 -1</clus>
<clus scale="   34.452">  1  3  2 -1</clus>
</clustering>
</event>
<event>
 6    0  0.4227619E+002  0.7862640E+02  0.7546771E-02  0.1332995E+00
         21   -1    0    0  505  501  0.00000000000E+00  0.00000000000E+00  0.12904095221E+03  0.12904095221E+03  0.00000000000E+00 0. -1.
         21   -1    0    0  504  502 -0.00000000000E+00 -0.00000000000E+00 -0.89208612713E+03  0.89208612713E+03  0.00000000000E+00 0. -1.
         21    1    1    2  503  502  0.28444160029E+02 -0.35581267589E+02  0.87747664580E+02  0.98867332736E+02  0.00000000000E+00 0. -1.
         21    1    1    2  504  506  0.31248273494E+02 -0.54444147297E+02 -0.20878915396E+03  0.21802185804E+03  0.00000000000E+00 0. -1.
         21    1    1    2  505  503  0.14811253853E+02 -0.31440665757E+02  0.10539537535E+02  0.36317634221E+02  0.00000000000E+00 0. -1.
         21    1    1    2  506  501 -0.74503687376E+02  0.12146608064E+03 -0.65254322308E+03  0.66792025435E+03  0.00000000000E+00 0. -1.
<scales pt_clust_3="78.62640" pt_clust_4="64.28866" pt_clust_5="34.75469" pt_clust_6="14000.00000"></scales>
<clustering>
<clus scale="   34.755">  1  5  2 -1</clus>
<clus scale="   64.289">  2  4  1 -1</clus>
<clus scale="   78.626">  1  3  2 -1</clus>
<clus scale="   34.755">  1  3  2 -1</clus>
</clustering>
</event>
<event>
 6    0  0.4227619E+002  0.6608093E+02  0.7546771E-02  0.1373951E+00
         21   -1    0    0  504  501  0.00000000000E+00  0.00000000000E+00  0.38150537838E+03  0.38150537838E+03  0.00000000000E+00 0. -1.
         21   -1    0    0  506  502 -0.00000000000E+00 -0.00000000000E+00 -0.85679931512E+02  0.85679931512E+02  0.00000000000E+00 0. -1.
         21    1    1    2  503  502  0.10929764661E+02  0.53470991655E+02 -0.37726462678E+02  0.66346760963E+02  0.00000000000E+00 0. -1.
         21    1    1    2  504  503 -0.38355863308E+02 -0.86330560512E+02  0.12262227511E+03  0.15479134433E+03  0.00000000000E+00 0. -1.
         21    1    1    2  505  501  0.56540372571E+02 -0.21880355679E+02  0.13522580776E+03  0.14819440873E+03  0.00000000000E+00 0. -1.
         21    1    1    2  506  505 -0.29114273924E+02  0.54739924535E+02  0.75703826678E+02  0.97852795862E+02  0.00000000000E+00 0.  1.
<scales pt_clust_3="54.57661" pt_clust_4="66.08093" pt_clust_5="59.77820" pt_clust_6="14000.00000"></scales>
<clustering>
<clus scale="   54.577">  2  3  1 -1</clus>
<clus scale="   59.778">  1  5  2 -1</clus>
<clus scale="   66.081">  2  4  1 -1</clus>
<clus scale="   59.778">  1  3  2 -1</clus>
</clustering>
</event>
<event>
 6    0  0.4227619E+002  0.1191612E+03  0.7546771E-02  0.1244487E+00
         21   -1    0    0  504  501  0.00000000000E+00  0.00000000000E+00  0.48950743182E+02  0.48950743182E+02  0.00000000000E+00 0. -1.
         21   -1    0    0  503  502 -0.00000000000E+00 -0.00000000000E+00 -0.15494763288E+04  0.15494763288E+04  0.00000000000E+00 0. -1.
         21    1    1    2  503  505 -0.95672484237E+02 -0.37133929002E+01 -0.54736600038E+03  0.55567666129E+03  0.00000000000E+00 0. -1.
         21    1    1    2  504  506 -0.23558530546E+02 -0.25260842532E+02  0.21329055178E+02  0.40596097370E+02  0.00000000000E+00 0. -1.
         21    1    1    2  505  501 -0.34585051228E+02 -0.17291621000E+02 -0.47007447337E+02  0.60867282101E+02  0.00000000000E+00 0. -1.
         21    1    1    2  506  502  0.15381606601E+03  0.46265856431E+02 -0.92748119303E+03  0.94128703118E+03  0.00000000000E+00 0. -1.
<scales pt_clust_3="14000.00000" pt_clust_4="34.54149" pt_clust_5="51.34723" pt_clust_6="119.16120"></scales>
<clustering>
<clus scale="   34.541">  1  4  2 -1</clus>
<clus scale="   51.347">  1  5  2 -1</clus>
<clus scale="  119.161">  1  6  2 -1</clus>
<clus scale="   34.541">  1  3  2 -1</clus>
</clustering>
</event>
<event>
 6    0  0.4227619E+002  0.1297994E+03  0.7546771E-02  0.1227754E+00
         21   -1    0    0  506  501  0.00000000000E+00  0.00000000000E+00  0.36180253914E+03  0.36180253914E+03  0.00000000000E+00 0.  1.
         21   -1    0    0  504  502 -0.00000000000E+00 -0.00000000000E+00 -0.25859956545E+03  0.25859956545E+03  0.00000000000E+00 0.  1.
         21    1    1    2  503  502 -0.35576278633E+02 -0.72216427546E+02 -0.63557001667E+02  0.10256888646E+03  0.00000000000E+00 0.  1.
         21    1    1    2  504  501  0.26841936434E+02  0.11533810116E+03 -0.33735345549E+02  0.12313180203E+03  0.00000000000E+00 0.  1.
         21    1    1    2  505  503 -0.28016126909E+02 -0.34988542796E+02 -0.90653625547E+02  0.10112952743E+03  0.00000000000E+00 0.  1.
         21    1    1    2  506  505  0.36750469107E+02 -0.81331308206E+01  0.29114894645E+03  0.29357188867E+03  0.00000000000E+00 0.  1.
<scales pt_clust_3="34.80119" pt_clust_4="121.13072" pt_clust_5="34.80119" pt_clust_6="37.63967"></scales>
<clustering>
<clus scale="   34.801">  3  5 -1 -1</clus>
<clus scale="   37.640">  1  6  2 -1</clus>
<clus scale="  121.131">  1  4  2 -1</clus>
<clus scale="   37.640">  1  3  2 -1</clus>
</clustering>
</event>
<event>
 6    0  0.4227619E+002  0.1575731E+03  0.7546771E-02  0.1191464E+00
         21   -1    0    0  504  501  0.00000000000E+00  0.00000000000E+00  0.70323485897E+03  0.70323485897E+03  0.00000000000E+00 0.  1.
         21   -1    0    0  505  502 -0.00000000000E+00 -0.00000000000E+00 -0.93479519442E+03  0.93479519442E+03  0.00000000000E+00 0.  1.
         21    1    1    2  503  506 -0.90721720448E+02 -0.36836706715E+02  0.34314388935E+03  0.35684044379E+03  0.00000000000E+00 0.  1.
         21    1    1    2  504  503 -0.53238016976E+02  0.77364347634E+01  0.34057755025E+03  0.34480024160E+03  0.00000000000E+00 0.  1.
         21    1    1    2  505  501  0.52716356753E+01 -0.33483349046E+02 -0.73139382319E+02  0.80611996948E+02  0.00000000000E+00 0.  1.
         21    1    1    2  506  502  0.13868810175E+03  0.62583620997E+02 -0.84214239273E+03  0.85577737106E+03  0.00000000000E+00 0.  1.
<scales pt_clust_3="42.25594" pt_clust_4="42.25594" pt_clust_5="33.89579" pt_clust_6="146.88723"></scales>
<clustering>
<clus scale="   33.896">  2  5  1 -1</clus>
<clus scale="   42.256">  3  4 -1 -1</clus>
<clus scale="  146.887">  2  6  1 -1</clus>
<clus scale="  157.573">  1  3  2 -1</clus>
</clustering>
</event>
<event>
 6    0  0.4227619E+002  0.1193332E+03  0.7546771E-02  0.1244201E+00
         21   -1    0    0  503  501  0.00000000000E+00  0.00000000000E+00  0.52279627688E+03  0.52279627688E+03  0.00000000000E+00 0. -1.
         21   -1    0    0  505  502 -0.00000000000E+00 -0.00000000000E+00 -0.75056337728E+02  0.75056337728E+02  0.00000000000E+00 0. -1.
         21    1    1    2  503  506  0.68953395859E+02  0.20579832881E+02  0.12550354008E+03  0.14466941244E+03  0.00000000000E+00 0. -1.
         21    1    1    2  504  501 -0.13821447097E+02 -0.44389425199E+02  0.17038870084E+03  0.17661756097E+03  0.00000000000E+00 0. -1.
         21    1    1    2  505  504  0.62586016326E+01 -0.72967244992E+02  0.14416765482E+03  0.16170250967E+03  0.00000000000E+00 0. -1.
         21    1    1    2  506  502 -0.61390550394E+02  0.96776837309E+02  0.76800434024E+01  0.11486313153E+03  0.00000000000E+00 0. -1.
<scales pt_clust_3="71.95902" pt_clust_4="32.70579" pt_clust_5="32.70579" pt_clust_6="112.05101"></scales>
<clustering>
<clus scale="   32.706">  4  5 -1 -1</clus>
<clus scale="   71.959">  1  3  2 -1</clus>
<clus scale="  112.051">  2  6  1 -1</clus>
<clus scale="   71.959">  1  3  2 -1</clus>
</clustering>
</event>
<event>
 6    0  0.4227619E+002  0.1410992E+03  0.7546771E-02  0.1211858E+00
         21   -1    0    0  504  501  0.00000000000E+00  0.00000000000E+00  0.67562994270E+03  0.67562994270E+03  0.00000000000E+00 0. -1.
         21   -1    0    0  506  502 -0.00000000000E+00 -0.00000000000E+00 -0.11589774138E+03  0.11589774138E+03  0.00000000000E+00 0. -1.
         21    1    1    2  503  502  0.32827180525E+02  0.55804655793E+01 -0.28593839253E+02  0.43890466169E+02  0.00000000000E+00 0. -1.
         21    1    1    2  504  505 -0.38862362751E+01  0.35251141761E+02  0.28855732835E+03  0.29072852900E+03  0.00000000000E+00 0. -1.
         21    1    1    2  505  503  0.31940383618E+02  0.11831866083E+03  0.12876719641E+02  0.12322866352E+03  0.00000000000E+00 0. -1.
         21    1    1    2  506  501 -0.60881327868E+02 -0.15915026817E+03  0.28689199258E+03  0.33368002539E+03  0.00000000000E+00 0. -1.
<scales pt_clust_3="33.29813" pt_clust_4="35.49417" pt_clust_5="141.09918" pt_clust_6="14000.00000"></scales>
<clustering>
<clus scale="   33.298">  2  3  1 -1</clus>
<clus scale="   35.494">  1  4  2 -1</clus>
<clus scale="  141.099">  2  5  1 -1</clus>
<clus scale="   35.494">  1  3  2 -1</clus>
</clustering>
</event>
<event>
 6    0  0.4227619E+002  0.1499764E+03  0.7546771E-02  0.1200502E+00
         21   -1    0    0  506  501  0.00000000000E+00  0.00000000000E+00  0.81196496385E+03  0.81196496385E+03  0.00000000000E+00 0. -1.
         21   -1    0    0  505  502 -0.00000000000E+00 -0.00000000000E+00 -0.27483019399E+03  0.27483019399E+03  0.00000000000E+00 0.  1.
         21    1    1    2  503  501 -0.39666516812E+02 -0.56505993470E+02  0.14488297060E+02  0.70542686408E+02  0.00000000000E+00 0. -1.
         21    1    1    2  504  502 -0.88638092872E+02 -0.10657782791E+02 -0.18062522488E+03  0.20148392418E+03  0.00000000000E+00 0.  1.
         21    1    1    2  505  503  0.11534011573E+02 -0.31750517758E+02 -0.42027191914E+02  0.53920438250E+02  0.00000000000E+00 0. -1.
         21    1    1    2  506  504  0.11677059811E+03  0.98914294019E+02  0.74529888959E+03  0.76084810900E+03  0.00000000000E+00 0. -1.
<scales pt_clust_3="71.51249" pt_clust_4="14000.00000" pt_clust_5="33.78060" pt_clust_6="149.97640"></scales>
<clustering>
<clus scale="   33.781">  2  5  1 -1</clus>
<clus scale="   71.512">  2  3  1 -1</clus>
<clus scale="  149.976">  1  6  2 -1</clus>
<clus scale="  149.976">  1  3  2 -1</clus>
</clustering>
</event>
<event>
 6    0  0.4227619E+002  0.9309520E+02  0.7546771E-02  0.1295525E+00
         21   -1    0    0  505  501  0.00000000000E+00  0.00000000000E+00  0.58078461252E+03  0.58078461252E+03  0.00000000000E+00 0.  1.
         21   -1    0    0  506  502 -0.00000000000E+00 -0.00000000000E+00 -0.25622064372E+03  0.25622064372E+03  0.00000000000E+00 0.  1.
         21    1    1    2  503  502  0.63471902514E+02  0.11138730092E+02 -0.13920150906E+03  0.15339430837E+03  0.00000000000E+00 0.  1.
         21    1    1    2  504  501 -0.39216709987E+01 -0.36076347999E+02  0.47991798315E+03  0.48128801454E+03  0.00000000000E+00 0.  1.
         21    1    1    2  505  503 -0.22580076431E+01  0.10387058679E+03 -0.13347072857E+02  0.10474894630E+03  0.00000000000E+00 0.  1.
         21    1    1    2  506  504 -0.57292223872E+02 -0.78932968880E+02 -0.28054324397E+01  0.97573987024E+02  0.00000000000E+00 0.  1.
<scales pt_clust_3="63.77435" pt_clust_4="36.28887" pt_clust_5="93.09520" pt_clust_6="14000.00000"></scales>
<clustering>
<clus scale="   36.289">  1  4  2 -1</clus>
<clus scale="   63.774">  2  3  1 -1</clus>
<clus scale="   93.095">  1  5  2 -1</clus>
<clus scale="   36.289">  1  3  2 -1</clus>
</clustering>
</event>
<event>
 6    0  0.4227619E+002  0.8910517E+02  0.7546771E-02  0.1305033E+00
         21   -1    0    0  506  501  0.00000000000E+00  0.00000000000E+00  0.29888696779E+03  0.29888696779E+03  0.00000000000E+00 0.  1.
         21   -1    0    0  505  502 -0.00000000000E+00 -0.00000000000E+00 -0.22340041703E+03  0.22340041703E+03  0.00000000000E+00 0. -1.
         21    1    1    2  503  501 -0.34851407524E+02 -0.54689323093E+02 -0.41505963337E+02  0.76995374272E+02  0.00000000000E+00 0. -1.
         21    1    1    2  504  502  0.26860268554E+02 -0.69899847774E+02  0.10307366276E+02  0.75589050431E+02  0.00000000000E+00 0.  1.
         21    1    1    2  505  503 -0.32308004820E+02  0.40804689823E+02 -0.11667968858E+03  0.12776141677E+03  0.00000000000E+00 0. -1.
         21    1    1    2  506  504  0.40299143790E+02  0.83784481044E+02  0.22336483640E+03  0.24194154334E+03  0.00000000000E+00 0.  1.
<scales pt_clust_3="89.10517" pt_clust_4="59.06935" pt_clust_5="52.04642" pt_clust_6="14000.00000"></scales>
<clustering>
<clus scale="   52.046">  2  5  1 -1</clus>
<clus scale="   59.069">  2  4  1 -1</clus>
<clus scale="   89.105">  2  3  1 -1</clus>
<clus scale="   89.105">  1  3  2 -1</clus>
</clustering>
</event>
<event>
 6    0  0.4227619E+002  0.1049090E+03  0.7546771E-02  0.1270299E+00
         21   -1    0    0  503  501  0.00000000000E+00  0.00000000000E+00  0.49336435779E+03  0.49336435779E+03  0.00000000000E+00 0.  1.
         21   -1    0    0  506  502 -0.00000000000E+00 -0.00000000000E+00 -0.31215448276E+03  0.31215448276E+03  0.00000000000E+00 0. -1.
         21    1    1    2  503  505  0.80257316976E+02 -0.70842240365E+01  0.31928049150E+03  0.32928931870E+03  0.00000000000E+00 0.  1.
         21    1    1    2  504  501 -0.37664945646E+01 -0.67377794000E+02  0.12187163184E+03  0.13930774656E+03  0.00000000000E+00 0. -1.
         21    1    1    2  505  502 -0.93082073692E+02  0.11388791177E+03 -0.25430341603E+03  0.29377705202E+03  0.00000000000E+00 0. -1.
         21    1    1    2  506  504  0.16591251281E+02 -0.39425893735E+02 -0.56388322741E+01  0.43144723261E+02  0.00000000000E+00 0.  1.
<scales pt_clust_3="14000.00000" pt_clust_4="68.64987" pt_clust_5="104.90898" pt_clust_6="42.77465"></scales>
<clustering>
<clus scale="   42.775">  2  6  1 -1</clus>
<clus scale="   68.650">  1  4  2 -1</clus>
<clus scale="  104.909">  2  5  1 -1</clus>
<clus scale="   68.650">  1  3  2 -1</clus>
</clustering>
</event>
<event>
 6    0  0.4227619E+002  0.1242793E+03  0.7546771E-02  0.1236200E+00
         21   -1    0    0  503  501  0.00000000000E+00  0.00000000000E+00  0.69339130933E+03  0.69339130933E+03  0.00000000000E+00 0. -1.
         21   -1    0    0  504  502 -0.00000000000E+00 -0.00000000000E+00 -0.14360152092E+03  0.14360152092E+03  0.00000000000E+00 0.  1.
         21    1    1    2  503  502 -0.77338470540E+02 -0.89044549676E+02  0.10309129208E+03  0.15664605120E+03  0.00000000000E+00 0. -1.
         21    1    1    2  504  505 -0.26694199787E+02  0.30919524482E+02 -0.69287580901E+02  0.80432370123E+02  0.00000000000E+00 0.  1.
         21    1    1    2  505  506  0.13569784822E+03  0.39073962264E+02  0.79867260134E+02  0.16223273338E+03  0.00000000000E+00 0. -1.
         21    1    1    2  506  501 -0.31665177893E+02  0.19051062930E+02  0.43611881710E+03  0.43768167555E+03  0.00000000000E+00 0. -1.
<scales pt_clust_3="124.27928" pt_clust_4="41.61207" pt_clust_5="14000.00000" pt_clust_6="36.95438"></scales>
<clustering>
<clus scale="   36.954">  1  6  2 -1</clus>
<clus scale="   41.612">  2  4  1 -1</clus>
<clus scale="  124.279">  1  3  2 -1</clus>
<clus scale="   36.954">  1  3  2 -1</clus>
</clustering>
</event>
<event>
 6    0  0.4227619E+002  0.1918104E+03  0.7546771E-02  0.1156839E+00
         21   -1    0    0  506  501  0.00000000000E+00  0.00000000000E+00  0.67584545985E+03  0.67584545985E+03  0.00000000000E+00 0.  1.
         21   -1    0    0  504  502 -0.00000000000E+00 -0.00000000000E+00 -0.68782363585E+03  0.68782363585E+03  0.00000000000E+00 0. -1.
         21    1    1    2  503  505 -0.88814451937E+00  0.55587088768E+02 -0.12517905179E+03  0.13696900469E+03  0.00000000000E+00 0.  1.
         21    1    1    2  504  501 -0.53860825088E+01  0.36232362753E+02  0.27082134898E+02  0.45554758545E+02  0.00000000000E+00 0.  1.
         21    1    1    2  505  502 -0.30416792460E+02  0.12595298529E+03 -0.52007706100E+03  0.53597526543E+03  0.00000000000E+00 0. -1.
         21    1    1    2  506  503  0.36691019488E+02 -0.21777243681E+03  0.60619580191E+03  0.64517006703E+03  0.00000000000E+00 0.  1.
<scales pt_clust_3="33.15309" pt_clust_4="36.63051" pt_clust_5="33.15309" pt_clust_6="185.01217"></scales>
<clustering>
<clus scale="   33.153">  3  5 -1 -1</clus>
<clus scale="   36.631">  1  4  2 -1</clus>
<clus scale="  185.012">  1  6  2 -1</clus>
<clus scale="   36.631">  1  3  2 -1</clus>
</clustering>
</event>
<event>
 6    0  0.4227619E+002  0.1131027E+03  0.7546771E-02  0.1254930E+00
         21   -1    0    0  503  501  0.00000000000E+00  0.00000000000E+00  0.30220052676E+03  0.30220052676E+03  0.00000000000E+00 0.  1.
         21   -1    0    0  505  502 -0.00000000000E+00 -0.00000000000E+00 -0.11665170409E+04  0.11665170409E+04  0.00000000000E+00 0.  1.
         21    1    1    2  503  502 -0.50279985055E+02  0.72076569316E+02  0.14004983244E+03  0.16533924007E+03  0.00000000000E+00 0.  1.
         21    1    1    2  504  501 -0.73017703893E+02 -0.16902312105E+02  0.10681049321E+03  0.13048277547E+03  0.00000000000E+00 0.  1.
         21    1    1    2  505  506  0.11243449431E+03  0.22338811684E+02 -0.10839951769E+04  0.10900394863E+04  0.00000000000E+00 0.  1.
         21    1    1    2  506  504  0.10863194638E+02 -0.77513068895E+02 -0.27181662816E+02  0.82856065805E+02  0.00000000000E+00 0. -1.
<scales pt_clust_3="14000.00000" pt_clust_4="74.94847" pt_clust_5="113.10272" pt_clust_6="80.07670"></scales>
<clustering>
<clus scale="   74.948">  1  4  2 -1</clus>
<clus scale="   80.077">  1  6  2 -1</clus>
<clus scale="  113.103">  2  5  1 -1</clus>
<clus scale="   74.948">  1  3  2 -1</clus>
</clustering>
</event>
<event>
 6    0  0.4227619E+002  0.6576317E+02  0.7546771E-02  0.1375124E+00
         21   -1    0    0  506  501  0.00000000000E+00  0.00000000000E+00  0.11755684784E+04  0.11755684784E+04  0.00000000000E+00 0. -1.
         21   -1    0    0  505  502 -0.00000000000E+00 -0.00000000000E+00 -0.95159507809E+02  0.95159507809E+02  0.00000000000E+00 0. -1.
         21    1    1    2  503  504  0.22033047967E+02  0.49882388479E+02  0.35572874207E+03  0.35988421168E+03  0.00000000000E+00 0. -1.
         21    1    1    2  504  502  0.32950666580E+02  0.48334538797E+02 -0.59998060001E+02  0.83795830879E+02  0.00000000000E+00 0. -1.
         21    1    1    2  505  501 -0.27001501284E+02 -0.11155570861E+03  0.13741889064E+03  0.17904666627E+03  0.00000000000E+00 0. -1.
         21    1    1    2  506  503 -0.27982213263E+02  0.13338781336E+02  0.64725939790E+03  0.64800127740E+03  0.00000000000E+00 0. -1.
<scales pt_clust_3="65.76317" pt_clust_4="58.39488" pt_clust_5="14000.00000" pt_clust_6="30.99883"></scales>
<clustering>
<clus scale="   30.999">  1  6  2 -1</clus>
<clus scale="   58.395">  2  4  1 -1</clus>
<clus scale="   65.763">  1  3  2 -1</clus>
<clus scale="   30.999">  1  3  2 -1</clus>
</clustering>
</event>
<event>
 6    0  0.4227619E+002  0.1505925E+03  0.7546771E-02  0.1199747E+00
         21   -1    0    0  505  501  0.00000000000E+00  0.00000000000E+00  0.55920272902E+03  0.55920272902E+03  0.00000000000E+00 0.  1.
         21   -1    0    0  506  502 -0.00000000000E+00 -0.00000000000E+00 -0.15869343168E+03  0.15869343168E+03  0.00000000000E+00 0. -1.
         21    1    1    2  503  502 -0.58780895299E+01  0.40762287338E+02 -0.64658164506E+01  0.41688401119E+02  0.00000000000E+00 0. -1.
         21    1    1    2  504  503  0.25931105741E+02  0.92194404960E+02  0.26887797467E+03  0.28542528938E+03  0.00000000000E+00 0.  1.
         21    1    1    2  505  504 -0.30751558123E+02  0.39098208475E+02  0.20116271707E+03  0.20722154080E+03  0.00000000000E+00 0. -1.
         21    1    1    2  506  501  0.10698541911E+02 -0.17205490077E+03 -0.63065577957E+02  0.18356092940E+03  0.00000000000E+00 0. -1.
<scales pt_clust_3="41.18393" pt_clust_4="48.16391" pt_clust_5="48.16391" pt_clust_6="134.81999"></scales>
<clustering>
<clus scale="   41.184">  2  3  1 -1</clus>
<clus scale="   48.164">  4  5 -1 -1</clus>
<clus scale="  134.820">  2  6  1 -1</clus>
<clus scale="  150.592">  1  3  2 -1</clus>
</clustering>
</event>
<event>
 6    0  0.4227619E+002  0.7753570E+02  0.7546771E-02  0.1336194E+00
         21   -1    0    0  505  501  0.00000000000E+00  0.00000000000E+00  0.14923411803E+04  0.14923411803E+04  0.00000000000E+00 0.  1.
         21   -1    0    0  504  502 -0.00000000000E+00 -0.00000000000E+00 -0.28257936659E+03  0.28257936659E+03  0.00000000000E+00 0. -1.
         21    1    1    2  503  501  0.59017809072E+02  0.20021662693E+02  0.64009950688E+03  0.64312622981E+03  0.00000000000E+00 0.  1.
         21    1    1    2  504  506  0.15082311656E+02  0.29811868669E+02 -0.20817039138E+03  0.21083437927E+03  0.00000000000E+00 0. -1.
         21    1    1    2  505  502 -0.11062082745E+03 -0.57833021740E+02  0.83956241565E+03  0.84879130276E+03  0.00000000000E+00 0.  1.
         21    1    1    2  506  503  0.36520706719E+02  0.79994903781E+01 -0.61729717458E+02  0.72168635036E+02  0.00000000000E+00 0. -1.
<scales pt_clust_3="14000.00000" pt_clust_4="33.40993" pt_clust_5="77.53570" pt_clust_6="61.48860"></scales>
<clustering>
<clus scale="   33.410">  2  4  1 -1</clus>
<clus scale="   61.489">  2  6  1 -1</clus>
<clus scale="   77.536">  2  5  1 -1</clus>
<clus scale="   77.536">  1  3  2 -1</clus>
</clustering>
</event>
<event>
 6    0  0.4227619E+002  0.1499826E+03  0.7546771E-02  0.1200494E+00
         21   -1    0    0  505  501  0.00000000000E+00  0.00000000000E+00  0.10776682357E+04  0.10776682357E+04  0.00000000000E+00 0.  1.
         21   -1    0    0  503  502 -0.00000000000E+00 -0.00000000000E+00 -0.10720964018E+03  0.10720964018E+03  0.00000000000E+00 0. -1.
         21    1    1    2  503  506 -0.31626622945E+02 -0.23724789817E+02  0.57656745879E+01  0.39954373155E+02  0.00000000000E+00 0. -1.
         21    1    1    2  504  502  0.10949350675E+02  0.72509786124E+02 -0.47604726436E+02  0.87428641434E+02  0.00000000000E+00 0. -1.
         21    1    1    2  505  504  0.58111727204E+02  0.11969186001E+03  0.42094107083E+03  0.44146857114E+03  0.00000000000E+00 0.  1.
         21    1    1    2  506  501 -0.37434454934E+02 -0.16847685632E+03  0.59135657649E+03  0.61602629010E+03  0.00000000000E+00 0.  1.
<scales pt_clust_3="39.53617" pt_clust_4="56.19908" pt_clust_5="149.98264" pt_clust_6="14000.00000"></scales>
<clustering>
<clus scale="   39.536">  2  3  1 -1</clus>
<clus scale="   56.199">  2  4  1 -1</clus>
<clus scale="  149.983">  1  5  2 -1</clus>
<clus scale="  149.983">  1  3  2 -1</clus>
</clustering>
</event>
<event>
 6    0  0.4227619E+002  0.8696269E+02  0.7546771E-02  0.1310378E+00
         21   -1    0    0  504  501  0.00000000000E+00  0.00000000000E+00  0.44253976522E+03  0.44253976522E+03  0.00000000000E+00 0. -1.
         21   -1    0    0  503  502 -0.00000000000E+00 -0.00000000000E+00 -0.16996265205E+03  0.16996265205E+03  0.00000000000E+00 0. -1.
         21    1    1    2  503  501 -0.37412912274E+02 -0.80420244717E+01 -0.26083578923E+02  0.46311480778E+02  0.00000000000E+00 0. -1.
         21    1    1    2  504  506  0.53867704168E+02 -0.44028757103E+01  0.36367232343E+03  0.36766652513E+03  0.00000000000E+00 0. -1.
         21    1    1    2  505  502  0.37823986730E+02 -0.73001523747E+02 -0.49893302666E+02  0.96172855279E+02  0.00000000000E+00 0. -1.
         21    1    1    2  506  505 -0.54278778624E+02  0.85446423929E+02 -0.15118328671E+02  0.10235155608E+03  0.00000000000E+00 0. -1.
<scales pt_clust_3="38.26748" pt_clust_4="53.50066" pt_clust_5="86.96269" pt_clust_6="14000.00000"></scales>
<clustering>
<clus scale="   38.267">  2  3  1 -1</clus>
<clus scale="   53.501">  1  4  2 -1</clus>
<clus scale="   86.963">  2  5  1 -1</clus>
<clus scale="   53.501">  1  3  2 -1</clus>
</clustering>
</event>
<event>
 6    0  0.4227619E+002  0.9536251E+02  0.7546771E-02  0.1290362E+00
         21   -1    0    0  506  501  0.00000000000E+00  0.00000000000E+00  0.32405465763E+03  0.32405465763E+03  0.00000000000E+00 0. -1.
         21   -1    0    0  503  502 -0.00000000000E+00 -0.00000000000E+00 -0.13284827908E+04  0.13284827908E+04  0.00000000000E+00 0.  1.
         21    1    1    2  503  504  0.25684822228E+02 -0.10116329581E+03  0.29604548863E+01  0.10441497405E+03  0.00000000000E+00 0. -1.
         21    1    1    2  504  501  0.51502045211E+02  0.84068101308E+02  0.25902595157E+03  0.27715401838E+03  0.00000000000E+00 0. -1.
         21    1    1    2  505  502 -0.25865154882E+02 -0.18659797655E+02 -0.76545851055E+03  0.76612265706E+03  0.00000000000E+00 0.  1.
         21    1    1    2  506  505 -0.51321712556E+02  0.35754992159E+02 -0.50095602911E+03  0.50484579898E+03  0.00000000000E+00 0.  1.
<scales pt_clust_3="14000.00000" pt_clust_4="95.36251" pt_clust_5="31.89348" pt_clust_6="76.84434"></scales>
<clustering>
<clus scale="   31.893">  2  5  1 -1</clus>
<clus scale="   76.844">  2  6  1 -1</clus>
<clus scale="   95.363">  1  4  2 -1</clus>
<clus scale="   95.363">  1  3  2 -1</clus>
</clustering>
</event>
<event>
 6    0  0.4227619E+002  0.9308644E+02  0.7546771E-02  0.1295545E+00
         21   -1    0    0  505  501  0.00000000000E+00  0.00000000000E+00  0.35676862599E+03  0.35676862599E+03  0.00000000000E+00 0.  1.
         21   -1    0    0  506  502 -0.00000000000E+00 -0.00000000000E+00 -0.29610227114E+03  0.29610227114E+03  0.00000000000E+00 0.  1.
         21    1    1    2  503  504  0.32522541615E+02 -0.54585953272E+02  0.44733254051E+02  0.77707181301E+02  0.00000000000E+00 0. -1.
         21    1    1    2  504  502 -0.49374528948E+02  0.17228918740E+03  0.52985743382E+02  0.18689274252E+03  0.00000000000E+00 0. -1.
         21    1    1    2  505  503  0.66327669903E+01 -0.31481822763E+02  0.16512933491E+03  0.16823434849E+03  0.00000000000E+00 0.  1.
         21    1    1    2  506  501  0.10219220342E+02 -0.86221411364E+02 -0.20218197749E+03  0.22003662483E+03  0.00000000000E+00 0.  1.
<scales pt_clust_3="73.42050" pt_clust_4="93.08644" pt_clust_5="32.17295" pt_clust_6="14000.00000"></scales>
<clustering>
<clus scale="   32.173">  1  5  2 -1</clus>
<clus scale="   73.420">  1  3  2 -1</clus>
<clus scale="   93.086">  1  4  2 -1</clus>
<clus scale="   32.173">  1  3  2 -1</clus>
</clustering>
</event>
<event>
 6    0  0.4227619E+002  0.9439064E+02  0.7546771E-02  0.1292554E+00
         21   -1    0    0  503  501  0.00000000000E+00  0.00000000000E+00  0.31416174739E+03  0.31416174739E+03  0.00000000000E+00 0.  1.
         21   -1    0    0  504  502 -0.00000000000E+00 -0.00000000000E+00 -0.53090326289E+03  0.53090326289E+03  0.00000000000E+00 0.  1.
         21    1    1    2  503  502  0.31859117269E+02 -0.65922144896E+01 -0.26722326322E+02  0.42101583926E+02  0.00000000000E+00 0.  1.
         21    1    1    2  504  506  0.25168226680E+02  0.21437331704E+02 -0.28510392130E+03  0.28701436334E+03  0.00000000000E+00 0.  1.
         21    1    1    2  505  501  0.43169252550E+02 -0.83379649594E+02  0.27967747291E+03  0.29501735404E+03  0.00000000000E+00 0.  1.
         21    1    1    2  506  505 -0.10019659650E+03  0.68534532380E+02 -0.18459274079E+03  0.22093170898E+03  0.00000000000E+00 0.  1.
<scales pt_clust_3="32.53399" pt_clust_4="46.96272" pt_clust_5="14000.00000" pt_clust_6="94.39064"></scales>
<clustering>
<clus scale="   32.534">  2  3  1 -1</clus>
<clus scale="   46.963">  2  4  1 -1</clus>
<clus scale="   94.391">  2  6  1 -1</clus>
<clus scale="   94.391">  1  3  2 -1</clus>
</clustering>
</event>
<event>
 6    0  0.4227619E+002  0.6689183E+02  0.7546771E-02  0.1370993E+00
         21   -1    0    0  504  501  0.00000000000E+00  0.00000000000E+00  0.61118779714E+03  0.61118779714E+03  0.00000000000E+00 0. -1.
         21   -1    0    0  503  502 -0.00000000000E+00 -0.00000000000E+00 -0.28724206318E+03  0.28724206318E+03  0.00000000000E+00 0. -1.
         21    1    1    2  503  506  0.33763139318E+02 -0.50099314928E+01 -0.50337892668E+02  0.60819013708E+02  0.00000000000E+00 0. -1.
         21    1    1    2  504  505  0.66258894361E+02  0.19046504593E+01  0.55694103439E+03  0.56087180760E+03  0.00000000000E+00 0. -1.
         21    1    1    2  505  502 -0.13435768703E+03  0.11491404294E+02 -0.19688562130E+03  0.23863777637E+03  0.00000000000E+00 0. -1.
         21    1    1    2  506  501  0.34335653352E+02 -0.83861232608E+01  0.14228213537E+02  0.38101262642E+02  0.00000000000E+00 0.  1.
<scales pt_clust_3="34.13281" pt_clust_4="66.89183" pt_clust_5="14000.00000" pt_clust_6="37.09651"></scales>
<clustering>
<clus scale="   34.133">  2  3  1 -1</clus>
<clus scale="   37.097">  2  6  1 -1</clus>
<clus scale="   66.892">  1  4  2 -1</clus>
<clus scale="   66.892">  1  3  2 -1</clus>
</clustering>
</event>
<event>
 6    0  0.4227619E+002  0.7158322E+02  0.7546771E-02  0.1354791E+00
         21   -1    0    0  505  501  0.00000000000E+00  0.00000000000E+00  0.10795305748E+03  0.10795305748E+03  0.00000000000E+00 0. -1.
         21   -1    0    0  506  502 -0.00000000000E+00 -0.00000000000E+00 -0.39959484475E+03  0.39959484475E+03  0.00000000000E+00 0. -1.
         21    1    1    2  503  501  0.28426273009E+02  0.12894753693E+02 -0.11398166869E+02  0.33230195275E+02  0.00000000000E+00 0. -1.
         21    1    1    2  504  502  0.75602872980E+02 -0.83265780328E+02 -0.17646217531E+03  0.20925554686E+03  0.00000000000E+00 0. -1.
         21    1    1    2  505  504 -0.59010383273E+02  0.32271378723E+02  0.60531132707E+02  0.90485828976E+02  0.00000000000E+00 0. -1.
         21    1    1    2  506  503 -0.45018762717E+02  0.38099647911E+02 -0.16431257780E+03  0.17457633113E+03  0.00000000000E+00 0. -1.
<scales pt_clust_3="31.21422" pt_clust_4="71.58322" pt_clust_5="56.13080" pt_clust_6="14000.00000"></scales>
<clustering>
<clus scale="   31.214">  1  3  2 -1</clus>
<clus scale="   56.131">  1  5  2 -1</clus>
<clus scale="   71.583">  1  4  2 -1</clus>
<clus scale="   31.214">  1  3  2 -1</clus>
</clustering>
</event>
<event>
 6    0  0.4227619E+002  0.7994099E+02  0.7546771E-02  0.1329219E+00
         21   -1    0    0  504  501  0.00000000000E+00  0.00000000000E+00  0.96807564621E+03  0.96807564621E+03  0.00000000000E+00 0.  1.
         21   -1    0    0  503  502 -0.00000000000E+00 -0.00000000000E+00 -0.59880761199E+03  0.59880761199E+03  0.00000000000E+00 0. -1.
         21    1    1    2  503  506  0.42470004760E+00 -0.52215589894E+02 -0.56576925931E+03  0.56817383166E+03  0.00000000000E+00 0. -1.
         21    1    1    2  504  505 -0.34833250728E+02  0.76454107442E+01  0.67612716164E+03  0.67706701763E+03  0.00000000000E+00 0.  1.
         21    1    1    2  505  502 -0.52872981803E+02 -0.19068945574E+02  0.17805139267E+03  0.18671227951E+03  0.00000000000E+00 0.  1.
         21    1    1    2  506  501  0.87281532483E+02  0.63639124724E+02  0.80858739229E+02  0.13493012939E+03  0.00000000000E+00 0. -1.
<scales pt_clust_3="52.18481" pt_clust_4="35.66241" pt_clust_5="79.94099" pt_clust_6="14000.00000"></scales>
<clustering>
<clus scale="   35.662">  1  4  2 -1</clus>
<clus scale="   52.185">  2  3  1 -1</clus>
<clus scale="   79.941">  1  5  2 -1</clus>
<clus scale="   35.662">  1  3  2 -1</clus>
</clustering>
</event>
<event>
 6    0  0.4227619E+002  0.2034899E+03  0.7546771E-02  0.1146828E+00
         21   -1    0    0  506  501  0.00000000000E+00  0.00000000000E+00  0.91029456830E+02  0.91029456830E+02  0.00000000000E+00 0.  1.
         21   -1    0    0  504  502 -0.00000000000E+00 -0.00000000000E+00 -0.11462025216E+04  0.11462025216E+04  0.00000000000E+00 0.  1.
         21    1    1    2  503  501  0.18989874072E+01  0.30593437401E+02  0.40037763767E+02  0.50424072552E+02  0.00000000000E+00 0.  1.
         21    1    1    2  504  505  0.13096023661E+03  0.13330150244E+03 -0.53192967660E+03  0.56379877171E+03  0.00000000000E+00 0.  1.
         21    1    1    2  505  503 -0.12595781471E+03 -0.19443349664E+03 -0.52282717157E+03  0.57185488285E+03  0.00000000000E+00 0.  1.
         21    1    1    2  506  502 -0.69014093089E+01  0.30538556798E+02 -0.40453980379E+02  0.51154251341E+02  0.00000000000E+00 0. -1.
<scales pt_clust_3="30.65232" pt_clust_4="203.48985" pt_clust_5="14000.00000" pt_clust_6="34.76026"></scales>
<clustering>
<clus scale="   30.652">  1  3  2 -1</clus>
<clus scale="   34.760">  1  6  2 -1</clus>
<clus scale="  203.490">  2  4  1 -1</clus>
<clus scale="   30.652">  1  3  2 -1</clus>
</clustering>
</event>
<event>
 6    0  0.4227619E+002  0.1394237E+03  0.7546771E-02  0.1214106E+00
         21   -1    0    0  506  501  0.00000000000E+00  0.00000000000E+00  0.15147237394E+04  0.15147237394E+04  0.00000000000E+00 0.  1.
         21   -1    0    0  505  502 -0.00000000000E+00 -0.00000000000E+00 -0.11939879457E+03  0.11939879457E+03  0.00000000000E+00 0.  1.
         21    1    1    2  503  502 -0.17102254201E+03  0.27443532345E+02  0.15594205154E+02  0.17391100189E+03  0.00000000000E+00 0.  1.
         21    1    1    2  504  501  0.95145291386E+02 -0.14424216456E+02  0.15379333494E+03  0.18141960854E+03  0.00000000000E+00 0.  1.
         21    1    1    2  505  504  0.75174570670E+01 -0.52395561598E+02  0.26869515716E+01  0.53000252307E+02  0.00000000000E+00 0.  1.
         21    1    1    2  506  503  0.68359793557E+02  0.39376245709E+02  0.12232504532E+04  0.12257916712E+04  0.00000000000E+00 0.  1.
<scales pt_clust_3="14000.00000" pt_clust_4="139.42373" pt_clust_5="52.93210" pt_clust_6="78.62750"></scales>
<clustering>
<clus scale="   52.932">  2  5  1 -1</clus>
<clus scale="   78.628">  1  6  2 -1</clus>
<clus scale="  139.424">  1  4  2 -1</clus>
<clus scale="   78.628">  1  3  2 -1</clus>
</clustering>
</event>
<event>
 6    0  0.4227619E+002  0.7811043E+02  0.7546771E-02  0.1334501E+00
         21   -1    0    0  503  501  0.00000000000E+00  0.00000000000E+00  0.60467712299E+03  0.60467712299E+03  0.00000000000E+00 0. -1.
         21   -1    0    0  505  502 -0.00000000000E+00 -0.00000000000E+00 -0.13056124739E+03  0.13056124739E+03  0.00000000000E+00 0. -1.
         21    1    1    2  503  504 -0.12787570289E+02 -0.32512365739E+02  0.10954207845E+03  0.11497844508E+03  0.00000000000E+00 0.  1.
         21    1    1    2  504  502 -0.24941415683E+01 -0.12199863501E+03 -0.42892388175E+02  0.12934312757E+03  0.00000000000E+00 0. -1.
         21    1    1    2  505  506 -0.37102483151E+02  0.63922070713E+02  0.39089726643E+01  0.74012873526E+02  0.00000000000E+00 0. -1.
         21    1    1    2  506  501  0.52384195008E+02  0.90588930038E+02  0.40355721265E+03  0.41690392420E+03  0.00000000000E+00 0. -1.
<scales pt_clust_3="34.93674" pt_clust_4="78.11043" pt_clust_5="72.22516" pt_clust_6="14000.00000"></scales>
<clustering>
<clus scale="   34.937">  1  3  2 -1</clus>
<clus scale="   72.225">  2  5  1 -1</clus>
<clus scale="   78.110">  2  4  1 -1</clus>
<clus scale="   34.937">  1  3  2 -1</clus>
</clustering>
</event>
<event>
 6    0  0.4227619E+002  0.1427185E+03  0.7546771E-02  0.1209717E+00
         21   -1    0    0  505  501  0.00000000000E+00  0.00000000000E+00  0.60122161059E+03  0.60122161059E+03  0.00000000000E+00 0.  1.
         21   -1    0    0  501  502 -0.00000000000E+00 -0.00000000000E+00 -0.16921729132E+03  0.16921729132E+03  0.00000000000E+00 0.  1.
         21    1    1    2  503  502 -0.28010440174E+02 -0.32312509883E+02 -0.43479024341E+02  0.60984494844E+02  0.00000000000E+00 0.  1.
         21    1    1    2  504  503  0.16972130255E+03  0.66686284587E+02 -0.19702211977E+02  0.18341362613E+03  0.00000000000E+00 0.  1.
         21    1    1    2  505  506 -0.35298283200E+02 -0.57297738834E+02  0.15848827158E+03  0.17218458671E+03  0.00000000000E+00 0.  1.
         21    1    1    2  506  504 -0.10641257918E+03  0.22923964130E+02  0.33669728401E+03  0.35385619424E+03  0.00000000000E+00 0.  1.
<scales pt_clust_3="42.76310" pt_clust_4="14000.00000" pt_clust_5="69.76950" pt_clust_6="142.71850"></scales>
<clustering>
<clus scale="   42.763">  2  3  1 -1</clus>
<clus scale="   69.769">  1  5  2 -1</clus>
<clus scale="  142.719">  1  6  2 -1</clus>
<clus scale="   69.769">  1  3  2 -1</clus>
</clustering>
</event>
<event>
 6    0  0.4227619E+002  0.1625379E+03  0.7546771E-02  0.1185861E+00
         21   -1    0    0  506  501  0.00000000000E+00  0.00000000000E+00  0.32243846751E+03  0.32243846751E+03  0.00000000000E+00 0.  1.
         21   -1    0    0  501  502 -0.00000000000E+00 -0.00000000000E+00 -0.28815632964E+03  0.28815632964E+03  0.00000000000E+00 0. -1.
         21    1    1    2  503  502 -0.15328432210E+02  0.48568381858E+02 -0.12922290873E+03  0.13889711549E+03  0.00000000000E+00 0. -1.
         21    1    1    2  504  505  0.50831256292E+02  0.78685054895E+02 -0.44059431525E+02  0.10351998834E+03  0.00000000000E+00 0. -1.
         21    1    1    2  505  503  0.34007997451E+02  0.16242749297E+02 -0.51597135698E+02  0.63895502248E+02  0.00000000000E+00 0.  1.
         21    1    1    2  506  504 -0.69510821533E+02 -0.14349618605E+03  0.25916161383E+03  0.30428219107E+03  0.00000000000E+00 0.  1.
<scales pt_clust_3="50.92984" pt_clust_4="32.76749" pt_clust_5="32.76749" pt_clust_6="154.10971"></scales>
<clustering>
<clus scale="   32.767">  4  5 -1 -1</clus>
<clus scale="   50.930">  2  3  1 -1</clus>
<clus scale="  154.110">  1  6  2 -1</clus>
<clus scale="  154.110">  1  3  2 -1</clus>
</clustering>
</event>
<event>
 6    0  0.4227619E+002  0.1850811E+03  0.7546771E-02  0.1162974E+00
         21   -1    0    0  506  501  0.00000000000E+00  0.00000000000E+00  0.90943833094E+03  0.90943833094E+03  0.00000000000E+00 0.  1.
         21   -1    0    0  501  502 -0.00000000000E+00 -0.00000000000E+00 -0.17166623842E+03  0.17166623842E+03  0.00000000000E+00 0.  1.
         21    1    1    2  503  504 -0.17171531739E+02  0.75698825179E+02  0.98036239515E+01  0.78238639292E+02  0.00000000000E+00 0.  1.
         21    1    1    2  504  502 -0.30477755283E+01  0.36138941009E+02 -0.11002745620E+03  0.11585056370E+03  0.00000000000E+00 0.  1.
         21    1    1    2  505  503  0.38405696901E+02  0.59735985402E+02  0.69415109871E+02  0.99306812378E+02  0.00000000000E+00 0.  1.
         21    1    1    2  506  505 -0.18186389634E+02 -0.17157375159E+03  0.76858081489E+03  0.78770855398E+03  0.00000000000E+00 0.  1.
<scales pt_clust_3="71.69695" pt_clust_4="36.26723" pt_clust_5="71.69695" pt_clust_6="166.73843"></scales>
<clustering>
<clus scale="   36.267">  2  4  1 -1</clus>
<clus scale="   71.697">  3  5 -1 -1</clus>
<clus scale="  166.738">  1  6  2 -1</clus>
<clus scale="  166.738">  1  3  2 -1</clus>
</clustering>
</event>
<event>
 6    0  0.4227619E+002  0.1730282E+03  0.7546771E-02  0.1174726E+00
         21   -1    0    0  504  501  0.00000000000E+00  0.00000000000E+00  0.31324402766E+03  0.31324402766E+03  0.00000000000E+00 0.  1.
         21   -1    0    0  503  502 -0.00000000000E+00 -0.00000000000E+00 -0.26114579354E+04  0.26114579354E+04  0.00000000000E+00 0.  1.
         21    1    1    2  503  505 -0.52168998615E+02 -0.49481607059E+02 -0.18988214402E+04  0.19001823322E+04  0.00000000000E+00 0.  1.
         21    1    1    2  504  502  0.51860924130E+02 -0.14431344953E+03 -0.65456717574E+03  0.67229020127E+03  0.00000000000E+00 0.  1.
         21    1    1    2  505  506  0.44538361521E+01  0.10398565618E+03  0.27806292811E+02  0.10773134765E+03  0.00000000000E+00 0.  1.
         21    1    1    2  506  501 -0.41457616665E+01  0.89809400408E+02  0.22736841540E+03  0.24449808192E+03  0.00000000000E+00 0.  1.
<scales pt_clust_3="71.90295" pt_clust_4="14000.00000" pt_clust_5="173.02825" pt_clust_6="89.34174"></scales>
<clustering>
<clus scale="   71.903">  2  3  1 -1</clus>
<clus scale="   89.342">  1  6  2 -1</clus>
<clus scale="  173.028">  1  5  2 -1</clus>
<clus scale="   89.342">  1  3  2 -1</clus>
</clustering>
</event>
<event>
 6    0  0.4227619E+002  0.1466498E+03  0.7546771E-02  0.1204651E+00
         21   -1    0    0  504  501  0.00000000000E+00  0.00000000000E+00  0.23355616275E+03  0.23355616275E+03  0.00000000000E+00 0.  1.
         21   -1    0    0  505  502 -0.00000000000E+00 -0.00000000000E+00 -0.42761662454E+03  0.42761662454E+03  0.00000000000E+00 0. -1.
         21    1    1    2  503  502 -0.58156119280E+02 -0.10945973797E+03 -0.32315974156E+03  0.34611527995E+03  0.00000000000E+00 0. -1.
         21    1    1    2  504  506 -0.48049880626E+02  0.85783994320E+02  0.58595302800E+02  0.11446001144E+03  0.00000000000E+00 0.  1.
         21    1    1    2  505  501 -0.48876909723E+01 -0.41590861529E+02 -0.16625115765E+02  0.45056450814E+02  0.00000000000E+00 0. -1.
         21    1    1    2  506  503  0.11109369088E+03  0.65266605184E+02  0.87129092742E+02  0.15554104509E+03  0.00000000000E+00 0.  1.
<scales pt_clust_3="146.64976" pt_clust_4="95.95365" pt_clust_5="41.87707" pt_clust_6="14000.00000"></scales>
<clustering>
<clus scale="   41.877">  2  5  1 -1</clus>
<clus scale="   95.954">  1  4  2 -1</clus>
<clus scale="  146.650">  2  3  1 -1</clus>
<clus scale="   95.954">  1  3  2 -1</clus>
</clustering>
</event>
<event>
 6    0  0.4227619E+002  0.1066458E+03  0.7546771E-02  0.1266911E+00
         21   -1    0    0  506  501  0.00000000000E+00  0.00000000000E+00  0.13098611127E+04  0.13098611127E+04  0.00000000000E+00 0. -1.
         21   -1    0    0  503  502 -0.00000000000E+00 -0.00000000000E+00 -0.51189120660E+02  0.51189120660E+02  0.00000000000E+00 0.  1.
         21    1    1    2  503  501 -0.14251913299E+02 -0.42746110229E+02  0.47740553422E+03  0.47952725791E+03  0.00000000000E+00 0. -1.
         21    1    1    2  504  505  0.80215387260E+02  0.64185989821E+02  0.15114929845E+03  0.18275792750E+03  0.00000000000E+00 0.  1.
         21    1    1    2  505  502  0.33389844674E+02 -0.27323312574E+02 -0.15256197313E+02  0.45762393882E+02  0.00000000000E+00 0.  1.
         21    1    1    2  506  504 -0.99353318634E+02  0.58834329818E+01  0.64537335672E+03  0.65300265410E+03  0.00000000000E+00 0. -1.
<scales pt_clust_3="45.89394" pt_clust_4="14000.00000" pt_clust_5="43.14447" pt_clust_6="106.64575"></scales>
<clustering>
<clus scale="   43.144">  2  5  1 -1</clus>
<clus scale="   45.894">  1  3  2 -1</clus>
<clus scale="  106.646">  1  6  2 -1</clus>
<clus scale="   45.894">  1  3  2 -1</clus>
</clustering>
</event>
<event>
 6    0  0.4227619E+002  0.6414849E+02  0.7546771E-02  0.1381203E+00
         21   -1    0    0  506  501  0.00000000000E+00  0.00000000000E+00  0.77394588781E+03  0.77394588781E+03  0.00000000000E+00 0.  1.
         21   -1    0    0  505  502 -0.00000000000E+00 -0.00000000000E+00 -0.79698599856E+02  0.79698599856E+02  0.00000000000E+00 0.  1.
         21    1    1    2  503  504 -0.31798764350E+02  0.12140691526E+03  0.68047456936E+02  0.14276293945E+03  0.00000000000E+00 0.  1.
         21    1    1    2  504  501  0.17951885135E+02 -0.33032639393E+02  0.57926131976E+03  0.58048006169E+03  0.00000000000E+00 0.  1.
         21    1    1    2  505  503  0.22345658236E+02 -0.47993618653E+02 -0.15853858926E+02  0.55263556855E+02  0.00000000000E+00 0.  1.
         21    1    1    2  506  502 -0.84987790205E+01 -0.40380657210E+02  0.62792370178E+02  0.75137929663E+02  0.00000000000E+00 0.  1.
<scales pt_clust_3="64.14849" pt_clust_4="37.59555" pt_clust_5="14000.00000" pt_clust_6="52.16198"></scales>
<clustering>
<clus scale="   37.596">  1  4  2 -1</clus>
<clus scale="   52.162">  1  6  2 -1</clus>
<clus scale="   64.148">  1  3  2 -1</clus>
<clus scale="   37.596">  1  3  2 -1</clus>
</clustering>
</event>
<event>
 6    0  0.4227619E+002  0.1288856E+03  0.7546771E-02  0.1229119E+00
         21   -1    0    0  505  501  0.00000000000E+00  0.00000000000E+00  0.13963834063E+04  0.13963834063E+04  0.00000000000E+00 0.  1.
         21   -1    0    0  503  502 -0.00000000000E+00 -0.00000000000E+00 -0.49781833736E+02  0.49781833736E+02  0.00000000000E+00 0.  1.
         21    1    1    2  503  506  0.15747179159E+00  0.30209728082E+02  0.50701159789E+02  0.59019150045E+02  0.00000000000E+00 0. -1.
         21    1    1    2  504  502 -0.13046010050E+03  0.74599412420E+02  0.50614025990E+03  0.52797999285E+03  0.00000000000E+00 0.  1.
         21    1    1    2  505  504  0.40376595347E+02  0.48560308065E+00  0.68332633468E+03  0.68451835982E+03  0.00000000000E+00 0.  1.
         21    1    1    2  506  501  0.89926033361E+02 -0.10529474358E+03  0.10643381823E+03  0.17464773736E+03  0.00000000000E+00 0.  1.
<scales pt_clust_3="30.21014" pt_clust_4="14000.00000" pt_clust_5="40.38825" pt_clust_6="128.88564"></scales>
<clustering>
<clus scale="   30.210">  2  3  1 -1</clus>
<clus scale="   40.388">  1  5  2 -1</clus>
<clus scale="  128.886">  2  6  1 -1</clus>
<clus scale="   40.388">  1  3  2 -1</clus>
</clustering>
</event>
<event>
 6    0  0.4227619E+002  0.8755576E+02  0.7546771E-02  0.1308881E+00
         21   -1    0    0  505  501  0.00000000000E+00  0.00000000000E+00  0.11620791557E+03  0.11620791557E+03  0.00000000000E+00 0. -1.
         21   -1    0    0  504  502 -0.00000000000E+00 -0.00000000000E+00 -0.25923745717E+03  0.25923745717E+03  0.00000000000E+00 0.  1.
         21    1    1    2  503  502  0.26181927506E+02 -0.63995820994E+02 -0.57008228481E+02  0.89615269609E+02  0.00000000000E+00 0.  1.
         21    1    1    2  504  501 -0.32234231256E+02 -0.54914660003E+02 -0.12492912707E+03  0.14022108379E+03  0.00000000000E+00 0.  1.
         21    1    1    2  505  506 -0.26319252307E+02  0.21412782568E+02  0.24548894368E+02  0.41879093997E+02  0.00000000000E+00 0. -1.
         21    1    1    2  506  503  0.32371556056E+02  0.97497698429E+02  0.14358919579E+02  0.10372992534E+03  0.00000000000E+00 0. -1.
<scales pt_clust_3="87.55576" pt_clust_4="63.27791" pt_clust_5="33.92949" pt_clust_6="14000.00000"></scales>
<clustering>
<clus scale="   33.929">  1  5  2 -1</clus>
<clus scale="   63.278">  2  4  1 -1</clus>
<clus scale="   87.556">  2  3  1 -1</clus>
<clus scale="   33.929">  1  3  2 -1</clus>
</clustering>
</event>
<event>
 6    0  0.4227619E+002  0.1183842E+03  0.7546771E-02  0.1245787E+00
         21   -1    0    0  503  501  0.00000000000E+00  0.00000000000E+00  0.97862157649E+02  0.97862157649E+02  0.00000000000E+00 0. -1.
         21   -1    0    0  504  502 -0.00000000000E+00 -0.00000000000E+00 -0.69229343180E+03  0.69229343180E+03  0.00000000000E+00 0.  1.
         21    1    1    2  503  502  0.69069020975E+00  0.33327661047E+02  0.16646919579E+02  0.37260300258E+02  0.00000000000E+00 0. -1.
         21    1    1    2  504  506  0.16458396216E+02 -0.35815403405E+02 -0.11571990780E+03  0.12224859504E+03  0.00000000000E+00 0.  1.
         21    1    1    2  505  501  0.11496259715E+03 -0.37513652611E+02 -0.47844245591E+01  0.12102298788E+03  0.00000000000E+00 0. -1.
         21    1    1    2  506  505 -0.13211168358E+03  0.40001394968E+02 -0.49057386137E+03  0.50962370628E+03  0.00000000000E+00 0.  1.
<scales pt_clust_3="33.33482" pt_clust_4="38.04106" pt_clust_5="118.38424" pt_clust_6="14000.00000"></scales>
<clustering>
<clus scale="   33.335">  1  3  2 -1</clus>
<clus scale="   38.041">  2  4  1 -1</clus>
<clus scale="  118.384">  1  5  2 -1</clus>
<clus scale="   33.335">  1  3  2 -1</clus>
</clustering>
</event>
<event>
 6    0  0.4227619E+002  0.8539075E+02  0.7546771E-02  0.1314414E+00
         21   -1    0    0  506  501  0.00000000000E+00  0.00000000000E+00  0.10912149877E+03  0.10912149877E+03  0.00000000000E+00 0. -1.
         21   -1    0    0  505  502 -0.00000000000E+00 -0.00000000000E+00 -0.40891722946E+03  0.40891722946E+03  0.00000000000E+00 0. -1.
         21    1    1    2  503  502  0.28334385126E+02  0.12180659773E+02 -0.25421887051E+03  0.25608287717E+03  0.00000000000E+00 0. -1.
         21    1    1    2  504  501  0.80006785451E+01  0.75241043257E+02  0.28648622191E+02  0.80907162853E+02  0.00000000000E+00 0. -1.
         21    1    1    2  505  504  0.29026914571E+02  0.17678251797E+02 -0.40297470974E+02  0.52715922861E+02  0.00000000000E+00 0.  1.
         21    1    1    2  506  503 -0.65361978243E+02 -0.10509995483E+03 -0.33928011386E+02  0.12833276535E+03  0.00000000000E+00 0. -1.
<scales pt_clust_3="30.84163" pt_clust_4="14000.00000" pt_clust_5="43.24184" pt_clust_6="85.39075"></scales>
<clustering>
<clus scale="   30.842">  2  3  1 -1</clus>
<clus scale="   43.242">  2  5  1 -1</clus>
<clus scale="   85.391">  2  6  1 -1</clus>
<clus scale="   85.391">  1  3  2 -1</clus>
</clustering>
</event>
<event>
 6    0  0.4227619E+002  0.8668297E+02  0.7546771E-02  0.1311089E+00
         21   -1    0    0  504  501  0.00000000000E+00  0.00000000000E+00  0.14165947221E+03  0.14165947221E+03  0.00000000000E+00 0.  1.
         21   -1    0    0  503  502 -0.00000000000E+00 -0.00000000000E+00 -0.90769943744E+03  0.90769943744E+03  0.00000000000E+00 0. -1.
         21    1    1    2  503  506  0.26261032650E+02 -0.18106153015E+02 -0.21140165761E+03  0.21379461044E+03  0.00000000000E+00 0.  1.
         21    1    1    2  504  505 -0.87316560896E+02  0.71220628298E+01  0.11942511211E+03  0.14811233233E+03  0.00000000000E+00 0.  1.
         21    1    1    2  505  502 -0.81340773270E+00 -0.48775494460E+02 -0.22562705628E+03  0.23084037563E+03  0.00000000000E+00 0. -1.
         21    1    1    2  506  501  0.61868935979E+02  0.59759584645E+02 -0.44843636345E+03  0.45661159124E+03  0.00000000000E+00 0. -1.
<scales pt_clust_3="31.89788" pt_clust_4="14000.00000" pt_clust_5="55.27501" pt_clust_6="86.68297"></scales>
<clustering>
<clus scale="   31.898">  2  3  1 -1</clus>
<clus scale="   55.275">  2  5  1 -1</clus>
<clus scale="   86.683">  2  6  1 -1</clus>
<clus scale="   86.683">  1  3  2 -1</clus>
</clustering>
</event>
<event>
 6    0  0.4227619E+002  0.1082886E+03  0.7546771E-02  0.1263772E+00
         21   -1    0    0  504  501  0.00000000000E+00  0.00000000000E+00  0.24035353753E+03  0.24035353753E+03  0.00000000000E+00 0.  1.
         21   -1    0    0  505  502 -0.00000000000E+00 -0.00000000000E+00 -0.17364441303E+03  0.17364441303E+03  0.00000000000E+00 0.  1.
         21    1    1    2  503  501 -0.79487001858E+02  0.57257813831E+02  0.17767190158E+03  0.20288899754E+03  0.00000000000E+00 0.  1.
         21    1    1    2  504  506  0.42790744096E+02 -0.33033284637E+02 -0.10505738870E+02  0.55069194868E+02  0.00000000000E+00 0. -1.
         21    1    1    2  505  503  0.43324749108E+02  0.25766033671E+02 -0.92004332789E+02  0.10490814853E+03  0.00000000000E+00 0.  1.
         21    1    1    2  506  502 -0.66284913454E+01 -0.49990562866E+02 -0.84527054268E+01  0.51131609619E+02  0.00000000000E+00 0.  1.
<scales pt_clust_3="94.90997" pt_clust_4="50.35857" pt_clust_5="50.40756" pt_clust_6="50.35857"></scales>
<clustering>
<clus scale="   50.359">  4  6 -1 -1</clus>
<clus scale="   50.408">  2  5  1 -1</clus>
<clus scale="   94.910">  1  3  2 -1</clus>
<clus scale="   94.910">  1  3  2 -1</clus>
</clustering>
</event>
<event>
 6    0  0.4227619E+002  0.8650270E+02  0.7546771E-02  0.1311549E+00
         21   -1    0    0  504  501  0.00000000000E+00  0.00000000000E+00  0.18338626055E+04  0.18338626055E+04  0.00000000000E+00 0. -1.
         21   -1    0    0  503  502 -0.00000000000E+00 -0.00000000000E+00 -0.22931543411E+03  0.22931543411E+03  0.00000000000E+00 0.  1.
         21    1    1    2  503  505  0.22134187996E+02  0.13142978202E+03 -0.77776633674E+02  0.15431433707E+03  0.00000000000E+00 0.  1.
         21    1    1    2  504  506 -0.94062976131E+02 -0.35312561742E+02  0.93458116959E+03  0.93996637336E+03  0.00000000000E+00 0. -1.
         21    1    1    2  505  501  0.72358006497E+02 -0.46524699514E+02  0.85047808498E+03  0.85481764243E+03  0.00000000000E+00 0. -1.
         21    1    1    2  506  502 -0.42921836234E+00 -0.49592520760E+02 -0.10273544951E+03  0.11407968676E+03  0.00000000000E+00 0.  1.
<scales pt_clust_3="85.87550" pt_clust_4="14000.00000" pt_clust_5="86.50270" pt_clust_6="49.59438"></scales>
<clustering>
<clus scale="   49.594">  2  6  1 -1</clus>
<clus scale="   86.503">  1  5  2 -1</clus>
<clus scale="   85.876">  2  3  1 -1</clus>
<clus scale="   86.503">  1  3  2 -1</clus>
</clustering>
</event>
<event>
 6    0  0.4227619E+002  0.9738570E+02  0.7546771E-02  0.1285892E+00
         21   -1    0    0  505  501  0.00000000000E+00  0.00000000000E+00  0.86357994559E+03  0.86357994559E+03  0.00000000000E+00 0. -1.
         21   -1    0    0  504  502 -0.00000000000E+00 -0.00000000000E+00 -0.11124439174E+03  0.11124439174E+03  0.00000000000E+00 0. -1.
         21    1    1    2  503  501  0.15871517204E+03  0.85660144157E+02  0.49024792221E+02  0.18689996358E+03  0.00000000000E+00 0. -1.
         21    1    1    2  504  503  0.17938491308E+01 -0.32558495580E+02 -0.12822165637E+02  0.35038285643E+02  0.00000000000E+00 0.  1.
         21    1    1    2  505  506 -0.89764039463E+02 -0.26005001082E+02  0.63516630727E+03  0.64200473577E+03  0.00000000000E+00 0. -1.
         21    1    1    2  506  502 -0.70744981709E+02 -0.27096647495E+02  0.80966619999E+02  0.11088135234E+03  0.00000000000E+00 0.  1.
<scales pt_clust_3="97.38570" pt_clust_4="32.60788" pt_clust_5="14000.00000" pt_clust_6="77.64704"></scales>
<clustering>
<clus scale="   32.608">  2  4  1 -1</clus>
<clus scale="   77.647">  2  6  1 -1</clus>
<clus scale="   97.386">  2  3  1 -1</clus>
<clus scale="   97.386">  1  3  2 -1</clus>
</clustering>
</event>
<event>
 6    0  0.4567380E+002  0.7002061E+02  0.7546771E-02  0.1360023E+00
         21   -1    0    0  504  501  0.00000000000E+00  0.00000000000E+00  0.24188305100E+03  0.24188305100E+03  0.00000000000E+00 0.  1.
         21   -1    0    0  505  502 -0.00000000000E+00 -0.00000000000E+00 -0.18243692704E+04  0.18243692704E+04  0.00000000000E+00 0. -1.
         21    1    1    2  503  502 -0.32996401663E+01 -0.70160331076E+02 -0.15218480003E+04  0.15234679832E+04  0.00000000000E+00 0. -1.
         21    1    1    2  504  506 -0.25138081819E+02  0.42800464043E+02  0.20078800373E+03  0.20683236043E+03  0.00000000000E+00 0.  1.
         21    1    1    2  505  501 -0.33324353186E+02  0.62739398468E+02 -0.65707959255E+01  0.71343675224E+02  0.00000000000E+00 0. -1.
         21    1    1    2  506  503  0.61762075172E+02 -0.35379531435E+02 -0.25485542690E+03  0.26460830258E+03  0.00000000000E+00 0.  1.
<scales pt_clust_3="14000.00000" pt_clust_4="49.63671" pt_clust_5="70.02061" pt_clust_6="65.73486"></scales>
<clustering>
<clus scale="   49.637">  1  4  2 -1</clus>
<clus scale="   65.735">  1  6  2 -1</clus>
<clus scale="   70.021">  1  5  2 -1</clus>
<clus scale="   49.637">  1  3  2 -1</clus>
</clustering>
</event>
<event>
 6    0  0.4227619E+002  0.9414359E+02  0.7546771E-02  0.1293117E+00
         21   -1    0    0  503  501  0.00000000000E+00  0.00000000000E+00  0.25396926140E+03  0.25396926140E+03  0.00000000000E+00 0.  1.
         21   -1    0    0  505  502 -0.00000000000E+00 -0.00000000000E+00 -0.13447663334E+03  0.13447663334E+03  0.00000000000E+00 0.  1.
         21    1    1    2  503  506 -0.10928262952E+02  0.38589572092E+02  0.14798686392E+03  0.15332545092E+03  0.00000000000E+00 0.  1.
         21    1    1    2  504  501  0.49384432819E+02  0.59994924236E+02 -0.37944418331E+02  0.86475383905E+02  0.00000000000E+00 0.  1.
         21    1    1    2  505  504  0.30780365707E+02 -0.69575389827E+01 -0.78152677576E+01  0.32510254873E+02  0.00000000000E+00 0.  1.
         21    1    1    2  506  502 -0.69236535573E+02 -0.91626957346E+02  0.17265450233E+02  0.11613480504E+03  0.00000000000E+00 0.  1.
<scales pt_clust_3="39.76025" pt_clust_4="14000.00000" pt_clust_5="31.55691" pt_clust_6="94.14359"></scales>
<clustering>
<clus scale="   31.557">  2  5  1 -1</clus>
<clus scale="   39.760">  1  3  2 -1</clus>
<clus scale="   94.144">  1  6  2 -1</clus>
<clus scale="   39.760">  1  3  2 -1</clus>
</clustering>
</event>
<event>
 6    0  0.4227619E+002  0.8863455E+02  0.7546771E-02  0.1306192E+00
         21   -1    0    0  504  501  0.00000000000E+00  0.00000000000E+00  0.13510021094E+03  0.13510021094E+03  0.00000000000E+00 0. -1.
         21   -1    0    0  503  502 -0.00000000000E+00 -0.00000000000E+00 -0.16301707606E+04  0.16301707606E+04  0.00000000000E+00 0.  1.
         21    1    1    2  503  506 -0.42008587286E+02  0.12918649884E+03 -0.89861337035E+02  0.16287704805E+03  0.00000000000E+00 0. -1.
         21    1    1    2  504  505  0.15793882595E+02 -0.39544336825E+02 -0.27791372041E+02  0.50848418484E+02  0.00000000000E+00 0.  1.
         21    1    1    2  505  502  0.31944374322E+02 -0.43643935732E+02 -0.14577746394E+04  0.14587776169E+04  0.00000000000E+00 0.  1.
         21    1    1    2  506  501 -0.57296696307E+01 -0.45998226284E+02  0.80356798874E+02  0.92767888090E+02  0.00000000000E+00 0. -1.
<scales pt_clust_3="88.63455" pt_clust_4="42.58170" pt_clust_5="54.25283" pt_clust_6="14000.00000"></scales>
<clustering>
<clus scale="   42.582">  1  4  2 -1</clus>
<clus scale="   54.253">  2  5  1 -1</clus>
<clus scale="   88.635">  2  3  1 -1</clus>
<clus scale="   42.582">  1  3  2 -1</clus>
</clustering>
</event>
<event>
 6    0  0.4227619E+002  0.8457531E+02  0.7546771E-02  0.1316547E+00
         21   -1    0    0  506  501  0.00000000000E+00  0.00000000000E+00  0.52468314642E+03  0.52468314642E+03  0.00000000000E+00 0.  1.
         21   -1    0    0  503  502 -0.00000000000E+00 -0.00000000000E+00 -0.73888897939E+02  0.73888897939E+02  0.00000000000E+00 0.  1.
         21    1    1    2  503  501  0.34477142148E+01  0.10344075382E+03 -0.25767199952E+01  0.10353026500E+03  0.00000000000E+00 0.  1.
         21    1    1    2  504  502  0.24085535240E+02 -0.58412715668E+02  0.52622820162E+02  0.82227243425E+02  0.00000000000E+00 0.  1.
         21    1    1    2  505  504 -0.51537838950E+02 -0.11626203485E+02  0.15781705504E+03  0.16642578019E+03  0.00000000000E+00 0.  1.
         21    1    1    2  506  505  0.24004589495E+02 -0.33401834672E+02  0.24293109328E+03  0.24638875574E+03  0.00000000000E+00 0.  1.
<scales pt_clust_3="14000.00000" pt_clust_4="84.57531" pt_clust_5="48.73994" pt_clust_6="41.13275"></scales>
<clustering>
<clus scale="   41.133">  1  6  2 -1</clus>
<clus scale="   48.740">  1  5  2 -1</clus>
<clus scale="   84.575">  1  4  2 -1</clus>
<clus scale="   41.133">  1  3  2 -1</clus>
</clustering>
</event>
<event>
 6    0  0.4227619E+002  0.1031868E+03  0.7546771E-02  0.1273734E+00
         21   -1    0    0  504  501  0.00000000000E+00  0.00000000000E+00  0.71685367589E+02  0.71685367589E+02  0.00000000000E+00 0.  1.
         21   -1    0    0  506  502 -0.00000000000E+00 -0.00000000000E+00 -0.51115174880E+03  0.51115174880E+03  0.00000000000E+00 0. -1.
         21    1    1    2  503  501 -0.42129225689E+02 -0.26554866344E+02  0.71960548042E+01  0.50317152030E+02  0.00000000000E+00 0.  1.
         21    1    1    2  504  502  0.37609432330E+02  0.38407077879E+02 -0.38730728614E+02  0.66254376236E+02  0.00000000000E+00 0. -1.
         21    1    1    2  505  503 -0.90291234675E+02 -0.52044976137E+02 -0.11227887227E+03  0.15319181361E+03  0.00000000000E+00 0.  1.
         21    1    1    2  506  505  0.94811028034E+02  0.40192764601E+02 -0.29565283513E+03  0.31307377451E+03  0.00000000000E+00 0. -1.
<scales pt_clust_3="49.79993" pt_clust_4="38.40140" pt_clust_5="103.18681" pt_clust_6="14000.00000"></scales>
<clustering>
<clus scale="   49.800">  1  3  2 -1</clus>
<clus scale="   38.401">  1  4  2 -1</clus>
<clus scale="  103.187">  1  5  2 -1</clus>
<clus scale="   49.800">  1  3  2 -1</clus>
</clustering>
</event>
<event>
 6    0  0.4227619E+002  0.9389078E+02  0.7546771E-02  0.1293694E+00
         21   -1    0    0  506  501  0.00000000000E+00  0.00000000000E+00  0.23176412787E+03  0.23176412787E+03  0.00000000000E+00 0. -1.
         21   -1    0    0  503  502 -0.00000000000E+00 -0.00000000000E+00 -0.51188337855E+03  0.51188337855E+03  0.00000000000E+00 0. -1.
         21    1    1    2  503  501  0.63749123293E+02 -0.27048302344E+02  0.14520877583E+03  0.16087619450E+03  0.00000000000E+00 0. -1.
         21    1    1    2  504  502 -0.78735744569E+02  0.52609674983E+02 -0.46587276853E+03  0.47539933932E+03  0.00000000000E+00 0. -1.
         21    1    1    2  505  504  0.48078573139E+02  0.80032182776E+01  0.63758780340E+01  0.49155391552E+02  0.00000000000E+00 0. -1.
         21    1    1    2  506  505 -0.33091951863E+02 -0.33564590917E+02  0.34168863992E+02  0.58216581040E+02  0.00000000000E+00 0.  1.
<scales pt_clust_3="14000.00000" pt_clust_4="93.89078" pt_clust_5="43.23019" pt_clust_6="47.13448"></scales>
<clustering>
<clus scale="   47.134">  1  6  2 -1</clus>
<clus scale="   43.230">  1  5  2 -1</clus>
<clus scale="   93.891">  2  4  1 -1</clus>
<clus scale="   47.134">  1  3  2 -1</clus>
</clustering>
</event>
<event>
 6    0  0.4227619E+002  0.1130409E+03  0.7546771E-02  0.1255040E+00
         21   -1    0    0  504  501  0.00000000000E+00  0.00000000000E+00  0.77496890447E+03  0.77496890447E+03  0.00000000000E+00 0. -1.
         21   -1    0    0  503  502 -0.00000000000E+00 -0.00000000000E+00 -0.16185934224E+03  0.16185934224E+03  0.00000000000E+00 0.  1.
         21    1    1    2  503  506 -0.18081752597E+02  0.41228340899E+02 -0.45332642541E+02  0.63888765444E+02  0.00000000000E+00 0.  1.
         21    1    1    2  504  502  0.87144241268E+02 -0.19775288077E+01 -0.20171248791E+02  0.89470155271E+02  0.00000000000E+00 0.  1.
         21    1    1    2  505  501  0.53586224467E+02 -0.99434690662E+02  0.62752575739E+03  0.63761063146E+03  0.00000000000E+00 0. -1.
         21    1    1    2  506  505 -0.12264871314E+03  0.60183878571E+02  0.51087696175E+02  0.14585869455E+03  0.00000000000E+00 0.  1.
<scales pt_clust_3="45.01917" pt_clust_4="80.20815" pt_clust_5="14000.00000" pt_clust_6="113.04087"></scales>
<clustering>
<clus scale="   45.019">  2  3  1 -1</clus>
<clus scale="   80.208">  2  4  1 -1</clus>
<clus scale="  113.041">  2  6  1 -1</clus>
<clus scale="  113.041">  1  3  2 -1</clus>
</clustering>
</event>
<event>
 6    0  0.4227619E+002  0.8125364E+02  0.7546771E-02  0.1325531E+00
         21   -1    0    0  505  501  0.00000000000E+00  0.00000000000E+00  0.95565498544E+03  0.95565498544E+03  0.00000000000E+00 0. -1.
         21   -1    0    0  506  502 -0.00000000000E+00 -0.00000000000E+00 -0.76843679997E+02  0.76843679997E+02  0.00000000000E+00 0. -1.
         21    1    1    2  503  501  0.38596664511E+02 -0.22359343814E+02  0.59196324449E+03  0.59364141163E+03  0.00000000000E+00 0. -1.
         21    1    1    2  504  502 -0.44340053677E+02  0.71604226759E+02 -0.12013441684E+02  0.85073664732E+02  0.00000000000E+00 0. -1.
         21    1    1    2  505  504  0.36963839514E+02  0.44696859743E+02  0.21912319510E+03  0.22666960390E+03  0.00000000000E+00 0. -1.
         21    1    1    2  506  503 -0.31220450347E+02 -0.93941742687E+02  0.79738307535E+02  0.12711398518E+03  0.00000000000E+00 0. -1.
<scales pt_clust_3="44.60541" pt_clust_4="81.25364" pt_clust_5="68.11671" pt_clust_6="14000.00000"></scales>
<clustering>
<clus scale="   44.605">  1  3  2 -1</clus>
<clus scale="   68.117">  1  5  2 -1</clus>
<clus scale="   81.254">  2  4  1 -1</clus>
<clus scale="   44.605">  1  3  2 -1</clus>
</clustering>
</event>
<event>
 6    0  0.4227619E+002  0.1458830E+03  0.7546771E-02  0.1205625E+00
         21   -1    0    0  505  501  0.00000000000E+00  0.00000000000E+00  0.45114011296E+03  0.45114011296E+03  0.00000000000E+00 0. -1.
         21   -1    0    0  506  502 -0.00000000000E+00 -0.00000000000E+00 -0.32709944556E+03  0.32709944556E+03  0.00000000000E+00 0. -1.
         21    1    1    2  503  502 -0.40015356232E+02 -0.33642477359E+02 -0.14519431149E+01  0.52298691724E+02  0.00000000000E+00 0. -1.
         21    1    1    2  504  501  0.19448318971E+02  0.12894589991E+03 -0.79430869190E+02  0.15269101216E+03  0.00000000000E+00 0. -1.
         21    1    1    2  505  503  0.58967072761E+02 -0.13799689519E+03  0.36957059838E+03  0.39887678039E+03  0.00000000000E+00 0. -1.
         21    1    1    2  506  504 -0.38400035500E+02  0.42693472635E+02 -0.16464711867E+03  0.17437307424E+03  0.00000000000E+00 0. -1.
<scales pt_clust_3="52.27853" pt_clust_4="14000.00000" pt_clust_5="145.88298" pt_clust_6="65.43538"></scales>
<clustering>
<clus scale="   52.279">  2  3  1 -1</clus>
<clus scale="   65.435">  2  6  1 -1</clus>
<clus scale="  145.883">  1  5  2 -1</clus>
<clus scale="  145.883">  1  3  2 -1</clus>
</clustering>
</event>
<event>
 6    0  0.4227619E+002  0.1518706E+03  0.7546771E-02  0.1198193E+00
         21   -1    0    0  504  501  0.00000000000E+00  0.00000000000E+00  0.37800982777E+03  0.37800982777E+03  0.00000000000E+00 0. -1.
         21   -1    0    0  505  502 -0.00000000000E+00 -0.00000000000E+00 -0.42766702425E+03  0.42766702425E+03  0.00000000000E+00 0. -1.
         21    1    1    2  503  502 -0.27403825874E+01  0.31849346212E+02 -0.22094185585E+02  0.38859279297E+02  0.00000000000E+00 0.  1.
         21    1    1    2  504  503  0.18418345218E+03  0.15761917733E+02 -0.13894266483E+03  0.23125104587E+03  0.00000000000E+00 0. -1.
         21    1    1    2  505  506 -0.13298466291E+03 -0.86778125617E+01 -0.18764228789E+03  0.23015180470E+03  0.00000000000E+00 0. -1.
         21    1    1    2  506  501 -0.48458406678E+02 -0.38933451383E+02  0.29902194183E+03  0.30541472215E+03  0.00000000000E+00 0. -1.
<scales pt_clust_3="31.96702" pt_clust_4="14000.00000" pt_clust_5="151.87064" pt_clust_6="62.01836"></scales>
<clustering>
<clus scale="   31.967">  2  3  1 -1</clus>
<clus scale="   62.018">  1  6  2 -1</clus>
<clus scale="  151.871">  2  5  1 -1</clus>
<clus scale="   62.018">  1  3  2 -1</clus>
</clustering>
</event>
<event>
 6    0  0.3429714E+003  0.1092782E+03  0.7546771E-02  0.1261912E+00
         21   -1    0    0  505  501  0.00000000000E+00  0.00000000000E+00  0.48012474948E+03  0.48012474948E+03  0.00000000000E+00 0. -1.
         21   -1    0    0  506  502 -0.00000000000E+00 -0.00000000000E+00 -0.14826029601E+04  0.14826029601E+04  0.00000000000E+00 0.  1.
         21    1    1    2  503  502  0.45920724790E+01  0.82206540071E+02 -0.14314718683E+04  0.14338377566E+04  0.00000000000E+00 0.  1.
         21    1    1    2  504  501  0.52292084230E+02 -0.85738302169E+02  0.40157206125E+03  0.41393917295E+03  0.00000000000E+00 0. -1.
         21    1    1    2  505  503 -0.26819268869E+02 -0.21189542158E+02  0.56727052811E+02  0.66228607113E+02  0.00000000000E+00 0. -1.
         21    1    1    2  506  504 -0.30064887839E+02  0.24721304256E+02 -0.29305456383E+02  0.48722172968E+02  0.00000000000E+00 0. -1.
<scales pt_clust_3="14000.00000" pt_clust_4="109.27822" pt_clust_5="34.17996" pt_clust_6="39.09949"></scales>
<clustering>
<clus scale="   34.180">  1  5  2 -1</clus>
<clus scale="   39.099">  2  6  1 -1</clus>
<clus scale="  109.278">  1  4  2 -1</clus>
<clus scale="   34.180">  1  3  2 -1</clus>
</clustering>
</event>
<event>
 6    0  0.4227619E+002  0.1449662E+03  0.7546771E-02  0.1206799E+00
         21   -1    0    0  505  501  0.00000000000E+00  0.00000000000E+00  0.90106762093E+02  0.90106762093E+02  0.00000000000E+00 0. -1.
         21   -1    0    0  504  502 -0.00000000000E+00 -0.00000000000E+00 -0.26737313770E+04  0.26737313770E+04  0.00000000000E+00 0.  1.
         21    1    1    2  503  506  0.46934222956E+02 -0.22405893856E+02 -0.15122732491E+01  0.52030109882E+02  0.00000000000E+00 0. -1.
         21    1    1    2  504  501 -0.34252106765E+02  0.37699659984E+02 -0.45509060821E+03  0.45793223610E+03  0.00000000000E+00 0.  1.
         21    1    1    2  505  503  0.29196612811E+02 -0.87633609092E+02  0.28552413312E+02  0.96681600877E+02  0.00000000000E+00 0. -1.
         21    1    1    2  506  502 -0.41878729002E+02  0.72339842965E+02 -0.21555741468E+04  0.21571941922E+04  0.00000000000E+00 0.  1.
<scales pt_clust_3="44.26132" pt_clust_4="50.93595" pt_clust_5="44.26132" pt_clust_6="132.42282"></scales>
<clustering>
<clus scale="   44.261">  3  5 -1 -1</clus>
<clus scale="   50.936">  2  4  1 -1</clus>
<clus scale="  132.423">  2  6  1 -1</clus>
<clus scale="  144.966">  1  3  2 -1</clus>
</clustering>
</event>
<event>
 6    0  0.4227619E+002  0.9345456E+02  0.7546771E-02  0.1294695E+00
         21   -1    0    0  506  501  0.00000000000E+00  0.00000000000E+00  0.31275522466E+03  0.31275522466E+03  0.00000000000E+00 0. -1.
         21   -1    0    0  505  502 -0.00000000000E+00 -0.00000000000E+00 -0.11163084240E+03  0.11163084240E+03  0.00000000000E+00 0. -1.
         21    1    1    2  503  501  0.24865574990E+02  0.30635639612E+02  0.57314509304E+02  0.69582987941E+02  0.00000000000E+00 0. -1.
         21    1    1    2  504  503  0.47220842101E+02  0.27955935607E+01  0.12396636941E+03  0.13268490501E+03  0.00000000000E+00 0. -1.
         21    1    1    2  505  504 -0.52495733579E+02 -0.12002895541E+03  0.24209658328E+02  0.13322484655E+03  0.00000000000E+00 0. -1.
         21    1    1    2  506  502 -0.19590683513E+02  0.86597722239E+02 -0.43661547814E+01  0.88893327562E+02  0.00000000000E+00 0.  1.
<scales pt_clust_3="38.04693" pt_clust_4="38.04693" pt_clust_5="83.65590" pt_clust_6="88.78604"></scales>
<clustering>
<clus scale="   38.047">  3  4 -1 -1</clus>
<clus scale="   88.786">  2  6  1 -1</clus>
<clus scale="   83.656">  2  5  1 -1</clus>
<clus scale="   93.455">  1  3  2 -1</clus>
</clustering>
</event>
<event>
 6    0  0.4227619E+002  0.1243065E+03  0.7546771E-02  0.1236157E+00
         21   -1    0    0  502  501  0.00000000000E+00  0.00000000000E+00  0.22491139234E+03  0.22491139234E+03  0.00000000000E+00 0. -1.
         21   -1    0    0  506  502 -0.00000000000E+00 -0.00000000000E+00 -0.13475541578E+04  0.13475541578E+04  0.00000000000E+00 0. -1.
         21    1    1    2  503  504 -0.53692109027E+02  0.22331824702E+01 -0.40334928679E+03  0.40691335298E+03  0.00000000000E+00 0. -1.
         21    1    1    2  504  505  0.19313145032E+02 -0.12184124582E+03 -0.26366086785E+03  0.29109335271E+03  0.00000000000E+00 0. -1.
         21    1    1    2  505  501  0.77137178747E+02  0.58009836100E+02  0.19602711734E+03  0.21849923607E+03  0.00000000000E+00 0. -1.
         21    1    1    2  506  503 -0.42758214752E+02  0.61598227252E+02 -0.65165972816E+03  0.65595960839E+03  0.00000000000E+00 0. -1.
<scales pt_clust_3="48.46737" pt_clust_4="110.33721" pt_clust_5="96.51573" pt_clust_6="48.46737"></scales>
<clustering>
<clus scale="   48.467">  3  6 -1 -1</clus>
<clus scale="   96.516">  1  5  2 -1</clus>
<clus scale="  110.337">  1  4  2 -1</clus>
<clus scale="   96.516">  1  3  2 -1</clus>
</clustering>
</event>
<event>
 6    0  0.4227619E+002  0.8583044E+02  0.7546771E-02  0.1313275E+00
         21   -1    0    0  503  501  0.00000000000E+00  0.00000000000E+00  0.25211782709E+03  0.25211782709E+03  0.00000000000E+00 0.  1.
         21   -1    0    0  505  502 -0.00000000000E+00 -0.00000000000E+00 -0.39455867385E+03  0.39455867385E+03  0.00000000000E+00 0. -1.
         21    1    1    2  503  504  0.90669034433E+02 -0.25010183061E+02  0.60753254935E+01  0.94251220902E+02  0.00000000000E+00 0. -1.
         21    1    1    2  504  502 -0.15348160471E+01  0.87958449360E+02 -0.29926702339E+03  0.31192915183E+03  0.00000000000E+00 0. -1.
         21    1    1    2  505  506 -0.51676507660E+02 -0.69712945767E+02  0.18396589490E+01  0.86797123204E+02  0.00000000000E+00 0.  1.
         21    1    1    2  506  501 -0.37457710726E+02  0.67646794669E+01  0.14891119219E+03  0.15369900501E+03  0.00000000000E+00 0.  1.
<scales pt_clust_3="75.21212" pt_clust_4="85.83044" pt_clust_5="14000.00000" pt_clust_6="38.06364"></scales>
<clustering>
<clus scale="   38.064">  1  6  2 -1</clus>
<clus scale="   75.212">  1  3  2 -1</clus>
<clus scale="   85.830">  2  4  1 -1</clus>
<clus scale="   38.064">  1  3  2 -1</clus>
</clustering>
</event>
<event>
 6    0  0.4227619E+002  0.1162040E+03  0.7546771E-02  0.1249494E+00
         21   -1    0    0  506  501  0.00000000000E+00  0.00000000000E+00  0.67785151447E+03  0.67785151447E+03  0.00000000000E+00 0. -1.
         21   -1    0    0  504  502 -0.00000000000E+00 -0.00000000000E+00 -0.18076551688E+04  0.18076551688E+04  0.00000000000E+00 0.  1.
         21    1    1    2  503  502 -0.14412489569E+03  0.70748255160E+02 -0.15853289647E+03  0.22563240110E+03  0.00000000000E+00 0. -1.
         21    1    1    2  504  505  0.11247795851E+02  0.28806215035E+02 -0.12279293894E+04  0.12283187275E+04  0.00000000000E+00 0. -1.
         21    1    1    2  505  501  0.95878292194E+02 -0.45720310129E+02 -0.37846133152E+03  0.39308519831E+03  0.00000000000E+00 0.  1.
         21    1    1    2  506  503  0.36998807645E+02 -0.53834160066E+02  0.63511996304E+03  0.63847035640E+03  0.00000000000E+00 0. -1.
<scales pt_clust_3="116.20397" pt_clust_4="30.92428" pt_clust_5="14000.00000" pt_clust_6="65.27233"></scales>
<clustering>
<clus scale="   30.924">  2  4  1 -1</clus>
<clus scale="   65.272">  1  6  2 -1</clus>
<clus scale="  116.204">  1  3  2 -1</clus>
<clus scale="   65.272">  1  3  2 -1</clus>
</clustering>
</event>
<event>
 6    0  0.4227619E+002  0.2053971E+03  0.7546771E-02  0.1145264E+00
         21   -1    0    0  502  501  0.00000000000E+00  0.00000000000E+00  0.93672659925E+03  0.93672659925E+03  0.00000000000E+00 0. -1.
         21   -1    0    0  506  502 -0.00000000000E+00 -0.00000000000E+00 -0.21579799154E+03  0.21579799154E+03  0.00000000000E+00 0.  1.
         21    1    1    2  503  504 -0.17730895779E+03  0.12955650791E+03  0.51002001713E+03  0.55528710874E+03  0.00000000000E+00 0. -1.
         21    1    1    2  504  501  0.45768950044E+02  0.47936535174E+02  0.22113785107E+03  0.23085635657E+03  0.00000000000E+00 0. -1.
         21    1    1    2  505  503  0.99845024310E+02 -0.15503712134E+03  0.12690376284E+03  0.22385285992E+03  0.00000000000E+00 0. -1.
         21    1    1    2  506  505  0.31694983437E+02 -0.22455921738E+02 -0.13713302333E+03  0.14252826556E+03  0.00000000000E+00 0.  1.
<scales pt_clust_3="205.39711" pt_clust_4="66.68397" pt_clust_5="14000.00000" pt_clust_6="38.84379"></scales>
<clustering>
<clus scale="   38.844">  2  6  1 -1</clus>
<clus scale="   66.684">  1  4  2 -1</clus>
<clus scale="  205.397">  1  3  2 -1</clus>
<clus scale="   66.684">  1  3  2 -1</clus>
</clustering>
</event>
<event>
 6    0  0.4227619E+002  0.9281265E+02  0.7546771E-02  0.1296180E+00
         21   -1    0    0  505  501  0.00000000000E+00  0.00000000000E+00  0.28639001664E+03  0.28639001664E+03  0.00000000000E+00 0.  1.
         21   -1    0    0  506  502 -0.00000000000E+00 -0.00000000000E+00 -0.19389010968E+03  0.19389010968E+03  0.00000000000E+00 0.  1.
         21    1    1    2  503  502  0.58871853119E+02 -0.68261588175E+02 -0.12374800968E+03  0.15309836514E+03  0.00000000000E+00 0.  1.
         21    1    1    2  504  503  0.55336876433E+02 -0.70731217965E+01  0.13495995065E+02  0.57396348561E+02  0.00000000000E+00 0.  1.
         21    1    1    2  505  504  0.21488943687E+02  0.23598556927E+02  0.27074093320E+02  0.41852994145E+02  0.00000000000E+00 0.  1.
         21    1    1    2  506  501 -0.13569767324E+03  0.51736153044E+02  0.17567782825E+03  0.22793241848E+03  0.00000000000E+00 0.  1.
<scales pt_clust_3="14000.00000" pt_clust_4="58.48092" pt_clust_5="31.91656" pt_clust_6="92.81265"></scales>
<clustering>
<clus scale="   31.917">  1  5  2 -1</clus>
<clus scale="   58.481">  1  4  2 -1</clus>
<clus scale="   92.813">  1  6  2 -1</clus>
<clus scale="   31.917">  1  3  2 -1</clus>
</clustering>
</event>
<event>
 6    0  0.4227619E+002  0.3139598E+03  0.7546771E-02  0.1078463E+00
         21   -1    0    0  503  501  0.00000000000E+00  0.00000000000E+00  0.30590213439E+03  0.30590213439E+03  0.00000000000E+00 0. -1.
         21   -1    0    0  504  502 -0.00000000000E+00 -0.00000000000E+00 -0.10786921634E+04  0.10786921634E+04  0.00000000000E+00 0. -1.
         21    1    1    2  503  502 -0.27987044379E+03  0.14052906908E+03 -0.70356259814E+03  0.77011441622E+03  0.00000000000E+00 0. -1.
         21    1    1    2  504  506 -0.43711799913E+02 -0.66994091533E+02 -0.20061014455E+03  0.21597073840E+03  0.00000000000E+00 0. -1.
         21    1    1    2  505  501  0.52224605982E+02 -0.39397327515E+02  0.10504180855E+03  0.12374708251E+03  0.00000000000E+00 0.  1.
         21    1    1    2  506  505  0.27135763772E+03 -0.34137650033E+02  0.26340905126E+02  0.27476206066E+03  0.00000000000E+00 0. -1.
<scales pt_clust_3="313.95975" pt_clust_4="80.21479" pt_clust_5="65.41834" pt_clust_6="14000.00000"></scales>
<clustering>
<clus scale="   65.418">  1  5  2 -1</clus>
<clus scale="   80.215">  2  4  1 -1</clus>
<clus scale="  313.960">  2  3  1 -1</clus>
<clus scale="   65.418">  1  3  2 -1</clus>
</clustering>
</event>
<event>
 6    0  0.4227619E+002  0.1097460E+03  0.7546771E-02  0.1261041E+00
         21   -1    0    0  506  501  0.00000000000E+00  0.00000000000E+00  0.37160707720E+03  0.37160707720E+03  0.00000000000E+00 0.  1.
         21   -1    0    0  505  502 -0.00000000000E+00 -0.00000000000E+00 -0.29432879425E+03  0.29432879425E+03  0.00000000000E+00 0. -1.
         21    1    1    2  503  504  0.50360551980E+01 -0.91800115260E+02 -0.12990810437E+03  0.15915005056E+03  0.00000000000E+00 0. -1.
         21    1    1    2  504  501  0.11279828088E+03  0.86301210615E+02  0.13092101008E+03  0.19316226858E+03  0.00000000000E+00 0.  1.
         21    1    1    2  505  503 -0.39778001529E+02 -0.18601907091E+02 -0.10553814831E+03  0.11430932203E+03  0.00000000000E+00 0. -1.
         21    1    1    2  506  502 -0.78056334544E+02  0.24100811735E+02  0.18180352555E+03  0.19931423028E+03  0.00000000000E+00 0.  1.
<scales pt_clust_3="109.74602" pt_clust_4="14000.00000" pt_clust_5="43.91264" pt_clust_6="83.24814"></scales>
<clustering>
<clus scale="   43.913">  2  5  1 -1</clus>
<clus scale="   83.248">  1  6  2 -1</clus>
<clus scale="  109.746">  2  3  1 -1</clus>
<clus scale="   83.248">  1  3  2 -1</clus>
</clustering>
</event>
<event>
 6    0  0.4227619E+002  0.2429107E+03  0.7546771E-02  0.1117869E+00
         21   -1    0    0  506  501  0.00000000000E+00  0.00000000000E+00  0.23220185795E+03  0.23220185795E+03  0.00000000000E+00 0. -1.
         21   -1    0    0  503  502 -0.00000000000E+00 -0.00000000000E+00 -0.98074833602E+03  0.98074833602E+03  0.00000000000E+00 0. -1.
         21    1    1    2  503  501  0.16355651765E+03 -0.16840389043E+03  0.12673145103E+03  0.26677980706E+03  0.00000000000E+00 0. -1.
         21    1    1    2  504  505 -0.10827683575E+03  0.17430022314E+03 -0.81156962423E+03  0.83710793564E+03  0.00000000000E+00 0. -1.
         21    1    1    2  505  502 -0.42439800743E+02  0.24081056654E+02 -0.58266443663E+02  0.76000081801E+02  0.00000000000E+00 0. -1.
         21    1    1    2  506  504 -0.12839881153E+02 -0.29977389363E+02 -0.54418612023E+01  0.33062369462E+02  0.00000000000E+00 0. -1.
<scales pt_clust_3="14000.00000" pt_clust_4="242.91073" pt_clust_5="48.66639" pt_clust_6="32.61145"></scales>
<clustering>
<clus scale="   32.611">  1  6  2 -1</clus>
<clus scale="   48.666">  2  5  1 -1</clus>
<clus scale="  242.911">  2  4  1 -1</clus>
<clus scale="   32.611">  1  3  2 -1</clus>
</clustering>
</event>
<event>
 6    0  0.4227619E+002  0.7109452E+02  0.7546771E-02  0.1356410E+00
         21   -1    0    0  504  501  0.00000000000E+00  0.00000000000E+00  0.21100719861E+03  0.21100719861E+03  0.00000000000E+00 0. -1.
         21   -1    0    0  506  502 -0.00000000000E+00 -0.00000000000E+00 -0.12470017383E+04  0.12470017383E+04  0.00000000000E+00 0. -1.
         21    1    1    2  503  505  0.21376273660E+02  0.65940666041E+02  0.43565152968E+02  0.81872089668E+02  0.00000000000E+00 0. -1.
         21    1    1    2  504  502 -0.10414981166E+03 -0.10452053506E+02  0.10985169254E+03  0.15173603081E+03  0.00000000000E+00 0. -1.
         21    1    1    2  505  501  0.28898078908E+02 -0.21881136602E+02 -0.30875152771E+01  0.36378783022E+02  0.00000000000E+00 0.  1.
         21    1    1    2  506  503  0.53875459091E+02 -0.33607475933E+02 -0.11863238699E+04  0.11880220334E+04  0.00000000000E+00 0. -1.
<scales pt_clust_3="71.09452" pt_clust_4="14000.00000" pt_clust_5="36.24753" pt_clust_6="63.65595"></scales>
<clustering>
<clus scale="   36.248">  1  5  2 -1</clus>
<clus scale="   63.656">  2  6  1 -1</clus>
<clus scale="   71.095">  2  3  1 -1</clus>
<clus scale="   36.248">  1  3  2 -1</clus>
</clustering>
</event>
<event>
 6    0  0.4227619E+002  0.1688482E+03  0.7546771E-02  0.1179054E+00
         21   -1    0    0  504  501  0.00000000000E+00  0.00000000000E+00  0.13563917039E+03  0.13563917039E+03  0.00000000000E+00 0.  1.
         21   -1    0    0  503  502 -0.00000000000E+00 -0.00000000000E+00 -0.55011515853E+03  0.55011515853E+03  0.00000000000E+00 0.  1.
         21    1    1    2  503  505 -0.31246142489E+02  0.34178028359E+02 -0.10480494176E+03  0.11457981873E+03  0.00000000000E+00 0.  1.
         21    1    1    2  504  506 -0.73694217668E+02  0.22211169552E+02  0.23216065256E+02  0.80393777474E+02  0.00000000000E+00 0.  1.
         21    1    1    2  505  501 -0.11919928734E+03 -0.41640041052E+02 -0.67774658862E+02  0.14330306174E+03  0.00000000000E+00 0.  1.
         21    1    1    2  506  502  0.22413964749E+03 -0.14749156860E+02 -0.26511245278E+03  0.34747767097E+03  0.00000000000E+00 0.  1.
<scales pt_clust_3="46.30830" pt_clust_4="79.56573" pt_clust_5="14000.00000" pt_clust_6="168.84820"></scales>
<clustering>
<clus scale="   46.308">  2  3  1 -1</clus>
<clus scale="   79.566">  1  4  2 -1</clus>
<clus scale="  168.848">  2  6  1 -1</clus>
<clus scale="   79.566">  1  3  2 -1</clus>
</clustering>
</event>
<event>
 6    0  0.4227619E+002  0.1926021E+03  0.7546771E-02  0.1156135E+00
         21   -1    0    0  506  501  0.00000000000E+00  0.00000000000E+00  0.91291762980E+03  0.91291762980E+03  0.00000000000E+00 0. -1.
         21   -1    0    0  504  502 -0.00000000000E+00 -0.00000000000E+00 -0.86231680288E+02  0.86231680288E+02  0.00000000000E+00 0. -1.
         21    1    1    2  503  505 -0.18062566456E+03 -0.57142410988E+02  0.31675298168E+03  0.36908445813E+03  0.00000000000E+00 0. -1.
         21    1    1    2  504  503 -0.18079899479E+02 -0.38555634553E+02 -0.19350323555E+01  0.42628207459E+02  0.00000000000E+00 0. -1.
         21    1    1    2  505  501  0.59104312554E+01  0.29778114866E+02  0.26772605671E+03  0.26944185043E+03  0.00000000000E+00 0.  1.
         21    1    1    2  506  502  0.19279513279E+03  0.65919930675E+02  0.24414194349E+03  0.31799479407E+03  0.00000000000E+00 0. -1.
<scales pt_clust_3="192.60215" pt_clust_4="41.65430" pt_clust_5="30.35901" pt_clust_6="14000.00000"></scales>
<clustering>
<clus scale="   30.359">  1  5  2 -1</clus>
<clus scale="   41.654">  2  4  1 -1</clus>
<clus scale="  192.602">  1  3  2 -1</clus>
<clus scale="   30.359">  1  3  2 -1</clus>
</clustering>
</event>
<event>
 6    0  0.4227619E+002  0.9569318E+02  0.7546771E-02  0.1289622E+00
         21   -1    0    0  504  501  0.00000000000E+00  0.00000000000E+00  0.13061187179E+03  0.13061187179E+03  0.00000000000E+00 0.  1.
         21   -1    0    0  506  502 -0.00000000000E+00 -0.00000000000E+00 -0.54670636099E+03  0.54670636099E+03  0.00000000000E+00 0.  1.
         21    1    1    2  503  505 -0.66129738436E+02 -0.22790400813E+02  0.43093948373E+02  0.82156150477E+02  0.00000000000E+00 0.  1.
         21    1    1    2  504  502  0.23263999593E+02  0.76768462399E+02 -0.43236341685E+03  0.43974166818E+03  0.00000000000E+00 0.  1.
         21    1    1    2  505  501  0.11917152772E+02 -0.66834247138E+02  0.41324456504E+02  0.79476699894E+02  0.00000000000E+00 0.  1.
         21    1    1    2  506  503  0.30948586071E+02  0.12856185551E+02 -0.68149477224E+02  0.75943714240E+02  0.00000000000E+00 0. -1.
<scales pt_clust_3="95.69318" pt_clust_4="14000.00000" pt_clust_5="67.61088" pt_clust_6="33.51263"></scales>
<clustering>
<clus scale="   33.513">  2  6  1 -1</clus>
<clus scale="   67.611">  1  5  2 -1</clus>
<clus scale="   95.693">  1  3  2 -1</clus>
<clus scale="   67.611">  1  3  2 -1</clus>
</clustering>
</event>
<event>
 6    0  0.4227619E+002  0.2070544E+03  0.7546771E-02  0.1143920E+00
         21   -1    0    0  505  501  0.00000000000E+00  0.00000000000E+00  0.40122334497E+03  0.40122334497E+03  0.00000000000E+00 0. -1.
         21   -1    0    0  504  502 -0.00000000000E+00 -0.00000000000E+00 -0.70900641187E+03  0.70900641187E+03  0.00000000000E+00 0.  1.
         21    1    1    2  503  502 -0.93410121342E+02  0.18163534114E+02 -0.19888915534E+03  0.22048188328E+03  0.00000000000E+00 0. -1.
         21    1    1    2  504  506  0.69188272834E+02 -0.53127358045E+02 -0.38141304964E+03  0.39126135473E+03  0.00000000000E+00 0.  1.
         21    1    1    2  505  503 -0.53326281055E+01  0.22259168962E+03  0.18440015962E+03  0.28910018347E+03  0.00000000000E+00 0. -1.
         21    1    1    2  506  501  0.29554476614E+02 -0.18762786569E+03  0.88118978465E+02  0.20938633537E+03  0.00000000000E+00 0. -1.
<scales pt_clust_3="51.13637" pt_clust_4="87.23264" pt_clust_5="14000.00000" pt_clust_6="207.05444"></scales>
<clustering>
<clus scale="   87.233">  2  4  1 -1</clus>
<clus scale="   51.136">  2  3  1 -1</clus>
<clus scale="  207.054">  2  6  1 -1</clus>
<clus scale="  207.054">  1  3  2 -1</clus>
</clustering>
</event>
<event>
 6    0  0.4227619E+002  0.1032459E+03  0.7546771E-02  0.1273615E+00
         21   -1    0    0  506  501  0.00000000000E+00  0.00000000000E+00  0.38664021963E+03  0.38664021963E+03  0.00000000000E+00 0.  1.
         21   -1    0    0  504  502 -0.00000000000E+00 -0.00000000000E+00 -0.69364829710E+03  0.69364829710E+03  0.00000000000E+00 0. -1.
         21    1    1    2  503  502  0.75126925085E+02  0.13338665769E+02 -0.58293523923E+03  0.58790770365E+03  0.00000000000E+00 0. -1.
         21    1    1    2  504  505  0.28208251313E+02 -0.14952829064E+02 -0.61989228819E+02  0.69727735004E+02  0.00000000000E+00 0. -1.
         21    1    1    2  505  501  0.24689701977E+02 -0.42703569310E+02  0.26350934152E+03  0.26808645860E+03  0.00000000000E+00 0.  1.
         21    1    1    2  506  503 -0.12802487838E+03  0.44317732606E+02  0.74407049059E+02  0.15456661948E+03  0.00000000000E+00 0.  1.
<scales pt_clust_3="103.24593" pt_clust_4="31.92636" pt_clust_5="49.42593" pt_clust_6="14000.00000"></scales>
<clustering>
<clus scale="   31.926">  2  4  1 -1</clus>
<clus scale="   49.426">  1  5  2 -1</clus>
<clus scale="  103.246">  2  3  1 -1</clus>
<clus scale="   49.426">  1  3  2 -1</clus>
</clustering>
</event>
<event>
 6    0  0.4227619E+002  0.1862225E+03  0.7546771E-02  0.1161913E+00
         21   -1    0    0  504  501  0.00000000000E+00  0.00000000000E+00  0.42236475165E+03  0.42236475165E+03  0.00000000000E+00 0. -1.
         21   -1    0    0  503  502 -0.00000000000E+00 -0.00000000000E+00 -0.81615689078E+03  0.81615689078E+03  0.00000000000E+00 0. -1.
         21    1    1    2  503  501  0.55580440227E+02 -0.42173035820E+02 -0.67523463332E+02  0.97093606311E+02  0.00000000000E+00 0.  1.
         21    1    1    2  504  506  0.16273801871E+03 -0.40886023537E+01  0.37040996406E+03  0.40460341185E+03  0.00000000000E+00 0. -1.
         21    1    1    2  505  502 -0.18971679642E+03  0.10426664419E+02 -0.60795857145E+03  0.63695745758E+03  0.00000000000E+00 0. -1.
         21    1    1    2  506  505 -0.28601662524E+02  0.35834973755E+02 -0.88720068417E+02  0.99867166692E+02  0.00000000000E+00 0. -1.
<scales pt_clust_3="69.76926" pt_clust_4="164.11126" pt_clust_5="43.23502" pt_clust_6="43.23502"></scales>
<clustering>
<clus scale="   43.235">  5  6 -1 -1</clus>
<clus scale="   69.769">  2  3  1 -1</clus>
<clus scale="  164.111">  1  4  2 -1</clus>
<clus scale="  164.111">  1  3  2 -1</clus>
</clustering>
</event>
<event>
 6    0  0.4227619E+002  0.7896529E+02  0.7546771E-02  0.1332014E+00
         21   -1    0    0  504  501  0.00000000000E+00  0.00000000000E+00  0.10508679245E+04  0.10508679245E+04  0.00000000000E+00 0. -1.
         21   -1    0    0  503  502 -0.00000000000E+00 -0.00000000000E+00 -0.40331289169E+03  0.40331289169E+03  0.00000000000E+00 0.  1.
         21    1    1    2  503  505  0.78221809416E+02 -0.78867736748E+02 -0.67515658065E+02  0.12998898204E+03  0.00000000000E+00 0.  1.
         21    1    1    2  504  506 -0.45632980884E+02  0.33209833393E+02  0.77450474407E+03  0.77655834331E+03  0.00000000000E+00 0. -1.
         21    1    1    2  505  501  0.25279926850E+02  0.43624843677E+02  0.23868026394E+03  0.24394767899E+03  0.00000000000E+00 0.  1.
         21    1    1    2  506  502 -0.57868755382E+02  0.20330596792E+01 -0.29811431718E+03  0.30368581180E+03  0.00000000000E+00 0.  1.
<scales pt_clust_3="78.96529" pt_clust_4="14000.00000" pt_clust_5="50.42025" pt_clust_6="57.82299"></scales>
<clustering>
<clus scale="   50.420">  1  5  2 -1</clus>
<clus scale="   57.823">  2  6  1 -1</clus>
<clus scale="   78.965">  2  3  1 -1</clus>
<clus scale="   50.420">  1  3  2 -1</clus>
</clustering>
</event>
<event>
 6    0  0.4227619E+002  0.3288682E+03  0.7546771E-02  0.1071639E+00
         21   -1    0    0  503  501  0.00000000000E+00  0.00000000000E+00  0.13964703653E+03  0.13964703653E+03  0.00000000000E+00 0.  1.
         21   -1    0    0  505  502 -0.00000000000E+00 -0.00000000000E+00 -0.11150216239E+04  0.11150216239E+04  0.00000000000E+00 0.  1.
         21    1    1    2  503  506 -0.28572786407E+03  0.97269759008E+02 -0.21425287423E+03  0.37014336741E+03  0.00000000000E+00 0.  1.
         21    1    1    2  504  502  0.26659719533E+03 -0.14025274668E+03 -0.41233798392E+03  0.51065400272E+03  0.00000000000E+00 0.  1.
         21    1    1    2  505  501  0.35638561712E+02  0.85784313573E+01 -0.32872132117E+03  0.33075882990E+03  0.00000000000E+00 0.  1.
         21    1    1    2  506  504 -0.16507892974E+02  0.34404556314E+02 -0.20062408043E+02  0.43112460404E+02  0.00000000000E+00 0. -1.
<scales pt_clust_3="30.15447" pt_clust_4="317.74539" pt_clust_5="36.65647" pt_clust_6="30.15447"></scales>
<clustering>
<clus scale="   30.154">  3  6 -1 -1</clus>
<clus scale="   36.656">  2  5  1 -1</clus>
<clus scale="  317.745">  2  4  1 -1</clus>
<clus scale="  328.868">  1  3  2 -1</clus>
</clustering>
</event>
<event>
 6    0  0.4227619E+002  0.8935380E+02  0.7546771E-02  0.1304424E+00
         21   -1    0    0  503  501  0.00000000000E+00  0.00000000000E+00  0.19732674990E+03  0.19732674990E+03  0.00000000000E+00 0.  1.
         21   -1    0    0  506  502 -0.00000000000E+00 -0.00000000000E+00 -0.28212824468E+03  0.28212824468E+03  0.00000000000E+00 0.  1.
         21    1    1    2  503  504 -0.23274894774E+02 -0.35497042752E+02 -0.46576701717E+01  0.42701928087E+02  0.00000000000E+00 0.  1.
         21    1    1    2  504  502 -0.62987010337E+02 -0.79822012215E+02 -0.13817217870E+03  0.17155310569E+03  0.00000000000E+00 0.  1.
         21    1    1    2  505  501  0.32044616425E+02  0.11784689400E+03  0.12782203823E+03  0.17678580635E+03  0.00000000000E+00 0.  1.
         21    1    1    2  506  505  0.54217288685E+02 -0.25278390365E+01 -0.69793684143E+02  0.88414154460E+02  0.00000000000E+00 0.  1.
<scales pt_clust_3="42.44715" pt_clust_4="89.35380" pt_clust_5="14000.00000" pt_clust_6="53.18276"></scales>
<clustering>
<clus scale="   42.447">  1  3  2 -1</clus>
<clus scale="   53.183">  2  6  1 -1</clus>
<clus scale="   89.354">  2  4  1 -1</clus>
<clus scale="   42.447">  1  3  2 -1</clus>
</clustering>
</event>
<event>
 6    0  0.4227619E+002  0.1026745E+03  0.7546771E-02  0.1274770E+00
         21   -1    0    0  506  501  0.00000000000E+00  0.00000000000E+00  0.51299844578E+03  0.51299844578E+03  0.00000000000E+00 0.  1.
         21   -1    0    0  504  502 -0.00000000000E+00 -0.00000000000E+00 -0.86353581677E+02  0.86353581677E+02  0.00000000000E+00 0.  1.
         21    1    1    2  503  502  0.37558651146E+02  0.41134303518E+02 -0.13459983807E+02  0.57304924447E+02  0.00000000000E+00 0.  1.
         21    1    1    2  504  505  0.34446953217E+02  0.15858427175E+02  0.29945337510E+02  0.48319825507E+02  0.00000000000E+00 0.  1.
         21    1    1    2  505  501 -0.29379761351E+02  0.90399021654E+02  0.26877036439E+03  0.28508360575E+03  0.00000000000E+00 0.  1.
         21    1    1    2  506  503 -0.42625843012E+02 -0.14739175235E+03  0.14138914600E+03  0.20864367175E+03  0.00000000000E+00 0.  1.
<scales pt_clust_3="72.03953" pt_clust_4="37.92206" pt_clust_5="102.67447" pt_clust_6="14000.00000"></scales>
<clustering>
<clus scale="   37.922">  2  4  1 -1</clus>
<clus scale="   72.040">  2  3  1 -1</clus>
<clus scale="  102.674">  1  5  2 -1</clus>
<clus scale="  102.674">  1  3  2 -1</clus>
</clustering>
</event>
<event>
 6    0  0.4227619E+002  0.7093264E+02  0.7546771E-02  0.1356950E+00
         21   -1    0    0  506  501  0.00000000000E+00  0.00000000000E+00  0.78454088722E+03  0.78454088722E+03  0.00000000000E+00 0.  1.
         21   -1    0    0  505  502 -0.00000000000E+00 -0.00000000000E+00 -0.24527161671E+03  0.24527161671E+03  0.00000000000E+00 0. -1.
         21    1    1    2  503  502 -0.52782967855E+02  0.12495744350E+02 -0.21476304781E+02  0.58338812034E+02  0.00000000000E+00 0.  1.
         21    1    1    2  504  503 -0.48791051439E+02 -0.42193000480E+02  0.40128336563E+03  0.40643468789E+03  0.00000000000E+00 0. -1.
         21    1    1    2  505  501  0.57363940821E+02  0.60131774540E+02 -0.19215119666E+03  0.20935265557E+03  0.00000000000E+00 0. -1.
         21    1    1    2  506  504  0.44210078474E+02 -0.30434518410E+02  0.35161340633E+03  0.35568634843E+03  0.00000000000E+00 0.  1.
<scales pt_clust_3="52.10843" pt_clust_4="70.93264" pt_clust_5="14000.00000" pt_clust_6="53.67300"></scales>
<clustering>
<clus scale="   53.673">  1  6  2 -1</clus>
<clus scale="   52.108">  2  3  1 -1</clus>
<clus scale="   70.933">  1  4  2 -1</clus>
<clus scale="   53.673">  1  3  2 -1</clus>
</clustering>
</event>
<event>
 6    0  0.4227619E+002  0.1014744E+03  0.7546771E-02  0.1277226E+00
         21   -1    0    0  504  501  0.00000000000E+00  0.00000000000E+00  0.67259075446E+03  0.67259075446E+03  0.00000000000E+00 0.  1.
         21   -1    0    0  506  502 -0.00000000000E+00 -0.00000000000E+00 -0.59435225469E+03  0.59435225469E+03  0.00000000000E+00 0.  1.
         21    1    1    2  503  502  0.62429255551E+02 -0.81681988238E+02 -0.52471594743E+03  0.53469260761E+03  0.00000000000E+00 0.  1.
         21    1    1    2  504  505 -0.96989910451E+00 -0.33200071031E+02  0.27062034109E+03  0.27265097549E+03  0.00000000000E+00 0.  1.
         21    1    1    2  505  503 -0.62530402879E+02  0.54850623953E+01  0.34390536611E+03  0.34958695346E+03  0.00000000000E+00 0.  1.
         21    1    1    2  506  501  0.10710464323E+01  0.10939699687E+03 -0.11571260006E+02  0.11001247258E+03  0.00000000000E+00 0. -1.
<scales pt_clust_3="14000.00000" pt_clust_4="33.21424" pt_clust_5="67.49160" pt_clust_6="101.47440"></scales>
<clustering>
<clus scale="   33.214">  1  4  2 -1</clus>
<clus scale="   67.492">  1  5  2 -1</clus>
<clus scale="  101.474">  1  6  2 -1</clus>
<clus scale="   33.214">  1  3  2 -1</clus>
</clustering>
</event>
<event>
 6    0  0.4227619E+002  0.1738724E+03  0.7546771E-02  0.1173869E+00
         21   -1    0    0  503  501  0.00000000000E+00  0.00000000000E+00  0.48786373698E+03  0.48786373698E+03  0.00000000000E+00 0. -1.
         21   -1    0    0  504  502 -0.00000000000E+00 -0.00000000000E+00 -0.13504899277E+03  0.13504899277E+03  0.00000000000E+00 0. -1.
         21    1    1    2  503  506 -0.43170081826E+02  0.14378035585E+02  0.23936717235E+03  0.24365349797E+03  0.00000000000E+00 0. -1.
         21    1    1    2  504  501  0.13645528037E+03 -0.98914902343E+02 -0.32968127517E+02  0.17172972625E+03  0.00000000000E+00 0. -1.
         21    1    1    2  505  502 -0.43568762913E+02  0.44191093842E+02  0.18949060985E+02  0.64885720994E+02  0.00000000000E+00 0. -1.
         21    1    1    2  506  505 -0.49716435634E+02  0.40345772916E+02  0.12746663839E+03  0.14264378454E+03  0.00000000000E+00 0. -1.
<scales pt_clust_3="45.50147" pt_clust_4="156.36267" pt_clust_5="67.42827" pt_clust_6="67.42827"></scales>
<clustering>
<clus scale="   45.501">  1  3  2 -1</clus>
<clus scale="   67.428">  5  6 -1 -1</clus>
<clus scale="  156.363">  2  4  1 -1</clus>
<clus scale="   45.501">  1  3  2 -1</clus>
</clustering>
</event>
<event>
 6    0  0.4227619E+002  0.9408269E+02  0.7546771E-02  0.1293256E+00
         21   -1    0    0  504  501  0.00000000000E+00  0.00000000000E+00  0.98515255550E+03  0.98515255550E+03  0.00000000000E+00 0. -1.
         21   -1    0    0  505  502 -0.00000000000E+00 -0.00000000000E+00 -0.43992617478E+02  0.43992617478E+02  0.00000000000E+00 0. -1.
         21    1    1    2  503  502 -0.81411583022E+02  0.64816019392E+02  0.23862358705E+03  0.26032706067E+03  0.00000000000E+00 0. -1.
         21    1    1    2  504  503  0.31282446407E+02 -0.10068646159E+03  0.36241022871E+03  0.37743546319E+03  0.00000000000E+00 0. -1.
         21    1    1    2  505  506  0.48547570711E+02  0.52468343467E+01 -0.10398733778E+01  0.48841347537E+02  0.00000000000E+00 0. -1.
         21    1    1    2  506  501  0.15815659043E+01  0.30623607848E+02  0.34116599564E+03  0.34254130158E+03  0.00000000000E+00 0. -1.
<scales pt_clust_3="94.08269" pt_clust_4="14000.00000" pt_clust_5="49.02386" pt_clust_6="30.66442"></scales>
<clustering>
<clus scale="   30.664">  1  6  2 -1</clus>
<clus scale="   49.024">  2  5  1 -1</clus>
<clus scale="   94.083">  2  3  1 -1</clus>
<clus scale="   30.664">  1  3  2 -1</clus>
</clustering>
</event>
<event>
 6    0  0.4227619E+002  0.2296535E+03  0.7546771E-02  0.1126884E+00
         21   -1    0    0  505  501  0.00000000000E+00  0.00000000000E+00  0.58178064186E+03  0.58178064186E+03  0.00000000000E+00 0. -1.
         21   -1    0    0  506  502 -0.00000000000E+00 -0.00000000000E+00 -0.14267586893E+03  0.14267586893E+03  0.00000000000E+00 0.  1.
         21    1    1    2  503  504 -0.33388735607E+02  0.81402206042E+02  0.17718320162E+02  0.89750017734E+02  0.00000000000E+00 0. -1.
         21    1    1    2  504  501  0.24122643494E+02 -0.19660909610E+03  0.20228177874E+03  0.28311650713E+03  0.00000000000E+00 0. -1.
         21    1    1    2  505  502 -0.61716791139E+02 -0.16875764761E+02  0.18781216208E+03  0.19841159737E+03  0.00000000000E+00 0. -1.
         21    1    1    2  506  503  0.70982883253E+02  0.13208265482E+03  0.31292511958E+02  0.15317838857E+03  0.00000000000E+00 0.  1.
<scales pt_clust_3="78.45384" pt_clust_4="207.64794" pt_clust_5="63.98245" pt_clust_6="78.45384"></scales>
<clustering>
<clus scale="   63.982">  1  5  2 -1</clus>
<clus scale="   78.454">  3  6 -1 -1</clus>
<clus scale="  207.648">  1  4  2 -1</clus>
<clus scale="   63.982">  1  3  2 -1</clus>
</clustering>
</event>
<event>
 6    0  0.4227619E+002  0.1173974E+03  0.7546771E-02  0.1247453E+00
         21   -1    0    0  506  501  0.00000000000E+00  0.00000000000E+00  0.14406410367E+03  0.14406410367E+03  0.00000000000E+00 0. -1.
         21   -1    0    0  503  502 -0.00000000000E+00 -0.00000000000E+00 -0.25224574407E+04  0.25224574407E+04  0.00000000000E+00 0.  1.
         21    1    1    2  503  505  0.15643623886E+03 -0.67658947078E+02 -0.41566964160E+03  0.44925636434E+03  0.00000000000E+00 0. -1.
         21    1    1    2  504  502 -0.11358190671E+03 -0.29111947282E+01 -0.19911826830E+04  0.19944216710E+04  0.00000000000E+00 0.  1.
         21    1    1    2  505  501  0.59213370318E+02  0.57313368986E+02  0.73566978758E+02  0.11046784986E+03  0.00000000000E+00 0. -1.
         21    1    1    2  506  504 -0.10206770247E+03  0.13256772820E+02 -0.45107991214E+02  0.11237565922E+03  0.00000000000E+00 0. -1.
<scales pt_clust_3="117.39741" pt_clust_4="14000.00000" pt_clust_5="82.40780" pt_clust_6="81.24200"></scales>
<clustering>
<clus scale="   82.408">  1  5  2 -1</clus>
<clus scale="   81.242">  1  6  2 -1</clus>
<clus scale="  117.397">  1  3  2 -1</clus>
<clus scale="   82.408">  1  3  2 -1</clus>
</clustering>
</event>
<event>
 6    0  0.4227619E+002  0.3232735E+03  0.7546771E-02  0.1074153E+00
         21   -1    0    0  504  501  0.00000000000E+00  0.00000000000E+00  0.30493336088E+03  0.30493336088E+03  0.00000000000E+00 0. -1.
         21   -1    0    0  506  502 -0.00000000000E+00 -0.00000000000E+00 -0.24113805275E+04  0.24113805275E+04  0.00000000000E+00 0.  1.
         21    1    1    2  503  505  0.20805357539E+03 -0.93908373533E+02 -0.90999811040E+03  0.93819061698E+03  0.00000000000E+00 0. -1.
         21    1    1    2  504  502  0.47074370540E+02  0.16701430289E+01  0.75827521956E+01  0.47710416791E+02  0.00000000000E+00 0.  1.
         21    1    1    2  505  501 -0.21141791827E+03  0.29660089208E+03  0.12496949105E+03  0.38508050982E+03  0.00000000000E+00 0. -1.
         21    1    1    2  506  503 -0.43710027657E+02 -0.20436266157E+03 -0.13290012994E+04  0.13453323448E+04  0.00000000000E+00 0.  1.
<scales pt_clust_3="323.27354" pt_clust_4="47.10399" pt_clust_5="14000.00000" pt_clust_6="208.65115"></scales>
<clustering>
<clus scale="   47.104">  1  4  2 -1</clus>
<clus scale="  208.651">  2  6  1 -1</clus>
<clus scale="  323.274">  2  3  1 -1</clus>
<clus scale="   47.104">  1  3  2 -1</clus>
</clustering>
</event>
<event>
 6    0  0.4227619E+002  0.1215502E+03  0.7546771E-02  0.1240561E+00
         21   -1    0    0  504  501  0.00000000000E+00  0.00000000000E+00  0.12257750280E+03  0.12257750280E+03  0.00000000000E+00 0.  1.
         21   -1    0    0  503  502 -0.00000000000E+00 -0.00000000000E+00 -0.14700014086E+04  0.14700014086E+04  0.00000000000E+00 0.  1.
         21    1    1    2  503  506 -0.12169555327E+03 -0.82292301959E+02 -0.97413210663E+03  0.98514729447E+03  0.00000000000E+00 0.  1.
         21    1    1    2  504  502  0.12916752311E+02  0.42109496279E+02 -0.45788583607E+03  0.45999944678E+03  0.00000000000E+00 0.  1.
         21    1    1    2  505  501  0.65126017395E+02  0.87003917458E+01  0.56829364581E+02  0.86871581296E+02  0.00000000000E+00 0.  1.
         21    1    1    2  506  505  0.43652783565E+02  0.31482413934E+02  0.27764672274E+02  0.60560588889E+02  0.00000000000E+00 0.  1.
<scales pt_clust_3="116.79833" pt_clust_4="44.04602" pt_clust_5="30.45918" pt_clust_6="30.45918"></scales>
<clustering>
<clus scale="   30.459">  5  6 -1 -1</clus>
<clus scale="   44.046">  2  4  1 -1</clus>
<clus scale="  116.798">  2  3  1 -1</clus>
<clus scale="  121.550">  1  3  2 -1</clus>
</clustering>
</event>
<event>
 6    0  0.4227619E+002  0.1054954E+03  0.7546771E-02  0.1269147E+00
         21   -1    0    0  505  501  0.00000000000E+00  0.00000000000E+00  0.27637784324E+03  0.27637784324E+03  0.00000000000E+00 0. -1.
         21   -1    0    0  503  502 -0.00000000000E+00 -0.00000000000E+00 -0.33030668379E+03  0.33030668379E+03  0.00000000000E+00 0. -1.
         21    1    1    2  503  506 -0.66307753126E+02  0.75755318330E+02 -0.23796861154E+03  0.25838855714E+03  0.00000000000E+00 0. -1.
         21    1    1    2  504  501  0.26725114302E+02 -0.14065553654E+02  0.66600753427E+02  0.73128188075E+02  0.00000000000E+00 0.  1.
         21    1    1    2  505  502 -0.33828553559E+02  0.75631484466E+02  0.79665097530E+02  0.11493920238E+03  0.00000000000E+00 0. -1.
         21    1    1    2  506  504  0.73411192383E+02 -0.13732124914E+03  0.37773920033E+02  0.16022857943E+03  0.00000000000E+00 0. -1.
<scales pt_clust_3="105.49537" pt_clust_4="30.20052" pt_clust_5="72.19821" pt_clust_6="14000.00000"></scales>
<clustering>
<clus scale="   30.201">  1  4  2 -1</clus>
<clus scale="   72.198">  1  5  2 -1</clus>
<clus scale="  105.495">  2  3  1 -1</clus>
<clus scale="   30.201">  1  3  2 -1</clus>
</clustering>
</event>
<event>
 6    0  0.4227619E+002  0.1118199E+03  0.7546771E-02  0.1257236E+00
         21   -1    0    0  506  501  0.00000000000E+00  0.00000000000E+00  0.29495689308E+04  0.29495689308E+04  0.00000000000E+00 0.  1.
         21   -1    0    0  503  502 -0.00000000000E+00 -0.00000000000E+00 -0.10720253802E+03  0.10720253802E+03  0.00000000000E+00 0.  1.
         21    1    1    2  503  505 -0.30508819967E+01 -0.63348363863E+02  0.81272218502E+02  0.10308975015E+03  0.00000000000E+00 0.  1.
         21    1    1    2  504  502 -0.46453543073E+02  0.34235603524E+02 -0.28382441291E+02  0.64308406809E+02  0.00000000000E+00 0.  1.
         21    1    1    2  505  501 -0.10675873790E+03  0.30075223625E+02  0.27132332911E+04  0.27154993720E+04  0.00000000000E+00 0.  1.
         21    1    1    2  506  504  0.15626316297E+03 -0.96246328667E+00  0.76243324403E+02  0.17387393984E+03  0.00000000000E+00 0.  1.
<scales pt_clust_3="58.33195" pt_clust_4="57.70622" pt_clust_5="111.81992" pt_clust_6="14000.00000"></scales>
<clustering>
<clus scale="   57.706">  2  4  1 -1</clus>
<clus scale="   58.332">  2  3  1 -1</clus>
<clus scale="  111.820">  1  5  2 -1</clus>
<clus scale="  111.820">  1  3  2 -1</clus>
</clustering>
</event>
<event>
 6    0  0.4227619E+002  0.6158855E+02  0.7546771E-02  0.1391284E+00
         21   -1    0    0  506  501  0.00000000000E+00  0.00000000000E+00  0.25226621820E+03  0.25226621820E+03  0.00000000000E+00 0.  1.
         21   -1    0    0  503  502 -0.00000000000E+00 -0.00000000000E+00 -0.51444232292E+03  0.51444232292E+03  0.00000000000E+00 0. -1.
         21    1    1    2  503  505 -0.57970293173E+02 -0.23522401801E+02 -0.27073653801E+03  0.27787070966E+03  0.00000000000E+00 0.  1.
         21    1    1    2  504  502  0.35880481941E+02  0.57644075274E+02 -0.20304432391E+03  0.21409634716E+03  0.00000000000E+00 0. -1.
         21    1    1    2  505  501 -0.35488182693E+02 -0.51949005430E+02  0.20460804795E+03  0.21406205540E+03  0.00000000000E+00 0.  1.
         21    1    1    2  506  504  0.57577993925E+02  0.17827331957E+02  0.69967092422E+01  0.60679428882E+02  0.00000000000E+00 0. -1.
<scales pt_clust_3="14000.00000" pt_clust_4="61.58855" pt_clust_5="40.04116" pt_clust_6="60.27470"></scales>
<clustering>
<clus scale="   60.275">  1  6  2 -1</clus>
<clus scale="   40.041">  1  5  2 -1</clus>
<clus scale="   61.589">  1  4  2 -1</clus>
<clus scale="   60.275">  1  3  2 -1</clus>
</clustering>
</event>
<event>
 6    0  0.4227619E+002  0.1505756E+03  0.7546771E-02  0.1199768E+00
         21   -1    0    0  505  501  0.00000000000E+00  0.00000000000E+00  0.21660876519E+04  0.21660876519E+04  0.00000000000E+00 0.  1.
         21   -1    0    0  506  502 -0.00000000000E+00 -0.00000000000E+00 -0.25549245217E+02  0.25549245217E+02  0.00000000000E+00 0.  1.
         21    1    1    2  503  501  0.24314103901E+02 -0.86435502764E+02  0.11199847328E+04  0.11235782453E+04  0.00000000000E+00 0.  1.
         21    1    1    2  504  503  0.88934213594E+02  0.46496472399E+02  0.31410696093E+03  0.32974899424E+03  0.00000000000E+00 0.  1.
         21    1    1    2  505  502 -0.15737997512E+03  0.43204757318E+02  0.62095614161E+03  0.64204488739E+03  0.00000000000E+00 0.  1.
         21    1    1    2  506  504  0.44131657626E+02 -0.32657269520E+01  0.85490571402E+02  0.96264770171E+02  0.00000000000E+00 0.  1.
<scales pt_clust_3="89.79015" pt_clust_4="31.38705" pt_clust_5="142.96462" pt_clust_6="31.38705"></scales>
<clustering>
<clus scale="   31.387">  4  6 -1 -1</clus>
<clus scale="   89.790">  1  3  2 -1</clus>
<clus scale="  142.965">  1  5  2 -1</clus>
<clus scale="   89.790">  1  3  2 -1</clus>
</clustering>
</event>
<event>
 6    0  0.4227619E+002  0.1902831E+03  0.7546771E-02  0.1158206E+00
         21   -1    0    0  504  501  0.00000000000E+00  0.00000000000E+00  0.30475236863E+03  0.30475236863E+03  0.00000000000E+00 0.  1.
         21   -1    0    0  503  502 -0.00000000000E+00 -0.00000000000E+00 -0.32668762562E+03  0.32668762562E+03  0.00000000000E+00 0.  1.
         21    1    1    2  503  501  0.85697475004E+02  0.16933009011E+03  0.17780751781E+03  0.26006201189E+03  0.00000000000E+00 0.  1.
         21    1    1    2  504  505  0.28908303999E+02 -0.64682368946E+02 -0.57598446878E+02  0.91307611815E+02  0.00000000000E+00 0.  1.
         21    1    1    2  505  506  0.59689247856E+00 -0.90431075501E+02  0.74317880433E+01  0.90737903714E+02  0.00000000000E+00 0.  1.
         21    1    1    2  506  502 -0.11520267148E+03 -0.14216645665E+02 -0.14957611597E+03  0.18933246684E+03  0.00000000000E+00 0.  1.
<scales pt_clust_3="174.68408" pt_clust_4="66.78476" pt_clust_5="66.78476" pt_clust_6="116.07656"></scales>
<clustering>
<clus scale="   66.785">  4  5 -1 -1</clus>
<clus scale="  116.077">  2  6  1 -1</clus>
<clus scale="  174.684">  1  3  2 -1</clus>
<clus scale="  174.684">  1  3  2 -1</clus>
</clustering>
</event>
<event>
 6    0  0.4227619E+002  0.9673954E+02  0.7546771E-02  0.1287306E+00
         21   -1    0    0  504  501  0.00000000000E+00  0.00000000000E+00  0.10157510381E+04  0.10157510381E+04  0.00000000000E+00 0.  1.
         21   -1    0    0  505  502 -0.00000000000E+00 -0.00000000000E+00 -0.21149554852E+03  0.21149554852E+03  0.00000000000E+00 0. -1.
         21    1    1    2  503  506  0.92587236619E+02  0.33958139624E+02 -0.12564668198E+02  0.99415403829E+02  0.00000000000E+00 0.  1.
         21    1    1    2  504  502  0.85789282829E+00  0.33490146194E+02  0.93817691394E+03  0.93877486530E+03  0.00000000000E+00 0.  1.
         21    1    1    2  505  503 -0.61831853455E+02 -0.79195062999E+02 -0.11827561027E+03  0.15519070877E+03  0.00000000000E+00 0. -1.
         21    1    1    2  506  501 -0.31613275992E+02  0.11746777180E+02 -0.30811459057E+01  0.33865608708E+02  0.00000000000E+00 0.  1.
<scales pt_clust_3="96.73954" pt_clust_4="33.50113" pt_clust_5="14000.00000" pt_clust_6="36.43943"></scales>
<clustering>
<clus scale="   33.501">  1  4  2 -1</clus>
<clus scale="   36.439">  1  6  2 -1</clus>
<clus scale="   96.740">  1  3  2 -1</clus>
<clus scale="   33.501">  1  3  2 -1</clus>
</clustering>
</event>
<event>
 6    0  0.4227619E+002  0.1927185E+03  0.7546771E-02  0.1156032E+00
         21   -1    0    0  504  501  0.00000000000E+00  0.00000000000E+00  0.72469473620E+03  0.72469473620E+03  0.00000000000E+00 0.  1.
         21   -1    0    0  501  502 -0.00000000000E+00 -0.00000000000E+00 -0.36371921308E+03  0.36371921308E+03  0.00000000000E+00 0.  1.
         21    1    1    2  503  505 -0.20805797520E+03  0.64852702032E+01 -0.11501273240E+03  0.23781948698E+03  0.00000000000E+00 0.  1.
         21    1    1    2  504  506  0.34513088366E+02  0.33204277925E+01  0.37101335000E+02  0.50780779515E+02  0.00000000000E+00 0.  1.
         21    1    1    2  505  502  0.21649470171E+02 -0.66946280997E+02 -0.16241292817E+03  0.17699848399E+03  0.00000000000E+00 0. -1.
         21    1    1    2  506  503  0.15189541666E+03  0.57140583002E+02  0.60129984868E+03  0.62281519880E+03  0.00000000000E+00 0.  1.
<scales pt_clust_3="14000.00000" pt_clust_4="34.67245" pt_clust_5="70.44067" pt_clust_6="192.71855"></scales>
<clustering>
<clus scale="   34.672">  1  4  2 -1</clus>
<clus scale="   70.441">  2  5  1 -1</clus>
<clus scale="  192.719">  1  6  2 -1</clus>
<clus scale="   34.672">  1  3  2 -1</clus>
</clustering>
</event>
<event>
 6    0  0.4227619E+002  0.1506392E+03  0.7546771E-02  0.1199690E+00
         21   -1    0    0  506  501  0.00000000000E+00  0.00000000000E+00  0.12094999935E+04  0.12094999935E+04  0.00000000000E+00 0. -1.
         21   -1    0    0  503  502 -0.00000000000E+00 -0.00000000000E+00 -0.13301196185E+04  0.13301196185E+04  0.00000000000E+00 0.  1.
         21    1    1    2  503  504 -0.14889403769E+03 -0.11448042764E+03 -0.39088825529E+02  0.19184144248E+03  0.00000000000E+00 0. -1.
         21    1    1    2  504  501  0.25237743521E+01  0.56315753276E+02  0.10875256338E+04  0.10889856922E+04  0.00000000000E+00 0. -1.
         21    1    1    2  505  502  0.37895236897E+02  0.27436562917E+01 -0.11303352885E+04  0.11309736695E+04  0.00000000000E+00 0.  1.
         21    1    1    2  506  505  0.10847502644E+03  0.55421018072E+02 -0.38721144801E+02  0.12781880792E+03  0.00000000000E+00 0. -1.
<scales pt_clust_3="150.63917" pt_clust_4="56.38869" pt_clust_5="37.99443" pt_clust_6="14000.00000"></scales>
<clustering>
<clus scale="   37.994">  2  5  1 -1</clus>
<clus scale="   56.389">  1  4  2 -1</clus>
<clus scale="  150.639">  1  3  2 -1</clus>
<clus scale="   56.389">  1  3  2 -1</clus>
</clustering>
</event>
<event>
 6    0  0.4227619E+002  0.1439692E+03  0.7546771E-02  0.1208086E+00
         21   -1    0    0  505  501  0.00000000000E+00  0.00000000000E+00  0.98547657530E+02  0.98547657530E+02  0.00000000000E+00 0.  1.
         21   -1    0    0  504  502 -0.00000000000E+00 -0.00000000000E+00 -0.12270765865E+04  0.12270765865E+04  0.00000000000E+00 0.  1.
         21    1    1    2  503  502  0.21169418903E+02 -0.47929998529E+02 -0.19484144891E+03  0.20176377095E+03  0.00000000000E+00 0.  1.
         21    1    1    2  504  506  0.11906743081E+03  0.81271988251E+02 -0.90168394892E+03  0.91313533110E+03  0.00000000000E+00 0.  1.
         21    1    1    2  505  503 -0.13792566052E+03 -0.68740081952E+02  0.11567622872E+02  0.15453962791E+03  0.00000000000E+00 0.  1.
         21    1    1    2  506  501 -0.23111891986E+01  0.35398092230E+02 -0.43571153990E+02  0.56185514050E+02  0.00000000000E+00 0.  1.
<scales pt_clust_3="51.14883" pt_clust_4="14000.00000" pt_clust_5="143.96921" pt_clust_6="35.47346"></scales>
<clustering>
<clus scale="   35.473">  1  6  2 -1</clus>
<clus scale="   51.149">  2  3  1 -1</clus>
<clus scale="  143.969">  1  5  2 -1</clus>
<clus scale="   35.473">  1  3  2 -1</clus>
</clustering>
</event>
<event>
 6    0  0.4227619E+002  0.2142119E+03  0.7546771E-02  0.1138273E+00
         21   -1    0    0  506  501  0.00000000000E+00  0.00000000000E+00  0.53739378460E+03  0.53739378460E+03  0.00000000000E+00 0.  1.
         21   -1    0    0  503  502 -0.00000000000E+00 -0.00000000000E+00 -0.70728092587E+03  0.70728092587E+03  0.00000000000E+00 0. -1.
         21    1    1    2  503  504 -0.20894374976E+02 -0.32612490024E+03 -0.49175889830E+02  0.33047283338E+03  0.00000000000E+00 0. -1.
         21    1    1    2  504  501  0.12099730998E+02  0.20110757247E+03  0.29304723447E+03  0.35562246951E+03  0.00000000000E+00 0.  1.
         21    1    1    2  505  502 -0.25029658501E+02  0.13963032886E+03 -0.47022402533E+03  0.49115552174E+03  0.00000000000E+00 0. -1.
         21    1    1    2  506  505  0.33824302479E+02 -0.14613001092E+02  0.56465539414E+02  0.67423885830E+02  0.00000000000E+00 0.  1.
<scales pt_clust_3="14000.00000" pt_clust_4="214.21185" pt_clust_5="141.40958" pt_clust_6="36.84594"></scales>
<clustering>
<clus scale="   36.846">  1  6  2 -1</clus>
<clus scale="  141.410">  2  5  1 -1</clus>
<clus scale="  214.212">  1  4  2 -1</clus>
<clus scale="   36.846">  1  3  2 -1</clus>
</clustering>
</event>
<event>
 6    0  0.4227619E+002  0.1419094E+03  0.7546771E-02  0.1210783E+00
         21   -1    0    0  505  501  0.00000000000E+00  0.00000000000E+00  0.19015307214E+03  0.19015307214E+03  0.00000000000E+00 0.  1.
         21   -1    0    0  504  502 -0.00000000000E+00 -0.00000000000E+00 -0.22252288339E+03  0.22252288339E+03  0.00000000000E+00 0. -1.
         21    1    1    2  503  501  0.82137808176E+02 -0.31214834478E+02  0.67347089397E+02  0.11070960154E+03  0.00000000000E+00 0.  1.
         21    1    1    2  504  503  0.47564134259E+02 -0.84436127385E+02 -0.11231818794E+02  0.97560033974E+02  0.00000000000E+00 0.  1.
         21    1    1    2  505  506 -0.31611180483E+02  0.25715426145E+02  0.60093026229E+01  0.41190552210E+02  0.00000000000E+00 0. -1.
         21    1    1    2  506  502 -0.98090761952E+02  0.89935535718E+02 -0.94494384476E+02  0.16321576781E+03  0.00000000000E+00 0. -1.
<scales pt_clust_3="87.86914" pt_clust_4="127.99881" pt_clust_5="33.90695" pt_clust_6="33.90695"></scales>
<clustering>
<clus scale="   33.907">  5  6 -1 -1</clus>
<clus scale="   87.869">  1  3  2 -1</clus>
<clus scale="  127.999">  2  4  1 -1</clus>
<clus scale="   87.869">  1  3  2 -1</clus>
</clustering>
</event>
<event>
 6    0  0.4227619E+002  0.9166977E+02  0.7546771E-02  0.1298858E+00
         21   -1    0    0  506  501  0.00000000000E+00  0.00000000000E+00  0.60936569607E+03  0.60936569607E+03  0.00000000000E+00 0. -1.
         21   -1    0    0  505  502 -0.00000000000E+00 -0.00000000000E+00 -0.30447420758E+03  0.30447420758E+03  0.00000000000E+00 0. -1.
         21    1    1    2  503  501  0.89453639397E+02  0.34217832533E+02  0.52721730640E+03  0.53584596839E+03  0.00000000000E+00 0. -1.
         21    1    1    2  504  502 -0.77146321441E+02  0.36369189338E+02 -0.22604895476E+03  0.24160381369E+03  0.00000000000E+00 0. -1.
         21    1    1    2  505  503  0.49248787377E+02 -0.44889295977E+02 -0.12360556334E+02  0.67773706586E+02  0.00000000000E+00 0. -1.
         21    1    1    2  506  504 -0.61556105333E+02 -0.25697725894E+02  0.16083693178E+02  0.68616414990E+02  0.00000000000E+00 0.  1.
<scales pt_clust_3="91.66977" pt_clust_4="33.75801" pt_clust_5="66.63702" pt_clust_6="14000.00000"></scales>
<clustering>
<clus scale="   66.637">  2  5  1 -1</clus>
<clus scale="   33.758">  2  4  1 -1</clus>
<clus scale="   91.670">  1  3  2 -1</clus>
<clus scale="   91.670">  1  3  2 -1</clus>
</clustering>
</event>
<event>
 6    0  0.4227619E+002  0.1921577E+03  0.7546771E-02  0.1156530E+00
         21   -1    0    0  504  501  0.00000000000E+00  0.00000000000E+00  0.84889990873E+02  0.84889990873E+02  0.00000000000E+00 0. -1.
         21   -1    0    0  506  502 -0.00000000000E+00 -0.00000000000E+00 -0.10820082875E+04  0.10820082875E+04  0.00000000000E+00 0. -1.
         21    1    1    2  503  501 -0.41754271790E+02 -0.94808274950E+01 -0.45741133268E+02  0.62654262228E+02  0.00000000000E+00 0. -1.
         21    1    1    2  504  502 -0.61894680510E+02  0.20869961550E+03 -0.28253299665E+03  0.35666703686E+03  0.00000000000E+00 0. -1.
         21    1    1    2  505  503  0.13836541288E+03 -0.12714975933E+03 -0.20995655958E+03  0.28176906446E+03  0.00000000000E+00 0. -1.
         21    1    1    2  506  505 -0.34716460583E+02 -0.72069028679E+02 -0.45888760715E+03  0.46580791483E+03  0.00000000000E+00 0. -1.
<scales pt_clust_3="42.81711" pt_clust_4="14000.00000" pt_clust_5="192.15768" pt_clust_6="81.21602"></scales>
<clustering>
<clus scale="   42.817">  1  3  2 -1</clus>
<clus scale="   81.216">  2  6  1 -1</clus>
<clus scale="  192.158">  1  5  2 -1</clus>
<clus scale="   42.817">  1  3  2 -1</clus>
</clustering>
</event>
<event>
 6    0  0.4227619E+002  0.9527935E+02  0.7546771E-02  0.1290548E+00
         21   -1    0    0  503  501  0.00000000000E+00  0.00000000000E+00  0.32772446173E+03  0.32772446173E+03  0.00000000000E+00 0.  1.
         21   -1    0    0  505  502 -0.00000000000E+00 -0.00000000000E+00 -0.76370632295E+03  0.76370632295E+03  0.00000000000E+00 0. -1.
         21    1    1    2  503  506  0.53850600456E+02 -0.16635906514E+02 -0.31954671152E+03  0.32447918485E+03  0.00000000000E+00 0. -1.
         21    1    1    2  504  501 -0.87036767517E+02 -0.42246920585E+02  0.30500610270E+03  0.31998269310E+03  0.00000000000E+00 0.  1.
         21    1    1    2  505  504  0.23309575987E+02  0.88412815567E+02 -0.16496742886E+03  0.18861181001E+03  0.00000000000E+00 0. -1.
         21    1    1    2  506  502  0.98765910739E+01 -0.29529988469E+02 -0.25647382353E+03  0.25835709673E+03  0.00000000000E+00 0. -1.
<scales pt_clust_3="88.87336" pt_clust_4="14000.00000" pt_clust_5="95.27935" pt_clust_6="30.70052"></scales>
<clustering>
<clus scale="   30.701">  3  6 -1 -1</clus>
<clus scale="   88.873">  2  3  1 -1</clus>
<clus scale="   95.279">  2  5  1 -1</clus>
<clus scale="   95.279">  1  3  2 -1</clus>
</clustering>
</event>
<event>
 6    0  0.4227619E+002  0.1234388E+03  0.7546771E-02  0.1237529E+00
         21   -1    0    0  506  501  0.00000000000E+00  0.00000000000E+00  0.22949459500E+03  0.22949459500E+03  0.00000000000E+00 0. -1.
         21   -1    0    0  505  502 -0.00000000000E+00 -0.00000000000E+00 -0.41206184436E+03  0.41206184436E+03  0.00000000000E+00 0. -1.
         21    1    1    2  503  504 -0.71978672639E+02  0.40733954879E+02 -0.52161922291E+02  0.97780624522E+02  0.00000000000E+00 0.  1.
         21    1    1    2  504  501  0.35773675454E+02  0.10919017314E+03  0.10326434174E+03  0.15448551402E+03  0.00000000000E+00 0. -1.
         21    1    1    2  505  503 -0.25241000693E+02  0.34117228661E+02 -0.18424053751E+03  0.18906525083E+03  0.00000000000E+00 0. -1.
         21    1    1    2  506  502  0.61445997877E+02 -0.18404135668E+03 -0.49429131296E+02  0.20022504999E+03  0.00000000000E+00 0. -1.
<scales pt_clust_3="95.77279" pt_clust_4="123.43884" pt_clust_5="42.43929" pt_clust_6="14000.00000"></scales>
<clustering>
<clus scale="   42.439">  2  5  1 -1</clus>
<clus scale="   95.773">  2  3  1 -1</clus>
<clus scale="  123.439">  1  4  2 -1</clus>
<clus scale="  123.439">  1  3  2 -1</clus>
</clustering>
</event>
<event>
 6    0  0.4227619E+002  0.1083454E+03  0.7546771E-02  0.1263665E+00
         21   -1    0    0  504  501  0.00000000000E+00  0.00000000000E+00  0.50755864936E+03  0.50755864936E+03  0.00000000000E+00 0.  1.
         21   -1    0    0  501  502 -0.00000000000E+00 -0.00000000000E+00 -0.57199509849E+03  0.57199509849E+03  0.00000000000E+00 0. -1.
         21    1    1    2  503  506  0.81650742355E+02  0.37421242281E+02  0.19043814579E+03  0.21055612190E+03  0.00000000000E+00 0.  1.
         21    1    1    2  504  503 -0.23681897949E+02  0.60417062381E+02  0.29361319152E+03  0.30069878608E+03  0.00000000000E+00 0.  1.
         21    1    1    2  505  502 -0.26506538967E+02 -0.20322176142E+02 -0.36632573165E+03  0.36784525159E+03  0.00000000000E+00 0. -1.
         21    1    1    2  506  505 -0.31462305439E+02 -0.77516128519E+02 -0.18216205479E+03  0.20045358827E+03  0.00000000000E+00 0. -1.
<scales pt_clust_3="108.34543" pt_clust_4="64.73513" pt_clust_5="33.40041" pt_clust_6="14000.00000"></scales>
<clustering>
<clus scale="   33.400">  2  5  1 -1</clus>
<clus scale="   64.735">  1  4  2 -1</clus>
<clus scale="  108.345">  1  3  2 -1</clus>
<clus scale="   64.735">  1  3  2 -1</clus>
</clustering>
</event>
<event>
 6    0  0.4227619E+002  0.2208290E+03  0.7546771E-02  0.1133267E+00
         21   -1    0    0  505  501  0.00000000000E+00  0.00000000000E+00  0.33248171531E+03  0.33248171531E+03  0.00000000000E+00 0.  1.
         21   -1    0    0  506  502 -0.00000000000E+00 -0.00000000000E+00 -0.49907068416E+03  0.49907068416E+03  0.00000000000E+00 0.  1.
         21    1    1    2  503  504  0.15208173018E+03  0.90263558334E+02  0.75038157306E+02  0.19211217471E+03  0.00000000000E+00 0.  1.
         21    1    1    2  504  502  0.31638487147E+02 -0.36473219805E+02 -0.30206519685E+02  0.56953695783E+02  0.00000000000E+00 0.  1.
         21    1    1    2  505  503  0.27030630796E+02  0.63471021178E+02  0.14011219667E+03  0.15617507223E+03  0.00000000000E+00 0.  1.
         21    1    1    2  506  501 -0.21075084813E+03 -0.11726135971E+03 -0.35153280314E+03  0.42631145674E+03  0.00000000000E+00 0.  1.
<scales pt_clust_3="220.82898" pt_clust_4="48.28343" pt_clust_5="68.61830" pt_clust_6="14000.00000"></scales>
<clustering>
<clus scale="   48.283">  2  4  1 -1</clus>
<clus scale="   68.618">  1  5  2 -1</clus>
<clus scale="  220.829">  1  3  2 -1</clus>
<clus scale="   68.618">  1  3  2 -1</clus>
</clustering>
</event>
<event>
 6    0  0.4227619E+002  0.1710559E+03  0.7546771E-02  0.1176751E+00
         21   -1    0    0  503  501  0.00000000000E+00  0.00000000000E+00  0.43470493050E+03  0.43470493050E+03  0.00000000000E+00 0. -1.
         21   -1    0    0  506  502 -0.00000000000E+00 -0.00000000000E+00 -0.44866635119E+03  0.44866635119E+03  0.00000000000E+00 0. -1.
         21    1    1    2  503  505  0.69686592152E+00 -0.53954638572E+02  0.48058308943E+02  0.72257800299E+02  0.00000000000E+00 0. -1.
         21    1    1    2  504  501 -0.37764860558E+02  0.70015878627E+02  0.79197802915E+02  0.11225283934E+03  0.00000000000E+00 0.  1.
         21    1    1    2  505  502  0.16642269312E+03 -0.49930315398E+02 -0.38411789520E+03  0.42158760251E+03  0.00000000000E+00 0. -1.
         21    1    1    2  506  504 -0.12935469848E+03  0.33869075343E+02  0.24290036264E+03  0.27727303954E+03  0.00000000000E+00 0. -1.
<scales pt_clust_3="53.95914" pt_clust_4="67.63259" pt_clust_5="14000.00000" pt_clust_6="171.05592"></scales>
<clustering>
<clus scale="   53.959">  1  3  2 -1</clus>
<clus scale="   67.633">  1  4  2 -1</clus>
<clus scale="  171.056">  1  6  2 -1</clus>
<clus scale="   53.959">  1  3  2 -1</clus>
</clustering>
</event>
<event>
 6    0  0.4227619E+002  0.6604464E+02  0.7546771E-02  0.1374085E+00
         21   -1    0    0  503  501  0.00000000000E+00  0.00000000000E+00  0.52967289253E+02  0.52967289253E+02  0.00000000000E+00 0.  1.
         21   -1    0    0  504  502 -0.00000000000E+00 -0.00000000000E+00 -0.82251791020E+03  0.82251791020E+03  0.00000000000E+00 0. -1.
         21    1    1    2  503  502 -0.37900649315E+02 -0.75865914418E+02 -0.22686973613E+03  0.24220233971E+03  0.00000000000E+00 0. -1.
         21    1    1    2  504  506 -0.24758591148E+02 -0.31105694328E+02 -0.39983172455E+03  0.40180338477E+03  0.00000000000E+00 0. -1.
         21    1    1    2  505  501  0.38728176216E+01  0.64342982978E+02  0.71232723567E+01  0.64851824831E+02  0.00000000000E+00 0.  1.
         21    1    1    2  506  505  0.58786422841E+02  0.42628625768E+02 -0.14997243262E+03  0.16662765014E+03  0.00000000000E+00 0.  1.
<scales pt_clust_3="66.04464" pt_clust_4="39.75616" pt_clust_5="14000.00000" pt_clust_6="58.37402"></scales>
<clustering>
<clus scale="   39.756">  2  4  1 -1</clus>
<clus scale="   58.374">  2  6  1 -1</clus>
<clus scale="   66.045">  2  3  1 -1</clus>
<clus scale="   66.045">  1  3  2 -1</clus>
</clustering>
</event>
<event>
 6    0  0.4227619E+002  0.9901832E+02  0.7546771E-02  0.1282374E+00
         21   -1    0    0  503  501  0.00000000000E+00  0.00000000000E+00  0.23234416146E+03  0.23234416146E+03  0.00000000000E+00 0.  1.
         21   -1    0    0  501  502 -0.00000000000E+00 -0.00000000000E+00 -0.21108174021E+03  0.21108174021E+03  0.00000000000E+00 0. -1.
         21    1    1    2  503  505 -0.60513572135E+02 -0.34170335195E+02  0.70825356372E+02  0.99225678759E+02  0.00000000000E+00 0.  1.
         21    1    1    2  504  502 -0.57363753168E+00  0.56353052073E+02 -0.99305954271E+02  0.11418260853E+03  0.00000000000E+00 0. -1.
         21    1    1    2  505  506  0.72638910315E+01 -0.84764919450E+02  0.10161576206E+03  0.13252780381E+03  0.00000000000E+00 0.  1.
         21    1    1    2  506  504  0.53823318635E+02  0.62582202572E+02 -0.51872742914E+02  0.97489810571E+02  0.00000000000E+00 0. -1.
<scales pt_clust_3="66.13349" pt_clust_4="56.35597" pt_clust_5="99.01832" pt_clust_6="14000.00000"></scales>
<clustering>
<clus scale="   56.356">  2  4  1 -1</clus>
<clus scale="   66.133">  1  3  2 -1</clus>
<clus scale="   99.018">  1  5  2 -1</clus>
<clus scale="   66.133">  1  3  2 -1</clus>
</clustering>
</event>
<event>
 6    0  0.4227619E+002  0.9495589E+02  0.7546771E-02  0.1291275E+00
         21   -1    0    0  504  501  0.00000000000E+00  0.00000000000E+00  0.34496277061E+02  0.34496277061E+02  0.00000000000E+00 0.  1.
         21   -1    0    0  505  502 -0.00000000000E+00 -0.00000000000E+00 -0.13175201833E+04  0.13175201833E+04  0.00000000000E+00 0.  1.
         21    1    1    2  503  501  0.14585194143E+02  0.87742510785E+02 -0.29988444658E+03  0.31279731039E+03  0.00000000000E+00 0.  1.
         21    1    1    2  504  506  0.22470896398E+02 -0.96768611074E+02 -0.10140071011E+03  0.14195495513E+03  0.00000000000E+00 0.  1.
         21    1    1    2  505  503 -0.54292318579E+02 -0.55271152445E+02 -0.24266568626E+03  0.25473356952E+03  0.00000000000E+00 0.  1.
         21    1    1    2  506  502  0.17236228037E+02  0.64297252733E+02 -0.63907306324E+03  0.64253062529E+03  0.00000000000E+00 0.  1.
<scales pt_clust_3="14000.00000" pt_clust_4="94.95589" pt_clust_5="57.45549" pt_clust_6="66.56744"></scales>
<clustering>
<clus scale="   66.567">  2  6  1 -1</clus>
<clus scale="   57.455">  2  5  1 -1</clus>
<clus scale="   94.956">  1  4  2 -1</clus>
<clus scale="   94.956">  1  3  2 -1</clus>
</clustering>
</event>
<event>
 6    0  0.4227619E+002  0.7216210E+02  0.7546771E-02  0.1352891E+00
         21   -1    0    0  503  501  0.00000000000E+00  0.00000000000E+00  0.37866143912E+03  0.37866143912E+03  0.00000000000E+00 0.  1.
         21   -1    0    0  505  502 -0.00000000000E+00 -0.00000000000E+00 -0.49333957954E+03  0.49333957954E+03  0.00000000000E+00 0.  1.
         21    1    1    2  503  504 -0.55805841364E+02 -0.23695521955E+02  0.44250599971E+02  0.75059211885E+02  0.00000000000E+00 0.  1.
         21    1    1    2  504  502 -0.54902879822E+02 -0.63316893419E+02 -0.32873020058E+03  0.33924460199E+03  0.00000000000E+00 0.  1.
         21    1    1    2  505  506 -0.15699388272E+02  0.69026471166E+02 -0.12095162248E+03  0.14014428099E+03  0.00000000000E+00 0.  1.
         21    1    1    2  506  501  0.12640810946E+03  0.17985944208E+02  0.29075308267E+03  0.31755292379E+03  0.00000000000E+00 0.  1.
<scales pt_clust_3="60.62813" pt_clust_4="72.16210" pt_clust_5="70.48941" pt_clust_6="14000.00000"></scales>
<clustering>
<clus scale="   60.628">  1  3  2 -1</clus>
<clus scale="   70.489">  2  5  1 -1</clus>
<clus scale="   72.162">  2  4  1 -1</clus>
<clus scale="   60.628">  1  3  2 -1</clus>
</clustering>
</event>
<event>
 6    0  0.9138987E+002  0.1128238E+03  0.7546771E-02  0.1255428E+00
         21   -1    0    0  504  501  0.00000000000E+00  0.00000000000E+00  0.69480961625E+03  0.69480961625E+03  0.00000000000E+00 0.  1.
         21   -1    0    0  506  502 -0.00000000000E+00 -0.00000000000E+00 -0.78512198110E+03  0.78512198110E+03  0.00000000000E+00 0. -1.
         21    1    1    2  503  502  0.91249068254E+02 -0.60907798851E+02  0.34770144268E+03  0.36459902038E+03  0.00000000000E+00 0.  1.
         21    1    1    2  504  503  0.19178477760E+02  0.30609640844E+02  0.33214359230E+03  0.33410197549E+03  0.00000000000E+00 0.  1.
         21    1    1    2  505  501 -0.58935642636E+02  0.41312753160E+02 -0.31944551062E+03  0.32745318414E+03  0.00000000000E+00 0. -1.
         21    1    1    2  506  505 -0.51491903378E+02 -0.11014595152E+02 -0.45071188921E+03  0.45377741735E+03  0.00000000000E+00 0. -1.
<scales pt_clust_3="112.82379" pt_clust_4="36.12152" pt_clust_5="14000.00000" pt_clust_6="52.55029"></scales>
<clustering>
<clus scale="   36.122">  1  4  2 -1</clus>
<clus scale="   52.550">  2  6  1 -1</clus>
<clus scale="  112.824">  1  3  2 -1</clus>
<clus scale="   36.122">  1  3  2 -1</clus>
</clustering>
</event>
<event>
 6    0  0.4227619E+002  0.1165070E+03  0.7546771E-02  0.1248973E+00
         21   -1    0    0  504  501  0.00000000000E+00  0.00000000000E+00  0.56058349256E+02  0.56058349256E+02  0.00000000000E+00 0.  1.
         21   -1    0    0  503  502 -0.00000000000E+00 -0.00000000000E+00 -0.16764532791E+04  0.16764532791E+04  0.00000000000E+00 0.  1.
         21    1    1    2  503  506 -0.80743214320E+02 -0.27541808582E+02 -0.52802829413E+03  0.53487559047E+03  0.00000000000E+00 0.  1.
         21    1    1    2  504  505  0.44144195623E+01 -0.61957995717E+02 -0.13221337366E+03  0.14607757017E+03  0.00000000000E+00 0.  1.
         21    1    1    2  505  502  0.16269073330E+03  0.10186003502E+03 -0.94339165458E+03  0.96272091250E+03  0.00000000000E+00 0.  1.
         21    1    1    2  506  501 -0.86361938546E+02 -0.12360230718E+02 -0.16761607488E+02  0.88837555225E+02  0.00000000000E+00 0.  1.
<scales pt_clust_3="86.51544" pt_clust_4="62.11506" pt_clust_5="14000.00000" pt_clust_6="116.50695"></scales>
<clustering>
<clus scale="   62.115">  1  4  2 -1</clus>
<clus scale="   86.515">  2  3  1 -1</clus>
<clus scale="  116.507">  1  6  2 -1</clus>
<clus scale="   62.115">  1  3  2 -1</clus>
</clustering>
</event>
<event>
 6    0  0.4227619E+002  0.9141437E+02  0.7546771E-02  0.1299462E+00
         21   -1    0    0  505  501  0.00000000000E+00  0.00000000000E+00  0.16267774330E+03  0.16267774330E+03  0.00000000000E+00 0.  1.
         21   -1    0    0  503  502 -0.00000000000E+00 -0.00000000000E+00 -0.11077018044E+04  0.11077018044E+04  0.00000000000E+00 0.  1.
         21    1    1    2  503  501  0.12547126378E+03  0.39895324363E+02 -0.22812189675E+03  0.26338996700E+03  0.00000000000E+00 0.  1.
         21    1    1    2  504  502 -0.25622699705E+02 -0.20397208262E+02 -0.80632160581E+03  0.80698643164E+03  0.00000000000E+00 0.  1.
         21    1    1    2  505  506 -0.39945655851E+02 -0.12771265665E+02  0.12372929108E+03  0.13064340059E+03  0.00000000000E+00 0.  1.
         21    1    1    2  506  504 -0.59902908223E+02 -0.67268504361E+01 -0.34309849648E+02  0.69359748510E+02  0.00000000000E+00 0. -1.
<scales pt_clust_3="91.41437" pt_clust_4="32.75010" pt_clust_5="42.28938" pt_clust_6="14000.00000"></scales>
<clustering>
<clus scale="   32.750">  2  4  1 -1</clus>
<clus scale="   42.289">  1  5  2 -1</clus>
<clus scale="   91.414">  2  3  1 -1</clus>
<clus scale="   42.289">  1  3  2 -1</clus>
</clustering>
</event>
<event>
 6    0  0.4227619E+002  0.7139813E+02  0.7546771E-02  0.1355402E+00
         21   -1    0    0  506  501  0.00000000000E+00  0.00000000000E+00  0.19523083553E+03  0.19523083553E+03  0.00000000000E+00 0.  1.
         21   -1    0    0  504  502 -0.00000000000E+00 -0.00000000000E+00 -0.46971583353E+03  0.46971583353E+03  0.00000000000E+00 0. -1.
         21    1    1    2  503  501 -0.35749503778E+02 -0.24266734260E+02  0.84781653348E+02  0.95156871305E+02  0.00000000000E+00 0.  1.
         21    1    1    2  504  503  0.14380660001E+02 -0.38135072591E+02 -0.33877861531E+03  0.34122139050E+03  0.00000000000E+00 0. -1.
         21    1    1    2  505  502 -0.74822857624E+02  0.15898084728E+02 -0.76287208470E+02  0.10803215863E+03  0.00000000000E+00 0.  1.
         21    1    1    2  506  505  0.96191701401E+02  0.46503722124E+02  0.55799172432E+02  0.12053624863E+03  0.00000000000E+00 0.  1.
<scales pt_clust_3="43.61716" pt_clust_4="40.75644" pt_clust_5="14000.00000" pt_clust_6="71.39813"></scales>
<clustering>
<clus scale="   40.756">  2  4  1 -1</clus>
<clus scale="   43.617">  1  3  2 -1</clus>
<clus scale="   71.398">  1  6  2 -1</clus>
<clus scale="   43.617">  1  3  2 -1</clus>
</clustering>
</event>
<event>
 6    0  0.4227619E+002  0.1151452E+03  0.7546771E-02  0.1251328E+00
         21   -1    0    0  502  501  0.00000000000E+00  0.00000000000E+00  0.82220787171E+02  0.82220787171E+02  0.00000000000E+00 0.  1.
         21   -1    0    0  506  502 -0.00000000000E+00 -0.00000000000E+00 -0.12137658842E+04  0.12137658842E+04  0.00000000000E+00 0.  1.
         21    1    1    2  503  501  0.36318955806E+02  0.13113292176E+01 -0.81602049047E+01  0.37247484200E+02  0.00000000000E+00 0.  1.
         21    1    1    2  504  505  0.49724206503E+02 -0.42768542648E+02 -0.68995717686E+02  0.95194821349E+02  0.00000000000E+00 0. -1.
         21    1    1    2  505  503  0.21330018074E+02 -0.31282750419E+02  0.43701081890E+02  0.57821835869E+02  0.00000000000E+00 0.  1.
         21    1    1    2  506  504 -0.10737318038E+03  0.72739963849E+02 -0.10980902564E+04  0.11057225300E+04  0.00000000000E+00 0.  1.
<scales pt_clust_3="36.34262" pt_clust_4="14000.00000" pt_clust_5="57.24682" pt_clust_6="115.14524"></scales>
<clustering>
<clus scale="   36.343">  1  3  2 -1</clus>
<clus scale="   57.247">  1  5  2 -1</clus>
<clus scale="  115.145">  2  6  1 -1</clus>
<clus scale="   36.343">  1  3  2 -1</clus>
</clustering>
</event>
<event>
 6    0  0.4227619E+002  0.7699386E+02  0.7546771E-02  0.1337806E+00
         21   -1    0    0  506  501  0.00000000000E+00  0.00000000000E+00  0.70635902247E+02  0.70635902247E+02  0.00000000000E+00 0. -1.
         21   -1    0    0  505  502 -0.00000000000E+00 -0.00000000000E+00 -0.86129446299E+03  0.86129446299E+03  0.00000000000E+00 0. -1.
         21    1    1    2  503  502 -0.50655127425E+02  0.71812324608E+02 -0.31639627689E+03  0.32837410972E+03  0.00000000000E+00 0. -1.
         21    1    1    2  504  501  0.47657075022E+02  0.54924579913E+02 -0.31859390205E+02  0.79390975699E+02  0.00000000000E+00 0. -1.
         21    1    1    2  505  504  0.11230991161E+02 -0.73652312195E+02 -0.46125560728E+03  0.46723391733E+03  0.00000000000E+00 0. -1.
         21    1    1    2  506  503 -0.82329387582E+01 -0.53084592326E+02  0.18852713642E+02  0.56931362487E+02  0.00000000000E+00 0.  1.
<scales pt_clust_3="76.99386" pt_clust_4="44.79014" pt_clust_5="14000.00000" pt_clust_6="53.71923"></scales>
<clustering>
<clus scale="   53.719">  1  6  2 -1</clus>
<clus scale="   44.790">  1  4  2 -1</clus>
<clus scale="   76.994">  1  3  2 -1</clus>
<clus scale="   53.719">  1  3  2 -1</clus>
</clustering>
</event>
<event>
 6    0  0.4227619E+002  0.9635218E+02  0.7546771E-02  0.1288159E+00
         21   -1    0    0  504  501  0.00000000000E+00  0.00000000000E+00  0.14555128495E+03  0.14555128495E+03  0.00000000000E+00 0.  1.
         21   -1    0    0  503  502 -0.00000000000E+00 -0.00000000000E+00 -0.72967459377E+03  0.72967459377E+03  0.00000000000E+00 0.  1.
         21    1    1    2  503  506  0.16116202445E+02 -0.33651754811E+02 -0.42151123651E+03  0.42315942042E+03  0.00000000000E+00 0.  1.
         21    1    1    2  504  502  0.82229196115E+02  0.13581967269E+02 -0.23335327409E+03  0.24778995351E+03  0.00000000000E+00 0.  1.
         21    1    1    2  505  501 -0.24419799131E+01 -0.31719650177E+02  0.88319420321E+02  0.93874487903E+02  0.00000000000E+00 0.  1.
         21    1    1    2  506  505 -0.95903418647E+02  0.51789437719E+02 -0.17578218536E+02  0.11040201689E+03  0.00000000000E+00 0.  1.
<scales pt_clust_3="37.72958" pt_clust_4="14000.00000" pt_clust_5="31.81351" pt_clust_6="96.35218"></scales>
<clustering>
<clus scale="   31.814">  1  5  2 -1</clus>
<clus scale="   37.730">  2  3  1 -1</clus>
<clus scale="   96.352">  1  6  2 -1</clus>
<clus scale="   31.814">  1  3  2 -1</clus>
</clustering>
</event>
<event>
 6    0  0.4227619E+002  0.2825245E+03  0.7546771E-02  0.1094318E+00
         21   -1    0    0  505  501  0.00000000000E+00  0.00000000000E+00  0.43376587467E+03  0.43376587467E+03  0.00000000000E+00 0.  1.
         21   -1    0    0  503  502 -0.00000000000E+00 -0.00000000000E+00 -0.93684729412E+03  0.93684729412E+03  0.00000000000E+00 0. -1.
         21    1    1    2  503  504 -0.17988439742E+03 -0.34570612483E+03  0.19609502667E+01  0.38971138873E+03  0.00000000000E+00 0.  1.
         21    1    1    2  504  501  0.13500296749E+03  0.25194251287E+02  0.16324792168E+03  0.21333174978E+03  0.00000000000E+00 0. -1.
         21    1    1    2  505  506 -0.10543217726E+02  0.19843598723E+03 -0.20596732518E+03  0.28620017385E+03  0.00000000000E+00 0. -1.
         21    1    1    2  506  502  0.55424647656E+02  0.12207588631E+03 -0.46232296621E+03  0.48136985643E+03  0.00000000000E+00 0. -1.
<scales pt_clust_3="14000.00000" pt_clust_4="141.59753" pt_clust_5="282.52451" pt_clust_6="134.06869"></scales>
<clustering>
<clus scale="  134.069">  2  6  1 -1</clus>
<clus scale="  141.598">  1  4  2 -1</clus>
<clus scale="  282.525">  2  5  1 -1</clus>
<clus scale="  141.598">  1  3  2 -1</clus>
</clustering>
</event>
<event>
 6    0  0.4227619E+002  0.6034400E+02  0.7546771E-02  0.1396394E+00
         21   -1    0    0  506  501  0.00000000000E+00  0.00000000000E+00  0.38859855960E+03  0.38859855960E+03  0.00000000000E+00 0. -1.
         21   -1    0    0  503  502 -0.00000000000E+00 -0.00000000000E+00 -0.12990032458E+04  0.12990032458E+04  0.00000000000E+00 0. -1.
         21    1    1    2  503  505  0.59365922745E+02  0.10130838547E+02 -0.83343713187E+01  0.60798095515E+02  0.00000000000E+00 0. -1.
         21    1    1    2  504  502 -0.22086732787E+02  0.41257645876E+02 -0.12482685928E+04  0.12491455066E+04  0.00000000000E+00 0. -1.
         21    1    1    2  505  501  0.47083811625E+02 -0.35087639983E+02  0.90239545665E+02  0.10766245120E+03  0.00000000000E+00 0. -1.
         21    1    1    2  506  504 -0.84363001583E+02 -0.16300844440E+02  0.25595873218E+03  0.26999575208E+03  0.00000000000E+00 0. -1.
<scales pt_clust_3="14000.00000" pt_clust_4="46.79762" pt_clust_5="51.49777" pt_clust_6="60.34400"></scales>
<clustering>
<clus scale="   46.798">  2  4  1 -1</clus>
<clus scale="   51.498">  1  5  2 -1</clus>
<clus scale="   60.344">  1  6  2 -1</clus>
<clus scale="   51.498">  1  3  2 -1</clus>
</clustering>
</event>
<event>
 6    0  0.4227619E+002  0.1377528E+03  0.7546771E-02  0.1216385E+00
         21   -1    0    0  506  501  0.00000000000E+00  0.00000000000E+00  0.15749229222E+04  0.15749229222E+04  0.00000000000E+00 0. -1.
         21   -1    0    0  505  502 -0.00000000000E+00 -0.00000000000E+00 -0.23338979925E+03  0.23338979925E+03  0.00000000000E+00 0. -1.
         21    1    1    2  503  504  0.17038798774E+02 -0.16861835617E+03  0.74100626815E+03  0.76013996089E+03  0.00000000000E+00 0. -1.
         21    1    1    2  504  502 -0.59874921969E+02  0.92705068536E+02 -0.13586156151E+03  0.17503599604E+03  0.00000000000E+00 0. -1.
         21    1    1    2  505  501  0.42946815781E+02  0.44339761968E+02 -0.54062166966E+02  0.82055843023E+02  0.00000000000E+00 0.  1.
         21    1    1    2  506  503 -0.11069258611E+00  0.31573525669E+02  0.79045058329E+03  0.79108092152E+03  0.00000000000E+00 0.  1.
<scales pt_clust_3="137.75283" pt_clust_4="14000.00000" pt_clust_5="62.13348" pt_clust_6="31.57372"></scales>
<clustering>
<clus scale="   31.574">  1  6  2 -1</clus>
<clus scale="   62.133">  2  5  1 -1</clus>
<clus scale="  137.753">  1  3  2 -1</clus>
<clus scale="   31.574">  1  3  2 -1</clus>
</clustering>
</event>
<event>
 6    0  0.4227619E+002  0.9239799E+02  0.7546771E-02  0.1297146E+00
         21   -1    0    0  505  501  0.00000000000E+00  0.00000000000E+00  0.16771790139E+03  0.16771790139E+03  0.00000000000E+00 0. -1.
         21   -1    0    0  506  502 -0.00000000000E+00 -0.00000000000E+00 -0.10097178206E+04  0.10097178206E+04  0.00000000000E+00 0.  1.
         21    1    1    2  503  504  0.37172434952E+02  0.92493782173E+02 -0.35796179519E+02  0.10591626943E+03  0.00000000000E+00 0. -1.
         21    1    1    2  504  502  0.40645057796E+02  0.80637118877E+02 -0.78332253992E+03  0.78851034692E+03  0.00000000000E+00 0.  1.
         21    1    1    2  505  503 -0.14321554543E+02 -0.81210896212E+02  0.91461882611E+02  0.12314866040E+03  0.00000000000E+00 0. -1.
         21    1    1    2  506  501 -0.63495938205E+02 -0.91920004839E+02 -0.11434308235E+03  0.15986044520E+03  0.00000000000E+00 0.  1.
<scales pt_clust_3="53.76631" pt_clust_4="92.39799" pt_clust_5="82.46403" pt_clust_6="14000.00000"></scales>
<clustering>
<clus scale="   82.464">  1  5  2 -1</clus>
<clus scale="   53.766">  1  3  2 -1</clus>
<clus scale="   92.398">  2  4  1 -1</clus>
<clus scale="   82.464">  1  3  2 -1</clus>
</clustering>
</event>
<event>
 6    0  0.4227619E+002  0.1578968E+03  0.7546771E-02  0.1191092E+00
         21   -1    0    0  505  501  0.00000000000E+00  0.00000000000E+00  0.85453171451E+03  0.85453171451E+03  0.00000000000E+00 0.  1.
         21   -1    0    0  503  502 -0.00000000000E+00 -0.00000000000E+00 -0.42963972207E+02  0.42963972207E+02  0.00000000000E+00 0. -1.
         21    1    1    2  503  506 -0.12726045983E+01 -0.32728346307E+02  0.99245312475E+01  0.34223683246E+02  0.00000000000E+00 0. -1.
         21    1    1    2  504  501  0.42477479140E+02  0.95037026302E+02  0.32576963309E+03  0.34199740707E+03  0.00000000000E+00 0.  1.
         21    1    1    2  505  502 -0.93560440745E+02 -0.94389408586E+02  0.21092199477E+03  0.24930103169E+03  0.00000000000E+00 0. -1.
         21    1    1    2  506  504  0.52355566204E+02  0.32080728591E+02  0.26495158320E+03  0.27197356471E+03  0.00000000000E+00 0.  1.
<scales pt_clust_3="32.75308" pt_clust_4="42.01368" pt_clust_5="148.57598" pt_clust_6="42.01368"></scales>
<clustering>
<clus scale="   32.753">  2  3  1 -1</clus>
<clus scale="   42.014">  4  6 -1 -1</clus>
<clus scale="  148.576">  2  5  1 -1</clus>
<clus scale="  157.897">  1  3  2 -1</clus>
</clustering>
</event>
<event>
 6    0  0.4227619E+002  0.8668949E+02  0.7546771E-02  0.1311073E+00
         21   -1    0    0  506  501  0.00000000000E+00  0.00000000000E+00  0.93721047315E+02  0.93721047315E+02  0.00000000000E+00 0.  1.
         21   -1    0    0  504  502 -0.00000000000E+00 -0.00000000000E+00 -0.44576197288E+03  0.44576197288E+03  0.00000000000E+00 0. -1.
         21    1    1    2  503  501  0.10939155788E+03 -0.52840325061E+01 -0.16361538301E+03  0.19688683931E+03  0.00000000000E+00 0. -1.
         21    1    1    2  504  503 -0.71444140651E+02 -0.31600170902E+02 -0.16336730994E+03  0.18108482540E+03  0.00000000000E+00 0. -1.
         21    1    1    2  505  502 -0.18945067917E+01  0.55221383240E+02 -0.77564054209E+02  0.95232204785E+02  0.00000000000E+00 0. -1.
         21    1    1    2  506  505 -0.36052910440E+02 -0.18337179832E+02  0.52505821596E+02  0.66279150695E+02  0.00000000000E+00 0.  1.
<scales pt_clust_3="86.68949" pt_clust_4="14000.00000" pt_clust_5="51.72354" pt_clust_6="40.44829"></scales>
<clustering>
<clus scale="   40.448">  1  6  2 -1</clus>
<clus scale="   51.724">  1  5  2 -1</clus>
<clus scale="   86.689">  1  3  2 -1</clus>
<clus scale="   40.448">  1  3  2 -1</clus>
</clustering>
</event>
<event>
 6    0  0.4227619E+002  0.1333149E+03  0.7546771E-02  0.1222618E+00
         21   -1    0    0  503  501  0.00000000000E+00  0.00000000000E+00  0.32559987345E+03  0.32559987345E+03  0.00000000000E+00 0.  1.
         21   -1    0    0  505  502 -0.00000000000E+00 -0.00000000000E+00 -0.25759588434E+03  0.25759588434E+03  0.00000000000E+00 0.  1.
         21    1    1    2  503  504  0.68349515619E+01  0.33680744403E+02  0.16867109056E+02  0.38283266243E+02  0.00000000000E+00 0.  1.
         21    1    1    2  504  506  0.99230905373E+02  0.80631168658E+02  0.21491158230E+03  0.25007028242E+03  0.00000000000E+00 0.  1.
         21    1    1    2  505  501 -0.84482967030E+02 -0.76285426400E+02  0.11302260013E+02  0.11438784499E+03  0.00000000000E+00 0.  1.
         21    1    1    2  506  502 -0.21582889905E+02 -0.38026486660E+02 -0.17507696226E+03  0.18045436414E+03  0.00000000000E+00 0.  1.
<scales pt_clust_3="34.36727" pt_clust_4="14000.00000" pt_clust_5="133.31491" pt_clust_6="43.42994"></scales>
<clustering>
<clus scale="   34.367">  1  3  2 -1</clus>
<clus scale="   43.430">  2  6  1 -1</clus>
<clus scale="  133.315">  2  5  1 -1</clus>
<clus scale="   34.367">  1  3  2 -1</clus>
</clustering>
</event>
<event>
 6    0  0.4227619E+002  0.1031354E+03  0.7546771E-02  0.1273837E+00
         21   -1    0    0  506  501  0.00000000000E+00  0.00000000000E+00  0.57213733093E+03  0.57213733093E+03  0.00000000000E+00 0.  1.
         21   -1    0    0  504  502 -0.00000000000E+00 -0.00000000000E+00 -0.19272059008E+03  0.19272059008E+03  0.00000000000E+00 0. -1.
         21    1    1    2  503  505 -0.44993141007E+02  0.62627993558E+02  0.20195142524E+03  0.21617360263E+03  0.00000000000E+00 0.  1.
         21    1    1    2  504  503  0.51065257180E+02 -0.92011397399E+02 -0.15093643940E+03  0.18399882196E+03  0.00000000000E+00 0. -1.
         21    1    1    2  505  501 -0.42664705701E+02 -0.50476202646E+02  0.18573159636E+03  0.19714043226E+03  0.00000000000E+00 0.  1.
         21    1    1    2  506  502  0.36592589528E+02  0.79859606486E+02  0.14267015865E+03  0.16754506416E+03  0.00000000000E+00 0.  1.
<scales pt_clust_3="103.13542" pt_clust_4="14000.00000" pt_clust_5="66.09179" pt_clust_6="62.32842"></scales>
<clustering>
<clus scale="   66.092">  1  5  2 -1</clus>
<clus scale="   62.328">  1  6  2 -1</clus>
<clus scale="  103.135">  1  3  2 -1</clus>
<clus scale="   66.092">  1  3  2 -1</clus>
</clustering>
</event>
<event>
 6    0  0.4227619E+002  0.1274928E+03  0.7546771E-02  0.1231224E+00
         21   -1    0    0  506  501  0.00000000000E+00  0.00000000000E+00  0.14195425305E+03  0.14195425305E+03  0.00000000000E+00 0. -1.
         21   -1    0    0  505  502 -0.00000000000E+00 -0.00000000000E+00 -0.18615847852E+03  0.18615847852E+03  0.00000000000E+00 0. -1.
         21    1    1    2  503  501  0.47783743997E+02  0.56365464376E+02  0.45315192935E+01  0.74033009069E+02  0.00000000000E+00 0. -1.
         21    1    1    2  504  502 -0.40152873388E+02 -0.12074549208E+03 -0.97413827570E+02  0.16025348951E+03  0.00000000000E+00 0. -1.
         21    1    1    2  505  503 -0.12679650205E+02  0.33411504143E+02 -0.20749602188E+00  0.35737168229E+02  0.00000000000E+00 0.  1.
         21    1    1    2  506  504  0.50487795954E+01  0.30968523564E+02  0.48885578833E+02  0.58089064762E+02  0.00000000000E+00 0. -1.
<scales pt_clust_3="36.24223" pt_clust_4="116.25755" pt_clust_5="36.24223" pt_clust_6="31.37737"></scales>
<clustering>
<clus scale="   31.377">  1  6  2 -1</clus>
<clus scale="   36.242">  3  5 -1 -1</clus>
<clus scale="  116.258">  2  4  1 -1</clus>
<clus scale="   31.377">  1  3  2 -1</clus>
</clustering>
</event>
<event>
 6    0  0.4227619E+002  0.1675755E+03  0.7546771E-02  0.1180400E+00
         21   -1    0    0  504  501  0.00000000000E+00  0.00000000000E+00  0.66169723652E+03  0.66169723652E+03  0.00000000000E+00 0.  1.
         21   -1    0    0  506  502 -0.00000000000E+00 -0.00000000000E+00 -0.61653457731E+03  0.61653457731E+03  0.00000000000E+00 0. -1.
         21    1    1    2  503  502  0.14245163488E+03 -0.46542272105E+02  0.80591974085E+01  0.15007865283E+03  0.00000000000E+00 0.  1.
         21    1    1    2  504  503  0.27992260355E+02 -0.14092390943E+02  0.52782805449E+03  0.52875761671E+03  0.00000000000E+00 0.  1.
         21    1    1    2  505  501  0.10729832265E+01  0.54794672968E+02  0.21739227319E+02  0.58959320579E+02  0.00000000000E+00 0. -1.
         21    1    1    2  506  505 -0.17151687846E+03  0.58399900807E+01 -0.51246382001E+03  0.54043622371E+03  0.00000000000E+00 0. -1.
<scales pt_clust_3="167.57553" pt_clust_4="31.33947" pt_clust_5="51.42486" pt_clust_6="14000.00000"></scales>
<clustering>
<clus scale="   31.339">  1  4  2 -1</clus>
<clus scale="   51.425">  1  5  2 -1</clus>
<clus scale="  167.576">  1  3  2 -1</clus>
<clus scale="   31.339">  1  3  2 -1</clus>
</clustering>
</event>
<event>
 6    0  0.4227619E+002  0.8019371E+02  0.7546771E-02  0.1328503E+00
         21   -1    0    0  505  501  0.00000000000E+00  0.00000000000E+00  0.10103582015E+04  0.10103582015E+04  0.00000000000E+00 0. -1.
         21   -1    0    0  504  502 -0.00000000000E+00 -0.00000000000E+00 -0.20159332229E+03  0.20159332229E+03  0.00000000000E+00 0. -1.
         21    1    1    2  503  501 -0.48809089219E+02 -0.40639722135E+01  0.10872531716E+03  0.11924779936E+03  0.00000000000E+00 0.  1.
         21    1    1    2  504  503 -0.29598754248E+02 -0.61631053577E+02 -0.98022991586E+02  0.11951142162E+03  0.00000000000E+00 0. -1.
         21    1    1    2  505  506  0.15623949004E+02  0.80085884275E+02  0.87161320476E+03  0.87542414598E+03  0.00000000000E+00 0. -1.
         21    1    1    2  506  502  0.62783894463E+02 -0.14390858485E+02 -0.73550651125E+02  0.97768156844E+02  0.00000000000E+00 0. -1.
<scales pt_clust_3="48.97799" pt_clust_4="80.19371" pt_clust_5="14000.00000" pt_clust_6="63.78197"></scales>
<clustering>
<clus scale="   48.978">  1  3  2 -1</clus>
<clus scale="   63.782">  2  6  1 -1</clus>
<clus scale="   80.194">  2  4  1 -1</clus>
<clus scale="   48.978">  1  3  2 -1</clus>
</clustering>
</event>
<event>
 6    0  0.4227619E+002  0.7544817E+02  0.7546771E-02  0.1342489E+00
         21   -1    0    0  506  501  0.00000000000E+00  0.00000000000E+00  0.17939796795E+04  0.17939796795E+04  0.00000000000E+00 0. -1.
         21   -1    0    0  505  502 -0.00000000000E+00 -0.00000000000E+00 -0.15060467534E+03  0.15060467534E+03  0.00000000000E+00 0.  1.
         21    1    1    2  503  502  0.32662050690E+02 -0.72350007702E+02 -0.12479136678E+03  0.14789935224E+03  0.00000000000E+00 0.  1.
         21    1    1    2  504  501 -0.96941921537E+02  0.63388837945E+02  0.15216883188E+04  0.15260901744E+04  0.00000000000E+00 0. -1.
         21    1    1    2  505  504  0.31065714883E+02  0.34872337146E+02  0.45334608336E+02  0.65087519942E+02  0.00000000000E+00 0. -1.
         21    1    1    2  506  503  0.33214155964E+02 -0.25911167389E+02  0.20114344385E+03  0.20550730828E+03  0.00000000000E+00 0. -1.
<scales pt_clust_3="14000.00000" pt_clust_4="75.44817" pt_clust_5="46.82092" pt_clust_6="42.12563"></scales>
<clustering>
<clus scale="   42.126">  1  6  2 -1</clus>
<clus scale="   46.821">  2  5  1 -1</clus>
<clus scale="   75.448">  1  4  2 -1</clus>
<clus scale="   42.126">  1  3  2 -1</clus>
</clustering>
</event>
<event>
 6    0  0.4227619E+002  0.1092651E+03  0.7546771E-02  0.1261937E+00
         21   -1    0    0  505  501  0.00000000000E+00  0.00000000000E+00  0.24710238612E+03  0.24710238612E+03  0.00000000000E+00 0.  1.
         21   -1    0    0  504  502 -0.00000000000E+00 -0.00000000000E+00 -0.13988812776E+03  0.13988812776E+03  0.00000000000E+00 0.  1.
         21    1    1    2  503  506 -0.23844577107E+02 -0.29438972835E+02  0.21546284446E+02  0.43582787342E+02  0.00000000000E+00 0.  1.
         21    1    1    2  504  503 -0.65688949534E+02  0.29957459083E+02 -0.35694590562E+02  0.80539376959E+02  0.00000000000E+00 0.  1.
         21    1    1    2  505  502  0.12851273385E+03  0.40305265045E+02  0.64473338254E+01  0.13483918298E+03  0.00000000000E+00 0.  1.
         21    1    1    2  506  501 -0.38979207210E+02 -0.40823751293E+02  0.11491523066E+03  0.12802916660E+03  0.00000000000E+00 0.  1.
<scales pt_clust_3="36.13316" pt_clust_4="72.19756" pt_clust_5="99.96814" pt_clust_6="36.13316"></scales>
<clustering>
<clus scale="   36.133">  3  6 -1 -1</clus>
<clus scale="   72.198">  2  4  1 -1</clus>
<clus scale="   99.968">  2  5  1 -1</clus>
<clus scale="  109.265">  1  3  2 -1</clus>
</clustering>
</event>
<event>
 6    0  0.4227619E+002  0.1237340E+03  0.7546771E-02  0.1237061E+00
         21   -1    0    0  503  501  0.00000000000E+00  0.00000000000E+00  0.58550575126E+03  0.58550575126E+03  0.00000000000E+00 0.  1.
         21   -1    0    0  504  502 -0.00000000000E+00 -0.00000000000E+00 -0.10187002290E+03  0.10187002290E+03  0.00000000000E+00 0.  1.
         21    1    1    2  503  502 -0.13816456282E+03  0.91823195676E+02  0.86165608291E+02  0.18693704217E+03  0.00000000000E+00 0.  1.
         21    1    1    2  504  505  0.10378793201E+03 -0.15459334889E+02  0.40010387039E+02  0.11230207895E+03  0.00000000000E+00 0.  1.
         21    1    1    2  505  506 -0.55017400018E+00 -0.74530782015E+02  0.83387881191E+02  0.11184220531E+03  0.00000000000E+00 0.  1.
         21    1    1    2  506  501  0.34926804808E+02 -0.18330787717E+01  0.27407185184E+03  0.27629444772E+03  0.00000000000E+00 0.  1.
<scales pt_clust_3="123.73400" pt_clust_4="14000.00000" pt_clust_5="75.82901" pt_clust_6="34.97487"></scales>
<clustering>
<clus scale="   34.975">  1  6  2 -1</clus>
<clus scale="   75.829">  1  5  2 -1</clus>
<clus scale="  123.734">  1  3  2 -1</clus>
<clus scale="   34.975">  1  3  2 -1</clus>
</clustering>
</event>
<event>
 6    0  0.4227619E+002  0.9376994E+02  0.7546771E-02  0.1293971E+00
         21   -1    0    0  503  501  0.00000000000E+00  0.00000000000E+00  0.11881744208E+04  0.11881744208E+04  0.00000000000E+00 0. -1.
         21   -1    0    0  504  502 -0.00000000000E+00 -0.00000000000E+00 -0.11832106729E+03  0.11832106729E+03  0.00000000000E+00 0.  1.
         21    1    1    2  503  506 -0.40067709886E+02  0.18703489395E+02  0.47420441608E+02  0.64837798955E+02  0.00000000000E+00 0.  1.
         21    1    1    2  504  505  0.47794331277E+02 -0.11421407701E+03 -0.34186883804E+02  0.12844413772E+03  0.00000000000E+00 0.  1.
         21    1    1    2  505  501  0.22593610451E+02  0.90846173592E+02  0.10739215039E+04  0.10779939216E+04  0.00000000000E+00 0. -1.
         21    1    1    2  506  502 -0.30320231842E+02  0.46644140230E+01 -0.17301708202E+02  0.35219629809E+02  0.00000000000E+00 0.  1.
<scales pt_clust_3="47.01079" pt_clust_4="93.76994" pt_clust_5="14000.00000" pt_clust_6="30.67692"></scales>
<clustering>
<clus scale="   30.677">  2  6  1 -1</clus>
<clus scale="   47.011">  2  3  1 -1</clus>
<clus scale="   93.770">  2  4  1 -1</clus>
<clus scale="   93.770">  1  3  2 -1</clus>
</clustering>
</event>
<event>
 6    0  0.4227619E+002  0.7693494E+02  0.7546771E-02  0.1337982E+00
         21   -1    0    0  506  501  0.00000000000E+00  0.00000000000E+00  0.84830961437E+03  0.84830961437E+03  0.00000000000E+00 0.  1.
         21   -1    0    0  503  502 -0.00000000000E+00 -0.00000000000E+00 -0.73823864373E+02  0.73823864373E+02  0.00000000000E+00 0. -1.
         21    1    1    2  503  505 -0.13696176919E+02 -0.31177342453E+02 -0.43266844808E+02  0.55060256122E+02  0.00000000000E+00 0. -1.
         21    1    1    2  504  501  0.12083566522E+02  0.47619743450E+02  0.28606437179E+03  0.29025243729E+03  0.00000000000E+00 0.  1.
         21    1    1    2  505  504 -0.59067548159E+02  0.52912791456E+02  0.69225433386E+02  0.10526585093E+03  0.00000000000E+00 0. -1.
         21    1    1    2  506  502  0.60680158556E+02 -0.69355192453E+02  0.46246278963E+03  0.47155493440E+03  0.00000000000E+00 0.  1.
<scales pt_clust_3="34.05308" pt_clust_4="46.27924" pt_clust_5="14000.00000" pt_clust_6="76.93494"></scales>
<clustering>
<clus scale="   34.053">  2  3  1 -1</clus>
<clus scale="   46.279">  1  4  2 -1</clus>
<clus scale="   76.935">  1  6  2 -1</clus>
<clus scale="   46.279">  1  3  2 -1</clus>
</clustering>
</event>
<event>
 6    0  0.4227619E+002  0.1276929E+03  0.7546771E-02  0.1230920E+00
         21   -1    0    0  503  501  0.00000000000E+00  0.00000000000E+00  0.48652342273E+03  0.48652342273E+03  0.00000000000E+00 0.  1.
         21   -1    0    0  506  502 -0.00000000000E+00 -0.00000000000E+00 -0.11485122053E+04  0.11485122053E+04  0.00000000000E+00 0. -1.
         21    1    1    2  503  502 -0.19253456861E+02 -0.10252329156E+03  0.99281751613E+02  0.14400898276E+03  0.00000000000E+00 0.  1.
         21    1    1    2  504  505 -0.14233722813E+03  0.11756012679E+03 -0.19269739117E+03  0.26685680521E+03  0.00000000000E+00 0.  1.
         21    1    1    2  505  501  0.35777138772E+02 -0.23116367245E+02  0.32195568266E+03  0.32476119178E+03  0.00000000000E+00 0.  1.
         21    1    1    2  506  504  0.12581354621E+03  0.80795320150E+01 -0.89052882571E+03  0.89940864832E+03  0.00000000000E+00 0. -1.
<scales pt_clust_3="119.98700" pt_clust_4="127.69288" pt_clust_5="42.59542" pt_clust_6="14000.00000"></scales>
<clustering>
<clus scale="   42.595">  1  5  2 -1</clus>
<clus scale="  119.987">  1  3  2 -1</clus>
<clus scale="  127.693">  1  4  2 -1</clus>
<clus scale="   42.595">  1  3  2 -1</clus>
</clustering>
</event>
<event>
 6    0  0.4227619E+002  0.1079319E+03  0.7546771E-02  0.1264448E+00
         21   -1    0    0  505  501  0.00000000000E+00  0.00000000000E+00  0.78635776142E+03  0.78635776142E+03  0.00000000000E+00 0.  1.
         21   -1    0    0  504  502 -0.00000000000E+00 -0.00000000000E+00 -0.35800632272E+03  0.35800632272E+03  0.00000000000E+00 0. -1.
         21    1    1    2  503  506  0.80656542941E+02  0.12376491844E+00 -0.15828396307E+03  0.17764939122E+03  0.00000000000E+00 0. -1.
         21    1    1    2  504  503  0.16844647998E+02  0.49451967754E+02 -0.17421794760E+03  0.18188219415E+03  0.00000000000E+00 0. -1.
         21    1    1    2  505  502  0.27714541095E+02  0.11617956579E+02  0.36912001255E+02  0.47597988821E+02  0.00000000000E+00 0. -1.
         21    1    1    2  506  501 -0.12521573203E+03 -0.61193689252E+02  0.72394134811E+03  0.73723450995E+03  0.00000000000E+00 0.  1.
<scales pt_clust_3="107.93193" pt_clust_4="52.34491" pt_clust_5="30.05117" pt_clust_6="14000.00000"></scales>
<clustering>
<clus scale="   30.051">  1  5  2 -1</clus>
<clus scale="   52.345">  2  4  1 -1</clus>
<clus scale="  107.932">  2  3  1 -1</clus>
<clus scale="   30.051">  1  3  2 -1</clus>
</clustering>
</event>
<event>
 6    0  0.4227619E+002  0.9636313E+02  0.7546771E-02  0.1288135E+00
         21   -1    0    0  505  501  0.00000000000E+00  0.00000000000E+00  0.13889364437E+03  0.13889364437E+03  0.00000000000E+00 0. -1.
         21   -1    0    0  506  502 -0.00000000000E+00 -0.00000000000E+00 -0.14216443551E+04  0.14216443551E+04  0.00000000000E+00 0.  1.
         21    1    1    2  503  504  0.70465923454E+02  0.18084957296E+02 -0.11033648013E+03  0.13216145768E+03  0.00000000000E+00 0. -1.
         21    1    1    2  504  502 -0.37705685234E+02  0.15318505021E+02 -0.14696206209E+03  0.15249335392E+03  0.00000000000E+00 0.  1.
         21    1    1    2  505  503  0.42217371416E+02 -0.53318298719E+02  0.11456463714E+03  0.13322988971E+03  0.00000000000E+00 0. -1.
         21    1    1    2  506  501 -0.74977609636E+02  0.19914836402E+02 -0.11400168056E+04  0.11426532981E+04  0.00000000000E+00 0.  1.
<scales pt_clust_3="96.36313" pt_clust_4="40.69859" pt_clust_5="67.74873" pt_clust_6="14000.00000"></scales>
<clustering>
<clus scale="   40.699">  2  4  1 -1</clus>
<clus scale="   67.749">  1  5  2 -1</clus>
<clus scale="   96.363">  1  3  2 -1</clus>
<clus scale="   67.749">  1  3  2 -1</clus>
</clustering>
</event>
<event>
 6    0  0.4227619E+002  0.6507298E+02  0.7546771E-02  0.1377697E+00
         21   -1    0    0  506  501  0.00000000000E+00  0.00000000000E+00  0.26192023561E+04  0.26192023561E+04  0.00000000000E+00 0.  1.
         21   -1    0    0  504  502 -0.00000000000E+00 -0.00000000000E+00 -0.43269519739E+02  0.43269519739E+02  0.00000000000E+00 0.  1.
         21    1    1    2  503  501 -0.19431612452E+02  0.51623829268E+02  0.75607395496E+03  0.75808339427E+03  0.00000000000E+00 0.  1.
         21    1    1    2  504  503 -0.99499241299E+02  0.16992519412E+02  0.62184464637E+02  0.11855695837E+03  0.00000000000E+00 0.  1.
         21    1    1    2  505  502  0.38197888760E+02 -0.25067711719E+02  0.27706339107E+02  0.53433230328E+02  0.00000000000E+00 0.  1.
         21    1    1    2  506  505  0.80732964990E+02 -0.43548636960E+02  0.17299680777E+04  0.17323982929E+04  0.00000000000E+00 0.  1.
<scales pt_clust_3="53.94730" pt_clust_4="14000.00000" pt_clust_5="45.68883" pt_clust_6="65.07298"></scales>
<clustering>
<clus scale="   45.689">  2  5  1 -1</clus>
<clus scale="   53.947">  1  3  2 -1</clus>
<clus scale="   65.073">  1  6  2 -1</clus>
<clus scale="   53.947">  1  3  2 -1</clus>
</clustering>
</event>
<event>
 6    0  0.4227619E+002  0.1115215E+03  0.7546771E-02  0.1257778E+00
         21   -1    0    0  505  501  0.00000000000E+00  0.00000000000E+00  0.13075205052E+04  0.13075205052E+04  0.00000000000E+00 0. -1.
         21   -1    0    0  503  502 -0.00000000000E+00 -0.00000000000E+00 -0.73263739174E+02  0.73263739174E+02  0.00000000000E+00 0. -1.
         21    1    1    2  503  501  0.21072654888E+02  0.63999728453E+02 -0.12930727790E+02  0.68609224943E+02  0.00000000000E+00 0. -1.
         21    1    1    2  504  506 -0.51432091524E+02 -0.12027517481E+02  0.83088094065E+03  0.83255814136E+03  0.00000000000E+00 0. -1.
         21    1    1    2  505  504 -0.45052975765E+02 -0.29927696438E+02  0.39434484408E+03  0.39803679942E+03  0.00000000000E+00 0.  1.
         21    1    1    2  506  502  0.75412412401E+02 -0.22044514534E+02  0.21961709077E+02  0.81580078639E+02  0.00000000000E+00 0. -1.
<scales pt_clust_3="67.37969" pt_clust_4="45.45859" pt_clust_5="45.45859" pt_clust_6="101.59212"></scales>
<clustering>
<clus scale="   45.459">  4  5 -1 -1</clus>
<clus scale="   67.380">  2  3  1 -1</clus>
<clus scale="  101.592">  2  6  1 -1</clus>
<clus scale="  111.521">  1  3  2 -1</clus>
</clustering>
</event>
<event>
 6    0  0.4227619E+002  0.7868238E+02  0.7546771E-02  0.1332833E+00
         21   -1    0    0  503  501  0.00000000000E+00  0.00000000000E+00  0.16205868476E+03  0.16205868476E+03  0.00000000000E+00 0. -1.
         21   -1    0    0  505  502 -0.00000000000E+00 -0.00000000000E+00 -0.10566816302E+04  0.10566816302E+04  0.00000000000E+00 0. -1.
         21    1    1    2  503  502  0.50401268267E+02  0.62872613774E+02  0.12369126770E+02  0.81524528228E+02  0.00000000000E+00 0. -1.
         21    1    1    2  504  501 -0.70343691150E+02 -0.37668423338E+02  0.98354254518E+02  0.12665190241E+03  0.00000000000E+00 0. -1.
         21    1    1    2  505  506  0.30454676314E+02  0.28004132454E+02 -0.62526727041E+03  0.62663456511E+03  0.00000000000E+00 0. -1.
         21    1    1    2  506  504 -0.10512253432E+02 -0.53208322889E+02 -0.38007905636E+03  0.38392931925E+03  0.00000000000E+00 0. -1.
<scales pt_clust_3="14000.00000" pt_clust_4="78.68238" pt_clust_5="41.37292" pt_clust_6="32.81979"></scales>
<clustering>
<clus scale="   41.373">  2  5  1 -1</clus>
<clus scale="   32.820">  2  6  1 -1</clus>
<clus scale="   78.682">  1  4  2 -1</clus>
<clus scale="   78.682">  1  3  2 -1</clus>
</clustering>
</event>
<event>
 6    0  0.4227619E+002  0.1847292E+03  0.7546771E-02  0.1163303E+00
         21   -1    0    0  505  501  0.00000000000E+00  0.00000000000E+00  0.25886334077E+04  0.25886334077E+04  0.00000000000E+00 0.  1.
         21   -1    0    0  503  502 -0.00000000000E+00 -0.00000000000E+00 -0.72065597265E+03  0.72065597265E+03  0.00000000000E+00 0. -1.
         21    1    1    2  503  504 -0.18911496784E+03 -0.96437027957E+02  0.62818582977E+03  0.66308521937E+03  0.00000000000E+00 0.  1.
         21    1    1    2  504  501  0.34321262011E+02  0.14310335718E+02  0.18320791138E+04  0.18324564426E+04  0.00000000000E+00 0.  1.
         21    1    1    2  505  506  0.16081395093E+03  0.15908758572E+03 -0.10066892372E+02  0.22643173158E+03  0.00000000000E+00 0.  1.
         21    1    1    2  506  502 -0.60202451031E+01 -0.76960893483E+02 -0.58222061616E+03  0.58731598681E+03  0.00000000000E+00 0. -1.
<scales pt_clust_3="14000.00000" pt_clust_4="37.18514" pt_clust_5="184.72916" pt_clust_6="77.13901"></scales>
<clustering>
<clus scale="   37.185">  1  4  2 -1</clus>
<clus scale="   77.139">  2  6  1 -1</clus>
<clus scale="  184.729">  2  5  1 -1</clus>
<clus scale="   37.185">  1  3  2 -1</clus>
</clustering>
</event>
<event>
 6    0  0.4227619E+002  0.2123224E+03  0.7546771E-02  0.1139740E+00
         21   -1    0    0  503  501  0.00000000000E+00  0.00000000000E+00  0.85277010090E+03  0.85277010090E+03  0.00000000000E+00 0. -1.
         21   -1    0    0  506  502 -0.00000000000E+00 -0.00000000000E+00 -0.56767643152E+03  0.56767643152E+03  0.00000000000E+00 0.  1.
         21    1    1    2  503  504  0.82274749939E+02  0.18313182404E+03 -0.27924189261E+03  0.34392213369E+03  0.00000000000E+00 0.  1.
         21    1    1    2  504  502  0.54316455461E+02 -0.31526327332E+02 -0.16150161571E+03  0.17328288584E+03  0.00000000000E+00 0.  1.
         21    1    1    2  505  501  0.11726571409E+02  0.77782323691E+02  0.59533224946E+03  0.60050652753E+03  0.00000000000E+00 0. -1.
         21    1    1    2  506  505 -0.14831777681E+03 -0.22938782040E+03  0.13050492824E+03  0.30273498536E+03  0.00000000000E+00 0.  1.
<scales pt_clust_3="14000.00000" pt_clust_4="62.80276" pt_clust_5="78.51307" pt_clust_6="212.32238"></scales>
<clustering>
<clus scale="   62.803">  2  4  1 -1</clus>
<clus scale="   78.513">  1  5  2 -1</clus>
<clus scale="  212.322">  1  6  2 -1</clus>
<clus scale="   78.513">  1  3  2 -1</clus>
</clustering>
</event>
<event>
 6    0  0.4227619E+002  0.1843817E+03  0.7546771E-02  0.1163629E+00
         21   -1    0    0  505  501  0.00000000000E+00  0.00000000000E+00  0.37190351831E+03  0.37190351831E+03  0.00000000000E+00 0.  1.
         21   -1    0    0  503  502 -0.00000000000E+00 -0.00000000000E+00 -0.36972693709E+03  0.36972693709E+03  0.00000000000E+00 0. -1.
         21    1    1    2  503  506 -0.10591645072E+03 -0.93196896853E+01 -0.55696306358E+02  0.12003011993E+03  0.00000000000E+00 0. -1.
         21    1    1    2  504  501  0.49298766123E+02  0.30077432316E+02  0.33550598417E+02  0.66788194541E+02  0.00000000000E+00 0.  1.
         21    1    1    2  505  502 -0.65445905084E+02 -0.65410348605E+02 -0.24166163198E+03  0.25877021576E+03  0.00000000000E+00 0. -1.
         21    1    1    2  506  504  0.12206358968E+03  0.44652605974E+02  0.26598392114E+03  0.29604192515E+03  0.00000000000E+00 0.  1.
<scales pt_clust_3="164.38212" pt_clust_4="55.67006" pt_clust_5="92.52935" pt_clust_6="55.67006"></scales>
<clustering>
<clus scale="   55.670">  4  6 -1 -1</clus>
<clus scale="   92.529">  2  5  1 -1</clus>
<clus scale="  164.382">  2  3  1 -1</clus>
<clus scale="  184.382">  1  3  2 -1</clus>
</clustering>
</event>
<event>
 6    0  0.4227619E+002  0.1114066E+03  0.7546771E-02  0.1257987E+00
         21   -1    0    0  502  501  0.00000000000E+00  0.00000000000E+00  0.62271996722E+03  0.62271996722E+03  0.00000000000E+00 0.  1.
         21   -1    0    0  504  502 -0.00000000000E+00 -0.00000000000E+00 -0.69363029495E+03  0.69363029495E+03  0.00000000000E+00 0. -1.
         21    1    1    2  503  501  0.77877317746E+02 -0.81549327433E+02  0.57712669737E+03  0.58803944957E+03  0.00000000000E+00 0.  1.
         21    1    1    2  504  506  0.35422396891E+02  0.36522298670E+01 -0.30608002093E+03  0.30814455081E+03  0.00000000000E+00 0. -1.
         21    1    1    2  505  503 -0.49100144224E+02  0.84153968899E+02 -0.30489718294E+02  0.10208985045E+03  0.00000000000E+00 0. -1.
         21    1    1    2  506  505 -0.64199570414E+02 -0.62568713330E+01 -0.31146728588E+03  0.31807641134E+03  0.00000000000E+00 0. -1.
<scales pt_clust_3="14000.00000" pt_clust_4="35.61018" pt_clust_5="111.40660" pt_clust_6="35.50441"></scales>
<clustering>
<clus scale="   35.610">  2  4  1 -1</clus>
<clus scale="   35.504">  2  6  1 -1</clus>
<clus scale="  111.407">  2  5  1 -1</clus>
<clus scale="  111.407">  1  3  2 -1</clus>
</clustering>
</event>
<event>
 6    0  0.4227619E+002  0.1324381E+03  0.7546771E-02  0.1223882E+00
         21   -1    0    0  503  501  0.00000000000E+00  0.00000000000E+00  0.46823728930E+03  0.46823728930E+03  0.00000000000E+00 0.  1.
         21   -1    0    0  505  502 -0.00000000000E+00 -0.00000000000E+00 -0.22625754155E+03  0.22625754155E+03  0.00000000000E+00 0. -1.
         21    1    1    2  503  502  0.17012722510E+02  0.32034448077E+02 -0.50505572846E+02  0.62180796708E+02  0.00000000000E+00 0. -1.
         21    1    1    2  504  501 -0.49307140736E+02 -0.12246547900E+02  0.50498206289E+02  0.71632680401E+02  0.00000000000E+00 0. -1.
         21    1    1    2  505  506  0.70438807178E+02 -0.13201096636E+03 -0.11230677122E+03  0.18708642831E+03  0.00000000000E+00 0. -1.
         21    1    1    2  506  504 -0.38144388952E+02  0.11222306618E+03  0.35429388552E+03  0.37359492543E+03  0.00000000000E+00 0.  1.
<scales pt_clust_3="36.27173" pt_clust_4="49.32672" pt_clust_5="14000.00000" pt_clust_6="132.43810"></scales>
<clustering>
<clus scale="   36.272">  2  3  1 -1</clus>
<clus scale="   49.327">  1  4  2 -1</clus>
<clus scale="  132.438">  1  6  2 -1</clus>
<clus scale="   49.327">  1  3  2 -1</clus>
</clustering>
</event>
<event>
 6    0  0.4227619E+002  0.8573578E+02  0.7546771E-02  0.1313520E+00
         21   -1    0    0  505  501  0.00000000000E+00  0.00000000000E+00  0.51677184770E+02  0.51677184770E+02  0.00000000000E+00 0.  1.
         21   -1    0    0  503  502 -0.00000000000E+00 -0.00000000000E+00 -0.88414694165E+03  0.88414694165E+03  0.00000000000E+00 0.  1.
         21    1    1    2  503  506 -0.29296134187E+02 -0.14727494190E+02 -0.49461519435E+03  0.49570087053E+03  0.00000000000E+00 0.  1.
         21    1    1    2  504  501  0.49497971875E+02 -0.63705861787E+02 -0.15476003131E+02  0.82146166793E+02  0.00000000000E+00 0.  1.
         21    1    1    2  505  502 -0.37898465654E+02  0.11167361294E+03 -0.24778632827E+03  0.27441821004E+03  0.00000000000E+00 0.  1.
         21    1    1    2  506  504  0.17696627966E+02 -0.33240256958E+02 -0.74592231132E+02  0.83558879057E+02  0.00000000000E+00 0.  1.
<scales pt_clust_3="32.78967" pt_clust_4="85.73578" pt_clust_5="14000.00000" pt_clust_6="38.08894"></scales>
<clustering>
<clus scale="   32.790">  2  3  1 -1</clus>
<clus scale="   38.089">  2  6  1 -1</clus>
<clus scale="   85.736">  1  4  2 -1</clus>
<clus scale="   85.736">  1  3  2 -1</clus>
</clustering>
</event>
<event>
 6    0  0.4227619E+002  0.1324919E+03  0.7546771E-02  0.1223804E+00
         21   -1    0    0  506  501  0.00000000000E+00  0.00000000000E+00  0.15600197034E+03  0.15600197034E+03  0.00000000000E+00 0. -1.
         21   -1    0    0  503  502 -0.00000000000E+00 -0.00000000000E+00 -0.53334975858E+03  0.53334975858E+03  0.00000000000E+00 0. -1.
         21    1    1    2  503  505 -0.82746028751E+01  0.45594099493E+02 -0.11151340582E+03  0.12075814937E+03  0.00000000000E+00 0. -1.
         21    1    1    2  504  502  0.24307778447E+02  0.46470624342E+02 -0.28228394399E+03  0.28711428396E+03  0.00000000000E+00 0. -1.
         21    1    1    2  505  501 -0.75695488986E+02  0.67362326142E+02 -0.28801390446E+02  0.10534234727E+03  0.00000000000E+00 0. -1.
         21    1    1    2  506  504  0.59662313414E+02 -0.15942704998E+03  0.45250952012E+02  0.17613694832E+03  0.00000000000E+00 0. -1.
<scales pt_clust_3="46.33887" pt_clust_4="79.79598" pt_clust_5="132.49190" pt_clust_6="14000.00000"></scales>
<clustering>
<clus scale="   46.339">  2  3  1 -1</clus>
<clus scale="   79.796">  2  4  1 -1</clus>
<clus scale="  132.492">  2  5  1 -1</clus>
<clus scale="  132.492">  1  3  2 -1</clus>
</clustering>
</event>
<event>
 6    0  0.4227619E+002  0.1674695E+03  0.7546771E-02  0.1180513E+00
         21   -1    0    0  503  501  0.00000000000E+00  0.00000000000E+00  0.37745288612E+03  0.37745288612E+03  0.00000000000E+00 0.  1.
         21   -1    0    0  505  502 -0.00000000000E+00 -0.00000000000E+00 -0.21042371845E+03  0.21042371845E+03  0.00000000000E+00 0.  1.
         21    1    1    2  503  502 -0.34861661430E+02  0.54025606027E+01  0.31841113192E+02  0.47522411430E+02  0.00000000000E+00 0.  1.
         21    1    1    2  504  501 -0.68688149255E+02  0.13936746756E+03  0.24753699241E+03  0.29226001347E+03  0.00000000000E+00 0.  1.
         21    1    1    2  505  506 -0.16475208509E+02 -0.38935693548E+02 -0.71298908017E+02  0.82891223974E+02  0.00000000000E+00 0.  1.
         21    1    1    2  506  504  0.12002501919E+03 -0.10583433461E+03 -0.41050029909E+02  0.16520295570E+03  0.00000000000E+00 0.  1.
<scales pt_clust_3="35.27780" pt_clust_4="14000.00000" pt_clust_5="42.42970" pt_clust_6="167.46951"></scales>
<clustering>
<clus scale="   35.278">  1  3  2 -1</clus>
<clus scale="   42.430">  2  5  1 -1</clus>
<clus scale="  167.470">  2  6  1 -1</clus>
<clus scale="   35.278">  1  3  2 -1</clus>
</clustering>
</event>
<event>
 6    0  0.4227619E+002  0.1143494E+03  0.7546771E-02  0.1252721E+00
         21   -1    0    0  503  501  0.00000000000E+00  0.00000000000E+00  0.92266788091E+03  0.92266788091E+03  0.00000000000E+00 0.  1.
         21   -1    0    0  505  502 -0.00000000000E+00 -0.00000000000E+00 -0.41275627466E+03  0.41275627466E+03  0.00000000000E+00 0.  1.
         21    1    1    2  503  502 -0.30236302263E+02  0.34208224682E+02  0.24091273639E+03  0.24520069977E+03  0.00000000000E+00 0.  1.
         21    1    1    2  504  501  0.14298812346E+03 -0.34377320886E+01  0.65391636793E+03  0.66937585682E+03  0.00000000000E+00 0.  1.
         21    1    1    2  505  506 -0.35758336794E+02 -0.17065629629E+02 -0.31009252686E+03  0.31261361067E+03  0.00000000000E+00 0.  1.
         21    1    1    2  506  504 -0.76993484402E+02 -0.13704862964E+02 -0.74824971214E+02  0.10823398831E+03  0.00000000000E+00 0.  1.
<scales pt_clust_3="45.89305" pt_clust_4="114.34939" pt_clust_5="39.62189" pt_clust_6="14000.00000"></scales>
<clustering>
<clus scale="   39.622">  2  5  1 -1</clus>
<clus scale="   45.893">  1  3  2 -1</clus>
<clus scale="  114.349">  1  4  2 -1</clus>
<clus scale="   45.893">  1  3  2 -1</clus>
</clustering>
</event>
<event>
 6    0  0.4227619E+002  0.9708656E+02  0.7546771E-02  0.1286545E+00
         21   -1    0    0  505  501  0.00000000000E+00  0.00000000000E+00  0.56204935789E+03  0.56204935789E+03  0.00000000000E+00 0. -1.
         21   -1    0    0  503  502 -0.00000000000E+00 -0.00000000000E+00 -0.11223297455E+03  0.11223297455E+03  0.00000000000E+00 0. -1.
         21    1    1    2  503  506 -0.28236093097E+02  0.64703963048E+02 -0.47551829477E+02  0.85117896321E+02  0.00000000000E+00 0. -1.
         21    1    1    2  504  501 -0.32933179487E+02 -0.15856737387E+02  0.29621907491E+03  0.29846569447E+03  0.00000000000E+00 0. -1.
         21    1    1    2  505  502 -0.15138895026E+02 -0.10254764755E+03  0.15534127132E+03  0.18675148389E+03  0.00000000000E+00 0. -1.
         21    1    1    2  506  504  0.76308167609E+02  0.53700421890E+02  0.45807866588E+02  0.10394725776E+03  0.00000000000E+00 0. -1.
<scales pt_clust_3="70.54764" pt_clust_4="36.55175" pt_clust_5="97.08656" pt_clust_6="14000.00000"></scales>
<clustering>
<clus scale="   36.552">  1  4  2 -1</clus>
<clus scale="   70.548">  2  3  1 -1</clus>
<clus scale="   97.087">  1  5  2 -1</clus>
<clus scale="   36.552">  1  3  2 -1</clus>
</clustering>
</event>
<event>
 6    0  0.4227619E+002  0.7698150E+02  0.7546771E-02  0.1337843E+00
         21   -1    0    0  504  501  0.00000000000E+00  0.00000000000E+00  0.32719754937E+03  0.32719754937E+03  0.00000000000E+00 0. -1.
         21   -1    0    0  506  502 -0.00000000000E+00 -0.00000000000E+00 -0.12058605516E+04  0.12058605516E+04  0.00000000000E+00 0. -1.
         21    1    1    2  503  502  0.79862236618E+01  0.72969005668E+02 -0.94591065141E+03  0.94875456046E+03  0.00000000000E+00 0. -1.
         21    1    1    2  504  505 -0.14569844529E+02  0.38331579051E+02  0.68995354714E+02  0.80261754866E+02  0.00000000000E+00 0. -1.
         21    1    1    2  505  503  0.35917756660E+02 -0.11863496119E+03 -0.23667892523E+03  0.26717270240E+03  0.00000000000E+00 0.  1.
         21    1    1    2  506  501 -0.29334135793E+02  0.73343764704E+01  0.23493121970E+03  0.23686908324E+03  0.00000000000E+00 0. -1.
<scales pt_clust_3="76.98150" pt_clust_4="58.74382" pt_clust_5="14000.00000" pt_clust_6="30.23714"></scales>
<clustering>
<clus scale="   30.237">  1  6  2 -1</clus>
<clus scale="   58.744">  1  4  2 -1</clus>
<clus scale="   76.981">  2  3  1 -1</clus>
<clus scale="   30.237">  1  3  2 -1</clus>
</clustering>
</event>
<event>
 6    0  0.4227619E+002  0.7601133E+02  0.7546771E-02  0.1340768E+00
         21   -1    0    0  503  501  0.00000000000E+00  0.00000000000E+00  0.25507888581E+03  0.25507888581E+03  0.00000000000E+00 0.  1.
         21   -1    0    0  505  502 -0.00000000000E+00 -0.00000000000E+00 -0.75631442559E+02  0.75631442559E+02  0.00000000000E+00 0.  1.
         21    1    1    2  503  506  0.41993308929E+02 -0.30187560407E+02  0.44344038011E+02  0.68125769759E+02  0.00000000000E+00 0.  1.
         21    1    1    2  504  501 -0.47132218688E+02  0.23475526276E+01  0.48068648414E+02  0.67361353921E+02  0.00000000000E+00 0.  1.
         21    1    1    2  505  504 -0.20677169676E+02 -0.65398005327E+02  0.56910581027E+01  0.68824651026E+02  0.00000000000E+00 0.  1.
         21    1    1    2  506  502  0.25816079434E+02  0.93238013106E+02  0.81343698719E+02  0.12639855366E+03  0.00000000000E+00 0.  1.
<scales pt_clust_3="41.07615" pt_clust_4="47.19065" pt_clust_5="76.01133" pt_clust_6="14000.00000"></scales>
<clustering>
<clus scale="   47.191">  1  4  2 -1</clus>
<clus scale="   41.076">  1  3  2 -1</clus>
<clus scale="   76.011">  2  5  1 -1</clus>
<clus scale="   47.191">  1  3  2 -1</clus>
</clustering>
</event>
<event>
 6    0  0.4227619E+002  0.8931425E+02  0.7546771E-02  0.1304521E+00
         21   -1    0    0  504  501  0.00000000000E+00  0.00000000000E+00  0.17071818941E+03  0.17071818941E+03  0.00000000000E+00 0.  1.
         21   -1    0    0  503  502 -0.00000000000E+00 -0.00000000000E+00 -0.31345769297E+03  0.31345769297E+03  0.00000000000E+00 0.  1.
         21    1    1    2  503  501  0.10786968293E+03 -0.63719360811E+02  0.26996047405E+02  0.12815932277E+03  0.00000000000E+00 0.  1.
         21    1    1    2  504  506 -0.34096094856E+02 -0.23718336515E+01  0.71794472927E+02  0.79514876735E+02  0.00000000000E+00 0.  1.
         21    1    1    2  505  502 -0.38564303616E+02  0.15530638353E+02 -0.19476203742E+03  0.19914983671E+03  0.00000000000E+00 0.  1.
         21    1    1    2  506  505 -0.35209284462E+02  0.50560556110E+02 -0.46767986480E+02  0.77351846169E+02  0.00000000000E+00 0.  1.
<scales pt_clust_3="14000.00000" pt_clust_4="34.17849" pt_clust_5="42.28497" pt_clust_6="89.31425"></scales>
<clustering>
<clus scale="   34.178">  1  4  2 -1</clus>
<clus scale="   42.285">  2  5  1 -1</clus>
<clus scale="   89.314">  2  6  1 -1</clus>
<clus scale="   34.178">  1  3  2 -1</clus>
</clustering>
</event>
<event>
 6    0  0.4227619E+002  0.1055536E+03  0.7546771E-02  0.1269033E+00
         21   -1    0    0  504  501  0.00000000000E+00  0.00000000000E+00  0.48745984588E+03  0.48745984588E+03  0.00000000000E+00 0. -1.
         21   -1    0    0  505  502 -0.00000000000E+00 -0.00000000000E+00 -0.18131363530E+03  0.18131363530E+03  0.00000000000E+00 0.  1.
         21    1    1    2  503  502 -0.45685455952E+02  0.23455218833E+02 -0.98915815353E+02  0.11145244144E+03  0.00000000000E+00 0.  1.
         21    1    1    2  504  503  0.15571199295E+02 -0.10244269653E+03  0.24947997462E+03  0.27014297336E+03  0.00000000000E+00 0. -1.
         21    1    1    2  505  506  0.31671917232E+01 -0.30978544939E+02 -0.46251512578E+02  0.55757544473E+02  0.00000000000E+00 0.  1.
         21    1    1    2  506  501  0.26947064933E+02  0.10996602264E+03  0.20183356389E+03  0.23142052190E+03  0.00000000000E+00 0. -1.
<scales pt_clust_3="43.15679" pt_clust_4="105.55365" pt_clust_5="31.14003" pt_clust_6="14000.00000"></scales>
<clustering>
<clus scale="   31.140">  2  5  1 -1</clus>
<clus scale="   43.157">  2  3  1 -1</clus>
<clus scale="  105.554">  1  4  2 -1</clus>
<clus scale="  105.554">  1  3  2 -1</clus>
</clustering>
</event>
<event>
 6    0  0.4227619E+002  0.1206117E+03  0.7546771E-02  0.1242091E+00
         21   -1    0    0  505  501  0.00000000000E+00  0.00000000000E+00  0.13088444974E+03  0.13088444974E+03  0.00000000000E+00 0. -1.
         21   -1    0    0  504  502 -0.00000000000E+00 -0.00000000000E+00 -0.51440017099E+03  0.51440017099E+03  0.00000000000E+00 0. -1.
         21    1    1    2  503  502 -0.10221915622E+03  0.62799551034E+02 -0.28577716920E+03  0.30993730002E+03  0.00000000000E+00 0. -1.
         21    1    1    2  504  506  0.39296387194E+02 -0.32872994692E+02 -0.15412023106E+03  0.16241270101E+03  0.00000000000E+00 0. -1.
         21    1    1    2  505  503 -0.24158568394E+02  0.22695048705E+02 -0.25913023588E+02  0.42073583804E+02  0.00000000000E+00 0. -1.
         21    1    1    2  506  501  0.87081337416E+02 -0.52621605047E+02  0.82294702595E+02  0.13086103591E+03  0.00000000000E+00 0. -1.
<scales pt_clust_3="31.00913" pt_clust_4="51.23319" pt_clust_5="31.00913" pt_clust_6="105.19959"></scales>
<clustering>
<clus scale="   31.009">  3  5 -1 -1</clus>
<clus scale="   51.233">  2  4  1 -1</clus>
<clus scale="  105.200">  1  6  2 -1</clus>
<clus scale="  105.200">  1  3  2 -1</clus>
</clustering>
</event>
<event>
 6    0  0.4227619E+002  0.1177783E+03  0.7546771E-02  0.1246808E+00
         21   -1    0    0  503  501  0.00000000000E+00  0.00000000000E+00  0.39433595674E+03  0.39433595674E+03  0.00000000000E+00 0.  1.
         21   -1    0    0  505  502 -0.00000000000E+00 -0.00000000000E+00 -0.64548852112E+02  0.64548852112E+02  0.00000000000E+00 0.  1.
         21    1    1    2  503  504  0.34409591785E+02  0.14858740373E+02  0.93470944316E+02  0.10070560860E+03  0.00000000000E+00 0.  1.
         21    1    1    2  504  506 -0.36217728849E+02 -0.50465115456E+02  0.13423842757E+02  0.63550384070E+02  0.00000000000E+00 0.  1.
         21    1    1    2  505  501  0.44322240686E+01  0.97203908032E+02  0.21027486434E+03  0.23169756779E+03  0.00000000000E+00 0.  1.
         21    1    1    2  506  502 -0.26240870040E+01 -0.61597532949E+02  0.12617453208E+02  0.62931248386E+02  0.00000000000E+00 0.  1.
<scales pt_clust_3="37.48069" pt_clust_4="35.26177" pt_clust_5="112.33431" pt_clust_6="35.26177"></scales>
<clustering>
<clus scale="   35.262">  4  6 -1 -1</clus>
<clus scale="   37.481">  1  3  2 -1</clus>
<clus scale="  112.334">  1  5  2 -1</clus>
<clus scale="   37.481">  1  3  2 -1</clus>
</clustering>
</event>
<event>
 6    0  0.4227619E+002  0.1056026E+03  0.7546771E-02  0.1268937E+00
         21   -1    0    0  506  501  0.00000000000E+00  0.00000000000E+00  0.16383465067E+03  0.16383465067E+03  0.00000000000E+00 0.  1.
         21   -1    0    0  505  502 -0.00000000000E+00 -0.00000000000E+00 -0.12143439987E+04  0.12143439987E+04  0.00000000000E+00 0.  1.
         21    1    1    2  503  502  0.25772471992E+01 -0.82475069392E+02 -0.83097691215E+03  0.83506371482E+03  0.00000000000E+00 0.  1.
         21    1    1    2  504  503 -0.87498877200E+02  0.94915043596E+02 -0.29389778877E+03  0.32099973405E+03  0.00000000000E+00 0.  1.
         21    1    1    2  505  501  0.49635202469E+01 -0.34709163446E+02 -0.56884823079E+02  0.66822493646E+02  0.00000000000E+00 0.  1.
         21    1    1    2  506  504  0.79958109754E+02  0.22269189243E+02  0.13125017599E+03  0.15529270685E+03  0.00000000000E+00 0.  1.
<scales pt_clust_3="14000.00000" pt_clust_4="105.60261" pt_clust_5="35.06227" pt_clust_6="82.95483"></scales>
<clustering>
<clus scale="   35.062">  2  5  1 -1</clus>
<clus scale="   82.955">  1  6  2 -1</clus>
<clus scale="  105.603">  1  4  2 -1</clus>
<clus scale="   82.955">  1  3  2 -1</clus>
</clustering>
</event>
<event>
 6    0  0.4227619E+002  0.8256476E+02  0.7546771E-02  0.1321927E+00
         21   -1    0    0  504  501  0.00000000000E+00  0.00000000000E+00  0.72979132795E+03  0.72979132795E+03  0.00000000000E+00 0. -1.
         21   -1    0    0  505  502 -0.00000000000E+00 -0.00000000000E+00 -0.16661052774E+03  0.16661052774E+03  0.00000000000E+00 0. -1.
         21    1    1    2  503  502 -0.33353475188E+02 -0.71202182981E+02  0.44212244133E+02  0.90204920595E+02  0.00000000000E+00 0.  1.
         21    1    1    2  504  503  0.18450292618E+02 -0.83310763775E+02  0.43097548069E+03  0.43934150909E+03  0.00000000000E+00 0. -1.
         21    1    1    2  505  506  0.97669562372E+02  0.10444346791E+03 -0.86658383636E+02  0.16720483503E+03  0.00000000000E+00 0. -1.
         21    1    1    2  506  501 -0.82766379802E+02  0.50069478850E+02  0.17465145902E+03  0.19965059097E+03  0.00000000000E+00 0. -1.
<scales pt_clust_3="78.62700" pt_clust_4="14000.00000" pt_clust_5="79.83243" pt_clust_6="82.56476"></scales>
<clustering>
<clus scale="   78.627">  2  3  1 -1</clus>
<clus scale="   79.832">  2  5  1 -1</clus>
<clus scale="   82.565">  2  6  1 -1</clus>
<clus scale="   82.565">  1  3  2 -1</clus>
</clustering>
</event>
<event>
 6    0  0.4227619E+002  0.9942297E+02  0.7546771E-02  0.1281514E+00
         21   -1    0    0  505  501  0.00000000000E+00  0.00000000000E+00  0.11215820591E+03  0.11215820591E+03  0.00000000000E+00 0. -1.
         21   -1    0    0  506  502 -0.00000000000E+00 -0.00000000000E+00 -0.79043516417E+03  0.79043516417E+03  0.00000000000E+00 0. -1.
         21    1    1    2  503  502 -0.77768965156E+02 -0.86670416102E+02 -0.67357234988E+03  0.68356381084E+03  0.00000000000E+00 0. -1.
         21    1    1    2  504  503  0.37581141608E+02  0.50324551346E+02 -0.80474503740E+02  0.10208353650E+03  0.00000000000E+00 0.  1.
         21    1    1    2  505  504 -0.96507018123E+01  0.33768435774E+02  0.14684637117E+02  0.38066807948E+02  0.00000000000E+00 0.  1.
         21    1    1    2  506  501  0.49838525360E+02  0.25774289816E+01  0.61085258247E+02  0.78879214787E+02  0.00000000000E+00 0. -1.
<scales pt_clust_3="99.42297" pt_clust_4="14000.00000" pt_clust_5="35.12041" pt_clust_6="51.65920"></scales>
<clustering>
<clus scale="   35.120">  1  5  2 -1</clus>
<clus scale="   51.659">  1  6  2 -1</clus>
<clus scale="   99.423">  2  3  1 -1</clus>
<clus scale="   35.120">  1  3  2 -1</clus>
</clustering>
</event>
<event>
 6    0  0.4227619E+002  0.1291105E+03  0.7546771E-02  0.1228782E+00
         21   -1    0    0  505  501  0.00000000000E+00  0.00000000000E+00  0.96650871559E+03  0.96650871559E+03  0.00000000000E+00 0. -1.
         21   -1    0    0  506  502 -0.00000000000E+00 -0.00000000000E+00 -0.12288696455E+04  0.12288696455E+04  0.00000000000E+00 0.  1.
         21    1    1    2  503  501 -0.29450144064E+02  0.12347693651E+03  0.27481276416E+03  0.30271425500E+03  0.00000000000E+00 0.  1.
         21    1    1    2  504  502  0.98996218702E+02  0.12200073447E+02 -0.23095798268E+01  0.99771876140E+02  0.00000000000E+00 0.  1.
         21    1    1    2  505  504 -0.82342356030E+02 -0.71608503644E+01  0.62269198120E+03  0.62815352010E+03  0.00000000000E+00 0. -1.
         21    1    1    2  506  503  0.12796281392E+02 -0.12851615959E+03 -0.11575560955E+04  0.11647387099E+04  0.00000000000E+00 0.  1.
<scales pt_clust_3="129.11049" pt_clust_4="87.94506" pt_clust_5="82.65314" pt_clust_6="14000.00000"></scales>
<clustering>
<clus scale="   82.653">  1  5  2 -1</clus>
<clus scale="   87.945">  1  4  2 -1</clus>
<clus scale="  129.110">  1  3  2 -1</clus>
<clus scale="   82.653">  1  3  2 -1</clus>
</clustering>
</event>
<event>
 6    0  0.4440466E+002  0.1175268E+03  0.7546771E-02  0.1247234E+00
         21   -1    0    0  503  501  0.00000000000E+00  0.00000000000E+00  0.59054365846E+03  0.59054365846E+03  0.00000000000E+00 0.  1.
         21   -1    0    0  506  502 -0.00000000000E+00 -0.00000000000E+00 -0.36140258254E+03  0.36140258254E+03  0.00000000000E+00 0.  1.
         21    1    1    2  503  505 -0.17483218675E+02 -0.24468957829E+02  0.44410711034E+02  0.53634914813E+02  0.00000000000E+00 0.  1.
         21    1    1    2  504  502  0.64582550039E+02  0.26977781969E+02 -0.30251325614E+03  0.31050439067E+03  0.00000000000E+00 0.  1.
         21    1    1    2  505  504  0.66528675409E+02 -0.41265979717E+02 -0.75553363054E+01  0.78651311752E+02  0.00000000000E+00 0.  1.
         21    1    1    2  506  501 -0.11362800677E+03  0.38757155577E+02  0.49479895733E+03  0.50915562376E+03  0.00000000000E+00 0.  1.
<scales pt_clust_3="30.07312" pt_clust_4="69.80224" pt_clust_5="14000.00000" pt_clust_6="117.52685"></scales>
<clustering>
<clus scale="   30.073">  1  3  2 -1</clus>
<clus scale="   69.802">  2  4  1 -1</clus>
<clus scale="  117.527">  1  6  2 -1</clus>
<clus scale="   30.073">  1  3  2 -1</clus>
</clustering>
</event>
<event>
 6    0  0.4227619E+002  0.1746642E+03  0.7546771E-02  0.1173069E+00
         21   -1    0    0  506  501  0.00000000000E+00  0.00000000000E+00  0.19819576377E+03  0.19819576377E+03  0.00000000000E+00 0. -1.
         21   -1    0    0  504  502 -0.00000000000E+00 -0.00000000000E+00 -0.63737393957E+03  0.63737393957E+03  0.00000000000E+00 0.  1.
         21    1    1    2  503  501  0.81573518075E+02  0.14341467848E+03  0.85092588763E+02  0.18564147574E+03  0.00000000000E+00 0. -1.
         21    1    1    2  504  503 -0.61003458341E+02  0.94665380069E+01 -0.57723435918E+02  0.84516461861E+02  0.00000000000E+00 0. -1.
         21    1    1    2  505  502 -0.53090727934E+02 -0.14951637589E+03 -0.49639934379E+03  0.52113921419E+03  0.00000000000E+00 0.  1.
         21    1    1    2  506  505  0.32520668199E+02 -0.33648406009E+01  0.29852015140E+02  0.44272551545E+02  0.00000000000E+00 0.  1.
<scales pt_clust_3="174.66423" pt_clust_4="59.01910" pt_clust_5="14000.00000" pt_clust_6="32.69428"></scales>
<clustering>
<clus scale="   32.694">  1  6  2 -1</clus>
<clus scale="   59.019">  2  4  1 -1</clus>
<clus scale="  174.664">  1  3  2 -1</clus>
<clus scale="   32.694">  1  3  2 -1</clus>
</clustering>
</event>
<event>
 6    0  0.4227619E+002  0.6818921E+02  0.7546771E-02  0.1366361E+00
         21   -1    0    0  505  501  0.00000000000E+00  0.00000000000E+00  0.28649267445E+04  0.28649267445E+04  0.00000000000E+00 0. -1.
         21   -1    0    0  504  502 -0.00000000000E+00 -0.00000000000E+00 -0.45152305781E+02  0.45152305781E+02  0.00000000000E+00 0.  1.
         21    1    1    2  503  501  0.80750170995E+01 -0.61312382868E+02  0.25681484258E+04  0.25688929038E+04  0.00000000000E+00 0. -1.
         21    1    1    2  504  506 -0.40832553031E+02  0.15516802054E+02 -0.44169991439E+01  0.43904195864E+02  0.00000000000E+00 0.  1.
         21    1    1    2  505  502  0.88115150376E+02  0.33888602136E+02  0.15730739637E+03  0.18346207792E+03  0.00000000000E+00 0.  1.
         21    1    1    2  506  503 -0.55357614445E+02  0.11906978678E+02  0.98735615692E+02  0.11381987271E+03  0.00000000000E+00 0.  1.
<scales pt_clust_3="61.47829" pt_clust_4="43.68144" pt_clust_5="14000.00000" pt_clust_6="68.18921"></scales>
<clustering>
<clus scale="   43.681">  2  4  1 -1</clus>
<clus scale="   61.478">  1  3  2 -1</clus>
<clus scale="   68.189">  1  6  2 -1</clus>
<clus scale="   61.478">  1  3  2 -1</clus>
</clustering>
</event>
<event>
 6    0  0.4227619E+002  0.9463221E+02  0.7546771E-02  0.1292007E+00
         21   -1    0    0  505  501  0.00000000000E+00  0.00000000000E+00  0.23929951552E+03  0.23929951552E+03  0.00000000000E+00 0.  1.
         21   -1    0    0  503  502 -0.00000000000E+00 -0.00000000000E+00 -0.12728600495E+03  0.12728600495E+03  0.00000000000E+00 0. -1.
         21    1    1    2  503  501  0.93191528074E+02  0.24183997719E+02  0.12185412106E+03  0.15529956043E+03  0.00000000000E+00 0.  1.
         21    1    1    2  504  502 -0.19945040316E+02  0.50242296274E+02 -0.30768334656E+02  0.62199544899E+02  0.00000000000E+00 0. -1.
         21    1    1    2  505  506 -0.33919568397E+02 -0.88344317442E+02  0.40587468525E+02  0.10296891835E+03  0.00000000000E+00 0.  1.
         21    1    1    2  506  504 -0.39326919361E+02  0.13918023449E+02 -0.19659744355E+02  0.46117496802E+02  0.00000000000E+00 0. -1.
<scales pt_clust_3="81.44377" pt_clust_4="34.69597" pt_clust_5="94.63221" pt_clust_6="34.69597"></scales>
<clustering>
<clus scale="   34.696">  4  6 -1 -1</clus>
<clus scale="   94.632">  1  5  2 -1</clus>
<clus scale="   81.444">  1  3  2 -1</clus>
<clus scale="   94.632">  1  3  2 -1</clus>
</clustering>
</event>
<event>
 6    0  0.4227619E+002  0.9938482E+02  0.7546771E-02  0.1281595E+00
         21   -1    0    0  506  501  0.00000000000E+00  0.00000000000E+00  0.13398265881E+03  0.13398265881E+03  0.00000000000E+00 0.  1.
         21   -1    0    0  503  502 -0.00000000000E+00 -0.00000000000E+00 -0.65889383135E+03  0.65889383135E+03  0.00000000000E+00 0.  1.
         21    1    1    2  503  501  0.18618395347E+02  0.56373803762E+02  0.46829838233E+02  0.75615369765E+02  0.00000000000E+00 0.  1.
         21    1    1    2  504  502 -0.30545534430E+02 -0.10393095847E+03 -0.49875295463E+03  0.51038140988E+03  0.00000000000E+00 0.  1.
         21    1    1    2  505  504  0.12268148508E+02  0.80234765052E+02 -0.12286246699E+03  0.14725254085E+03  0.00000000000E+00 0.  1.
         21    1    1    2  506  505 -0.34100942515E+00 -0.32677610345E+02  0.49874410846E+02  0.59627169667E+02  0.00000000000E+00 0.  1.
<scales pt_clust_3="36.13296" pt_clust_4="14000.00000" pt_clust_5="99.38482" pt_clust_6="32.67939"></scales>
<clustering>
<clus scale="   32.679">  1  6  2 -1</clus>
<clus scale="   36.133">  1  3  2 -1</clus>
<clus scale="   99.385">  1  5  2 -1</clus>
<clus scale="   32.679">  1  3  2 -1</clus>
</clustering>
</event>
<event>
 6    0  0.4227619E+002  0.9706016E+02  0.7546771E-02  0.1286602E+00
         21   -1    0    0  504  501  0.00000000000E+00  0.00000000000E+00  0.13666204473E+03  0.13666204473E+03  0.00000000000E+00 0.  1.
         21   -1    0    0  506  502 -0.00000000000E+00 -0.00000000000E+00 -0.10277155307E+04  0.10277155307E+04  0.00000000000E+00 0. -1.
         21    1    1    2  503  502  0.41503805261E+02  0.98997294772E+01 -0.13017263993E+03  0.13698717707E+03  0.00000000000E+00 0. -1.
         21    1    1    2  504  503  0.77250103954E+02 -0.12403060100E+02 -0.10196623894E+02  0.78901112791E+02  0.00000000000E+00 0.  1.
         21    1    1    2  505  501 -0.24056082015E+02  0.93286822154E+02  0.68919991374E+02  0.11845290828E+03  0.00000000000E+00 0.  1.
         21    1    1    2  506  505 -0.94697827200E+02 -0.90783491531E+02 -0.81960421356E+03  0.83003637734E+03  0.00000000000E+00 0. -1.
<scales pt_clust_3="42.66814" pt_clust_4="80.20713" pt_clust_5="97.06016" pt_clust_6="14000.00000"></scales>
<clustering>
<clus scale="   42.668">  2  3  1 -1</clus>
<clus scale="   80.207">  1  4  2 -1</clus>
<clus scale="   97.060">  1  5  2 -1</clus>
<clus scale="   80.207">  1  3  2 -1</clus>
</clustering>
</event>
<event>
 6    0  0.4227619E+002  0.7041123E+02  0.7546771E-02  0.1358700E+00
         21   -1    0    0  503  501  0.00000000000E+00  0.00000000000E+00  0.18894597270E+03  0.18894597270E+03  0.00000000000E+00 0. -1.
         21   -1    0    0  506  502 -0.00000000000E+00 -0.00000000000E+00 -0.21157164865E+03  0.21157164865E+03  0.00000000000E+00 0. -1.
         21    1    1    2  503  504  0.55146739995E+02  0.29038719719E+02  0.62406684381E+02  0.88198664561E+02  0.00000000000E+00 0. -1.
         21    1    1    2  504  502 -0.75396278897E+02 -0.10911067003E+01 -0.37820399064E+02  0.84357406141E+02  0.00000000000E+00 0. -1.
         21    1    1    2  505  501 -0.22373683424E+02  0.42389425170E+02  0.69961192804E+02  0.84805740223E+02  0.00000000000E+00 0. -1.
         21    1    1    2  506  505  0.42623222326E+02 -0.70337038189E+02 -0.11717315407E+03  0.14315581042E+03  0.00000000000E+00 0. -1.
<scales pt_clust_3="70.19410" pt_clust_4="70.41123" pt_clust_5="47.93167" pt_clust_6="14000.00000"></scales>
<clustering>
<clus scale="   47.932">  1  5  2 -1</clus>
<clus scale="   70.194">  1  3  2 -1</clus>
<clus scale="   70.411">  1  4  2 -1</clus>
<clus scale="   47.932">  1  3  2 -1</clus>
</clustering>
</event>
<event>
 6    0  0.4227619E+002  0.8228782E+02  0.7546771E-02  0.1322682E+00
         21   -1    0    0  505  501  0.00000000000E+00  0.00000000000E+00  0.47202057316E+03  0.47202057316E+03  0.00000000000E+00 0.  1.
         21   -1    0    0  504  502 -0.00000000000E+00 -0.00000000000E+00 -0.51860552000E+03  0.51860552000E+03  0.00000000000E+00 0.  1.
         21    1    1    2  503  502  0.16242352754E+02  0.28807629825E+02 -0.26713104901E+02  0.42512157468E+02  0.00000000000E+00 0.  1.
         21    1    1    2  504  501 -0.69284976449E+02 -0.87961180198E+02 -0.45936310396E+03  0.47281290006E+03  0.00000000000E+00 0.  1.
         21    1    1    2  505  506 -0.24866112580E+01 -0.31752765295E+02  0.28997242763E+03  0.29171635217E+03  0.00000000000E+00 0.  1.
         21    1    1    2  506  503  0.55529234953E+02  0.90906315668E+02  0.14951883440E+03  0.18358468346E+03  0.00000000000E+00 0.  1.
<scales pt_clust_3="31.81719" pt_clust_4="14000.00000" pt_clust_5="31.84998" pt_clust_6="82.28782"></scales>
<clustering>
<clus scale="   31.850">  1  5  2 -1</clus>
<clus scale="   31.817">  2  3  1 -1</clus>
<clus scale="   82.288">  1  6  2 -1</clus>
<clus scale="   31.850">  1  3  2 -1</clus>
</clustering>
</event>
<event>
 6    0  0.4227619E+002  0.7977210E+02  0.7546771E-02  0.1329699E+00
         21   -1    0    0  504  501  0.00000000000E+00  0.00000000000E+00  0.66729280208E+02  0.66729280208E+02  0.00000000000E+00 0. -1.
         21   -1    0    0  503  502 -0.00000000000E+00 -0.00000000000E+00 -0.15518227655E+04  0.15518227655E+04  0.00000000000E+00 0.  1.
         21    1    1    2  503  506  0.81539221907E+01  0.53143903912E+02 -0.11962295568E+04  0.11974372274E+04  0.00000000000E+00 0.  1.
         21    1    1    2  504  505  0.28639003495E+02 -0.27647196139E+02 -0.17458600902E+02  0.43466800215E+02  0.00000000000E+00 0.  1.
         21    1    1    2  505  502  0.69587224888E+02 -0.33057958570E+02 -0.25907743315E+03  0.27028933915E+03  0.00000000000E+00 0.  1.
         21    1    1    2  506  501 -0.10638015057E+03  0.75612507971E+01 -0.12327894360E+02  0.10735867887E+03  0.00000000000E+00 0. -1.
<scales pt_clust_3="53.50872" pt_clust_4="39.80653" pt_clust_5="14000.00000" pt_clust_6="79.77210"></scales>
<clustering>
<clus scale="   39.807">  1  4  2 -1</clus>
<clus scale="   53.509">  2  3  1 -1</clus>
<clus scale="   79.772">  1  6  2 -1</clus>
<clus scale="   39.807">  1  3  2 -1</clus>
</clustering>
</event>
<event>
 6    0  0.4227619E+002  0.8936206E+02  0.7546771E-02  0.1304404E+00
         21   -1    0    0  503  501  0.00000000000E+00  0.00000000000E+00  0.12627739848E+04  0.12627739848E+04  0.00000000000E+00 0. -1.
         21   -1    0    0  506  502 -0.00000000000E+00 -0.00000000000E+00 -0.14197679042E+04  0.14197679042E+04  0.00000000000E+00 0. -1.
         21    1    1    2  503  504 -0.78440427854E+02 -0.56054322623E+02  0.54534777661E+03  0.55380428426E+03  0.00000000000E+00 0. -1.
         21    1    1    2  504  502 -0.44278669885E+02  0.83217420113E+02 -0.10213408759E+04  0.10256816877E+04  0.00000000000E+00 0. -1.
         21    1    1    2  505  501  0.34389689176E+02 -0.21944518016E+02  0.70543791826E+03  0.70661649366E+03  0.00000000000E+00 0. -1.
         21    1    1    2  506  505  0.88329408562E+02 -0.52185794739E+01 -0.38643873830E+03  0.39643942343E+03  0.00000000000E+00 0. -1.
<scales pt_clust_3="14000.00000" pt_clust_4="89.36206" pt_clust_5="40.79476" pt_clust_6="88.80357"></scales>
<clustering>
<clus scale="   40.795">  1  5  2 -1</clus>
<clus scale="   88.804">  2  6  1 -1</clus>
<clus scale="   89.362">  2  4  1 -1</clus>
<clus scale="   40.795">  1  3  2 -1</clus>
</clustering>
</event>
<event>
 6    0  0.4227619E+002  0.6632247E+02  0.7546771E-02  0.1373065E+00
         21   -1    0    0  504  501  0.00000000000E+00  0.00000000000E+00  0.27888410730E+02  0.27888410730E+02  0.00000000000E+00 0.  1.
         21   -1    0    0  505  502 -0.00000000000E+00 -0.00000000000E+00 -0.12459501534E+04  0.12459501534E+04  0.00000000000E+00 0. -1.
         21    1    1    2  503  502 -0.52219872950E+02  0.33883874931E+02 -0.17845605184E+03  0.18900157287E+03  0.00000000000E+00 0. -1.
         21    1    1    2  504  503 -0.64726040984E+02  0.58547334314E+01 -0.41987143727E+02  0.77373500136E+02  0.00000000000E+00 0.  1.
         21    1    1    2  505  506  0.45253976033E+02 -0.11099689642E+02 -0.63556368390E+03  0.63726942635E+03  0.00000000000E+00 0. -1.
         21    1    1    2  506  501  0.71691937900E+02 -0.28638918721E+02 -0.36205486317E+03  0.37019406474E+03  0.00000000000E+00 0. -1.
<scales pt_clust_3="49.20297" pt_clust_4="66.32247" pt_clust_5="46.59534" pt_clust_6="14000.00000"></scales>
<clustering>
<clus scale="   46.595">  2  5  1 -1</clus>
<clus scale="   49.203">  2  3  1 -1</clus>
<clus scale="   66.322">  1  4  2 -1</clus>
<clus scale="   66.322">  1  3  2 -1</clus>
</clustering>
</event>
<event>
 6    0  0.4227619E+002  0.1775544E+03  0.7546771E-02  0.1170191E+00
         21   -1    0    0  504  501  0.00000000000E+00  0.00000000000E+00  0.76860393779E+03  0.76860393779E+03  0.00000000000E+00 0. -1.
         21   -1    0    0  503  502 -0.00000000000E+00 -0.00000000000E+00 -0.50994046992E+03  0.50994046992E+03  0.00000000000E+00 0. -1.
         21    1    1    2  503  505  0.84855416100E+02  0.15658323965E+03 -0.42258428630E+03  0.45858067077E+03  0.00000000000E+00 0. -1.
         21    1    1    2  504  502 -0.31357743436E+02  0.87638126220E+02  0.57272107374E+02  0.10928789285E+03  0.00000000000E+00 0.  1.
         21    1    1    2  505  506 -0.80536379677E+02 -0.15172246832E+03  0.15328764120E+03  0.23022362344E+03  0.00000000000E+00 0. -1.
         21    1    1    2  506  501  0.27038707013E+02 -0.92498897554E+02  0.47068800558E+03  0.48045222065E+03  0.00000000000E+00 0. -1.
<scales pt_clust_3="177.55436" pt_clust_4="93.07926" pt_clust_5="14000.00000" pt_clust_6="32.12044"></scales>
<clustering>
<clus scale="   93.079">  1  4  2 -1</clus>
<clus scale="   32.120">  1  6  2 -1</clus>
<clus scale="  177.554">  2  3  1 -1</clus>
<clus scale="   93.079">  1  3  2 -1</clus>
</clustering>
</event>
<event>
 6    0  0.4227619E+002  0.8046163E+02  0.7546771E-02  0.1327746E+00
         21   -1    0    0  506  501  0.00000000000E+00  0.00000000000E+00  0.44871715763E+03  0.44871715763E+03  0.00000000000E+00 0. -1.
         21   -1    0    0  501  502 -0.00000000000E+00 -0.00000000000E+00 -0.74596057678E+03  0.74596057678E+03  0.00000000000E+00 0. -1.
         21    1    1    2  503  505 -0.76624239332E+02  0.26957221397E+02  0.35369123381E+03  0.36289868381E+03  0.00000000000E+00 0. -1.
         21    1    1    2  504  502  0.46891782690E+02 -0.69077170901E+02 -0.64466807715E+03  0.65005186295E+03  0.00000000000E+00 0. -1.
         21    1    1    2  505  504  0.23550679743E+01  0.74944484300E+02 -0.71585356242E+02  0.10366622063E+03  0.00000000000E+00 0.  1.
         21    1    1    2  506  503  0.27377388667E+02 -0.32824534796E+02  0.65318780433E+02  0.78060967020E+02  0.00000000000E+00 0. -1.
<scales pt_clust_3="50.78409" pt_clust_4="80.46163" pt_clust_5="14000.00000" pt_clust_6="42.74309"></scales>
<clustering>
<clus scale="   42.743">  1  6  2 -1</clus>
<clus scale="   50.784">  1  3  2 -1</clus>
<clus scale="   80.462">  2  4  1 -1</clus>
<clus scale="   42.743">  1  3  2 -1</clus>
</clustering>
</event>
<event>
 6    0  0.4227619E+002  0.1251499E+03  0.7546771E-02  0.1234835E+00
         21   -1    0    0  504  501  0.00000000000E+00  0.00000000000E+00  0.18275980083E+03  0.18275980083E+03  0.00000000000E+00 0.  1.
         21   -1    0    0  505  502 -0.00000000000E+00 -0.00000000000E+00 -0.61466431509E+03  0.61466431509E+03  0.00000000000E+00 0.  1.
         21    1    1    2  503  506  0.58953524723E+02  0.51187559310E+02  0.99190778345E+02  0.12623190886E+03  0.00000000000E+00 0.  1.
         21    1    1    2  504  503 -0.51310835963E+01  0.42554018773E+02  0.36734363998E+02  0.56449854126E+02  0.00000000000E+00 0.  1.
         21    1    1    2  505  501  0.22361569032E+01  0.51065368407E+02 -0.30671990876E+03  0.31094979447E+03  0.00000000000E+00 0.  1.
         21    1    1    2  506  502 -0.56058598030E+02 -0.14480694649E+03 -0.26110974784E+03  0.30379255847E+03  0.00000000000E+00 0.  1.
<scales pt_clust_3="41.99650" pt_clust_4="41.99650" pt_clust_5="51.11431" pt_clust_6="111.57893"></scales>
<clustering>
<clus scale="   41.997">  3  4 -1 -1</clus>
<clus scale="   51.114">  2  5  1 -1</clus>
<clus scale="  111.579">  2  6  1 -1</clus>
<clus scale="  125.150">  1  3  2 -1</clus>
</clustering>
</event>
<event>
 6    0  0.4227619E+002  0.1902242E+03  0.7546771E-02  0.1158259E+00
         21   -1    0    0  505  501  0.00000000000E+00  0.00000000000E+00  0.53563105479E+03  0.53563105479E+03  0.00000000000E+00 0.  1.
         21   -1    0    0  506  502 -0.00000000000E+00 -0.00000000000E+00 -0.33218633232E+03  0.33218633232E+03  0.00000000000E+00 0. -1.
         21    1    1    2  503  501  0.12282204603E+03 -0.13078767631E+02  0.71890124500E+02  0.14291430704E+03  0.00000000000E+00 0.  1.
         21    1    1    2  504  502 -0.82936737010E+02 -0.11389925519E+03  0.29273124349E+03  0.32487401188E+03  0.00000000000E+00 0.  1.
         21    1    1    2  505  504  0.12381153299E+02 -0.44840861302E+02  0.84054701830E+02  0.96068666583E+02  0.00000000000E+00 0.  1.
         21    1    1    2  506  503 -0.52266462324E+02  0.17181888412E+03 -0.24523134735E+03  0.30396040162E+03  0.00000000000E+00 0. -1.
<scales pt_clust_3="123.51643" pt_clust_4="40.82723" pt_clust_5="40.82723" pt_clust_6="176.45586"></scales>
<clustering>
<clus scale="   40.827">  4  5 -1 -1</clus>
<clus scale="  123.516">  1  3  2 -1</clus>
<clus scale="  176.456">  2  6  1 -1</clus>
<clus scale="  123.516">  1  3  2 -1</clus>
</clustering>
</event>
<event>
 6    0  0.4227619E+002  0.7245440E+02  0.7546771E-02  0.1351940E+00
         21   -1    0    0  506  501  0.00000000000E+00  0.00000000000E+00  0.45053610409E+03  0.45053610409E+03  0.00000000000E+00 0.  1.
         21   -1    0    0  504  502 -0.00000000000E+00 -0.00000000000E+00 -0.24532095930E+03  0.24532095930E+03  0.00000000000E+00 0.  1.
         21    1    1    2  503  505  0.43699091172E+02  0.80129698675E+02  0.50030951477E+02  0.10408398188E+03  0.00000000000E+00 0.  1.
         21    1    1    2  504  501 -0.64115373023E+01 -0.93738830337E+02  0.15336531123E+03  0.17985826312E+03  0.00000000000E+00 0.  1.
         21    1    1    2  505  502 -0.51321756370E+00 -0.48503921077E+02 -0.19569878835E+03  0.20162070706E+03  0.00000000000E+00 0.  1.
         21    1    1    2  506  503 -0.36774336306E+02  0.62113052739E+02  0.19751767043E+03  0.21029411134E+03  0.00000000000E+00 0.  1.
<scales pt_clust_3="72.45440" pt_clust_4="14000.00000" pt_clust_5="48.50664" pt_clust_6="66.59376"></scales>
<clustering>
<clus scale="   48.507">  2  5  1 -1</clus>
<clus scale="   66.594">  1  6  2 -1</clus>
<clus scale="   72.454">  2  3  1 -1</clus>
<clus scale="   66.594">  1  3  2 -1</clus>
</clustering>
</event>
<event>
 6    0  0.4227619E+002  0.8592063E+02  0.7546771E-02  0.1313042E+00
         21   -1    0    0  504  501  0.00000000000E+00  0.00000000000E+00  0.14282029146E+04  0.14282029146E+04  0.00000000000E+00 0. -1.
         21   -1    0    0  503  502 -0.00000000000E+00 -0.00000000000E+00 -0.26345914178E+02  0.26345914178E+02  0.00000000000E+00 0. -1.
         21    1    1    2  503  501 -0.49442019727E+02 -0.17936522395E+02  0.46237540568E+02  0.70029581664E+02  0.00000000000E+00 0. -1.
         21    1    1    2  504  506  0.90401751834E+02 -0.34836006594E+02  0.10526892100E+04  0.10571379271E+04  0.00000000000E+00 0. -1.
         21    1    1    2  505  502  0.23521081983E+02  0.45577060813E+02  0.78571226795E+02  0.93829352817E+02  0.00000000000E+00 0. -1.
         21    1    1    2  506  505 -0.64480814090E+02  0.71954681750E+01  0.22435902312E+03  0.23355196724E+03  0.00000000000E+00 0. -1.
<scales pt_clust_3="36.21358" pt_clust_4="85.92063" pt_clust_5="51.28850" pt_clust_6="14000.00000"></scales>
<clustering>
<clus scale="   51.288">  2  5  1 -1</clus>
<clus scale="   36.214">  2  3  1 -1</clus>
<clus scale="   85.921">  1  4  2 -1</clus>
<clus scale="   85.921">  1  3  2 -1</clus>
</clustering>
</event>
<event>
 6    0  0.4227619E+002  0.8383783E+02  0.7546771E-02  0.1318500E+00
         21   -1    0    0  506  501  0.00000000000E+00  0.00000000000E+00  0.48721033998E+02  0.48721033998E+02  0.00000000000E+00 0.  1.
         21   -1    0    0  505  502 -0.00000000000E+00 -0.00000000000E+00 -0.47777170820E+03  0.47777170820E+03  0.00000000000E+00 0.  1.
         21    1    1    2  503  502  0.43553880029E+02 -0.58351964714E+02 -0.20470287482E+03  0.21726748310E+03  0.00000000000E+00 0.  1.
         21    1    1    2  504  501  0.32977308786E+02 -0.80764478785E+01 -0.28970950925E+02  0.44632363847E+02  0.00000000000E+00 0.  1.
         21    1    1    2  505  504 -0.50699380772E+02  0.97711016001E+02 -0.19511080197E+03  0.22402253213E+03  0.00000000000E+00 0.  1.
         21    1    1    2  506  503 -0.25831808043E+02 -0.31282603409E+02 -0.26604648580E+00  0.40570363118E+02  0.00000000000E+00 0.  1.
<scales pt_clust_3="83.83783" pt_clust_4="33.95191" pt_clust_5="14000.00000" pt_clust_6="36.54096"></scales>
<clustering>
<clus scale="   33.952">  1  4  2 -1</clus>
<clus scale="   36.541">  1  6  2 -1</clus>
<clus scale="   83.838">  2  3  1 -1</clus>
<clus scale="   33.952">  1  3  2 -1</clus>
</clustering>
</event>
<event>
 6    0  0.4227619E+002  0.9365066E+02  0.7546771E-02  0.1294244E+00
         21   -1    0    0  504  501  0.00000000000E+00  0.00000000000E+00  0.87774723809E+02  0.87774723809E+02  0.00000000000E+00 0.  1.
         21   -1    0    0  505  502 -0.00000000000E+00 -0.00000000000E+00 -0.89156005260E+03  0.89156005260E+03  0.00000000000E+00 0. -1.
         21    1    1    2  503  502  0.59152810815E+02  0.11476519023E+02 -0.10566321128E+02  0.61175261817E+02  0.00000000000E+00 0.  1.
         21    1    1    2  504  503  0.33427984105E+02  0.28512548807E+02  0.37467121032E+02  0.57742365030E+02  0.00000000000E+00 0. -1.
         21    1    1    2  505  506  0.53230027022E+02 -0.35490163046E+02 -0.41442280651E+03  0.41933190912E+03  0.00000000000E+00 0. -1.
         21    1    1    2  506  501 -0.14581082194E+03 -0.44989047843E+01 -0.41626332219E+03  0.44108524044E+03  0.00000000000E+00 0. -1.
<scales pt_clust_3="14000.00000" pt_clust_4="43.93627" pt_clust_5="64.76098" pt_clust_6="93.65066"></scales>
<clustering>
<clus scale="   43.936">  1  4  2 -1</clus>
<clus scale="   64.761">  2  5  1 -1</clus>
<clus scale="   93.651">  2  6  1 -1</clus>
<clus scale="   43.936">  1  3  2 -1</clus>
</clustering>
</event>
<event>
 6    0  0.4227619E+002  0.7792921E+02  0.7546771E-02  0.1335033E+00
         21   -1    0    0  504  501  0.00000000000E+00  0.00000000000E+00  0.35690600267E+03  0.35690600267E+03  0.00000000000E+00 0. -1.
         21   -1    0    0  506  502 -0.00000000000E+00 -0.00000000000E+00 -0.13009445525E+03  0.13009445525E+03  0.00000000000E+00 0. -1.
         21    1    1    2  503  505  0.21281460113E+01  0.66513183133E+02  0.10640007951E+03  0.12549704959E+03  0.00000000000E+00 0. -1.
         21    1    1    2  504  502  0.20331068447E+02 -0.83940118876E+02  0.65955191793E+02  0.10867098613E+03  0.00000000000E+00 0. -1.
         21    1    1    2  505  501 -0.57918383908E+02  0.24027112642E+02  0.14358647510E+03  0.15668094066E+03  0.00000000000E+00 0. -1.
         21    1    1    2  506  503  0.35459169449E+02 -0.66001768985E+01 -0.89130198978E+02  0.96151481544E+02  0.00000000000E+00 0. -1.
<scales pt_clust_3="77.92921" pt_clust_4="14000.00000" pt_clust_5="56.55199" pt_clust_6="36.06820"></scales>
<clustering>
<clus scale="   36.068">  2  6  1 -1</clus>
<clus scale="   56.552">  1  5  2 -1</clus>
<clus scale="   77.929">  1  3  2 -1</clus>
<clus scale="   56.552">  1  3  2 -1</clus>
</clustering>
</event>
<event>
 6    0  0.4227619E+002  0.1161646E+03  0.7546771E-02  0.1249562E+00
         21   -1    0    0  504  501  0.00000000000E+00  0.00000000000E+00  0.36694123638E+02  0.36694123638E+02  0.00000000000E+00 0. -1.
         21   -1    0    0  503  502 -0.00000000000E+00 -0.00000000000E+00 -0.27701334379E+04  0.27701334379E+04  0.00000000000E+00 0. -1.
         21    1    1    2  503  506  0.81294296585E+02  0.63852003834E+02 -0.10006694993E+04  0.10059946759E+04  0.00000000000E+00 0. -1.
         21    1    1    2  504  505  0.14039636964E+02 -0.52502594489E+02 -0.81900741301E+02  0.98292244149E+02  0.00000000000E+00 0.  1.
         21    1    1    2  505  502 -0.12925658243E+03 -0.34902721658E+02 -0.16555712006E+04  0.16609760577E+04  0.00000000000E+00 0. -1.
         21    1    1    2  506  501  0.33922648882E+02  0.23553312313E+02  0.47021269396E+01  0.41564583792E+02  0.00000000000E+00 0. -1.
<scales pt_clust_3="116.16456" pt_clust_4="51.55123" pt_clust_5="14000.00000" pt_clust_6="41.29776"></scales>
<clustering>
<clus scale="   41.298">  1  6  2 -1</clus>
<clus scale="   51.551">  1  4  2 -1</clus>
<clus scale="  116.165">  2  3  1 -1</clus>
<clus scale="   41.298">  1  3  2 -1</clus>
</clustering>
</event>
<event>
 6    0  0.4227619E+002  0.1216572E+03  0.7546771E-02  0.1240388E+00
         21   -1    0    0  506  501  0.00000000000E+00  0.00000000000E+00  0.19802991002E+03  0.19802991002E+03  0.00000000000E+00 0. -1.
         21   -1    0    0  503  502 -0.00000000000E+00 -0.00000000000E+00 -0.58151353868E+03  0.58151353868E+03  0.00000000000E+00 0. -1.
         21    1    1    2  503  504  0.91341856110E+02 -0.17998651419E+02 -0.26442243876E+03  0.28033285974E+03  0.00000000000E+00 0. -1.
         21    1    1    2  504  501  0.90459646635E+02 -0.82561885225E+02  0.10996412526E+03  0.16459502242E+03  0.00000000000E+00 0. -1.
         21    1    1    2  505  502 -0.65431104661E+02  0.54383928767E+02 -0.18195122491E+03  0.20086087078E+03  0.00000000000E+00 0. -1.
         21    1    1    2  506  505 -0.11637039808E+03  0.46176607877E+02 -0.47074090249E+02  0.13375469576E+03  0.00000000000E+00 0. -1.
<scales pt_clust_3="49.83457" pt_clust_4="121.65724" pt_clust_5="85.08138" pt_clust_6="14000.00000"></scales>
<clustering>
<clus scale="   85.081">  2  5  1 -1</clus>
<clus scale="   49.835">  2  3  1 -1</clus>
<clus scale="  121.657">  1  4  2 -1</clus>
<clus scale="  121.657">  1  3  2 -1</clus>
</clustering>
</event>
<event>
 6    0  0.4227619E+002  0.1322217E+03  0.7546771E-02  0.1224196E+00
         21   -1    0    0  504  501  0.00000000000E+00  0.00000000000E+00  0.16371543076E+04  0.16371543076E+04  0.00000000000E+00 0. -1.
         21   -1    0    0  505  502 -0.00000000000E+00 -0.00000000000E+00 -0.60907523210E+02  0.60907523210E+02  0.00000000000E+00 0. -1.
         21    1    1    2  503  506 -0.94163564559E+01  0.64128086937E+02  0.67130230158E+03  0.67442409462E+03  0.00000000000E+00 0. -1.
         21    1    1    2  504  502 -0.34058007678E+02 -0.40608459940E+02  0.12521279454E+03  0.13596778597E+03  0.00000000000E+00 0.  1.
         21    1    1    2  505  503 -0.90016058311E+01 -0.69235269063E+02 -0.29251877114E+02  0.75698241092E+02  0.00000000000E+00 0. -1.
         21    1    1    2  506  501  0.52475969965E+02  0.45715642066E+02  0.80898356538E+03  0.81197170911E+03  0.00000000000E+00 0. -1.
<scales pt_clust_3="62.75298" pt_clust_4="52.99995" pt_clust_5="115.22205" pt_clust_6="62.75298"></scales>
<clustering>
<clus scale="   53.000">  2  4  1 -1</clus>
<clus scale="   62.753">  3  6 -1 -1</clus>
<clus scale="  115.222">  2  5  1 -1</clus>
<clus scale="  132.222">  1  3  2 -1</clus>
</clustering>
</event>
<event>
 6    0  0.4227619E+002  0.1340427E+03  0.7546771E-02  0.1221577E+00
         21   -1    0    0  506  501  0.00000000000E+00  0.00000000000E+00  0.24441288684E+03  0.24441288684E+03  0.00000000000E+00 0. -1.
         21   -1    0    0  505  502 -0.00000000000E+00 -0.00000000000E+00 -0.89989974750E+03  0.89989974750E+03  0.00000000000E+00 0.  1.
         21    1    1    2  503  502  0.11856504623E+03  0.34374384454E+02 -0.55110679606E+03  0.56476364008E+03  0.00000000000E+00 0.  1.
         21    1    1    2  504  501 -0.20494615860E+02 -0.29013992886E+02 -0.47165716534E+02  0.59046133477E+02  0.00000000000E+00 0. -1.
         21    1    1    2  505  504 -0.87257256431E+02 -0.39183417076E+02 -0.27949215606E+03  0.29540655760E+03  0.00000000000E+00 0.  1.
         21    1    1    2  506  503 -0.10813173941E+02  0.33823025508E+02  0.22227780799E+03  0.22509630319E+03  0.00000000000E+00 0. -1.
<scales pt_clust_3="123.68286" pt_clust_4="31.48913" pt_clust_5="31.48913" pt_clust_6="35.50946"></scales>
<clustering>
<clus scale="   31.489">  4  5 -1 -1</clus>
<clus scale="   35.509">  1  6  2 -1</clus>
<clus scale="  123.683">  2  3  1 -1</clus>
<clus scale="   35.509">  1  3  2 -1</clus>
</clustering>
</event>
<event>
 6    0  0.4227619E+002  0.7646704E+02  0.7546771E-02  0.1339387E+00
         21   -1    0    0  504  501  0.00000000000E+00  0.00000000000E+00  0.63057492892E+03  0.63057492892E+03  0.00000000000E+00 0. -1.
         21   -1    0    0  506  502 -0.00000000000E+00 -0.00000000000E+00 -0.31617582231E+03  0.31617582231E+03  0.00000000000E+00 0.  1.
         21    1    1    2  503  502  0.35869987965E+02 -0.42174258725E+02 -0.28162367210E+03  0.28701431466E+03  0.00000000000E+00 0.  1.
         21    1    1    2  504  505  0.31382979985E+02 -0.42394671117E+02  0.21964190152E+03  0.22588661863E+03  0.00000000000E+00 0. -1.
         21    1    1    2  505  503 -0.33678906045E+01  0.11305794441E+03  0.10758854225E+03  0.15610488751E+03  0.00000000000E+00 0.  1.
         21    1    1    2  506  501 -0.63885077346E+02 -0.28489014567E+02  0.26879233494E+03  0.27774493043E+03  0.00000000000E+00 0. -1.
<scales pt_clust_3="55.71319" pt_clust_4="52.74656" pt_clust_5="14000.00000" pt_clust_6="76.46704"></scales>
<clustering>
<clus scale="   52.747">  1  4  2 -1</clus>
<clus scale="   55.713">  2  3  1 -1</clus>
<clus scale="   76.467">  1  6  2 -1</clus>
<clus scale="   52.747">  1  3  2 -1</clus>
</clustering>
</event>
<event>
 6    0  0.4227619E+002  0.9465581E+02  0.7546771E-02  0.1291953E+00
         21   -1    0    0  506  501  0.00000000000E+00  0.00000000000E+00  0.23840297605E+03  0.23840297605E+03  0.00000000000E+00 0.  1.
         21   -1    0    0  503  502 -0.00000000000E+00 -0.00000000000E+00 -0.37588499374E+03  0.37588499374E+03  0.00000000000E+00 0. -1.
         21    1    1    2  503  505  0.78030129292E+01  0.14491155674E+03 -0.10803057813E+03  0.18091669934E+03  0.00000000000E+00 0. -1.
         21    1    1    2  504  501 -0.81378789930E+01 -0.53130567078E+02  0.15209108091E+03  0.16130957543E+03  0.00000000000E+00 0.  1.
         21    1    1    2  505  504 -0.10789588459E+02 -0.53140887202E+02  0.26369661194E+02  0.60296999455E+02  0.00000000000E+00 0. -1.
         21    1    1    2  506  502  0.11124454523E+02 -0.38640102457E+02 -0.20791218166E+03  0.21176469557E+03  0.00000000000E+00 0. -1.
<scales pt_clust_3="14000.00000" pt_clust_4="54.76566" pt_clust_5="94.65581" pt_clust_6="40.20959"></scales>
<clustering>
<clus scale="   40.210">  2  6  1 -1</clus>
<clus scale="   54.766">  1  4  2 -1</clus>
<clus scale="   94.656">  1  5  2 -1</clus>
<clus scale="   54.766">  1  3  2 -1</clus>
</clustering>
</event>
<event>
 6    0  0.4227619E+002  0.1739482E+03  0.7546771E-02  0.1173792E+00
         21   -1    0    0  504  501  0.00000000000E+00  0.00000000000E+00  0.45264683247E+03  0.45264683247E+03  0.00000000000E+00 0.  1.
         21   -1    0    0  505  502 -0.00000000000E+00 -0.00000000000E+00 -0.11161224962E+04  0.11161224962E+04  0.00000000000E+00 0. -1.
         21    1    1    2  503  502 -0.92254831815E+02  0.13041258282E+03 -0.28103067685E+03  0.32325939597E+03  0.00000000000E+00 0. -1.
         21    1    1    2  504  503  0.91696575361E+02 -0.79640690832E+02  0.37400651538E+03  0.39323246956E+03  0.00000000000E+00 0.  1.
         21    1    1    2  505  506  0.14957776695E+03  0.75063521266E+02 -0.51717676594E+03  0.54358058080E+03  0.00000000000E+00 0. -1.
         21    1    1    2  506  501 -0.14901951049E+03 -0.12583541326E+03 -0.23927473635E+03  0.30869688238E+03  0.00000000000E+00 0. -1.
<scales pt_clust_3="123.97350" pt_clust_4="121.45329" pt_clust_5="173.94822" pt_clust_6="14000.00000"></scales>
<clustering>
<clus scale="  121.453">  1  4  2 -1</clus>
<clus scale="  123.973">  1  3  2 -1</clus>
<clus scale="  173.948">  2  5  1 -1</clus>
<clus scale="  121.453">  1  3  2 -1</clus>
</clustering>
</event>
<event>
 6    0  0.4227619E+002  0.9589066E+02  0.7546771E-02  0.1289183E+00
         21   -1    0    0  502  501  0.00000000000E+00  0.00000000000E+00  0.50191574296E+02  0.50191574296E+02  0.00000000000E+00 0.  1.
         21   -1    0    0  505  502 -0.00000000000E+00 -0.00000000000E+00 -0.75733890099E+03  0.75733890099E+03  0.00000000000E+00 0.  1.
         21    1    1    2  503  504  0.68946816067E+02 -0.45583588894E+02 -0.35118254049E+03  0.36077791474E+03  0.00000000000E+00 0.  1.
         21    1    1    2  504  501 -0.79499143221E+02  0.16233627466E+02 -0.49354272951E+01  0.81289623423E+02  0.00000000000E+00 0.  1.
         21    1    1    2  505  506 -0.41637789879E+02  0.22916417236E+02 -0.13486793478E+03  0.14299729912E+03  0.00000000000E+00 0. -1.
         21    1    1    2  506  503  0.52190117034E+02  0.64335441922E+01 -0.21616142413E+03  0.22246563799E+03  0.00000000000E+00 0.  1.
<scales pt_clust_3="36.43861" pt_clust_4="84.30916" pt_clust_5="47.52755" pt_clust_6="36.43861"></scales>
<clustering>
<clus scale="   36.439">  3  6 -1 -1</clus>
<clus scale="   47.528">  2  5  1 -1</clus>
<clus scale="   84.309">  1  4  2 -1</clus>
<clus scale="   84.309">  1  3  2 -1</clus>
</clustering>
</event>
<event>
 6    0  0.4227619E+002  0.1294237E+03  0.7546771E-02  0.1228313E+00
         21   -1    0    0  503  501  0.00000000000E+00  0.00000000000E+00  0.32947499135E+02  0.32947499135E+02  0.00000000000E+00 0. -1.
         21   -1    0    0  504  502 -0.00000000000E+00 -0.00000000000E+00 -0.23209603023E+04  0.23209603023E+04  0.00000000000E+00 0. -1.
         21    1    1    2  503  505  0.52325746353E+01 -0.10257119540E+03 -0.89349963157E+03  0.89938302273E+03  0.00000000000E+00 0. -1.
         21    1    1    2  504  506  0.39872631426E+02  0.20127167834E+02 -0.96157965116E+03  0.96261641122E+03  0.00000000000E+00 0. -1.
         21    1    1    2  505  502 -0.35232387077E+02 -0.29252383016E+02 -0.34861973248E+03  0.35161447763E+03  0.00000000000E+00 0. -1.
         21    1    1    2  506  501 -0.98728189846E+01  0.11169641059E+03 -0.84313787992E+02  0.14029388988E+03  0.00000000000E+00 0. -1.
<scales pt_clust_3="41.46854" pt_clust_4="44.66464" pt_clust_5="41.46854" pt_clust_6="113.55050"></scales>
<clustering>
<clus scale="   41.469">  3  5 -1 -1</clus>
<clus scale="   44.665">  2  4  1 -1</clus>
<clus scale="  113.550">  1  6  2 -1</clus>
<clus scale="  113.550">  1  3  2 -1</clus>
</clustering>
</event>
<event>
 6    0  0.4227619E+002  0.1025126E+03  0.7546771E-02  0.1275099E+00
         21   -1    0    0  506  501  0.00000000000E+00  0.00000000000E+00  0.16562471513E+03  0.16562471513E+03  0.00000000000E+00 0. -1.
         21   -1    0    0  504  502 -0.00000000000E+00 -0.00000000000E+00 -0.49469932984E+03  0.49469932984E+03  0.00000000000E+00 0. -1.
         21    1    1    2  503  502  0.47833470767E+02 -0.89679521139E+02 -0.38573978380E+03  0.39890555053E+03  0.00000000000E+00 0. -1.
         21    1    1    2  504  501  0.46883013593E+02 -0.26140117324E+02 -0.26303973649E+02  0.59776431200E+02  0.00000000000E+00 0. -1.
         21    1    1    2  505  503 -0.11403239344E+03  0.69969584999E+02  0.65020708955E+02  0.14875087284E+03  0.00000000000E+00 0. -1.
         21    1    1    2  506  505  0.19315909081E+02  0.45850053463E+02  0.17948433789E+02  0.52891190398E+02  0.00000000000E+00 0. -1.
<scales pt_clust_3="102.51261" pt_clust_4="53.35647" pt_clust_5="14000.00000" pt_clust_6="49.75271"></scales>
<clustering>
<clus scale="   49.753">  1  6  2 -1</clus>
<clus scale="   53.356">  1  4  2 -1</clus>
<clus scale="  102.513">  2  3  1 -1</clus>
<clus scale="   49.753">  1  3  2 -1</clus>
</clustering>
</event>
<event>
 6    0  0.4227619E+002  0.8262488E+02  0.7546771E-02  0.1321763E+00
         21   -1    0    0  503  501  0.00000000000E+00  0.00000000000E+00  0.24448556456E+03  0.24448556456E+03  0.00000000000E+00 0.  1.
         21   -1    0    0  504  502 -0.00000000000E+00 -0.00000000000E+00 -0.12614953628E+04  0.12614953628E+04  0.00000000000E+00 0.  1.
         21    1    1    2  503  506  0.45088215391E+02 -0.65044968658E+02  0.86730586010E+02  0.11741375415E+03  0.00000000000E+00 0.  1.
         21    1    1    2  504  505 -0.12130623261E+03  0.14125025784E+02 -0.23783611644E+03  0.26735881640E+03  0.00000000000E+00 0.  1.
         21    1    1    2  505  501  0.34569690431E+02  0.49251905734E+02  0.12009600996E+03  0.13432745558E+03  0.00000000000E+00 0.  1.
         21    1    1    2  506  502  0.41648326783E+02  0.16680371392E+01 -0.98600027777E+03  0.98688090124E+03  0.00000000000E+00 0.  1.
<scales pt_clust_3="14000.00000" pt_clust_4="82.62488" pt_clust_5="60.83356" pt_clust_6="41.68172"></scales>
<clustering>
<clus scale="   41.682">  2  6  1 -1</clus>
<clus scale="   60.834">  1  5  2 -1</clus>
<clus scale="   82.625">  2  4  1 -1</clus>
<clus scale="   60.834">  1  3  2 -1</clus>
</clustering>
</event>
<event>
 6    0  0.4227619E+002  0.9002119E+02  0.7546771E-02  0.1302800E+00
         21   -1    0    0  503  501  0.00000000000E+00  0.00000000000E+00  0.30445665578E+03  0.30445665578E+03  0.00000000000E+00 0. -1.
         21   -1    0    0  506  502 -0.00000000000E+00 -0.00000000000E+00 -0.11247334148E+03  0.11247334148E+03  0.00000000000E+00 0. -1.
         21    1    1    2  503  502  0.75858436196E+02 -0.71097825561E+01  0.10434078754E+03  0.12919772171E+03  0.00000000000E+00 0. -1.
         21    1    1    2  504  505  0.33469271331E+02 -0.71981090121E+00 -0.12648971977E+02  0.35786963314E+02  0.00000000000E+00 0. -1.
         21    1    1    2  505  501 -0.11101276256E+03 -0.23550984958E+02  0.15305218031E+03  0.19053464841E+03  0.00000000000E+00 0. -1.
         21    1    1    2  506  504  0.16850550358E+01  0.31380578416E+02 -0.52760681580E+02  0.61410663838E+02  0.00000000000E+00 0. -1.
<scales pt_clust_3="90.02119" pt_clust_4="36.59351" pt_clust_5="14000.00000" pt_clust_6="31.42579"></scales>
<clustering>
<clus scale="   31.426">  2  6  1 -1</clus>
<clus scale="   36.594">  2  4  1 -1</clus>
<clus scale="   90.021">  1  3  2 -1</clus>
<clus scale="   90.021">  1  3  2 -1</clus>
</clustering>
</event>
<event>
 6    0  0.4227619E+002  0.7989465E+02  0.7546771E-02  0.1329351E+00
         21   -1    0    0  504  501  0.00000000000E+00  0.00000000000E+00  0.24428417739E+03  0.24428417739E+03  0.00000000000E+00 0.  1.
         21   -1    0    0  505  502 -0.00000000000E+00 -0.00000000000E+00 -0.15542296013E+03  0.15542296013E+03  0.00000000000E+00 0.  1.
         21    1    1    2  503  501  0.80331270659E+02 -0.13799945035E+02  0.70203641111E+02  0.10757370847E+03  0.00000000000E+00 0.  1.
         21    1    1    2  504  506 -0.71340713957E+02 -0.60470606449E+02  0.12011376970E+03  0.15222847757E+03  0.00000000000E+00 0.  1.
         21    1    1    2  505  503 -0.25897300335E+02  0.21588928906E+02 -0.14196013426E+02  0.36582493260E+02  0.00000000000E+00 0.  1.
         21    1    1    2  506  502  0.16906743633E+02  0.52681622579E+02 -0.87260180117E+02  0.10332245822E+03  0.00000000000E+00 0.  1.
<scales pt_clust_3="79.89465" pt_clust_4="14000.00000" pt_clust_5="33.71575" pt_clust_6="68.53373"></scales>
<clustering>
<clus scale="   33.716">  2  5  1 -1</clus>
<clus scale="   68.534">  2  6  1 -1</clus>
<clus scale="   79.895">  2  3  1 -1</clus>
<clus scale="   79.895">  1  3  2 -1</clus>
</clustering>
</event>
<event>
 6    0  0.4227619E+002  0.8874094E+02  0.7546771E-02  0.1305930E+00
         21   -1    0    0  505  501  0.00000000000E+00  0.00000000000E+00  0.25531715764E+03  0.25531715764E+03  0.00000000000E+00 0. -1.
         21   -1    0    0  504  502 -0.00000000000E+00 -0.00000000000E+00 -0.13617686247E+03  0.13617686247E+03  0.00000000000E+00 0. -1.
         21    1    1    2  503  502 -0.17572128610E+01 -0.35430588988E+02 -0.54060163965E+02  0.64660001245E+02  0.00000000000E+00 0. -1.
         21    1    1    2  504  506  0.35223533109E+02  0.93726976589E+01 -0.29260645647E+02  0.46741096797E+02  0.00000000000E+00 0. -1.
         21    1    1    2  505  503 -0.78577986935E+02  0.86216096454E+02  0.10461027492E+03  0.15668766684E+03  0.00000000000E+00 0. -1.
         21    1    1    2  506  501  0.45111666687E+02 -0.60158205125E+02  0.97850829857E+02  0.12340525523E+03  0.00000000000E+00 0. -1.
<scales pt_clust_3="35.47414" pt_clust_4="35.30882" pt_clust_5="88.74094" pt_clust_6="14000.00000"></scales>
<clustering>
<clus scale="   35.474">  2  3  1 -1</clus>
<clus scale="   35.309">  2  4  1 -1</clus>
<clus scale="   88.741">  2  5  1 -1</clus>
<clus scale="   88.741">  1  3  2 -1</clus>
</clustering>
</event>
<event>
 6    0  0.4227619E+002  0.1508571E+03  0.7546771E-02  0.1199424E+00
         21   -1    0    0  504  501  0.00000000000E+00  0.00000000000E+00  0.92339519112E+03  0.92339519112E+03  0.00000000000E+00 0.  1.
         21   -1    0    0  506  502 -0.00000000000E+00 -0.00000000000E+00 -0.24266049098E+03  0.24266049098E+03  0.00000000000E+00 0.  1.
         21    1    1    2  503  502  0.73456467778E+02 -0.30638918067E+02  0.60358746726E+03  0.60881230818E+03  0.00000000000E+00 0.  1.
         21    1    1    2  504  503  0.64115271087E+02  0.29376428745E+01  0.28962877610E+03  0.29665506178E+03  0.00000000000E+00 0.  1.
         21    1    1    2  505  501 -0.45723245384E+02  0.36401649768E+02 -0.88177026953E+02  0.10578697158E+03  0.00000000000E+00 0.  1.
         21    1    1    2  506  505 -0.91848493481E+02 -0.87003745748E+01 -0.12430451627E+03  0.15480134056E+03  0.00000000000E+00 0.  1.
<scales pt_clust_3="148.44494" pt_clust_4="43.46341" pt_clust_5="44.06005" pt_clust_6="44.06005"></scales>
<clustering>
<clus scale="   43.463">  3  4 -1 -1</clus>
<clus scale="   44.060">  5  6 -1 -1</clus>
<clus scale="  148.445">  1  3  2 -1</clus>
<clus scale="  148.445">  1  3  2 -1</clus>
</clustering>
</event>
<event>
 6    0  0.4227619E+002  0.9089505E+02  0.7546771E-02  0.1300699E+00
         21   -1    0    0  504  501  0.00000000000E+00  0.00000000000E+00  0.59465421795E+03  0.59465421795E+03  0.00000000000E+00 0. -1.
         21   -1    0    0  503  502 -0.00000000000E+00 -0.00000000000E+00 -0.16888173509E+03  0.16888173509E+03  0.00000000000E+00 0.  1.
         21    1    1    2  503  506 -0.28147885079E+02  0.43572518314E+02  0.13716277669E+02  0.53656351532E+02  0.00000000000E+00 0. -1.
         21    1    1    2  504  505 -0.81802291334E+02 -0.71151346704E+02 -0.46185851421E+02  0.11784422717E+03  0.00000000000E+00 0.  1.
         21    1    1    2  505  502  0.80793337237E+02  0.18878530165E+02 -0.40527397171E+02  0.92338681844E+02  0.00000000000E+00 0.  1.
         21    1    1    2  506  501  0.29156839176E+02  0.87002982248E+01  0.49876945379E+03  0.49969669250E+03  0.00000000000E+00 0. -1.
<scales pt_clust_3="49.94447" pt_clust_4="90.89505" pt_clust_5="14000.00000" pt_clust_6="30.42723"></scales>
<clustering>
<clus scale="   30.427">  1  6  2 -1</clus>
<clus scale="   49.944">  1  3  2 -1</clus>
<clus scale="   90.895">  1  4  2 -1</clus>
<clus scale="   30.427">  1  3  2 -1</clus>
</clustering>
</event>
<event>
 6    0  0.4227619E+002  0.1322777E+03  0.7546771E-02  0.1224115E+00
         21   -1    0    0  505  501  0.00000000000E+00  0.00000000000E+00  0.18203167681E+03  0.18203167681E+03  0.00000000000E+00 0. -1.
         21   -1    0    0  503  502 -0.00000000000E+00 -0.00000000000E+00 -0.62817107376E+03  0.62817107376E+03  0.00000000000E+00 0. -1.
         21    1    1    2  503  501 -0.19481087202E+02 -0.27399021709E+02 -0.17935944033E+03  0.18248295259E+03  0.00000000000E+00 0. -1.
         21    1    1    2  504  502  0.30366462094E+02 -0.10563174230E+03 -0.30326724498E+03  0.32256969615E+03  0.00000000000E+00 0. -1.
         21    1    1    2  505  506  0.30257178694E+02 -0.21996852598E+02  0.11902506680E+03  0.12476507890E+03  0.00000000000E+00 0. -1.
         21    1    1    2  506  504 -0.41142553586E+02  0.15502761660E+03 -0.82537778450E+02  0.18038502293E+03  0.00000000000E+00 0. -1.
<scales pt_clust_3="33.61873" pt_clust_4="132.27767" pt_clust_5="37.41089" pt_clust_6="14000.00000"></scales>
<clustering>
<clus scale="   33.619">  2  3  1 -1</clus>
<clus scale="   37.411">  1  5  2 -1</clus>
<clus scale="  132.278">  2  4  1 -1</clus>
<clus scale="   37.411">  1  3  2 -1</clus>
</clustering>
</event>
<event>
 6    0  0.4227619E+002  0.1162820E+03  0.7546771E-02  0.1249360E+00
         21   -1    0    0  503  501  0.00000000000E+00  0.00000000000E+00  0.15262250134E+04  0.15262250134E+04  0.00000000000E+00 0. -1.
         21   -1    0    0  504  502 -0.00000000000E+00 -0.00000000000E+00 -0.12653806321E+03  0.12653806321E+03  0.00000000000E+00 0. -1.
         21    1    1    2  503  502 -0.29635440666E+02  0.75973571872E+01  0.10790513020E+03  0.11215835370E+03  0.00000000000E+00 0. -1.
         21    1    1    2  504  505  0.21030341506E+02  0.27123156385E+02 -0.81336714089E+02  0.88281379321E+02  0.00000000000E+00 0. -1.
         21    1    1    2  505  506  0.46678527659E+02  0.72642346328E+02  0.12855308391E+02  0.87298650495E+02  0.00000000000E+00 0. -1.
         21    1    1    2  506  501 -0.38073428499E+02 -0.10736285990E+03  0.13602632257E+04  0.13650246931E+04  0.00000000000E+00 0. -1.
<scales pt_clust_3="30.59378" pt_clust_4="34.29141" pt_clust_5="116.28204" pt_clust_6="14000.00000"></scales>
<clustering>
<clus scale="   30.594">  1  3  2 -1</clus>
<clus scale="   34.291">  2  4  1 -1</clus>
<clus scale="  116.282">  2  5  1 -1</clus>
<clus scale="   30.594">  1  3  2 -1</clus>
</clustering>
</event>
<event>
 6    0  0.4227619E+002  0.8147420E+02  0.7546771E-02  0.1324919E+00
         21   -1    0    0  504  501  0.00000000000E+00  0.00000000000E+00  0.50497704371E+02  0.50497704371E+02  0.00000000000E+00 0.  1.
         21   -1    0    0  503  502 -0.00000000000E+00 -0.00000000000E+00 -0.61004645143E+03  0.61004645143E+03  0.00000000000E+00 0.  1.
         21    1    1    2  503  505 -0.60765222896E+02  0.59587264623E+02 -0.16379847666E+03  0.18458871952E+03  0.00000000000E+00 0.  1.
         21    1    1    2  504  506  0.58273097972E+02  0.64534560953E+02 -0.17053020681E+03  0.19141842894E+03  0.00000000000E+00 0.  1.
         21    1    1    2  505  501  0.99439884198E+01 -0.84829911845E+02 -0.38685211157E+02  0.93763225262E+02  0.00000000000E+00 0.  1.
         21    1    1    2  506  502 -0.74518634963E+01 -0.39291913731E+02 -0.18653485243E+03  0.19077378207E+03  0.00000000000E+00 0.  1.
<scales pt_clust_3="81.47420" pt_clust_4="72.83186" pt_clust_5="14000.00000" pt_clust_6="39.99231"></scales>
<clustering>
<clus scale="   39.992">  2  6  1 -1</clus>
<clus scale="   72.832">  2  4  1 -1</clus>
<clus scale="   81.474">  2  3  1 -1</clus>
<clus scale="   81.474">  1  3  2 -1</clus>
</clustering>
</event>
<event>
 6    0  0.4227619E+002  0.1244815E+03  0.7546771E-02  0.1235882E+00
         21   -1    0    0  505  501  0.00000000000E+00  0.00000000000E+00  0.11229394328E+03  0.11229394328E+03  0.00000000000E+00 0. -1.
         21   -1    0    0  504  502 -0.00000000000E+00 -0.00000000000E+00 -0.37548951873E+03  0.37548951873E+03  0.00000000000E+00 0. -1.
         21    1    1    2  503  506  0.10800666775E+03 -0.10602926077E+03 -0.18063068434E+03  0.23565883930E+03  0.00000000000E+00 0. -1.
         21    1    1    2  504  503 -0.42206248489E+01  0.39178502226E+02 -0.99635537569E+02  0.10714480416E+03  0.00000000000E+00 0.  1.
         21    1    1    2  505  502 -0.33588427849E+02 -0.14350977882E+02  0.19004097243E+01  0.36575191163E+02  0.00000000000E+00 0.  1.
         21    1    1    2  506  501 -0.70197615049E+02  0.81201736427E+02  0.15170236735E+02  0.10840462739E+03  0.00000000000E+00 0. -1.
<scales pt_clust_3="124.48151" pt_clust_4="39.00012" pt_clust_5="36.52579" pt_clust_6="14000.00000"></scales>
<clustering>
<clus scale="   36.526">  1  5  2 -1</clus>
<clus scale="   39.000">  2  4  1 -1</clus>
<clus scale="  124.482">  2  3  1 -1</clus>
<clus scale="   36.526">  1  3  2 -1</clus>
</clustering>
</event>
<event>
 6    0  0.4227619E+002  0.8581087E+02  0.7546771E-02  0.1313326E+00
         21   -1    0    0  505  501  0.00000000000E+00  0.00000000000E+00  0.56855288471E+03  0.56855288471E+03  0.00000000000E+00 0.  1.
         21   -1    0    0  506  502 -0.00000000000E+00 -0.00000000000E+00 -0.30349904925E+03  0.30349904925E+03  0.00000000000E+00 0.  1.
         21    1    1    2  503  501  0.38874477895E+02 -0.40657738724E+02  0.51808894153E+02  0.76475082629E+02  0.00000000000E+00 0.  1.
         21    1    1    2  504  502 -0.56569217052E+02  0.11479450857E+03 -0.21991283883E+03  0.25443960422E+03  0.00000000000E+00 0.  1.
         21    1    1    2  505  504  0.18864568605E+01 -0.40430906456E+02  0.47977464406E+03  0.48147889465E+03  0.00000000000E+00 0.  1.
         21    1    1    2  506  503  0.15808282296E+02 -0.33705863389E+02 -0.46616863924E+02  0.59658352458E+02  0.00000000000E+00 0.  1.
<scales pt_clust_3="14000.00000" pt_clust_4="85.81087" pt_clust_5="40.59202" pt_clust_6="37.22885"></scales>
<clustering>
<clus scale="   37.229">  2  6  1 -1</clus>
<clus scale="   40.592">  1  5  2 -1</clus>
<clus scale="   85.811">  2  4  1 -1</clus>
<clus scale="   40.592">  1  3  2 -1</clus>
</clustering>
</event>
<event>
 6    0  0.4227619E+002  0.7681881E+02  0.7546771E-02  0.1338330E+00
         21   -1    0    0  505  501  0.00000000000E+00  0.00000000000E+00  0.13335573566E+04  0.13335573566E+04  0.00000000000E+00 0. -1.
         21   -1    0    0  503  502 -0.00000000000E+00 -0.00000000000E+00 -0.24271066941E+03  0.24271066941E+03  0.00000000000E+00 0.  1.
         21    1    1    2  503  504  0.44502567219E+02  0.47770183785E+02  0.42794034444E+02  0.78062784552E+02  0.00000000000E+00 0. -1.
         21    1    1    2  504  501  0.32168669794E+01 -0.69634167231E+02  0.57832486019E+03  0.58251086633E+03  0.00000000000E+00 0. -1.
         21    1    1    2  505  506  0.33041291767E+02  0.15441816083E+02  0.68485102892E+03  0.68582148440E+03  0.00000000000E+00 0. -1.
         21    1    1    2  506  502 -0.80760725965E+02  0.64221673631E+01 -0.21512323634E+03  0.22987289075E+03  0.00000000000E+00 0.  1.
<scales pt_clust_3="76.81881" pt_clust_4="64.73375" pt_clust_5="36.47159" pt_clust_6="14000.00000"></scales>
<clustering>
<clus scale="   36.472">  1  5  2 -1</clus>
<clus scale="   64.734">  1  4  2 -1</clus>
<clus scale="   76.819">  1  3  2 -1</clus>
<clus scale="   36.472">  1  3  2 -1</clus>
</clustering>
</event>
<event>
 6    0  0.4227619E+002  0.1156351E+03  0.7546771E-02  0.1250477E+00
         21   -1    0    0  506  501  0.00000000000E+00  0.00000000000E+00  0.25904118256E+03  0.25904118256E+03  0.00000000000E+00 0. -1.
         21   -1    0    0  501  502 -0.00000000000E+00 -0.00000000000E+00 -0.28470105476E+03  0.28470105476E+03  0.00000000000E+00 0. -1.
         21    1    1    2  503  502  0.28738531874E+02 -0.14705024980E+02 -0.62421825423E+02  0.70275353169E+02  0.00000000000E+00 0. -1.
         21    1    1    2  504  503  0.60946453030E+02  0.15734117664E+02 -0.57309290363E+02  0.85125715019E+02  0.00000000000E+00 0.  1.
         21    1    1    2  505  504 -0.14473198277E+03  0.96602284610E+01 -0.10658112677E+03  0.18000056510E+03  0.00000000000E+00 0. -1.
         21    1    1    2  506  505  0.55046997870E+02 -0.10689321145E+02  0.20065237036E+03  0.20834060404E+03  0.00000000000E+00 0. -1.
<scales pt_clust_3="30.12499" pt_clust_4="30.12499" pt_clust_5="107.71244" pt_clust_6="56.07525"></scales>
<clustering>
<clus scale="   30.125">  3  4 -1 -1</clus>
<clus scale="   56.075">  1  6  2 -1</clus>
<clus scale="  107.712">  1  5  2 -1</clus>
<clus scale="   56.075">  1  3  2 -1</clus>
</clustering>
</event>
<event>
 6    0  0.4227619E+002  0.9794710E+02  0.7546771E-02  0.1284673E+00
         21   -1    0    0  503  501  0.00000000000E+00  0.00000000000E+00  0.12538122790E+04  0.12538122790E+04  0.00000000000E+00 0.  1.
         21   -1    0    0  506  502 -0.00000000000E+00 -0.00000000000E+00 -0.71317214514E+02  0.71317214514E+02  0.00000000000E+00 0.  1.
         21    1    1    2  503  505 -0.29108918677E+02  0.85721171184E+01  0.75842106697E+03  0.75902788168E+03  0.00000000000E+00 0.  1.
         21    1    1    2  504  501  0.29014726887E+02 -0.29268178965E+02  0.44103730938E+02  0.60362403522E+02  0.00000000000E+00 0.  1.
         21    1    1    2  505  502 -0.66697785536E+02  0.90367284282E+02  0.39264671959E+03  0.40839476866E+03  0.00000000000E+00 0.  1.
         21    1    1    2  506  504  0.66791977326E+02 -0.69671222435E+02 -0.12676453014E+02  0.97344439655E+02  0.00000000000E+00 0.  1.
<scales pt_clust_3="30.34486" pt_clust_4="38.43928" pt_clust_5="14000.00000" pt_clust_6="97.94710"></scales>
<clustering>
<clus scale="   30.345">  1  3  2 -1</clus>
<clus scale="   38.439">  1  4  2 -1</clus>
<clus scale="   97.947">  2  6  1 -1</clus>
<clus scale="   30.345">  1  3  2 -1</clus>
</clustering>
</event>
<event>
 6    0  0.4227619E+002  0.1949946E+03  0.7546771E-02  0.1154032E+00
         21   -1    0    0  505  501  0.00000000000E+00  0.00000000000E+00  0.27343830103E+03  0.27343830103E+03  0.00000000000E+00 0. -1.
         21   -1    0    0  503  502 -0.00000000000E+00 -0.00000000000E+00 -0.48952260538E+03  0.48952260538E+03  0.00000000000E+00 0.  1.
         21    1    1    2  503  501  0.11228067268E+03  0.88417468908E+02 -0.76240084030E+02  0.16197885257E+03  0.00000000000E+00 0.  1.
         21    1    1    2  504  502 -0.37158638348E+02 -0.71357492925E+02 -0.86649137179E+02  0.11824013352E+03  0.00000000000E+00 0.  1.
         21    1    1    2  505  506  0.44324162197E+02  0.64702028272E+02  0.18673132512E+03  0.20253289016E+03  0.00000000000E+00 0. -1.
         21    1    1    2  506  504 -0.11944619653E+03 -0.81762004256E+02 -0.23992640826E+03  0.28020903016E+03  0.00000000000E+00 0.  1.
<scales pt_clust_3="184.07442" pt_clust_4="47.96625" pt_clust_5="78.42821" pt_clust_6="47.96625"></scales>
<clustering>
<clus scale="   47.966">  4  6 -1 -1</clus>
<clus scale="   78.428">  1  5  2 -1</clus>
<clus scale="  184.074">  1  3  2 -1</clus>
<clus scale="   78.428">  1  3  2 -1</clus>
</clustering>
</event>
<event>
 6    0  0.4227619E+002  0.1206707E+03  0.7546771E-02  0.1241995E+00
         21   -1    0    0  506  501  0.00000000000E+00  0.00000000000E+00  0.57425563115E+03  0.57425563115E+03  0.00000000000E+00 0.  1.
         21   -1    0    0  505  502 -0.00000000000E+00 -0.00000000000E+00 -0.14066475778E+03  0.14066475778E+03  0.00000000000E+00 0. -1.
         21    1    1    2  503  501  0.11137355422E+02  0.60072896582E+02  0.11389015371E+03  0.12924302960E+03  0.00000000000E+00 0.  1.
         21    1    1    2  504  503  0.12355229905E+03  0.41217319960E+02 -0.11225117844E+02  0.13072888486E+03  0.00000000000E+00 0. -1.
         21    1    1    2  505  504 -0.31053225087E+02  0.21699448357E+02 -0.37279361462E+02  0.53149973079E+02  0.00000000000E+00 0. -1.
         21    1    1    2  506  502 -0.10363642939E+03 -0.12298966490E+03  0.36820519897E+03  0.40179850139E+03  0.00000000000E+00 0.  1.
<scales pt_clust_3="62.41890" pt_clust_4="14000.00000" pt_clust_5="37.88362" pt_clust_6="120.67067"></scales>
<clustering>
<clus scale="   37.884">  2  5  1 -1</clus>
<clus scale="   62.419">  1  3  2 -1</clus>
<clus scale="  120.671">  1  6  2 -1</clus>
<clus scale="   62.419">  1  3  2 -1</clus>
</clustering>
</event>
<event>
 6    0  0.4227619E+002  0.1352634E+03  0.7546771E-02  0.1219848E+00
         21   -1    0    0  506  501  0.00000000000E+00  0.00000000000E+00  0.60149305149E+02  0.60149305149E+02  0.00000000000E+00 0.  1.
         21   -1    0    0  503  502 -0.00000000000E+00 -0.00000000000E+00 -0.91139774252E+03  0.91139774252E+03  0.00000000000E+00 0.  1.
         21    1    1    2  503  505 -0.58580596436E+01 -0.73692063998E+02 -0.34965301515E+03  0.35738224377E+03  0.00000000000E+00 0.  1.
         21    1    1    2  504  502  0.11320388728E+03  0.53814388478E+02 -0.11359561554E+03  0.16915990179E+03  0.00000000000E+00 0.  1.
         21    1    1    2  505  501 -0.14696704392E+03  0.48497534861E+02 -0.35131493543E+03  0.38389257187E+03  0.00000000000E+00 0.  1.
         21    1    1    2  506  504  0.39621216277E+02 -0.28619859340E+02 -0.36684871247E+02  0.61112330231E+02  0.00000000000E+00 0.  1.
<scales pt_clust_3="76.04609" pt_clust_4="14000.00000" pt_clust_5="135.26338" pt_clust_6="48.87675"></scales>
<clustering>
<clus scale="   48.877">  1  6  2 -1</clus>
<clus scale="   76.046">  2  3  1 -1</clus>
<clus scale="  135.263">  2  5  1 -1</clus>
<clus scale="   48.877">  1  3  2 -1</clus>
</clustering>
</event>
<event>
 6    0  0.4227619E+002  0.1470925E+03  0.7546771E-02  0.1204092E+00
         21   -1    0    0  502  501  0.00000000000E+00  0.00000000000E+00  0.25175313580E+04  0.25175313580E+04  0.00000000000E+00 0.  1.
         21   -1    0    0  505  502 -0.00000000000E+00 -0.00000000000E+00 -0.18305664890E+03  0.18305664890E+03  0.00000000000E+00 0.  1.
         21    1    1    2  503  501 -0.54910089304E+02  0.31048380741E+02  0.20732960363E+04  0.20742554264E+04  0.00000000000E+00 0.  1.
         21    1    1    2  504  506  0.12409069947E+03  0.65293205486E+02 -0.70154267247E+02  0.15679070632E+03  0.00000000000E+00 0.  1.
         21    1    1    2  505  504  0.28418609035E+02 -0.36990362088E+02 -0.51820911805E+02  0.69723103252E+02  0.00000000000E+00 0.  1.
         21    1    1    2  506  503 -0.97599219197E+02 -0.59351224140E+02  0.38315385193E+03  0.39981877100E+03  0.00000000000E+00 0.  1.
<scales pt_clust_3="62.91184" pt_clust_4="147.09254" pt_clust_5="46.64659" pt_clust_6="14000.00000"></scales>
<clustering>
<clus scale="   46.647">  2  5  1 -1</clus>
<clus scale="   62.912">  1  3  2 -1</clus>
<clus scale="  147.093">  2  4  1 -1</clus>
<clus scale="   62.912">  1  3  2 -1</clus>
</clustering>
</event>
<event>
 6    0  0.4227619E+002  0.9158637E+02  0.7546771E-02  0.1299055E+00
         21   -1    0    0  506  501  0.00000000000E+00  0.00000000000E+00  0.90681582783E+02  0.90681582783E+02  0.00000000000E+00 0. -1.
         21   -1    0    0  505  502 -0.00000000000E+00 -0.00000000000E+00 -0.15814911927E+04  0.15814911927E+04  0.00000000000E+00 0.  1.
         21    1    1    2  503  501  0.29237862187E+02 -0.28307390034E+02 -0.52020650165E+01  0.41027093441E+02  0.00000000000E+00 0. -1.
         21    1    1    2  504  502  0.31058769372E+00  0.37301526570E+02 -0.14349410469E+04  0.14354258282E+04  0.00000000000E+00 0.  1.
         21    1    1    2  505  503 -0.15581993960E+02 -0.97527632363E+02 -0.18422778982E+02  0.10046808645E+03  0.00000000000E+00 0. -1.
         21    1    1    2  506  504 -0.13966455920E+02  0.88533495827E+02 -0.32243719102E+02  0.95251767415E+02  0.00000000000E+00 0.  1.
<scales pt_clust_3="36.87986" pt_clust_4="37.30282" pt_clust_5="14000.00000" pt_clust_6="91.58637"></scales>
<clustering>
<clus scale="   37.303">  2  4  1 -1</clus>
<clus scale="   36.880">  1  3  2 -1</clus>
<clus scale="   91.586">  1  6  2 -1</clus>
<clus scale="   36.880">  1  3  2 -1</clus>
</clustering>
</event>
<event>
 6    0  0.4227619E+002  0.9319798E+02  0.7546771E-02  0.1295287E+00
         21   -1    0    0  506  501  0.00000000000E+00  0.00000000000E+00  0.41792742758E+03  0.41792742758E+03  0.00000000000E+00 0.  1.
         21   -1    0    0  503  502 -0.00000000000E+00 -0.00000000000E+00 -0.56637116431E+02  0.56637116431E+02  0.00000000000E+00 0.  1.
         21    1    1    2  503  504 -0.29225924989E+02 -0.12484059966E+02  0.14420871727E+02  0.34899398076E+02  0.00000000000E+00 0.  1.
         21    1    1    2  504  505 -0.42277868294E+02  0.65600769821E+02  0.46560090087E+02  0.90877506224E+02  0.00000000000E+00 0.  1.
         21    1    1    2  505  501  0.65929254471E+01  0.46092972184E+02  0.15167442396E+03  0.15866051694E+03  0.00000000000E+00 0.  1.
         21    1    1    2  506  502  0.64910867836E+02 -0.99209682039E+02  0.14863492538E+03  0.19012712278E+03  0.00000000000E+00 0.  1.
<scales pt_clust_3="31.78060" pt_clust_4="93.19798" pt_clust_5="45.36628" pt_clust_6="14000.00000"></scales>
<clustering>
<clus scale="   31.781">  2  3  1 -1</clus>
<clus scale="   45.366">  1  5  2 -1</clus>
<clus scale="   93.198">  2  4  1 -1</clus>
<clus scale="   45.366">  1  3  2 -1</clus>
</clustering>
</event>
<event>
 6    0  0.4227619E+002  0.1025727E+03  0.7546771E-02  0.1274977E+00
         21   -1    0    0  504  501  0.00000000000E+00  0.00000000000E+00  0.31817712158E+03  0.31817712158E+03  0.00000000000E+00 0. -1.
         21   -1    0    0  503  502 -0.00000000000E+00 -0.00000000000E+00 -0.35125795718E+03  0.35125795718E+03  0.00000000000E+00 0.  1.
         21    1    1    2  503  506  0.73470803998E+02 -0.50239035785E+02  0.22041044497E+02  0.91693660627E+02  0.00000000000E+00 0.  1.
         21    1    1    2  504  505  0.43050870455E+02  0.40598669474E+02  0.22430725117E+03  0.23198140515E+03  0.00000000000E+00 0. -1.
         21    1    1    2  505  502 -0.10684101278E+03 -0.22780173654E+02 -0.29033812165E+03  0.31020986962E+03  0.00000000000E+00 0.  1.
         21    1    1    2  506  501 -0.96806616736E+01  0.32420539965E+02  0.10908990392E+02  0.35550143367E+02  0.00000000000E+00 0.  1.
<scales pt_clust_3="14000.00000" pt_clust_4="74.68654" pt_clust_5="102.57269" pt_clust_6="33.83499"></scales>
<clustering>
<clus scale="   33.835">  1  6  2 -1</clus>
<clus scale="   74.687">  1  4  2 -1</clus>
<clus scale="  102.573">  2  5  1 -1</clus>
<clus scale="   33.835">  1  3  2 -1</clus>
</clustering>
</event>
<event>
 6    0  0.4227619E+002  0.1209321E+03  0.7546771E-02  0.1241567E+00
         21   -1    0    0  502  501  0.00000000000E+00  0.00000000000E+00  0.37688822318E+03  0.37688822318E+03  0.00000000000E+00 0.  1.
         21   -1    0    0  504  502 -0.00000000000E+00 -0.00000000000E+00 -0.20416565098E+03  0.20416565098E+03  0.00000000000E+00 0. -1.
         21    1    1    2  503  505  0.20494907818E+02  0.10498674622E+03 -0.78654710822E+02  0.13277357291E+03  0.00000000000E+00 0. -1.
         21    1    1    2  504  503 -0.71220873556E+02  0.18039434897E+02 -0.63576904198E+02  0.97158925420E+02  0.00000000000E+00 0. -1.
         21    1    1    2  505  506  0.63577209167E+02 -0.92468977461E+02  0.17966686034E+03  0.21183190039E+03  0.00000000000E+00 0.  1.
         21    1    1    2  506  501 -0.12851243429E+02 -0.30557203659E+02  0.13528732689E+03  0.13928947545E+03  0.00000000000E+00 0.  1.
<scales pt_clust_3="120.93211" pt_clust_4="73.85293" pt_clust_5="14000.00000" pt_clust_6="33.14962"></scales>
<clustering>
<clus scale="   33.150">  1  6  2 -1</clus>
<clus scale="   73.853">  2  4  1 -1</clus>
<clus scale="  120.932">  2  3  1 -1</clus>
<clus scale="   33.150">  1  3  2 -1</clus>
</clustering>
</event>
<event>
 6    0  0.4227619E+002  0.1462825E+03  0.7546771E-02  0.1205117E+00
         21   -1    0    0  503  501  0.00000000000E+00  0.00000000000E+00  0.61794998505E+03  0.61794998505E+03  0.00000000000E+00 0. -1.
         21   -1    0    0  505  502 -0.00000000000E+00 -0.00000000000E+00 -0.36826253312E+03  0.36826253312E+03  0.00000000000E+00 0. -1.
         21    1    1    2  503  502  0.15347224922E+02 -0.28072118665E+02  0.11559122940E+02  0.34017561381E+02  0.00000000000E+00 0. -1.
         21    1    1    2  504  501 -0.38303308382E+02  0.55881891679E+01  0.35186695439E+03  0.35398972426E+03  0.00000000000E+00 0. -1.
         21    1    1    2  505  506  0.11747756310E+03 -0.87690893034E+02 -0.31651973418E+03  0.34882002906E+03  0.00000000000E+00 0. -1.
         21    1    1    2  506  504 -0.94521479640E+02  0.11017482253E+03  0.20278110877E+03  0.24938520347E+03  0.00000000000E+00 0. -1.
<scales pt_clust_3="31.99345" pt_clust_4="31.22617" pt_clust_5="14000.00000" pt_clust_6="146.28247"></scales>
<clustering>
<clus scale="   31.993">  1  3  2 -1</clus>
<clus scale="   31.226">  1  4  2 -1</clus>
<clus scale="  146.282">  1  6  2 -1</clus>
<clus scale="   31.993">  1  3  2 -1</clus>
</clustering>
</event>
<event>
 6    0  0.4227619E+002  0.7385403E+02  0.7546771E-02  0.1347457E+00
         21   -1    0    0  506  501  0.00000000000E+00  0.00000000000E+00  0.14720795750E+04  0.14720795750E+04  0.00000000000E+00 0. -1.
         21   -1    0    0  504  502 -0.00000000000E+00 -0.00000000000E+00 -0.18946188393E+03  0.18946188393E+03  0.00000000000E+00 0. -1.
         21    1    1    2  503  505 -0.99214506412E+02 -0.54811529460E+02 -0.52773234777E+02  0.12503134148E+03  0.00000000000E+00 0. -1.
         21    1    1    2  504  501  0.90891855706E+01 -0.33214898129E+02  0.32983197102E+03  0.33162474554E+03  0.00000000000E+00 0. -1.
         21    1    1    2  505  502  0.56709110715E+02  0.27243153817E+02 -0.88525580007E+02  0.10860428621E+03  0.00000000000E+00 0. -1.
         21    1    1    2  506  503  0.33416210126E+02  0.60783273771E+02  0.10940845348E+04  0.10962810857E+04  0.00000000000E+00 0. -1.
<scales pt_clust_3="14000.00000" pt_clust_4="34.43607" pt_clust_5="73.85403" pt_clust_6="51.10273"></scales>
<clustering>
<clus scale="   34.436">  1  4  2 -1</clus>
<clus scale="   51.103">  1  6  2 -1</clus>
<clus scale="   73.854">  2  5  1 -1</clus>
<clus scale="   34.436">  1  3  2 -1</clus>
</clustering>
</event>
<event>
 6    0  0.4227619E+002  0.9207259E+02  0.7546771E-02  0.1297909E+00
         21   -1    0    0  506  501  0.00000000000E+00  0.00000000000E+00  0.94398643864E+02  0.94398643864E+02  0.00000000000E+00 0.  1.
         21   -1    0    0  504  502 -0.00000000000E+00 -0.00000000000E+00 -0.42719318593E+03  0.42719318593E+03  0.00000000000E+00 0. -1.
         21    1    1    2  503  501 -0.69635157116E+02 -0.10493456370E+03 -0.54250870236E+02  0.13712576230E+03  0.00000000000E+00 0. -1.
         21    1    1    2  504  503  0.41878773691E+01 -0.42166319683E+02 -0.87626701297E+02  0.97334349603E+02  0.00000000000E+00 0. -1.
         21    1    1    2  505  502  0.55937991977E+02  0.83644793964E+02 -0.19847245822E+03  0.22252376767E+03  0.00000000000E+00 0.  1.
         21    1    1    2  506  505  0.95092877698E+01  0.63456089416E+02  0.75554876898E+01  0.64607950224E+02  0.00000000000E+00 0.  1.
<scales pt_clust_3="14000.00000" pt_clust_4="42.37378" pt_clust_5="92.07259" pt_clust_6="60.67002"></scales>
<clustering>
<clus scale="   42.374">  2  4  1 -1</clus>
<clus scale="   60.670">  1  6  2 -1</clus>
<clus scale="   92.073">  2  5  1 -1</clus>
<clus scale="   60.670">  1  3  2 -1</clus>
</clustering>
</event>
<event>
 6    0  0.4227619E+002  0.7208638E+02  0.7546771E-02  0.1353139E+00
         21   -1    0    0  505  501  0.00000000000E+00  0.00000000000E+00  0.14627486633E+03  0.14627486633E+03  0.00000000000E+00 0.  1.
         21   -1    0    0  503  502 -0.00000000000E+00 -0.00000000000E+00 -0.33372092053E+03  0.33372092053E+03  0.00000000000E+00 0.  1.
         21    1    1    2  503  506 -0.48415544560E+02 -0.62194453779E+02  0.16888839589E+02  0.80606748716E+02  0.00000000000E+00 0.  1.
         21    1    1    2  504  502  0.23773872569E+02 -0.52422150200E+02 -0.24373812208E+03  0.25044271002E+03  0.00000000000E+00 0.  1.
         21    1    1    2  505  504 -0.11221882664E+02  0.72933149148E+02  0.54717958545E+02  0.91865281159E+02  0.00000000000E+00 0.  1.
         21    1    1    2  506  501  0.35863554655E+02  0.41683454832E+02 -0.15314730250E+02  0.57081046958E+02  0.00000000000E+00 0.  1.
<scales pt_clust_3="72.08638" pt_clust_4="56.95780" pt_clust_5="14000.00000" pt_clust_6="54.98823"></scales>
<clustering>
<clus scale="   54.988">  1  6  2 -1</clus>
<clus scale="   56.958">  2  4  1 -1</clus>
<clus scale="   72.086">  1  3  2 -1</clus>
<clus scale="   54.988">  1  3  2 -1</clus>
</clustering>
</event>
<event>
 6    0  0.4227619E+002  0.1224864E+03  0.7546771E-02  0.1239051E+00
         21   -1    0    0  503  501  0.00000000000E+00  0.00000000000E+00  0.84791155709E+03  0.84791155709E+03  0.00000000000E+00 0. -1.
         21   -1    0    0  504  502 -0.00000000000E+00 -0.00000000000E+00 -0.69569753596E+03  0.69569753596E+03  0.00000000000E+00 0.  1.
         21    1    1    2  503  506  0.15489963101E+03  0.62011824905E+02  0.71023024514E+03  0.72956587313E+03  0.00000000000E+00 0. -1.
         21    1    1    2  504  501 -0.31555576698E+02 -0.80158996682E+02  0.10275396715E+03  0.13408801936E+03  0.00000000000E+00 0.  1.
         21    1    1    2  505  502 -0.36818416976E+02 -0.26316449113E+02 -0.38255128635E+03  0.38521894815E+03  0.00000000000E+00 0.  1.
         21    1    1    2  506  505 -0.86525637335E+02  0.44463620890E+02 -0.27821890481E+03  0.29473625242E+03  0.00000000000E+00 0.  1.
<scales pt_clust_3="14000.00000" pt_clust_4="88.06319" pt_clust_5="45.25651" pt_clust_6="122.48637"></scales>
<clustering>
<clus scale="   45.257">  2  5  1 -1</clus>
<clus scale="   88.063">  1  4  2 -1</clus>
<clus scale="  122.486">  2  6  1 -1</clus>
<clus scale="   88.063">  1  3  2 -1</clus>
</clustering>
</event>
<event>
 6    0  0.4227619E+002  0.9103298E+02  0.7546771E-02  0.1300369E+00
         21   -1    0    0  504  501  0.00000000000E+00  0.00000000000E+00  0.14751295518E+04  0.14751295518E+04  0.00000000000E+00 0. -1.
         21   -1    0    0  503  502 -0.00000000000E+00 -0.00000000000E+00 -0.34544535722E+03  0.34544535722E+03  0.00000000000E+00 0. -1.
         21    1    1    2  503  505  0.30337516504E+02  0.30570845701E+01 -0.32262563925E+03  0.32406328668E+03  0.00000000000E+00 0. -1.
         21    1    1    2  504  502  0.64168976307E+02 -0.19297873916E+02  0.90480019534E+03  0.90727804941E+03  0.00000000000E+00 0. -1.
         21    1    1    2  505  506 -0.34406884627E+02  0.94952111421E+02  0.15950304533E+03  0.18878813162E+03  0.00000000000E+00 0. -1.
         21    1    1    2  506  501 -0.60099608184E+02 -0.78711322074E+02  0.38800659318E+03  0.40044544132E+03  0.00000000000E+00 0. -1.
<scales pt_clust_3="30.49116" pt_clust_4="68.59031" pt_clust_5="91.03298" pt_clust_6="14000.00000"></scales>
<clustering>
<clus scale="   30.491">  2  3  1 -1</clus>
<clus scale="   68.590">  1  4  2 -1</clus>
<clus scale="   91.033">  2  5  1 -1</clus>
<clus scale="   68.590">  1  3  2 -1</clus>
</clustering>
</event>
<event>
 6    0  0.4227619E+002  0.9201200E+02  0.7546771E-02  0.1298051E+00
         21   -1    0    0  506  501  0.00000000000E+00  0.00000000000E+00  0.40158074729E+03  0.40158074729E+03  0.00000000000E+00 0. -1.
         21   -1    0    0  504  502 -0.00000000000E+00 -0.00000000000E+00 -0.41787687422E+03  0.41787687422E+03  0.00000000000E+00 0. -1.
         21    1    1    2  503  505 -0.14772287444E+02 -0.61201873004E+02 -0.33395000823E+03  0.33983304391E+03  0.00000000000E+00 0. -1.
         21    1    1    2  504  503  0.43421489976E+02 -0.31712148301E+02 -0.32423522461E+02  0.62788302656E+02  0.00000000000E+00 0. -1.
         21    1    1    2  505  501 -0.83916430228E+02  0.50101424983E+02  0.32990002714E+03  0.34407288175E+03  0.00000000000E+00 0. -1.
         21    1    1    2  506  502  0.55267227696E+02  0.42812596322E+02  0.20177376622E+02  0.72763393189E+02  0.00000000000E+00 0. -1.
<scales pt_clust_3="92.01200" pt_clust_4="53.76882" pt_clust_5="14000.00000" pt_clust_6="71.06309"></scales>
<clustering>
<clus scale="   53.769">  2  4  1 -1</clus>
<clus scale="   71.063">  1  6  2 -1</clus>
<clus scale="   92.012">  2  3  1 -1</clus>
<clus scale="   71.063">  1  3  2 -1</clus>
</clustering>
</event>
<event>
 6    0  0.4227619E+002  0.1494278E+03  0.7546771E-02  0.1201178E+00
         21   -1    0    0  503  501  0.00000000000E+00  0.00000000000E+00  0.38006367537E+02  0.38006367537E+02  0.00000000000E+00 0.  1.
         21   -1    0    0  504  502 -0.00000000000E+00 -0.00000000000E+00 -0.19228745072E+04  0.19228745072E+04  0.00000000000E+00 0.  1.
         21    1    1    2  503  505 -0.12941336716E+03  0.47229187138E+02 -0.32281701870E+03  0.35098325213E+03  0.00000000000E+00 0. -1.
         21    1    1    2  504  501  0.17608482922E+03  0.58924715873E+02 -0.42991447645E+03  0.46829952624E+03  0.00000000000E+00 0.  1.
         21    1    1    2  505  506 -0.41684013598E+02 -0.68327305687E+02 -0.37240460545E+03  0.38090860827E+03  0.00000000000E+00 0.  1.
         21    1    1    2  506  502 -0.49874484615E+01 -0.37826597324E+02 -0.75973203905E+03  0.76068948808E+03  0.00000000000E+00 0.  1.
<scales pt_clust_3="149.42780" pt_clust_4="14000.00000" pt_clust_5="91.47822" pt_clust_6="38.15398"></scales>
<clustering>
<clus scale="   38.154">  2  6  1 -1</clus>
<clus scale="   91.478">  2  5  1 -1</clus>
<clus scale="  149.428">  1  3  2 -1</clus>
<clus scale="  149.428">  1  3  2 -1</clus>
</clustering>
</event>
<event>
 6    0  0.4227619E+002  0.9143672E+02  0.7546771E-02  0.1299409E+00
         21   -1    0    0  503  501  0.00000000000E+00  0.00000000000E+00  0.22796256148E+03  0.22796256148E+03  0.00000000000E+00 0. -1.
         21   -1    0    0  506  502 -0.00000000000E+00 -0.00000000000E+00 -0.20929168168E+03  0.20929168168E+03  0.00000000000E+00 0. -1.
         21    1    1    2  503  505 -0.57687514404E+02  0.13540611002E+03  0.10683851544E+03  0.18187119709E+03  0.00000000000E+00 0. -1.
         21    1    1    2  504  501  0.17913731887E+02 -0.63389579112E+02  0.33512222280E+02  0.73906762697E+02  0.00000000000E+00 0. -1.
         21    1    1    2  505  502 -0.36898482954E+02 -0.26694995944E+02 -0.39338639714E+02  0.60180141469E+02  0.00000000000E+00 0.  1.
         21    1    1    2  506  504  0.76672265471E+02 -0.45321534964E+02 -0.82341218209E+02  0.12129614190E+03  0.00000000000E+00 0. -1.
<scales pt_clust_3="91.43672" pt_clust_4="68.06974" pt_clust_5="45.54252" pt_clust_6="14000.00000"></scales>
<clustering>
<clus scale="   45.543">  2  5  1 -1</clus>
<clus scale="   68.070">  1  4  2 -1</clus>
<clus scale="   91.437">  1  3  2 -1</clus>
<clus scale="   68.070">  1  3  2 -1</clus>
</clustering>
</event>
<event>
 6    0  0.4227619E+002  0.6794697E+02  0.7546771E-02  0.1367217E+00
         21   -1    0    0  503  501  0.00000000000E+00  0.00000000000E+00  0.55808820113E+02  0.55808820113E+02  0.00000000000E+00 0.  1.
         21   -1    0    0  506  502 -0.00000000000E+00 -0.00000000000E+00 -0.34725476727E+03  0.34725476727E+03  0.00000000000E+00 0.  1.
         21    1    1    2  503  505  0.43428955441E+02 -0.44297736083E+02 -0.41128893833E+02  0.74430837028E+02  0.00000000000E+00 0.  1.
         21    1    1    2  504  501 -0.91893707287E+02  0.31316516395E+01 -0.75923572922E+02  0.11924197921E+03  0.00000000000E+00 0.  1.
         21    1    1    2  505  502  0.45678896636E+02 -0.18881470507E+02 -0.11364394463E+03  0.12392746942E+03  0.00000000000E+00 0.  1.
         21    1    1    2  506  504  0.27858552102E+01  0.60047554950E+02 -0.60749535773E+02  0.85463301723E+02  0.00000000000E+00 0.  1.
<scales pt_clust_3="67.94697" pt_clust_4="14000.00000" pt_clust_5="49.42744" pt_clust_6="56.74035"></scales>
<clustering>
<clus scale="   49.427">  2  5  1 -1</clus>
<clus scale="   56.740">  2  6  1 -1</clus>
<clus scale="   67.947">  1  3  2 -1</clus>
<clus scale="   67.947">  1  3  2 -1</clus>
</clustering>
</event>
<event>
 6    0  0.4227619E+002  0.1161930E+03  0.7546771E-02  0.1249513E+00
         21   -1    0    0  504  501  0.00000000000E+00  0.00000000000E+00  0.53104099152E+03  0.53104099152E+03  0.00000000000E+00 0. -1.
         21   -1    0    0  501  502 -0.00000000000E+00 -0.00000000000E+00 -0.28676121577E+03  0.28676121577E+03  0.00000000000E+00 0. -1.
         21    1    1    2  503  502  0.58301009729E+02 -0.21470623877E+02 -0.80548803554E+02  0.10172563678E+03  0.00000000000E+00 0. -1.
         21    1    1    2  504  505  0.32281635233E+02 -0.38360738549E+01  0.35310628827E+03  0.35459959144E+03  0.00000000000E+00 0. -1.
         21    1    1    2  505  506  0.83223366747E+02  0.27972149005E+02  0.10901251204E+03  0.13997248899E+03  0.00000000000E+00 0. -1.
         21    1    1    2  506  503 -0.17380601171E+03 -0.26654512737E+01 -0.13729022101E+03  0.22150449007E+03  0.00000000000E+00 0. -1.
<scales pt_clust_3="64.01991" pt_clust_4="32.50876" pt_clust_5="116.19298" pt_clust_6="14000.00000"></scales>
<clustering>
<clus scale="   32.509">  1  4  2 -1</clus>
<clus scale="   64.020">  2  3  1 -1</clus>
<clus scale="  116.193">  1  5  2 -1</clus>
<clus scale="   32.509">  1  3  2 -1</clus>
</clustering>
</event>
<event>
 6    0  0.4227619E+002  0.9108584E+02  0.7546771E-02  0.1300243E+00
         21   -1    0    0  505  501  0.00000000000E+00  0.00000000000E+00  0.69474491354E+03  0.69474491354E+03  0.00000000000E+00 0. -1.
         21   -1    0    0  503  502 -0.00000000000E+00 -0.00000000000E+00 -0.67347575904E+02  0.67347575904E+02  0.00000000000E+00 0. -1.
         21    1    1    2  503  506  0.21821626580E+02 -0.30325369559E+02 -0.39913842434E+02  0.54671073186E+02  0.00000000000E+00 0. -1.
         21    1    1    2  504  502  0.21131843797E+02  0.40981381321E+02  0.11290246180E+03  0.12195488640E+03  0.00000000000E+00 0. -1.
         21    1    1    2  505  504 -0.65383790536E+02  0.73878739059E+02  0.33641197905E+03  0.35057970249E+03  0.00000000000E+00 0. -1.
         21    1    1    2  506  501  0.22430320158E+02 -0.84534750821E+02  0.21799673921E+03  0.23488682736E+03  0.00000000000E+00 0. -1.
<scales pt_clust_3="37.36056" pt_clust_4="42.94541" pt_clust_5="91.08584" pt_clust_6="14000.00000"></scales>
<clustering>
<clus scale="   37.361">  2  3  1 -1</clus>
<clus scale="   42.945">  2  4  1 -1</clus>
<clus scale="   91.086">  1  5  2 -1</clus>
<clus scale="   91.086">  1  3  2 -1</clus>
</clustering>
</event>
<event>
 6    0  0.4227619E+002  0.7378319E+02  0.7546771E-02  0.1347681E+00
         21   -1    0    0  506  501  0.00000000000E+00  0.00000000000E+00  0.44514327782E+03  0.44514327782E+03  0.00000000000E+00 0.  1.
         21   -1    0    0  504  502 -0.00000000000E+00 -0.00000000000E+00 -0.15210410407E+03  0.15210410407E+03  0.00000000000E+00 0.  1.
         21    1    1    2  503  501 -0.39295468056E+02 -0.78802584223E+00  0.27478551316E+03  0.27758211945E+03  0.00000000000E+00 0.  1.
         21    1    1    2  504  505  0.55374521936E+01  0.47006164011E+02 -0.65072326941E+01  0.47776426291E+02  0.00000000000E+00 0.  1.
         21    1    1    2  505  503  0.79855880848E+02  0.48486083477E+02  0.10421084499E+03  0.13995628679E+03  0.00000000000E+00 0.  1.
         21    1    1    2  506  502 -0.46097864985E+02 -0.94704221646E+02 -0.79449951709E+02  0.13193254936E+03  0.00000000000E+00 0.  1.
<scales pt_clust_3="39.30337" pt_clust_4="46.91574" pt_clust_5="14000.00000" pt_clust_6="73.78319"></scales>
<clustering>
<clus scale="   39.303">  1  3  2 -1</clus>
<clus scale="   46.916">  2  4  1 -1</clus>
<clus scale="   73.783">  2  6  1 -1</clus>
<clus scale="   39.303">  1  3  2 -1</clus>
</clustering>
</event>
<event>
 6    0  0.4227619E+002  0.9648589E+02  0.7546771E-02  0.1287864E+00
         21   -1    0    0  506  501  0.00000000000E+00  0.00000000000E+00  0.20529981586E+03  0.20529981586E+03  0.00000000000E+00 0.  1.
         21   -1    0    0  503  502 -0.00000000000E+00 -0.00000000000E+00 -0.72429527628E+03  0.72429527628E+03  0.00000000000E+00 0. -1.
         21    1    1    2  503  504  0.55263300425E+01  0.44158003188E+02 -0.60323171018E+03  0.60487103232E+03  0.00000000000E+00 0. -1.
         21    1    1    2  504  505 -0.68151442289E+02  0.33155546065E+02 -0.18394638978E+02  0.77988922701E+02  0.00000000000E+00 0.  1.
         21    1    1    2  505  501  0.36981138837E+02 -0.10482034392E+03  0.14972151313E+03  0.18647101819E+03  0.00000000000E+00 0.  1.
         21    1    1    2  506  502  0.25643973409E+02  0.27506794666E+02 -0.47090624390E+02  0.60264118930E+02  0.00000000000E+00 0. -1.
<scales pt_clust_3="74.64139" pt_clust_4="96.48589" pt_clust_5="14000.00000" pt_clust_6="37.60634"></scales>
<clustering>
<clus scale="   37.606">  2  6  1 -1</clus>
<clus scale="   74.641">  2  3  1 -1</clus>
<clus scale="   96.486">  2  4  1 -1</clus>
<clus scale="   96.486">  1  3  2 -1</clus>
</clustering>
</event>
<event>
 6    0  0.4227619E+002  0.7769332E+02  0.7546771E-02  0.1335728E+00
         21   -1    0    0  505  501  0.00000000000E+00  0.00000000000E+00  0.60128283286E+03  0.60128283286E+03  0.00000000000E+00 0.  1.
         21   -1    0    0  506  502 -0.00000000000E+00 -0.00000000000E+00 -0.38321328650E+03  0.38321328650E+03  0.00000000000E+00 0.  1.
         21    1    1    2  503  502 -0.74510761985E+02  0.41370766555E+01  0.53375797147E+02  0.91749358449E+02  0.00000000000E+00 0. -1.
         21    1    1    2  504  501 -0.11843686683E+02  0.57074259640E+02  0.48021511183E+02  0.75523569592E+02  0.00000000000E+00 0. -1.
         21    1    1    2  505  503  0.49455326110E+02 -0.68230998471E+02  0.46211941987E+03  0.46973998835E+03  0.00000000000E+00 0.  1.
         21    1    1    2  506  504  0.36899122558E+02  0.70196621752E+01 -0.34544718184E+03  0.34748320297E+03  0.00000000000E+00 0.  1.
<scales pt_clust_3="55.79335" pt_clust_4="14000.00000" pt_clust_5="77.69332" pt_clust_6="37.56090"></scales>
<clustering>
<clus scale="   37.561">  2  6  1 -1</clus>
<clus scale="   55.793">  2  3  1 -1</clus>
<clus scale="   77.693">  1  5  2 -1</clus>
<clus scale="   77.693">  1  3  2 -1</clus>
</clustering>
</event>
<event>
 6    0  0.5272694E+002  0.1174956E+03  0.7546771E-02  0.1247287E+00
         21   -1    0    0  504  501  0.00000000000E+00  0.00000000000E+00  0.64032886635E+03  0.64032886635E+03  0.00000000000E+00 0.  1.
         21   -1    0    0  506  502 -0.00000000000E+00 -0.00000000000E+00 -0.19117161036E+04  0.19117161036E+04  0.00000000000E+00 0.  1.
         21    1    1    2  503  501  0.45562772156E+02  0.69938181104E+02 -0.24565650908E+03  0.25945025696E+03  0.00000000000E+00 0. -1.
         21    1    1    2  504  505  0.20934933311E+02 -0.27169783670E+02  0.53060693138E+03  0.53171438217E+03  0.00000000000E+00 0.  1.
         21    1    1    2  505  502 -0.58179783826E+02 -0.92042357681E+02  0.72795853256E+02  0.13098060583E+03  0.00000000000E+00 0. -1.
         21    1    1    2  506  503 -0.83179216405E+01  0.49273960247E+02 -0.16291335128E+04  0.16298997250E+04  0.00000000000E+00 0.  1.
<scales pt_clust_3="14000.00000" pt_clust_4="34.29969" pt_clust_5="117.49561" pt_clust_6="49.86489"></scales>
<clustering>
<clus scale="   34.300">  1  4  2 -1</clus>
<clus scale="   49.865">  2  6  1 -1</clus>
<clus scale="  117.496">  1  5  2 -1</clus>
<clus scale="   34.300">  1  3  2 -1</clus>
</clustering>
</event>
<event>
 6    0  0.4227619E+002  0.1696858E+03  0.7546771E-02  0.1178176E+00
         21   -1    0    0  504  501  0.00000000000E+00  0.00000000000E+00  0.83469097901E+02  0.83469097901E+02  0.00000000000E+00 0. -1.
         21   -1    0    0  506  502 -0.00000000000E+00 -0.00000000000E+00 -0.25005590055E+04  0.25005590055E+04  0.00000000000E+00 0. -1.
         21    1    1    2  503  505  0.66900640074E+02  0.12033628951E+03 -0.11659083265E+04  0.11740096865E+04  0.00000000000E+00 0. -1.
         21    1    1    2  504  502 -0.39892565537E+01 -0.16067718107E+03 -0.23023952000E+03  0.28079050421E+03  0.00000000000E+00 0. -1.
         21    1    1    2  505  501  0.44221219762E+01 -0.30602627169E+02  0.47304095287E+02  0.56513302711E+02  0.00000000000E+00 0. -1.
         21    1    1    2  506  503 -0.67333505496E+02  0.70943518726E+02 -0.10682461564E+04  0.10727146100E+04  0.00000000000E+00 0. -1.
<scales pt_clust_3="14000.00000" pt_clust_4="169.68580" pt_clust_5="30.92048" pt_clust_6="96.03140"></scales>
<clustering>
<clus scale="   30.920">  1  5  2 -1</clus>
<clus scale="   96.031">  2  6  1 -1</clus>
<clus scale="  169.686">  1  4  2 -1</clus>
<clus scale="   30.920">  1  3  2 -1</clus>
</clustering>
</event>
<event>
 6    0  0.4227619E+002  0.1230691E+03  0.7546771E-02  0.1238118E+00
         21   -1    0    0  504  501  0.00000000000E+00  0.00000000000E+00  0.13408824451E+04  0.13408824451E+04  0.00000000000E+00 0. -1.
         21   -1    0    0  505  502 -0.00000000000E+00 -0.00000000000E+00 -0.11601837524E+03  0.11601837524E+03  0.00000000000E+00 0.  1.
         21    1    1    2  503  502 -0.78896124808E+02 -0.50000540388E+02  0.48234043295E+02  0.10512457125E+03  0.00000000000E+00 0. -1.
         21    1    1    2  504  503  0.25126861863E+02  0.53697365602E+02  0.18095101883E+03  0.19041543392E+03  0.00000000000E+00 0.  1.
         21    1    1    2  505  506  0.14915562956E+03  0.40196657995E+02 -0.56123572202E+01  0.15457901441E+03  0.00000000000E+00 0.  1.
         21    1    1    2  506  501 -0.95386366612E+02 -0.43893483208E+02  0.10012913650E+04  0.10067818008E+04  0.00000000000E+00 0. -1.
<scales pt_clust_3="14000.00000" pt_clust_4="59.28546" pt_clust_5="123.06913" pt_clust_6="73.59988"></scales>
<clustering>
<clus scale="   59.285">  1  4  2 -1</clus>
<clus scale="   73.600">  1  6  2 -1</clus>
<clus scale="  123.069">  2  5  1 -1</clus>
<clus scale="   59.285">  1  3  2 -1</clus>
</clustering>
</event>
<event>
 6    0  0.4227619E+002  0.1805480E+03  0.7546771E-02  0.1167274E+00
         21   -1    0    0  505  501  0.00000000000E+00  0.00000000000E+00  0.18896197551E+04  0.18896197551E+04  0.00000000000E+00 0. -1.
         21   -1    0    0  506  502 -0.00000000000E+00 -0.00000000000E+00 -0.70652712439E+02  0.70652712439E+02  0.00000000000E+00 0.  1.
         21    1    1    2  503  501 -0.81447285938E+02 -0.62595233069E+01  0.67348401505E+02  0.10587090820E+03  0.00000000000E+00 0.  1.
         21    1    1    2  504  502  0.11703825849E+03 -0.16068288572E+02  0.80911254774E+03  0.81769142025E+03  0.00000000000E+00 0. -1.
         21    1    1    2  505  504  0.46121666377E+02 -0.21178882793E+02  0.94277154440E+03  0.94413660988E+03  0.00000000000E+00 0. -1.
         21    1    1    2  506  503 -0.81712638924E+02  0.43506694672E+02 -0.26545100081E+00  0.92573529183E+02  0.00000000000E+00 0.  1.
<scales pt_clust_3="76.95869" pt_clust_4="160.39329" pt_clust_5="50.75188" pt_clust_6="76.95869"></scales>
<clustering>
<clus scale="   50.752">  1  5  2 -1</clus>
<clus scale="   76.959">  3  6 -1 -1</clus>
<clus scale="  160.393">  1  4  2 -1</clus>
<clus scale="   50.752">  1  3  2 -1</clus>
</clustering>
</event>
<event>
 6    0  0.4227619E+002  0.1281526E+03  0.7546771E-02  0.1230223E+00
         21   -1    0    0  505  501  0.00000000000E+00  0.00000000000E+00  0.24793284260E+02  0.24793284260E+02  0.00000000000E+00 0.  1.
         21   -1    0    0  503  502 -0.00000000000E+00 -0.00000000000E+00 -0.17277474121E+04  0.17277474121E+04  0.00000000000E+00 0.  1.
         21    1    1    2  503  504 -0.25829886065E+02  0.18880126250E+02 -0.19201994560E+03  0.19466715617E+03  0.00000000000E+00 0.  1.
         21    1    1    2  504  506 -0.44522840254E+02  0.27912466431E+01 -0.62700921813E+03  0.62859417272E+03  0.00000000000E+00 0.  1.
         21    1    1    2  505  502 -0.10635883572E+03 -0.56760256710E+01 -0.27069178137E+03  0.29089252260E+03  0.00000000000E+00 0.  1.
         21    1    1    2  506  501  0.17671156204E+03 -0.15995347222E+02 -0.61323318274E+03  0.63838684487E+03  0.00000000000E+00 0.  1.
<scales pt_clust_3="31.99441" pt_clust_4="56.08584" pt_clust_5="128.15262" pt_clust_6="14000.00000"></scales>
<clustering>
<clus scale="   31.994">  2  3  1 -1</clus>
<clus scale="   56.086">  2  4  1 -1</clus>
<clus scale="  128.153">  1  5  2 -1</clus>
<clus scale="  128.153">  1  3  2 -1</clus>
</clustering>
</event>
<event>
 6    0  0.4227619E+002  0.1271379E+03  0.7546771E-02  0.1231765E+00
         21   -1    0    0  504  501  0.00000000000E+00  0.00000000000E+00  0.23382783017E+02  0.23382783017E+02  0.00000000000E+00 0.  1.
         21   -1    0    0  505  502 -0.00000000000E+00 -0.00000000000E+00 -0.22819612037E+04  0.22819612037E+04  0.00000000000E+00 0.  1.
         21    1    1    2  503  502  0.42527699362E+02  0.14684367199E+02 -0.11948871696E+04  0.11957339101E+04  0.00000000000E+00 0.  1.
         21    1    1    2  504  503 -0.68013828788E+02 -0.13591357321E+03 -0.40025157403E+03  0.42813514549E+03  0.00000000000E+00 0.  1.
         21    1    1    2  505  506 -0.22570853513E+02  0.26517417097E+02 -0.32253554604E+03  0.32440991862E+03  0.00000000000E+00 0. -1.
         21    1    1    2  506  501  0.48056982939E+02  0.94711788919E+02 -0.34090413108E+03  0.35706501251E+03  0.00000000000E+00 0.  1.
<scales pt_clust_3="42.18479" pt_clust_4="127.13786" pt_clust_5="34.82265" pt_clust_6="14000.00000"></scales>
<clustering>
<clus scale="   34.823">  2  5  1 -1</clus>
<clus scale="   42.185">  2  3  1 -1</clus>
<clus scale="  127.138">  2  4  1 -1</clus>
<clus scale="  127.138">  1  3  2 -1</clus>
</clustering>
</event>
<event>
 6    0  0.4227619E+002  0.7272469E+02  0.7546771E-02  0.1351065E+00
         21   -1    0    0  503  501  0.00000000000E+00  0.00000000000E+00  0.69807313819E+02  0.69807313819E+02  0.00000000000E+00 0.  1.
         21   -1    0    0  505  502 -0.00000000000E+00 -0.00000000000E+00 -0.45164281782E+03  0.45164281782E+03  0.00000000000E+00 0.  1.
         21    1    1    2  503  504  0.67267163980E+02 -0.29461396768E+02 -0.33785604433E+02  0.80835093347E+02  0.00000000000E+00 0.  1.
         21    1    1    2  504  502  0.41431333324E+02  0.23957228481E+02 -0.12086526491E+03  0.12999583239E+03  0.00000000000E+00 0.  1.
         21    1    1    2  505  506 -0.63029557290E+02 -0.55828778656E+02 -0.21788427257E+03  0.23358752932E+03  0.00000000000E+00 0.  1.
         21    1    1    2  506  501 -0.45668940014E+02  0.61332946943E+02 -0.93003620897E+01  0.77031676587E+02  0.00000000000E+00 0.  1.
<scales pt_clust_3="72.72469" pt_clust_4="47.85921" pt_clust_5="52.16494" pt_clust_6="14000.00000"></scales>
<clustering>
<clus scale="   47.859">  2  4  1 -1</clus>
<clus scale="   52.165">  2  5  1 -1</clus>
<clus scale="   72.725">  2  3  1 -1</clus>
<clus scale="   72.725">  1  3  2 -1</clus>
</clustering>
</event>
<event>
 6    0  0.4227619E+002  0.9802525E+02  0.7546771E-02  0.1284504E+00
         21   -1    0    0  506  501  0.00000000000E+00  0.00000000000E+00  0.86741220358E+03  0.86741220358E+03  0.00000000000E+00 0.  1.
         21   -1    0    0  504  502 -0.00000000000E+00 -0.00000000000E+00 -0.16062834771E+04  0.16062834771E+04  0.00000000000E+00 0.  1.
         21    1    1    2  503  505 -0.11362979340E+03 -0.43101121234E+02 -0.64261845946E+02  0.13747371183E+03  0.00000000000E+00 0.  1.
         21    1    1    2  504  503  0.13655915454E+03  0.18496071145E+02 -0.24523763616E+03  0.28130411573E+03  0.00000000000E+00 0.  1.
         21    1    1    2  505  501  0.54265734882E+02  0.22245878948E+01  0.81056315930E+03  0.81238067061E+03  0.00000000000E+00 0.  1.
         21    1    1    2  506  502 -0.77195096030E+02  0.22380462194E+02 -0.12399349507E+04  0.12425371825E+04  0.00000000000E+00 0.  1.
<scales pt_clust_3="98.02525" pt_clust_4="14000.00000" pt_clust_5="54.31131" pt_clust_6="79.17710"></scales>
<clustering>
<clus scale="   54.311">  1  5  2 -1</clus>
<clus scale="   79.177">  2  6  1 -1</clus>
<clus scale="   98.025">  1  3  2 -1</clus>
<clus scale="   54.311">  1  3  2 -1</clus>
</clustering>
</event>
<event>
 6    0  0.4227619E+002  0.1334211E+03  0.7546771E-02  0.1222466E+00
         21   -1    0    0  504  501  0.00000000000E+00  0.00000000000E+00  0.12119004094E+03  0.12119004094E+03  0.00000000000E+00 0.  1.
         21   -1    0    0  505  502 -0.00000000000E+00 -0.00000000000E+00 -0.92210239216E+03  0.92210239216E+03  0.00000000000E+00 0.  1.
         21    1    1    2  503  502  0.60129875251E+02 -0.47887978036E+02 -0.31111313125E+03  0.32046878284E+03  0.00000000000E+00 0.  1.
         21    1    1    2  504  503  0.38523027857E+02  0.58074204707E+02 -0.80902763248E+02  0.10677965175E+03  0.00000000000E+00 0.  1.
         21    1    1    2  505  506 -0.18565390901E+03  0.53745079040E+02 -0.45824378804E+03  0.49733618080E+03  0.00000000000E+00 0.  1.
         21    1    1    2  506  501  0.87001005907E+02 -0.63931305711E+02  0.49347331318E+02  0.11870781772E+03  0.00000000000E+00 0.  1.
<scales pt_clust_3="76.66662" pt_clust_4="69.68958" pt_clust_5="133.42111" pt_clust_6="14000.00000"></scales>
<clustering>
<clus scale="   69.690">  1  4  2 -1</clus>
<clus scale="   76.667">  2  3  1 -1</clus>
<clus scale="  133.421">  2  5  1 -1</clus>
<clus scale="   69.690">  1  3  2 -1</clus>
</clustering>
</event>
<event>
 6    0  0.4227619E+002  0.1198079E+03  0.7546771E-02  0.1243414E+00
         21   -1    0    0  503  501  0.00000000000E+00  0.00000000000E+00  0.14460411394E+04  0.14460411394E+04  0.00000000000E+00 0. -1.
         21   -1    0    0  506  502 -0.00000000000E+00 -0.00000000000E+00 -0.29416999464E+03  0.29416999464E+03  0.00000000000E+00 0. -1.
         21    1    1    2  503  504 -0.11536527711E+03  0.23652361330E+02  0.66207883108E+03  0.67247078742E+03  0.00000000000E+00 0. -1.
         21    1    1    2  504  502  0.81928248463E+02  0.13645948094E+03  0.28072313734E+03  0.32270560526E+03  0.00000000000E+00 0. -1.
         21    1    1    2  505  501  0.20131079549E+02 -0.41416348727E+02  0.46254323187E+03  0.46482987819E+03  0.00000000000E+00 0.  1.
         21    1    1    2  506  505  0.13305949100E+02 -0.11869549354E+03 -0.25347405558E+03  0.28020486313E+03  0.00000000000E+00 0. -1.
<scales pt_clust_3="101.78967" pt_clust_4="119.80790" pt_clust_5="46.04969" pt_clust_6="14000.00000"></scales>
<clustering>
<clus scale="   46.050">  1  5  2 -1</clus>
<clus scale="  101.790">  1  3  2 -1</clus>
<clus scale="  119.808">  1  4  2 -1</clus>
<clus scale="   46.050">  1  3  2 -1</clus>
</clustering>
</event>
<event>
 6    0  0.4227619E+002  0.1162371E+03  0.7546771E-02  0.1249437E+00
         21   -1    0    0  503  501  0.00000000000E+00  0.00000000000E+00  0.23397275758E+03  0.23397275758E+03  0.00000000000E+00 0. -1.
         21   -1    0    0  505  502 -0.00000000000E+00 -0.00000000000E+00 -0.12160495828E+04  0.12160495828E+04  0.00000000000E+00 0. -1.
         21    1    1    2  503  502 -0.52399868225E+02 -0.13172793833E+02 -0.27386892492E+02  0.60574834443E+02  0.00000000000E+00 0. -1.
         21    1    1    2  504  501  0.10979065829E+03  0.50826086969E+02  0.19831510396E+03  0.23230617776E+03  0.00000000000E+00 0. -1.
         21    1    1    2  505  506 -0.14792264271E+02 -0.31244303820E+02 -0.88678357369E+03  0.88745711117E+03  0.00000000000E+00 0. -1.
         21    1    1    2  506  504 -0.42598525797E+02 -0.64089893164E+01 -0.26622146301E+03  0.26968421702E+03  0.00000000000E+00 0.  1.
<scales pt_clust_3="57.07868" pt_clust_4="14000.00000" pt_clust_5="34.56903" pt_clust_6="116.23709"></scales>
<clustering>
<clus scale="   34.569">  2  5  1 -1</clus>
<clus scale="   57.079">  2  3  1 -1</clus>
<clus scale="  116.237">  2  6  1 -1</clus>
<clus scale="  116.237">  1  3  2 -1</clus>
</clustering>
</event>
<event>
 6    0  0.4227619E+002  0.1611543E+03  0.7546771E-02  0.1187400E+00
         21   -1    0    0  503  501  0.00000000000E+00  0.00000000000E+00  0.57761662185E+03  0.57761662185E+03  0.00000000000E+00 0. -1.
         21   -1    0    0  505  502 -0.00000000000E+00 -0.00000000000E+00 -0.84980543415E+03  0.84980543415E+03  0.00000000000E+00 0.  1.
         21    1    1    2  503  504 -0.26994431226E+02  0.18008813847E+03 -0.38908191818E+03  0.42958721581E+03  0.00000000000E+00 0.  1.
         21    1    1    2  504  502  0.97237576512E+01 -0.14930084821E+03 -0.40554716664E+03  0.43226588937E+03  0.00000000000E+00 0.  1.
         21    1    1    2  505  506 -0.26090733858E+02  0.17641083117E+02 -0.69085715072E+01  0.32243798893E+02  0.00000000000E+00 0. -1.
         21    1    1    2  506  501  0.43361407433E+02 -0.48428373379E+02  0.52934884403E+03  0.53332515192E+03  0.00000000000E+00 0. -1.
<scales pt_clust_3="161.15428" pt_clust_4="14000.00000" pt_clust_5="31.49499" pt_clust_6="64.93084"></scales>
<clustering>
<clus scale="   31.495">  2  5  1 -1</clus>
<clus scale="   64.931">  1  6  2 -1</clus>
<clus scale="  161.154">  1  3  2 -1</clus>
<clus scale="   64.931">  1  3  2 -1</clus>
</clustering>
</event>
<event>
 6    0  0.4227619E+002  0.6117273E+02  0.7546771E-02  0.1392975E+00
         21   -1    0    0  505  501  0.00000000000E+00  0.00000000000E+00  0.28648131545E+02  0.28648131545E+02  0.00000000000E+00 0. -1.
         21   -1    0    0  506  502 -0.00000000000E+00 -0.00000000000E+00 -0.27118821810E+04  0.27118821810E+04  0.00000000000E+00 0. -1.
         21    1    1    2  503  502 -0.61389775277E+02 -0.76330997881E+02 -0.19492138236E+04  0.19516735526E+04  0.00000000000E+00 0. -1.
         21    1    1    2  504  501  0.51541667186E+02  0.60648425315E+02 -0.71089532102E+02  0.10671689896E+03  0.00000000000E+00 0. -1.
         21    1    1    2  505  503 -0.15761418487E+01 -0.31607635237E+02 -0.20142713726E+02  0.37513407532E+02  0.00000000000E+00 0. -1.
         21    1    1    2  506  504  0.11424249940E+02  0.47290207803E+02 -0.64278798009E+03  0.64462645353E+03  0.00000000000E+00 0. -1.
<scales pt_clust_3="14000.00000" pt_clust_4="61.17273" pt_clust_5="31.64691" pt_clust_6="47.21954"></scales>
<clustering>
<clus scale="   31.647">  1  5  2 -1</clus>
<clus scale="   47.220">  2  6  1 -1</clus>
<clus scale="   61.173">  1  4  2 -1</clus>
<clus scale="   31.647">  1  3  2 -1</clus>
</clustering>
</event>
<event>
 6    0  0.4227619E+002  0.1426313E+03  0.7546771E-02  0.1209832E+00
         21   -1    0    0  506  501  0.00000000000E+00  0.00000000000E+00  0.12044527649E+04  0.12044527649E+04  0.00000000000E+00 0.  1.
         21   -1    0    0  504  502 -0.00000000000E+00 -0.00000000000E+00 -0.69713506679E+02  0.69713506679E+02  0.00000000000E+00 0.  1.
         21    1    1    2  503  505  0.59646387230E+02 -0.13214496662E+03  0.20101511193E+03  0.24784482834E+03  0.00000000000E+00 0.  1.
         21    1    1    2  504  503 -0.13165771176E+03  0.76976372733E+02  0.12012886313E+03  0.19413927676E+03  0.00000000000E+00 0.  1.
         21    1    1    2  505  501 -0.23753065676E+02  0.67623210298E+02  0.23856229380E+03  0.24909651688E+03  0.00000000000E+00 0.  1.
         21    1    1    2  506  502  0.95764390209E+02 -0.12454616411E+02  0.57503298934E+03  0.58308564956E+03  0.00000000000E+00 0.  1.
<scales pt_clust_3="14000.00000" pt_clust_4="142.63134" pt_clust_5="71.67361" pt_clust_6="86.22551"></scales>
<clustering>
<clus scale="   71.674">  1  5  2 -1</clus>
<clus scale="   86.226">  1  6  2 -1</clus>
<clus scale="  142.631">  2  4  1 -1</clus>
<clus scale="   71.674">  1  3  2 -1</clus>
</clustering>
</event>
<event>
 6    0  0.4227619E+002  0.1184445E+03  0.7546771E-02  0.1245685E+00
         21   -1    0    0  503  501  0.00000000000E+00  0.00000000000E+00  0.95863952389E+03  0.95863952389E+03  0.00000000000E+00 0.  1.
         21   -1    0    0  505  502 -0.00000000000E+00 -0.00000000000E+00 -0.31810334623E+02  0.31810334623E+02  0.00000000000E+00 0.  1.
         21    1    1    2  503  502  0.60770103163E+02  0.45174149229E+02  0.92495381213E+02  0.11953704339E+03  0.00000000000E+00 0.  1.
         21    1    1    2  504  501 -0.27597832073E+02 -0.70820939220E+02  0.51690906988E+03  0.52246744615E+03  0.00000000000E+00 0.  1.
         21    1    1    2  505  506 -0.46307852406E+02  0.73883546914E+02  0.14777448947E+03  0.17158232846E+03  0.00000000000E+00 0.  1.
         21    1    1    2  506  504  0.13135581316E+02 -0.48236756923E+02  0.16965024871E+03  0.17686304052E+03  0.00000000000E+00 0.  1.
<scales pt_clust_3="75.72126" pt_clust_4="46.69848" pt_clust_5="103.50628" pt_clust_6="46.69848"></scales>
<clustering>
<clus scale="   46.698">  4  6 -1 -1</clus>
<clus scale="   75.721">  2  3  1 -1</clus>
<clus scale="  103.506">  2  5  1 -1</clus>
<clus scale="  118.444">  1  3  2 -1</clus>
</clustering>
</event>
<event>
 6    0  0.4227619E+002  0.8302821E+02  0.7546771E-02  0.1320671E+00
         21   -1    0    0  503  501  0.00000000000E+00  0.00000000000E+00  0.54382788938E+03  0.54382788938E+03  0.00000000000E+00 0.  1.
         21   -1    0    0  505  502 -0.00000000000E+00 -0.00000000000E+00 -0.78315333933E+03  0.78315333933E+03  0.00000000000E+00 0. -1.
         21    1    1    2  503  506 -0.87237481070E+02  0.57594669844E+02  0.39327371915E+03  0.40692965273E+03  0.00000000000E+00 0.  1.
         21    1    1    2  504  502 -0.31270823531E+02  0.43773013976E+02 -0.71144954204E+03  0.71348047767E+03  0.00000000000E+00 0. -1.
         21    1    1    2  505  501  0.16050234100E+02 -0.38654100369E+02  0.75584729865E+02  0.86399079154E+02  0.00000000000E+00 0. -1.
         21    1    1    2  506  504  0.10245807050E+03 -0.62713583452E+02  0.32656430723E+01  0.12017201914E+03  0.00000000000E+00 0. -1.
<scales pt_clust_3="83.02821" pt_clust_4="53.70589" pt_clust_5="41.85391" pt_clust_6="14000.00000"></scales>
<clustering>
<clus scale="   41.854">  1  5  2 -1</clus>
<clus scale="   53.706">  2  4  1 -1</clus>
<clus scale="   83.028">  1  3  2 -1</clus>
<clus scale="   41.854">  1  3  2 -1</clus>
</clustering>
</event>
<event>
 6    0  0.4227619E+002  0.1486580E+03  0.7546771E-02  0.1202132E+00
         21   -1    0    0  504  501  0.00000000000E+00  0.00000000000E+00  0.54997202425E+03  0.54997202425E+03  0.00000000000E+00 0.  1.
         21   -1    0    0  503  502 -0.00000000000E+00 -0.00000000000E+00 -0.91520428385E+03  0.91520428385E+03  0.00000000000E+00 0. -1.
         21    1    1    2  503  501 -0.36780313998E+02  0.15087506809E+03  0.44791642111E+03  0.47407298802E+03  0.00000000000E+00 0.  1.
         21    1    1    2  504  506 -0.45332142607E+02 -0.26765426190E+02  0.70459136751E+02  0.87953858040E+02  0.00000000000E+00 0.  1.
         21    1    1    2  505  502 -0.27819422003E+02 -0.22217806431E+02 -0.21668455886E+03  0.21958995699E+03  0.00000000000E+00 0. -1.
         21    1    1    2  506  505  0.10993187861E+03 -0.10189183547E+03 -0.66692325860E+03  0.68355950504E+03  0.00000000000E+00 0. -1.
<scales pt_clust_3="14000.00000" pt_clust_4="53.08641" pt_clust_5="35.60268" pt_clust_6="148.65795"></scales>
<clustering>
<clus scale="   35.603">  2  5  1 -1</clus>
<clus scale="   53.086">  1  4  2 -1</clus>
<clus scale="  148.658">  2  6  1 -1</clus>
<clus scale="   53.086">  1  3  2 -1</clus>
</clustering>
</event>
<event>
 6    0  0.4227619E+002  0.5996406E+02  0.7546771E-02  0.1397983E+00
         21   -1    0    0  504  501  0.00000000000E+00  0.00000000000E+00  0.77189753731E+03  0.77189753731E+03  0.00000000000E+00 0.  1.
         21   -1    0    0  503  502 -0.00000000000E+00 -0.00000000000E+00 -0.22995850954E+03  0.22995850954E+03  0.00000000000E+00 0.  1.
         21    1    1    2  503  505 -0.42207497550E+02 -0.10715998470E+01 -0.53633905267E+02  0.68258457130E+02  0.00000000000E+00 0. -1.
         21    1    1    2  504  506 -0.65357239513E+02 -0.26438887367E+02  0.49811263790E+03  0.50307731369E+03  0.00000000000E+00 0.  1.
         21    1    1    2  505  501  0.23194747242E+02  0.51515406684E+02  0.24905151230E+03  0.25537910879E+03  0.00000000000E+00 0.  1.
         21    1    1    2  506  502  0.84369989821E+02 -0.24004919469E+02 -0.15159121716E+03  0.17514116724E+03  0.00000000000E+00 0.  1.
<scales pt_clust_3="42.22110" pt_clust_4="59.96406" pt_clust_5="14000.00000" pt_clust_6="50.25536"></scales>
<clustering>
<clus scale="   42.221">  2  3  1 -1</clus>
<clus scale="   50.255">  2  6  1 -1</clus>
<clus scale="   59.964">  1  4  2 -1</clus>
<clus scale="   59.964">  1  3  2 -1</clus>
</clustering>
</event>
<event>
 6    0  0.4227619E+002  0.8740794E+02  0.7546771E-02  0.1309253E+00
         21   -1    0    0  503  501  0.00000000000E+00  0.00000000000E+00  0.19379753443E+03  0.19379753443E+03  0.00000000000E+00 0.  1.
         21   -1    0    0  504  502 -0.00000000000E+00 -0.00000000000E+00 -0.30447176085E+03  0.30447176085E+03  0.00000000000E+00 0. -1.
         21    1    1    2  503  505  0.98544221060E+02  0.79994974008E+02  0.12807965086E+03  0.18031793126E+03  0.00000000000E+00 0.  1.
         21    1    1    2  504  506 -0.61295438374E+01 -0.31373983052E+02 -0.39453199424E+02  0.50778470487E+02  0.00000000000E+00 0.  1.
         21    1    1    2  505  502 -0.44620883209E+02 -0.42278726090E+02 -0.20912274271E+03  0.21796980391E+03  0.00000000000E+00 0. -1.
         21    1    1    2  506  501 -0.47793794014E+02 -0.63422648666E+01  0.98220648628E+01  0.49203089619E+02  0.00000000000E+00 0.  1.
<scales pt_clust_3="87.40794" pt_clust_4="31.96714" pt_clust_5="14000.00000" pt_clust_6="49.04139"></scales>
<clustering>
<clus scale="   31.967">  2  4  1 -1</clus>
<clus scale="   49.041">  1  6  2 -1</clus>
<clus scale="   87.408">  1  3  2 -1</clus>
<clus scale="   49.041">  1  3  2 -1</clus>
</clustering>
</event>
<event>
 6    0  0.4227619E+002  0.9782206E+02  0.7546771E-02  0.1284944E+00
         21   -1    0    0  506  501  0.00000000000E+00  0.00000000000E+00  0.86365138751E+03  0.86365138751E+03  0.00000000000E+00 0. -1.
         21   -1    0    0  504  502 -0.00000000000E+00 -0.00000000000E+00 -0.10958653260E+03  0.10958653260E+03  0.00000000000E+00 0.  1.
         21    1    1    2  503  505  0.46484371539E+02  0.36559081833E+02  0.27562862925E+03  0.28190158659E+03  0.00000000000E+00 0. -1.
         21    1    1    2  504  501  0.12023530988E+02 -0.83718270191E+02  0.48963487006E+03  0.49688592256E+03  0.00000000000E+00 0. -1.
         21    1    1    2  505  502 -0.92027350387E+02  0.40437413537E+02 -0.72721594186E+02  0.12406711044E+03  0.00000000000E+00 0.  1.
         21    1    1    2  506  503  0.33519447860E+02  0.67217748203E+01  0.61522949787E+02  0.70383300520E+02  0.00000000000E+00 0. -1.
<scales pt_clust_3="70.00616" pt_clust_4="14000.00000" pt_clust_5="97.82206" pt_clust_6="34.18678"></scales>
<clustering>
<clus scale="   34.187">  1  6  2 -1</clus>
<clus scale="   70.006">  1  3  2 -1</clus>
<clus scale="   97.822">  2  5  1 -1</clus>
<clus scale="   34.187">  1  3  2 -1</clus>
</clustering>
</event>
<event>
 6    0  0.4227619E+002  0.1471939E+03  0.7546771E-02  0.1203964E+00
         21   -1    0    0  503  501  0.00000000000E+00  0.00000000000E+00  0.10846065638E+04  0.10846065638E+04  0.00000000000E+00 0. -1.
         21   -1    0    0  504  502 -0.00000000000E+00 -0.00000000000E+00 -0.18372208794E+03  0.18372208794E+03  0.00000000000E+00 0. -1.
         21    1    1    2  503  506 -0.30064881470E+02 -0.34382036321E+02  0.93714000078E+03  0.93825231286E+03  0.00000000000E+00 0. -1.
         21    1    1    2  504  505  0.30010568764E+02  0.54276012215E+01  0.64034330714E+01  0.31162430067E+02  0.00000000000E+00 0.  1.
         21    1    1    2  505  501 -0.60024569476E+02 -0.11877790028E+03  0.26896451962E+01  0.13311037799E+03  0.00000000000E+00 0. -1.
         21    1    1    2  506  502  0.60078882181E+02  0.14773233538E+03 -0.45348603236E+02  0.16580353077E+03  0.00000000000E+00 0. -1.
<scales pt_clust_3="45.59564" pt_clust_4="30.49743" pt_clust_5="14000.00000" pt_clust_6="147.19392"></scales>
<clustering>
<clus scale="   30.497">  2  4  1 -1</clus>
<clus scale="   45.596">  1  3  2 -1</clus>
<clus scale="  147.194">  1  6  2 -1</clus>
<clus scale="   45.596">  1  3  2 -1</clus>
</clustering>
</event>
<event>
 6    0  0.4227619E+002  0.1153996E+03  0.7546771E-02  0.1250885E+00
         21   -1    0    0  505  501  0.00000000000E+00  0.00000000000E+00  0.14440934882E+03  0.14440934882E+03  0.00000000000E+00 0. -1.
         21   -1    0    0  506  502 -0.00000000000E+00 -0.00000000000E+00 -0.15102077134E+04  0.15102077134E+04  0.00000000000E+00 0. -1.
         21    1    1    2  503  502  0.83510967432E+02  0.62010657801E+02 -0.64427050789E+03  0.65261312483E+03  0.00000000000E+00 0. -1.
         21    1    1    2  504  501 -0.96891126603E+02 -0.26769270808E+02  0.58388128641E+01  0.10069049612E+03  0.00000000000E+00 0. -1.
         21    1    1    2  505  503 -0.23674639993E+02  0.21216768699E+02  0.82615473883E+02  0.88520937511E+02  0.00000000000E+00 0. -1.
         21    1    1    2  506  504  0.37054799163E+02 -0.56458155691E+02 -0.80998214341E+03  0.81279250374E+03  0.00000000000E+00 0. -1.
<scales pt_clust_3="14000.00000" pt_clust_4="115.39957" pt_clust_5="31.79056" pt_clust_6="66.79855"></scales>
<clustering>
<clus scale="   31.791">  1  5  2 -1</clus>
<clus scale="   66.799">  2  6  1 -1</clus>
<clus scale="  115.400">  1  4  2 -1</clus>
<clus scale="   31.791">  1  3  2 -1</clus>
</clustering>
</event>
<event>
 6    0  0.4227619E+002  0.8926521E+02  0.7546771E-02  0.1304641E+00
         21   -1    0    0  506  501  0.00000000000E+00  0.00000000000E+00  0.16837590947E+03  0.16837590947E+03  0.00000000000E+00 0. -1.
         21   -1    0    0  504  502 -0.00000000000E+00 -0.00000000000E+00 -0.83549374246E+03  0.83549374246E+03  0.00000000000E+00 0. -1.
         21    1    1    2  503  501  0.94629676047E+02  0.92859420327E+02  0.90717556324E+02  0.16064657655E+03  0.00000000000E+00 0. -1.
         21    1    1    2  504  503 -0.25509811067E+02 -0.38027176747E+02 -0.67601300490E+03  0.67756210005E+03  0.00000000000E+00 0. -1.
         21    1    1    2  505  502 -0.18851528493E+02 -0.40450429184E+02 -0.10064127796E+03  0.11009216220E+03  0.00000000000E+00 0.  1.
         21    1    1    2  506  505 -0.50268336486E+02 -0.14381814396E+02  0.18818893553E+02  0.55568813132E+02  0.00000000000E+00 0. -1.
<scales pt_clust_3="89.26521" pt_clust_4="14000.00000" pt_clust_5="44.62754" pt_clust_6="53.02814"></scales>
<clustering>
<clus scale="   44.628">  2  5  1 -1</clus>
<clus scale="   53.028">  1  6  2 -1</clus>
<clus scale="   89.265">  1  3  2 -1</clus>
<clus scale="   53.028">  1  3  2 -1</clus>
</clustering>
</event>
<event>
 6    0  0.4227619E+002  0.9291358E+02  0.7546771E-02  0.1295946E+00
         21   -1    0    0  506  501  0.00000000000E+00  0.00000000000E+00  0.16357864796E+03  0.16357864796E+03  0.00000000000E+00 0.  1.
         21   -1    0    0  504  502 -0.00000000000E+00 -0.00000000000E+00 -0.46657113023E+03  0.46657113023E+03  0.00000000000E+00 0. -1.
         21    1    1    2  503  505 -0.86970703190E+02  0.35298907521E+02  0.82065962618E+01  0.94219235338E+02  0.00000000000E+00 0. -1.
         21    1    1    2  504  503 -0.36654965134E+02 -0.21225722462E+02 -0.35491716929E+03  0.35743574922E+03  0.00000000000E+00 0. -1.
         21    1    1    2  505  501  0.95203393786E+02  0.38004260773E+01  0.83322863662E+02  0.12657341362E+03  0.00000000000E+00 0.  1.
         21    1    1    2  506  502  0.28422274538E+02 -0.17873611136E+02 -0.39604772905E+02  0.51921380007E+02  0.00000000000E+00 0. -1.
<scales pt_clust_3="14000.00000" pt_clust_4="38.47511" pt_clust_5="92.91358" pt_clust_6="33.57516"></scales>
<clustering>
<clus scale="   33.575">  2  6  1 -1</clus>
<clus scale="   38.475">  2  4  1 -1</clus>
<clus scale="   92.914">  1  5  2 -1</clus>
<clus scale="   92.914">  1  3  2 -1</clus>
</clustering>
</event>
<event>
 6    0  0.4227619E+002  0.6645945E+03  0.7546771E-02  0.9779772E-01
         21   -1    0    0  503  501  0.00000000000E+00  0.00000000000E+00  0.57990834270E+03  0.57990834270E+03  0.00000000000E+00 0. -1.
         21   -1    0    0  506  502 -0.00000000000E+00 -0.00000000000E+00 -0.13362980455E+04  0.13362980455E+04  0.00000000000E+00 0. -1.
         21    1    1    2  503  504  0.56534796437E+02  0.65106784343E+03 -0.17728671279E+03  0.67713816795E+03  0.00000000000E+00 0. -1.
         21    1    1    2  504  505  0.64156789030E+02  0.42845564938E+02 -0.24056439952E+03  0.25263227492E+03  0.00000000000E+00 0.  1.
         21    1    1    2  505  502  0.54300806484E+01 -0.30517877600E+02 -0.30895943609E+03  0.31051048256E+03  0.00000000000E+00 0. -1.
         21    1    1    2  506  501 -0.12612166612E+03 -0.66339553077E+03 -0.29579154440E+02  0.67592546282E+03  0.00000000000E+00 0. -1.
<scales pt_clust_3="664.59454" pt_clust_4="74.47454" pt_clust_5="30.99720" pt_clust_6="14000.00000"></scales>
<clustering>
<clus scale="   30.997">  2  5  1 -1</clus>
<clus scale="   74.475">  2  4  1 -1</clus>
<clus scale="  664.595">  2  3  1 -1</clus>
<clus scale="  664.595">  1  3  2 -1</clus>
</clustering>
</event>
<event>
 6    0  0.4227619E+002  0.1406369E+03  0.7546771E-02  0.1212475E+00
         21   -1    0    0  503  501  0.00000000000E+00  0.00000000000E+00  0.14090187998E+03  0.14090187998E+03  0.00000000000E+00 0. -1.
         21   -1    0    0  505  502 -0.00000000000E+00 -0.00000000000E+00 -0.40164413415E+03  0.40164413415E+03  0.00000000000E+00 0. -1.
         21    1    1    2  503  502  0.12783120515E+03  0.30985357011E+02 -0.11876962834E+03  0.17722057999E+03  0.00000000000E+00 0. -1.
         21    1    1    2  504  506 -0.15431152048E+03  0.36900660342E+02 -0.12039730008E+03  0.19917131810E+03  0.00000000000E+00 0. -1.
         21    1    1    2  505  504  0.25213643317E+02 -0.32224498912E+02 -0.84460769522E+02  0.93849708192E+02  0.00000000000E+00 0. -1.
         21    1    1    2  506  501  0.12666720141E+01 -0.35661518441E+02  0.62885443774E+02  0.72304407847E+02  0.00000000000E+00 0. -1.
<scales pt_clust_3="140.63689" pt_clust_4="14000.00000" pt_clust_5="42.78600" pt_clust_6="35.68401"></scales>
<clustering>
<clus scale="   35.684">  1  6  2 -1</clus>
<clus scale="   42.786">  2  5  1 -1</clus>
<clus scale="  140.637">  1  3  2 -1</clus>
<clus scale="   35.684">  1  3  2 -1</clus>
</clustering>
</event>
<event>
 6    0  0.4227619E+002  0.6737895E+02  0.7546771E-02  0.1369240E+00
         21   -1    0    0  503  501  0.00000000000E+00  0.00000000000E+00  0.12601946725E+04  0.12601946725E+04  0.00000000000E+00 0.  1.
         21   -1    0    0  505  502 -0.00000000000E+00 -0.00000000000E+00 -0.20334850228E+03  0.20334850228E+03  0.00000000000E+00 0.  1.
         21    1    1    2  503  504 -0.26922938780E+01  0.46684746772E+02  0.20110389457E+03  0.20646910287E+03  0.00000000000E+00 0. -1.
         21    1    1    2  504  502 -0.32565980024E+02 -0.89830788574E+01 -0.81538950544E+01  0.34752334673E+02  0.00000000000E+00 0.  1.
         21    1    1    2  505  506  0.38606240624E+02  0.74797289436E+02 -0.16609168869E+03  0.18620291452E+03  0.00000000000E+00 0.  1.
         21    1    1    2  506  501 -0.33479667223E+01 -0.11249895735E+03  0.10299878594E+04  0.10361188228E+04  0.00000000000E+00 0.  1.
<scales pt_clust_3="46.66025" pt_clust_4="33.78223" pt_clust_5="67.37895" pt_clust_6="14000.00000"></scales>
<clustering>
<clus scale="   33.782">  2  4  1 -1</clus>
<clus scale="   46.660">  1  3  2 -1</clus>
<clus scale="   67.379">  2  5  1 -1</clus>
<clus scale="   46.660">  1  3  2 -1</clus>
</clustering>
</event>
<event>
 6    0  0.4227619E+002  0.7691839E+02  0.7546771E-02  0.1338031E+00
         21   -1    0    0  503  501  0.00000000000E+00  0.00000000000E+00  0.23465427283E+04  0.23465427283E+04  0.00000000000E+00 0. -1.
         21   -1    0    0  505  502 -0.00000000000E+00 -0.00000000000E+00 -0.38911463347E+02  0.38911463347E+02  0.00000000000E+00 0. -1.
         21    1    1    2  503  502  0.36173107693E+02  0.38260177771E+02  0.79943954433E+02  0.95725496988E+02  0.00000000000E+00 0. -1.
         21    1    1    2  504  501 -0.24654653324E+02 -0.73640373655E+02  0.15942082199E+04  0.15960985574E+04  0.00000000000E+00 0. -1.
         21    1    1    2  505  506  0.44734113339E+01 -0.45864096050E+02 -0.80497961294E+01  0.46779546098E+02  0.00000000000E+00 0. -1.
         21    1    1    2  506  504 -0.15991865703E+02  0.81244291934E+02  0.64152888672E+03  0.64685059112E+03  0.00000000000E+00 0. -1.
<scales pt_clust_3="39.82506" pt_clust_4="14000.00000" pt_clust_5="46.08174" pt_clust_6="76.91839"></scales>
<clustering>
<clus scale="   46.082">  2  5  1 -1</clus>
<clus scale="   39.825">  2  3  1 -1</clus>
<clus scale="   76.918">  2  6  1 -1</clus>
<clus scale="   76.918">  1  3  2 -1</clus>
</clustering>
</event>
<event>
 6    0  0.4227619E+002  0.9190879E+02  0.7546771E-02  0.1298294E+00
         21   -1    0    0  506  501  0.00000000000E+00  0.00000000000E+00  0.50915067539E+03  0.50915067539E+03  0.00000000000E+00 0.  1.
         21   -1    0    0  505  502 -0.00000000000E+00 -0.00000000000E+00 -0.21213092792E+03  0.21213092792E+03  0.00000000000E+00 0. -1.
         21    1    1    2  503  502  0.42060072415E+02 -0.78803037841E+02 -0.14650878301E+03  0.17159193444E+03  0.00000000000E+00 0. -1.
         21    1    1    2  504  501 -0.29583516349E+02  0.11639150186E+02  0.28274720257E+03  0.28452879436E+03  0.00000000000E+00 0.  1.
         21    1    1    2  505  504 -0.92481847866E+02  0.86957362017E+02  0.11264742590E+03  0.16971716930E+03  0.00000000000E+00 0.  1.
         21    1    1    2  506  503  0.80005291801E+02 -0.19793474363E+02  0.48133902004E+02  0.95443705217E+02  0.00000000000E+00 0.  1.
<scales pt_clust_3="91.90879" pt_clust_4="31.79079" pt_clust_5="14000.00000" pt_clust_6="72.39800"></scales>
<clustering>
<clus scale="   31.791">  1  4  2 -1</clus>
<clus scale="   72.398">  1  6  2 -1</clus>
<clus scale="   91.909">  2  3  1 -1</clus>
<clus scale="   31.791">  1  3  2 -1</clus>
</clustering>
</event>
<event>
 6    0  0.4227619E+002  0.8014694E+02  0.7546771E-02  0.1328635E+00
         21   -1    0    0  506  501  0.00000000000E+00  0.00000000000E+00  0.28873082495E+03  0.28873082495E+03  0.00000000000E+00 0. -1.
         21   -1    0    0  505  502 -0.00000000000E+00 -0.00000000000E+00 -0.14734152993E+03  0.14734152993E+03  0.00000000000E+00 0.  1.
         21    1    1    2  503  501  0.39767822299E+02 -0.15800088026E+02  0.13508357592E+03  0.14169931177E+03  0.00000000000E+00 0. -1.
         21    1    1    2  504  503 -0.95329947371E+02  0.70034460181E+01  0.68035926473E+02  0.11732746658E+03  0.00000000000E+00 0.  1.
         21    1    1    2  505  504 -0.43444765445E+02 -0.98761884943E+01 -0.61932515321E+02  0.76293008840E+02  0.00000000000E+00 0.  1.
         21    1    1    2  506  502  0.99006890518E+02  0.18672830502E+02  0.20230794240E+00  0.10075256770E+03  0.00000000000E+00 0. -1.
<scales pt_clust_3="42.79162" pt_clust_4="14000.00000" pt_clust_5="42.88401" pt_clust_6="80.14694"></scales>
<clustering>
<clus scale="   42.792">  1  3  2 -1</clus>
<clus scale="   42.884">  2  5  1 -1</clus>
<clus scale="   80.147">  2  6  1 -1</clus>
<clus scale="   42.792">  1  3  2 -1</clus>
</clustering>
</event>
<event>
 6    0  0.4227619E+002  0.5534094E+02  0.7546771E-02  0.1418493E+00
         21   -1    0    0  505  501  0.00000000000E+00  0.00000000000E+00  0.23725327989E+03  0.23725327989E+03  0.00000000000E+00 0. -1.
         21   -1    0    0  504  502 -0.00000000000E+00 -0.00000000000E+00 -0.99338355661E+03  0.99338355661E+03  0.00000000000E+00 0.  1.
         21    1    1    2  503  506  0.85012474553E+02  0.39009030751E+02  0.18316106266E+03  0.20566185885E+03  0.00000000000E+00 0. -1.
         21    1    1    2  504  503  0.45626008755E+02 -0.79546817064E+01 -0.45581297392E+02  0.64982030654E+02  0.00000000000E+00 0.  1.
         21    1    1    2  505  502 -0.86208293767E+02 -0.25277341436E+02 -0.90840803511E+03  0.91283951063E+03  0.00000000000E+00 0.  1.
         21    1    1    2  506  501 -0.44430189541E+02 -0.57770076088E+01  0.14697993124E+02  0.47153436370E+02  0.00000000000E+00 0. -1.
<scales pt_clust_3="14000.00000" pt_clust_4="44.30751" pt_clust_5="55.34094" pt_clust_6="44.80419"></scales>
<clustering>
<clus scale="   44.804">  1  6  2 -1</clus>
<clus scale="   44.308">  2  4  1 -1</clus>
<clus scale="   55.341">  2  5  1 -1</clus>
<clus scale="   44.804">  1  3  2 -1</clus>
</clustering>
</event>
<event>
 6    0  0.4227619E+002  0.1016495E+03  0.7546771E-02  0.1276865E+00
         21   -1    0    0  505  501  0.00000000000E+00  0.00000000000E+00  0.26716903601E+04  0.26716903601E+04  0.00000000000E+00 0.  1.
         21   -1    0    0  503  502 -0.00000000000E+00 -0.00000000000E+00 -0.14655103953E+03  0.14655103953E+03  0.00000000000E+00 0. -1.
         21    1    1    2  503  504  0.90892912980E+02  0.13619101355E+02  0.26536666620E+02  0.95661884923E+02  0.00000000000E+00 0. -1.
         21    1    1    2  504  501 -0.59487944918E+02  0.53809096459E+02  0.22455285933E+04  0.22469608135E+04  0.00000000000E+00 0.  1.
         21    1    1    2  505  506  0.45375494711E+02  0.16295796688E+02  0.33315775703E+03  0.33662825131E+03  0.00000000000E+00 0.  1.
         21    1    1    2  506  502 -0.76780462773E+02 -0.83723994502E+02 -0.80083696364E+02  0.13899044982E+03  0.00000000000E+00 0. -1.
<scales pt_clust_3="101.64951" pt_clust_4="71.26316" pt_clust_5="48.21295" pt_clust_6="14000.00000"></scales>
<clustering>
<clus scale="   48.213">  1  5  2 -1</clus>
<clus scale="   71.263">  1  4  2 -1</clus>
<clus scale="  101.650">  1  3  2 -1</clus>
<clus scale="   48.213">  1  3  2 -1</clus>
</clustering>
</event>
<event>
 6    0  0.4227619E+002  0.1292665E+03  0.7546771E-02  0.1228548E+00
         21   -1    0    0  503  501  0.00000000000E+00  0.00000000000E+00  0.64094455525E+03  0.64094455525E+03  0.00000000000E+00 0.  1.
         21   -1    0    0  505  502 -0.00000000000E+00 -0.00000000000E+00 -0.11203548953E+04  0.11203548953E+04  0.00000000000E+00 0.  1.
         21    1    1    2  503  506 -0.70467881653E+02 -0.57110956793E+02  0.13368167014E+03  0.16154928865E+03  0.00000000000E+00 0.  1.
         21    1    1    2  504  501  0.12889059657E+03  0.11101063460E+03  0.47579389907E+03  0.50528801814E+03  0.00000000000E+00 0.  1.
         21    1    1    2  505  504 -0.25470073274E+02 -0.66547435202E+02 -0.85017835073E+03  0.85315913745E+03  0.00000000000E+00 0.  1.
         21    1    1    2  506  502 -0.32952641639E+02  0.12647757393E+02 -0.23870755856E+03  0.24130300635E+03  0.00000000000E+00 0.  1.
<scales pt_clust_3="129.26654" pt_clust_4="14000.00000" pt_clust_5="78.98537" pt_clust_6="35.29649"></scales>
<clustering>
<clus scale="   35.296">  2  6  1 -1</clus>
<clus scale="   78.985">  2  5  1 -1</clus>
<clus scale="  129.267">  1  3  2 -1</clus>
<clus scale="  129.267">  1  3  2 -1</clus>
</clustering>
</event>
<event>
 6    0  0.4227619E+002  0.2144878E+03  0.7546771E-02  0.1138061E+00
         21   -1    0    0  503  501  0.00000000000E+00  0.00000000000E+00  0.19224841314E+03  0.19224841314E+03  0.00000000000E+00 0. -1.
         21   -1    0    0  505  502 -0.00000000000E+00 -0.00000000000E+00 -0.33609866732E+03  0.33609866732E+03  0.00000000000E+00 0. -1.
         21    1    1    2  503  506 -0.31634833642E+02  0.13553390911E+03  0.20605055032E+02  0.14069389294E+03  0.00000000000E+00 0. -1.
         21    1    1    2  504  502 -0.44473239979E+02 -0.56921916185E+02 -0.88572985386E+02  0.11429412652E+03  0.00000000000E+00 0. -1.
         21    1    1    2  505  501  0.14079719827E+03 -0.11928383303E+03 -0.39437485881E+02  0.18870028923E+03  0.00000000000E+00 0. -1.
         21    1    1    2  506  504 -0.64689124649E+02  0.40671840105E+02 -0.36444837941E+02  0.84658771772E+02  0.00000000000E+00 0.  1.
<scales pt_clust_3="79.98300" pt_clust_4="72.23554" pt_clust_5="189.20592" pt_clust_6="79.98300"></scales>
<clustering>
<clus scale="   72.236">  2  4  1 -1</clus>
<clus scale="   79.983">  3  6 -1 -1</clus>
<clus scale="  189.206">  2  5  1 -1</clus>
<clus scale="  214.488">  1  3  2 -1</clus>
</clustering>
</event>
<event>
 6    0  0.4227619E+002  0.9383618E+02  0.7546771E-02  0.1293819E+00
         21   -1    0    0  503  501  0.00000000000E+00  0.00000000000E+00  0.85692378887E+03  0.85692378887E+03  0.00000000000E+00 0. -1.
         21   -1    0    0  505  502 -0.00000000000E+00 -0.00000000000E+00 -0.98645434056E+02  0.98645434056E+02  0.00000000000E+00 0.  1.
         21    1    1    2  503  502 -0.22764738050E+02  0.25266038122E+02  0.21991254851E+03  0.22252670620E+03  0.00000000000E+00 0. -1.
         21    1    1    2  504  506 -0.51195248667E+02  0.79328288111E+02  0.19131377550E+03  0.21334219338E+03  0.00000000000E+00 0. -1.
         21    1    1    2  505  504 -0.14795019023E+02 -0.34008835965E+02 -0.74468161543E+02  0.83192551320E+02  0.00000000000E+00 0.  1.
         21    1    1    2  506  501  0.88755005739E+02 -0.70585490269E+02  0.42152019236E+03  0.43650777203E+03  0.00000000000E+00 0. -1.
<scales pt_clust_3="34.00891" pt_clust_4="14000.00000" pt_clust_5="36.99159" pt_clust_6="93.83618"></scales>
<clustering>
<clus scale="   34.009">  1  3  2 -1</clus>
<clus scale="   36.992">  2  5  1 -1</clus>
<clus scale="   93.836">  1  6  2 -1</clus>
<clus scale="   34.009">  1  3  2 -1</clus>
</clustering>
</event>
<event>
 6    0  0.4227619E+002  0.8011247E+02  0.7546771E-02  0.1328733E+00
         21   -1    0    0  506  501  0.00000000000E+00  0.00000000000E+00  0.89052496493E+02  0.89052496493E+02  0.00000000000E+00 0. -1.
         21   -1    0    0  503  502 -0.00000000000E+00 -0.00000000000E+00 -0.41735585957E+03  0.41735585957E+03  0.00000000000E+00 0. -1.
         21    1    1    2  503  505  0.35734029698E+01 -0.36223886172E+02 -0.15418881009E+03  0.15842704408E+03  0.00000000000E+00 0. -1.
         21    1    1    2  504  502  0.29733844931E+02  0.10405810468E+03 -0.19847875970E+03  0.22606638126E+03  0.00000000000E+00 0. -1.
         21    1    1    2  505  501  0.36225107375E+01 -0.76160935086E+02 -0.11623704459E+01  0.76255896312E+02  0.00000000000E+00 0. -1.
         21    1    1    2  506  504 -0.36929758639E+02  0.83267165826E+01  0.25526577159E+02  0.45659034414E+02  0.00000000000E+00 0. -1.
<scales pt_clust_3="36.39971" pt_clust_4="80.11247" pt_clust_5="14000.00000" pt_clust_6="37.43891"></scales>
<clustering>
<clus scale="   36.400">  2  3  1 -1</clus>
<clus scale="   37.439">  1  6  2 -1</clus>
<clus scale="   80.112">  2  4  1 -1</clus>
<clus scale="   37.439">  1  3  2 -1</clus>
</clustering>
</event>
<event>
 6    0  0.4227619E+002  0.1194478E+03  0.7546771E-02  0.1244011E+00
         21   -1    0    0  503  501  0.00000000000E+00  0.00000000000E+00  0.17681293634E+03  0.17681293634E+03  0.00000000000E+00 0.  1.
         21   -1    0    0  506  502 -0.00000000000E+00 -0.00000000000E+00 -0.70648452041E+03  0.70648452041E+03  0.00000000000E+00 0.  1.
         21    1    1    2  503  504  0.52793376782E+02 -0.34040101963E+02 -0.16147764521E+03  0.17326540069E+03  0.00000000000E+00 0.  1.
         21    1    1    2  504  502  0.60087973865E+02  0.98217779105E+01 -0.15963106559E+03  0.17084820463E+03  0.00000000000E+00 0.  1.
         21    1    1    2  505  501 -0.20343489834E+02 -0.36813738221E+02  0.15421483085E+03  0.15984781185E+03  0.00000000000E+00 0.  1.
         21    1    1    2  506  505 -0.92537860813E+02  0.61032062273E+02 -0.36277770412E+03  0.37933603957E+03  0.00000000000E+00 0.  1.
<scales pt_clust_3="40.66086" pt_clust_4="40.66086" pt_clust_5="42.06078" pt_clust_6="110.87442"></scales>
<clustering>
<clus scale="   42.061">  1  5  2 -1</clus>
<clus scale="   40.661">  3  4 -1 -1</clus>
<clus scale="  110.874">  2  6  1 -1</clus>
<clus scale="   42.061">  1  3  2 -1</clus>
</clustering>
</event>
<event>
 6    0  0.4227619E+002  0.1066667E+03  0.7546771E-02  0.1266870E+00
         21   -1    0    0  505  501  0.00000000000E+00  0.00000000000E+00  0.10994570986E+03  0.10994570986E+03  0.00000000000E+00 0. -1.
         21   -1    0    0  503  502 -0.00000000000E+00 -0.00000000000E+00 -0.32390777609E+03  0.32390777609E+03  0.00000000000E+00 0.  1.
         21    1    1    2  503  501 -0.53012720583E+02  0.34091149595E+02  0.10662376665E+01  0.63037226201E+02  0.00000000000E+00 0. -1.
         21    1    1    2  504  506  0.55943958391E+02  0.78826267380E+02 -0.30563295148E+02  0.10137762041E+03  0.00000000000E+00 0. -1.
         21    1    1    2  505  504  0.54374519153E+02 -0.17616124941E+02 -0.37885017282E+01  0.57282361477E+02  0.00000000000E+00 0. -1.
         21    1    1    2  506  502 -0.57305756960E+02 -0.95301292034E+02 -0.18067650702E+03  0.21215627786E+03  0.00000000000E+00 0.  1.
<scales pt_clust_3="42.11567" pt_clust_4="14000.00000" pt_clust_5="57.15694" pt_clust_6="106.66669"></scales>
<clustering>
<clus scale="   57.157">  1  5  2 -1</clus>
<clus scale="   42.116">  1  3  2 -1</clus>
<clus scale="  106.667">  2  6  1 -1</clus>
<clus scale="   57.157">  1  3  2 -1</clus>
</clustering>
</event>
<event>
 6    0  0.4227619E+002  0.2731439E+03  0.7546771E-02  0.1099494E+00
         21   -1    0    0  504  501  0.00000000000E+00  0.00000000000E+00  0.24421172514E+03  0.24421172514E+03  0.00000000000E+00 0. -1.
         21   -1    0    0  506  502 -0.00000000000E+00 -0.00000000000E+00 -0.48656215560E+03  0.48656215560E+03  0.00000000000E+00 0. -1.
         21    1    1    2  503  501  0.11883990531E+02 -0.37117242478E+02  0.28926061768E+02  0.48534894350E+02  0.00000000000E+00 0. -1.
         21    1    1    2  504  502 -0.22150495825E+03 -0.17992304162E+03 -0.15889764237E+03  0.32662701693E+03  0.00000000000E+00 0. -1.
         21    1    1    2  505  503  0.21554820682E+03  0.16100300347E+03 -0.53871598173E+02  0.27438138726E+03  0.00000000000E+00 0. -1.
         21    1    1    2  506  505 -0.59272390946E+01  0.56037280631E+02 -0.58507251693E+02  0.81230582199E+02  0.00000000000E+00 0.  1.
<scales pt_clust_3="38.97331" pt_clust_4="273.14386" pt_clust_5="14000.00000" pt_clust_6="54.24159"></scales>
<clustering>
<clus scale="   38.973">  1  3  2 -1</clus>
<clus scale="   54.242">  2  6  1 -1</clus>
<clus scale="  273.144">  2  4  1 -1</clus>
<clus scale="   38.973">  1  3  2 -1</clus>
</clustering>
</event>
<event>
 6    0  0.4227619E+002  0.8515935E+02  0.7546771E-02  0.1315016E+00
         21   -1    0    0  504  501  0.00000000000E+00  0.00000000000E+00  0.26745177289E+04  0.26745177289E+04  0.00000000000E+00 0. -1.
         21   -1    0    0  506  502 -0.00000000000E+00 -0.00000000000E+00 -0.54648472584E+02  0.54648472584E+02  0.00000000000E+00 0. -1.
         21    1    1    2  503  502 -0.17717024857E+02  0.37375088475E+02  0.42392963447E+02  0.59227979521E+02  0.00000000000E+00 0.  1.
         21    1    1    2  504  505 -0.89880228547E+01  0.49753549808E+02  0.58380554027E+03  0.58599070737E+03  0.00000000000E+00 0. -1.
         21    1    1    2  505  503 -0.37116707678E+02 -0.12097965423E+03  0.20065744269E+04  0.20105607818E+04  0.00000000000E+00 0. -1.
         21    1    1    2  506  501  0.63821755391E+02  0.33851015945E+02 -0.12903674268E+02  0.73386732802E+02  0.00000000000E+00 0. -1.
<scales pt_clust_3="41.36170" pt_clust_4="51.50317" pt_clust_5="85.15935" pt_clust_6="14000.00000"></scales>
<clustering>
<clus scale="   41.362">  2  3  1 -1</clus>
<clus scale="   51.503">  1  4  2 -1</clus>
<clus scale="   85.159">  1  5  2 -1</clus>
<clus scale="   51.503">  1  3  2 -1</clus>
</clustering>
</event>
<event>
 6    0  0.4227619E+002  0.1040525E+03  0.7546771E-02  0.1271998E+00
         21   -1    0    0  506  501  0.00000000000E+00  0.00000000000E+00  0.19754864127E+03  0.19754864127E+03  0.00000000000E+00 0. -1.
         21   -1    0    0  504  502 -0.00000000000E+00 -0.00000000000E+00 -0.52855946680E+03  0.52855946680E+03  0.00000000000E+00 0.  1.
         21    1    1    2  503  502 -0.76676203478E+01  0.31426395848E+02 -0.20808645654E+02  0.38463105592E+02  0.00000000000E+00 0. -1.
         21    1    1    2  504  505 -0.54053361380E+02 -0.32308603086E+02 -0.43308900224E+03  0.43764334288E+03  0.00000000000E+00 0.  1.
         21    1    1    2  505  501 -0.28257721955E+02 -0.83383260441E+02  0.22107639514E+02  0.90774526695E+02  0.00000000000E+00 0. -1.
         21    1    1    2  506  503  0.89978703682E+02  0.84265467678E+02  0.10077918285E+03  0.15922713291E+03  0.00000000000E+00 0. -1.
<scales pt_clust_3="32.34827" pt_clust_4="60.94036" pt_clust_5="14000.00000" pt_clust_6="104.05250"></scales>
<clustering>
<clus scale="   32.348">  2  3  1 -1</clus>
<clus scale="   60.940">  2  4  1 -1</clus>
<clus scale="  104.053">  1  6  2 -1</clus>
<clus scale="  104.053">  1  3  2 -1</clus>
</clustering>
</event>
<event>
 6    0  0.4227619E+002  0.1296774E+03  0.7546771E-02  0.1227935E+00
         21   -1    0    0  505  501  0.00000000000E+00  0.00000000000E+00  0.28561592960E+04  0.28561592960E+04  0.00000000000E+00 0. -1.
         21   -1    0    0  506  502 -0.00000000000E+00 -0.00000000000E+00 -0.13132968203E+03  0.13132968203E+03  0.00000000000E+00 0. -1.
         21    1    1    2  503  501 -0.14459007374E+01  0.30444123155E+02  0.13719992461E+04  0.13723377377E+04  0.00000000000E+00 0. -1.
         21    1    1    2  504  502 -0.32258070007E+02 -0.10997868511E+03  0.74036907891E+02  0.13644543960E+03  0.00000000000E+00 0.  1.
         21    1    1    2  505  504  0.69317557055E+02  0.84940523305E+02  0.13732470757E+04  0.13776165458E+04  0.00000000000E+00 0. -1.
         21    1    1    2  506  503 -0.35613586311E+02 -0.54059613506E+01 -0.94453615672E+02  0.10108925493E+03  0.00000000000E+00 0. -1.
<scales pt_clust_3="30.47844" pt_clust_4="14000.00000" pt_clust_5="129.67743" pt_clust_6="36.01459"></scales>
<clustering>
<clus scale="   30.478">  1  3  2 -1</clus>
<clus scale="   36.015">  2  6  1 -1</clus>
<clus scale="  129.677">  1  5  2 -1</clus>
<clus scale="   30.478">  1  3  2 -1</clus>
</clustering>
</event>
<event>
 6    0  0.4227619E+002  0.9811198E+02  0.7546771E-02  0.1284317E+00
         21   -1    0    0  505  501  0.00000000000E+00  0.00000000000E+00  0.52395129289E+02  0.52395129289E+02  0.00000000000E+00 0. -1.
         21   -1    0    0  504  502 -0.00000000000E+00 -0.00000000000E+00 -0.15741363518E+04  0.15741363518E+04  0.00000000000E+00 0. -1.
         21    1    1    2  503  501  0.11904161819E+03 -0.12890196614E+02 -0.53916572302E+02  0.13131664327E+03  0.00000000000E+00 0. -1.
         21    1    1    2  504  503 -0.91988172460E+02 -0.32776689760E+02 -0.13795229308E+04  0.13829749281E+04  0.00000000000E+00 0. -1.
         21    1    1    2  505  506  0.83412608502E+01  0.28901619227E+02 -0.40271543883E+02  0.50266066817E+02  0.00000000000E+00 0.  1.
         21    1    1    2  506  502 -0.35394706584E+02  0.16765267148E+02 -0.48030175480E+02  0.61973842816E+02  0.00000000000E+00 0. -1.
<scales pt_clust_3="14000.00000" pt_clust_4="98.11198" pt_clust_5="30.08123" pt_clust_6="40.11394"></scales>
<clustering>
<clus scale="   30.081">  1  5  2 -1</clus>
<clus scale="   40.114">  1  6  2 -1</clus>
<clus scale="   98.112">  2  4  1 -1</clus>
<clus scale="   30.081">  1  3  2 -1</clus>
</clustering>
</event>
<event>
 6    0  0.4227619E+002  0.1910872E+03  0.7546771E-02  0.1157484E+00
         21   -1    0    0  504  501  0.00000000000E+00  0.00000000000E+00  0.90432552517E+03  0.90432552517E+03  0.00000000000E+00 0.  1.
         21   -1    0    0  505  502 -0.00000000000E+00 -0.00000000000E+00 -0.51527277428E+03  0.51527277428E+03  0.00000000000E+00 0. -1.
         21    1    1    2  503  502 -0.42874906135E+02 -0.58606140076E+02 -0.36446701873E+03  0.37163038758E+03  0.00000000000E+00 0. -1.
         21    1    1    2  504  503 -0.14764420761E+03  0.59167110983E+02 -0.40462028478E+02  0.16412414451E+03  0.00000000000E+00 0. -1.
         21    1    1    2  505  506  0.24983166798E+03 -0.28067354323E+02  0.32783185840E+03  0.41313117298E+03  0.00000000000E+00 0. -1.
         21    1    1    2  506  501 -0.59312554236E+02  0.27506383416E+02  0.46614993969E+03  0.47071259437E+03  0.00000000000E+00 0.  1.
<scales pt_clust_3="72.72225" pt_clust_4="14000.00000" pt_clust_5="191.08718" pt_clust_6="65.38027"></scales>
<clustering>
<clus scale="   65.380">  1  6  2 -1</clus>
<clus scale="   72.722">  2  3  1 -1</clus>
<clus scale="  191.087">  1  5  2 -1</clus>
<clus scale="   65.380">  1  3  2 -1</clus>
</clustering>
</event>
<event>
 6    0  0.4227619E+002  0.1093787E+03  0.7546771E-02  0.1261725E+00
         21   -1    0    0  506  501  0.00000000000E+00  0.00000000000E+00  0.16830748024E+03  0.16830748024E+03  0.00000000000E+00 0. -1.
         21   -1    0    0  504  502 -0.00000000000E+00 -0.00000000000E+00 -0.60127959109E+03  0.60127959109E+03  0.00000000000E+00 0. -1.
         21    1    1    2  503  501 -0.71358014990E+02  0.41725525655E+02  0.96577449565E+02  0.12712273423E+03  0.00000000000E+00 0. -1.
         21    1    1    2  504  503  0.36643577667E+02 -0.13896837224E+01 -0.42439436049E+03  0.42597565215E+03  0.00000000000E+00 0. -1.
         21    1    1    2  505  502  0.39742989564E+02 -0.95039581797E+02 -0.12138656755E+03  0.15920655172E+03  0.00000000000E+00 0. -1.
         21    1    1    2  506  505 -0.50285522410E+01  0.54703739864E+02  0.16231367632E+02  0.57282133235E+02  0.00000000000E+00 0. -1.
<scales pt_clust_3="109.37870" pt_clust_4="36.66992" pt_clust_5="14000.00000" pt_clust_6="54.54702"></scales>
<clustering>
<clus scale="   36.670">  2  4  1 -1</clus>
<clus scale="   54.547">  1  6  2 -1</clus>
<clus scale="  109.379">  1  3  2 -1</clus>
<clus scale="   54.547">  1  3  2 -1</clus>
</clustering>
</event>
<event>
 6    0  0.4227619E+002  0.1176196E+03  0.7546771E-02  0.1247076E+00
         21   -1    0    0  504  501  0.00000000000E+00  0.00000000000E+00  0.82534023642E+02  0.82534023642E+02  0.00000000000E+00 0.  1.
         21   -1    0    0  501  502 -0.00000000000E+00 -0.00000000000E+00 -0.17665334804E+04  0.17665334804E+04  0.00000000000E+00 0.  1.
         21    1    1    2  503  505 -0.15705731866E+03 -0.51108411319E+02 -0.37896397215E+03  0.41339177936E+03  0.00000000000E+00 0.  1.
         21    1    1    2  504  503  0.62816903081E+02  0.96782313300E+02  0.68459688044E+01  0.11558393820E+03  0.00000000000E+00 0.  1.
         21    1    1    2  505  506  0.50882754766E+02 -0.24225552733E+02 -0.21881814698E+03  0.22595865459E+03  0.00000000000E+00 0.  1.
         21    1    1    2  506  502  0.43357660816E+02 -0.21448349248E+02 -0.10930633064E+04  0.10941331319E+04  0.00000000000E+00 0.  1.
<scales pt_clust_3="14000.00000" pt_clust_4="117.61963" pt_clust_5="72.33998" pt_clust_6="48.37270"></scales>
<clustering>
<clus scale="   48.373">  2  6  1 -1</clus>
<clus scale="   72.340">  2  5  1 -1</clus>
<clus scale="  117.620">  1  4  2 -1</clus>
<clus scale="  117.620">  1  3  2 -1</clus>
</clustering>
</event>
<event>
 6    0  0.4227619E+002  0.1452729E+03  0.7546771E-02  0.1206405E+00
         21   -1    0    0  506  501  0.00000000000E+00  0.00000000000E+00  0.46794356829E+03  0.46794356829E+03  0.00000000000E+00 0. -1.
         21   -1    0    0  504  502 -0.00000000000E+00 -0.00000000000E+00 -0.41756111668E+03  0.41756111668E+03  0.00000000000E+00 0. -1.
         21    1    1    2  503  501  0.12292523966E+03  0.11579376417E+02  0.16963122434E+03  0.20980812371E+03  0.00000000000E+00 0. -1.
         21    1    1    2  504  503  0.28885263747E+02 -0.70726574956E+02 -0.34685589615E+03  0.35516984607E+03  0.00000000000E+00 0. -1.
         21    1    1    2  505  502 -0.17152415861E+03  0.17287298335E+02  0.20831305611E+03  0.27039548261E+03  0.00000000000E+00 0. -1.
         21    1    1    2  506  505  0.19713655209E+02  0.41859900204E+02  0.19294067307E+02  0.50131232580E+02  0.00000000000E+00 0. -1.
<scales pt_clust_3="145.27290" pt_clust_4="76.09807" pt_clust_5="14000.00000" pt_clust_6="46.26964"></scales>
<clustering>
<clus scale="   46.270">  1  6  2 -1</clus>
<clus scale="   76.098">  2  4  1 -1</clus>
<clus scale="  145.273">  1  3  2 -1</clus>
<clus scale="   46.270">  1  3  2 -1</clus>
</clustering>
</event>
<event>
 6    0  0.4227619E+002  0.6659366E+02  0.7546771E-02  0.1372075E+00
         21   -1    0    0  503  501  0.00000000000E+00  0.00000000000E+00  0.43963493705E+03  0.43963493705E+03  0.00000000000E+00 0.  1.
         21   -1    0    0  505  502 -0.00000000000E+00 -0.00000000000E+00 -0.99663540950E+02  0.99663540950E+02  0.00000000000E+00 0. -1.
         21    1    1    2  503  506  0.58218704905E+02 -0.10184062221E+02  0.21330550756E+03  0.22134220628E+03  0.00000000000E+00 0.  1.
         21    1    1    2  504  501 -0.38326334828E+02 -0.54354641282E+02  0.13492077488E+03  0.15042257299E+03  0.00000000000E+00 0. -1.
         21    1    1    2  505  504  0.50557335918E+02 -0.22088627625E+02 -0.88318821325E+01  0.55874447000E+02  0.00000000000E+00 0.  1.
         21    1    1    2  506  502 -0.70449705995E+02  0.86627331128E+02  0.57699578850E+00  0.11165925173E+03  0.00000000000E+00 0. -1.
<scales pt_clust_3="62.30789" pt_clust_4="14000.00000" pt_clust_5="55.17202" pt_clust_6="66.59366"></scales>
<clustering>
<clus scale="   55.172">  2  5  1 -1</clus>
<clus scale="   62.308">  1  3  2 -1</clus>
<clus scale="   66.594">  2  6  1 -1</clus>
<clus scale="   62.308">  1  3  2 -1</clus>
</clustering>
</event>
<event>
 6    0  0.4227619E+002  0.8590530E+02  0.7546771E-02  0.1313082E+00
         21   -1    0    0  504  501  0.00000000000E+00  0.00000000000E+00  0.62563302218E+02  0.62563302218E+02  0.00000000000E+00 0. -1.
         21   -1    0    0  505  502 -0.00000000000E+00 -0.00000000000E+00 -0.88648019366E+03  0.88648019366E+03  0.00000000000E+00 0.  1.
         21    1    1    2  503  502 -0.61458351137E+02 -0.58626592418E+02 -0.71565196251E+03  0.72067464067E+03  0.00000000000E+00 0.  1.
         21    1    1    2  504  503  0.77857492672E+02  0.54142974346E+02 -0.88707950586E+02  0.12985511670E+03  0.00000000000E+00 0. -1.
         21    1    1    2  505  506 -0.44080423040E+02  0.18762331566E+02 -0.39018685037E+02  0.61786459384E+02  0.00000000000E+00 0.  1.
         21    1    1    2  506  501  0.27681281505E+02 -0.14278713495E+02  0.19461706686E+02  0.36727279126E+02  0.00000000000E+00 0. -1.
<scales pt_clust_3="14000.00000" pt_clust_4="85.90530" pt_clust_5="37.65615" pt_clust_6="31.14699"></scales>
<clustering>
<clus scale="   31.147">  1  6  2 -1</clus>
<clus scale="   37.656">  1  5  2 -1</clus>
<clus scale="   85.905">  1  4  2 -1</clus>
<clus scale="   31.147">  1  3  2 -1</clus>
</clustering>
</event>
<event>
 6    0  0.4227619E+002  0.1132891E+03  0.7546771E-02  0.1254597E+00
         21   -1    0    0  506  501  0.00000000000E+00  0.00000000000E+00  0.20134896424E+04  0.20134896424E+04  0.00000000000E+00 0.  1.
         21   -1    0    0  505  502 -0.00000000000E+00 -0.00000000000E+00 -0.10834667968E+03  0.10834667968E+03  0.00000000000E+00 0. -1.
         21    1    1    2  503  501 -0.20143592200E+02  0.48210277895E+02  0.15245082136E+04  0.15254033200E+04  0.00000000000E+00 0.  1.
         21    1    1    2  504  503 -0.41413239477E+02 -0.89117131042E+02  0.91262797366E+02  0.13411121367E+03  0.00000000000E+00 0. -1.
         21    1    1    2  505  504  0.91134744808E+02  0.80441018145E+02 -0.40995967824E+02  0.12828471651E+03  0.00000000000E+00 0. -1.
         21    1    1    2  506  502 -0.29577913131E+02 -0.39534164998E+02  0.33036791957E+03  0.33403707194E+03  0.00000000000E+00 0. -1.
<scales pt_clust_3="48.56824" pt_clust_4="14000.00000" pt_clust_5="113.28912" pt_clust_6="49.37411"></scales>
<clustering>
<clus scale="   49.374">  1  6  2 -1</clus>
<clus scale="   48.568">  1  3  2 -1</clus>
<clus scale="  113.289">  2  5  1 -1</clus>
<clus scale="   49.374">  1  3  2 -1</clus>
</clustering>
</event>
<event>
 6    0  0.4227619E+002  0.1247807E+03  0.7546771E-02  0.1235412E+00
         21   -1    0    0  503  501  0.00000000000E+00  0.00000000000E+00  0.17179207086E+02  0.17179207086E+02  0.00000000000E+00 0.  1.
         21   -1    0    0  504  502 -0.00000000000E+00 -0.00000000000E+00 -0.25072931462E+04  0.25072931462E+04  0.00000000000E+00 0.  1.
         21    1    1    2  503  505 -0.19709270366E+02 -0.24144068704E+02 -0.14016980073E+03  0.14359305146E+03  0.00000000000E+00 0. -1.
         21    1    1    2  504  506  0.19935411536E+02  0.47328666030E+02 -0.11489812841E+04  0.11501284339E+04  0.00000000000E+00 0.  1.
         21    1    1    2  505  502  0.11205088711E+03 -0.61905799809E+02 -0.86482481553E+03  0.87424807172E+03  0.00000000000E+00 0.  1.
         21    1    1    2  506  501 -0.11227702828E+03  0.38721202482E+02 -0.33613803880E+03  0.35650279625E+03  0.00000000000E+00 0.  1.
<scales pt_clust_3="31.16715" pt_clust_4="50.24809" pt_clust_5="124.78075" pt_clust_6="14000.00000"></scales>
<clustering>
<clus scale="   31.167">  1  3  2 -1</clus>
<clus scale="   50.248">  2  4  1 -1</clus>
<clus scale="  124.781">  2  5  1 -1</clus>
<clus scale="   31.167">  1  3  2 -1</clus>
</clustering>
</event>
<event>
 6    0  0.4227619E+002  0.2239178E+03  0.7546771E-02  0.1130995E+00
         21   -1    0    0  504  501  0.00000000000E+00  0.00000000000E+00  0.42221182694E+03  0.42221182694E+03  0.00000000000E+00 0. -1.
         21   -1    0    0  505  502 -0.00000000000E+00 -0.00000000000E+00 -0.65543464583E+03  0.65543464583E+03  0.00000000000E+00 0.  1.
         21    1    1    2  503  501  0.54273111893E+01  0.20355805463E+03  0.26095591173E+03  0.33100351233E+03  0.00000000000E+00 0. -1.
         21    1    1    2  504  506  0.46044301132E+02 -0.16338910722E+02  0.23419789359E+02  0.54180478071E+02  0.00000000000E+00 0.  1.
         21    1    1    2  505  503  0.40967126855E+02 -0.22202431251E+03 -0.54503726699E+03  0.58994806825E+03  0.00000000000E+00 0.  1.
         21    1    1    2  506  502 -0.92438739176E+02  0.34805168608E+02  0.27438747007E+02  0.10251441411E+03  0.00000000000E+00 0. -1.
<scales pt_clust_3="223.91784" pt_clust_4="48.85732" pt_clust_5="14000.00000" pt_clust_6="90.49591"></scales>
<clustering>
<clus scale="   48.857">  1  4  2 -1</clus>
<clus scale="   90.496">  1  6  2 -1</clus>
<clus scale="  223.918">  1  3  2 -1</clus>
<clus scale="   48.857">  1  3  2 -1</clus>
</clustering>
</event>
<event>
 6    0  0.4227619E+002  0.1127238E+03  0.7546771E-02  0.1255607E+00
         21   -1    0    0  504  501  0.00000000000E+00  0.00000000000E+00  0.21753032612E+04  0.21753032612E+04  0.00000000000E+00 0.  1.
         21   -1    0    0  506  502 -0.00000000000E+00 -0.00000000000E+00 -0.33023103666E+02  0.33023103666E+02  0.00000000000E+00 0.  1.
         21    1    1    2  503  505 -0.50747268417E+02 -0.10677044158E+03  0.15748413269E+03  0.19691740526E+03  0.00000000000E+00 0.  1.
         21    1    1    2  504  503  0.41661089172E+02  0.10419808158E+03  0.17810390361E+04  0.17845707984E+04  0.00000000000E+00 0.  1.
         21    1    1    2  505  502  0.38175521024E+02 -0.56523501803E+01  0.26009280635E+02  0.46538179457E+02  0.00000000000E+00 0.  1.
         21    1    1    2  506  501 -0.29089341780E+02  0.82247101760E+01  0.17774770807E+03  0.18029998166E+03  0.00000000000E+00 0.  1.
<scales pt_clust_3="14000.00000" pt_clust_4="112.72383" pt_clust_5="38.04701" pt_clust_6="30.22971"></scales>
<clustering>
<clus scale="   30.230">  1  6  2 -1</clus>
<clus scale="   38.047">  2  5  1 -1</clus>
<clus scale="  112.724">  1  4  2 -1</clus>
<clus scale="   30.230">  1  3  2 -1</clus>
</clustering>
</event>
<event>
 6    0  0.4227619E+002  0.1677140E+03  0.7546771E-02  0.1180253E+00
         21   -1    0    0  506  501  0.00000000000E+00  0.00000000000E+00  0.69046118078E+03  0.69046118078E+03  0.00000000000E+00 0. -1.
         21   -1    0    0  504  502 -0.00000000000E+00 -0.00000000000E+00 -0.33789776361E+03  0.33789776361E+03  0.00000000000E+00 0. -1.
         21    1    1    2  503  502  0.24719299262E+02 -0.55061540959E+02 -0.10789132245E+03  0.12362586505E+03  0.00000000000E+00 0. -1.
         21    1    1    2  504  505  0.99192390843E+02  0.16180784269E+03 -0.15598017409E+03  0.24566384159E+03  0.00000000000E+00 0. -1.
         21    1    1    2  505  501  0.35952974713E+02  0.54318257466E+01  0.12719063571E+03  0.13228597406E+03  0.00000000000E+00 0. -1.
         21    1    1    2  506  503 -0.15986466482E+03 -0.11217812748E+03  0.48924427800E+03  0.52678326369E+03  0.00000000000E+00 0. -1.
<scales pt_clust_3="60.49482" pt_clust_4="14000.00000" pt_clust_5="36.36098" pt_clust_6="167.71403"></scales>
<clustering>
<clus scale="   36.361">  1  5  2 -1</clus>
<clus scale="   60.495">  2  3  1 -1</clus>
<clus scale="  167.714">  1  6  2 -1</clus>
<clus scale="   36.361">  1  3  2 -1</clus>
</clustering>
</event>
<event>
 6    0  0.4227619E+002  0.2203829E+03  0.7546771E-02  0.1133598E+00
         21   -1    0    0  506  501  0.00000000000E+00  0.00000000000E+00  0.36294908836E+03  0.36294908836E+03  0.00000000000E+00 0. -1.
         21   -1    0    0  505  502 -0.00000000000E+00 -0.00000000000E+00 -0.32550100111E+03  0.32550100111E+03  0.00000000000E+00 0. -1.
         21    1    1    2  503  501 -0.60662389936E+02  0.87348065936E+02  0.86293159145E+02  0.13695298277E+03  0.00000000000E+00 0. -1.
         21    1    1    2  504  503 -0.18188315261E+03 -0.68256827724E+02  0.11894223697E+03  0.22778878698E+03  0.00000000000E+00 0. -1.
         21    1    1    2  505  504  0.13122243538E+02  0.38000450205E+02 -0.20061274739E+02  0.44929747778E+02  0.00000000000E+00 0.  1.
         21    1    1    2  506  502  0.22942329901E+03 -0.57091688417E+02 -0.14772603412E+03  0.27877857194E+03  0.00000000000E+00 0. -1.
<scales pt_clust_3="108.43408" pt_clust_4="14000.00000" pt_clust_5="40.20233" pt_clust_6="220.38292"></scales>
<clustering>
<clus scale="   40.202">  2  5  1 -1</clus>
<clus scale="  108.434">  1  3  2 -1</clus>
<clus scale="  220.383">  2  6  1 -1</clus>
<clus scale="  108.434">  1  3  2 -1</clus>
</clustering>
</event>
<event>
 6    0  0.4227619E+002  0.1551444E+03  0.7546771E-02  0.1194290E+00
         21   -1    0    0  502  501  0.00000000000E+00  0.00000000000E+00  0.14278720120E+04  0.14278720120E+04  0.00000000000E+00 0.  1.
         21   -1    0    0  505  502 -0.00000000000E+00 -0.00000000000E+00 -0.16752885492E+03  0.16752885492E+03  0.00000000000E+00 0.  1.
         21    1    1    2  503  504 -0.89441151177E+02  0.50500443787E+02  0.62184318290E+02  0.12007041179E+03  0.00000000000E+00 0.  1.
         21    1    1    2  504  506  0.10652703328E+03  0.65767784535E+02  0.12958360248E+03  0.18018135401E+03  0.00000000000E+00 0.  1.
         21    1    1    2  505  503  0.33918817909E+02  0.44373738713E+02 -0.99968485201E+02  0.11451293782E+03  0.00000000000E+00 0.  1.
         21    1    1    2  506  501 -0.51004700015E+02 -0.16064196703E+03  0.11685437215E+04  0.11806361633E+04  0.00000000000E+00 0.  1.
<scales pt_clust_3="102.50722" pt_clust_4="14000.00000" pt_clust_5="55.85262" pt_clust_6="155.14439"></scales>
<clustering>
<clus scale="   55.853">  2  5  1 -1</clus>
<clus scale="  102.507">  2  3  1 -1</clus>
<clus scale="  155.144">  1  6  2 -1</clus>
<clus scale="  155.144">  1  3  2 -1</clus>
</clustering>
</event>
<event>
 6    0  0.4227619E+002  0.9809393E+02  0.7546771E-02  0.1284356E+00
         21   -1    0    0  506  501  0.00000000000E+00  0.00000000000E+00  0.30504837763E+03  0.30504837763E+03  0.00000000000E+00 0. -1.
         21   -1    0    0  505  502 -0.00000000000E+00 -0.00000000000E+00 -0.39434353701E+03  0.39434353701E+03  0.00000000000E+00 0.  1.
         21    1    1    2  503  501 -0.86728387451E+02 -0.35891568079E+02  0.22382200101E+03  0.24270621332E+03  0.00000000000E+00 0. -1.
         21    1    1    2  504  502 -0.20651649062E+02 -0.50926811182E+02 -0.14818610829E+02  0.56917676807E+02  0.00000000000E+00 0.  1.
         21    1    1    2  505  503 -0.60666137671E+02 -0.23025079785E+01 -0.13892519167E+03  0.15161098470E+03  0.00000000000E+00 0.  1.
         21    1    1    2  506  504  0.16804617418E+03  0.89120887240E+02 -0.15937335790E+03  0.24815703981E+03  0.00000000000E+00 0.  1.
<scales pt_clust_3="98.09393" pt_clust_4="54.95481" pt_clust_5="72.74664" pt_clust_6="14000.00000"></scales>
<clustering>
<clus scale="   54.955">  2  4  1 -1</clus>
<clus scale="   72.747">  2  5  1 -1</clus>
<clus scale="   98.094">  1  3  2 -1</clus>
<clus scale="   98.094">  1  3  2 -1</clus>
</clustering>
</event>
<event>
 6    0  0.4227619E+002  0.2800734E+03  0.7546771E-02  0.1095649E+00
         21   -1    0    0  503  501  0.00000000000E+00  0.00000000000E+00  0.65070165638E+03  0.65070165638E+03  0.00000000000E+00 0.  1.
         21   -1    0    0  505  502 -0.00000000000E+00 -0.00000000000E+00 -0.95825411793E+03  0.95825411793E+03  0.00000000000E+00 0. -1.
         21    1    1    2  503  502 -0.11530097377E+01  0.35867895074E+02 -0.37105482828E+03  0.37278615977E+03  0.00000000000E+00 0. -1.
         21    1    1    2  504  501 -0.30118560939E+02  0.27560133892E+03  0.54327994161E+03  0.60993140654E+03  0.00000000000E+00 0.  1.
         21    1    1    2  505  506  0.30543905946E+02 -0.15501696834E+01 -0.21921818743E+03  0.22134124541E+03  0.00000000000E+00 0.  1.
         21    1    1    2  506  504  0.72766473054E+00 -0.30991906431E+03 -0.26055938746E+03  0.40489696258E+03  0.00000000000E+00 0.  1.
<scales pt_clust_3="37.86635" pt_clust_4="14000.00000" pt_clust_5="30.58322" pt_clust_6="280.07337"></scales>
<clustering>
<clus scale="   30.583">  2  5  1 -1</clus>
<clus scale="   37.866">  2  3  1 -1</clus>
<clus scale="  280.073">  2  6  1 -1</clus>
<clus scale="  280.073">  1  3  2 -1</clus>
</clustering>
</event>
<event>
 6    0  0.4227619E+002  0.1456607E+03  0.7546771E-02  0.1205909E+00
         21   -1    0    0  506  501  0.00000000000E+00  0.00000000000E+00  0.85421162412E+03  0.85421162412E+03  0.00000000000E+00 0.  1.
         21   -1    0    0  505  502 -0.00000000000E+00 -0.00000000000E+00 -0.31084396048E+03  0.31084396048E+03  0.00000000000E+00 0.  1.
         21    1    1    2  503  501  0.36415661243E+02  0.91328728915E+02  0.45824561355E+03  0.46867481204E+03  0.00000000000E+00 0.  1.
         21    1    1    2  504  502  0.11748291618E+03 -0.10669560592E+03  0.42278440062E+01  0.15875787408E+03  0.00000000000E+00 0.  1.
         21    1    1    2  505  503 -0.34913366529E+02 -0.25948316187E+02 -0.21325235191E+03  0.21764380044E+03  0.00000000000E+00 0.  1.
         21    1    1    2  506  504 -0.11898521089E+03  0.41315193192E+02  0.29414655799E+03  0.31997909803E+03  0.00000000000E+00 0.  1.
<scales pt_clust_3="96.30479" pt_clust_4="145.66068" pt_clust_5="43.50010" pt_clust_6="14000.00000"></scales>
<clustering>
<clus scale="   43.500">  2  5  1 -1</clus>
<clus scale="   96.305">  1  3  2 -1</clus>
<clus scale="  145.661">  2  4  1 -1</clus>
<clus scale="   96.305">  1  3  2 -1</clus>
</clustering>
</event>
<event>
 6    0  0.4227619E+002  0.8610650E+02  0.7546771E-02  0.1312564E+00
         21   -1    0    0  504  501  0.00000000000E+00  0.00000000000E+00  0.40756298410E+03  0.40756298410E+03  0.00000000000E+00 0.  1.
         21   -1    0    0  505  502 -0.00000000000E+00 -0.00000000000E+00 -0.10400474742E+03  0.10400474742E+03  0.00000000000E+00 0.  1.
         21    1    1    2  503  502  0.22814109278E+02  0.40652731604E+02 -0.44164941550E+02  0.64215809822E+02  0.00000000000E+00 0.  1.
         21    1    1    2  504  503  0.50516955774E+02  0.29459751911E+02  0.25803443278E+03  0.26457817050E+03  0.00000000000E+00 0.  1.
         21    1    1    2  505  506 -0.80780854630E+02 -0.99677717002E+02  0.66802547580E+02  0.14465052404E+03  0.00000000000E+00 0.  1.
         21    1    1    2  506  501  0.74497895781E+01  0.29565233488E+02  0.22886197878E+02  0.38123227162E+02  0.00000000000E+00 0. -1.
<scales pt_clust_3="47.39976" pt_clust_4="14000.00000" pt_clust_5="86.10650" pt_clust_6="30.48938"></scales>
<clustering>
<clus scale="   30.489">  1  6  2 -1</clus>
<clus scale="   47.400">  2  3  1 -1</clus>
<clus scale="   86.107">  2  5  1 -1</clus>
<clus scale="   30.489">  1  3  2 -1</clus>
</clustering>
</event>
<event>
 6    0  0.4227619E+002  0.9090948E+02  0.7546771E-02  0.1300664E+00
         21   -1    0    0  503  501  0.00000000000E+00  0.00000000000E+00  0.35592850506E+03  0.35592850506E+03  0.00000000000E+00 0.  1.
         21   -1    0    0  504  502 -0.00000000000E+00 -0.00000000000E+00 -0.98053058809E+02  0.98053058809E+02  0.00000000000E+00 0.  1.
         21    1    1    2  503  506  0.79684705421E+02 -0.36179490349E+02  0.20430211751E+03  0.22225652525E+03  0.00000000000E+00 0.  1.
         21    1    1    2  504  501 -0.13133530350E+03 -0.18128439768E+02  0.28635772807E+01  0.13261147140E+03  0.00000000000E+00 0.  1.
         21    1    1    2  505  502  0.19575457714E+02  0.48271705902E+02  0.26270641546E+02  0.58339546987E+02  0.00000000000E+00 0.  1.
         21    1    1    2  506  505  0.32075140360E+02  0.60362242138E+01  0.24439109919E+02  0.40774020227E+02  0.00000000000E+00 0.  1.
<scales pt_clust_3="90.90948" pt_clust_4="14000.00000" pt_clust_5="85.15879" pt_clust_6="32.00588"></scales>
<clustering>
<clus scale="   32.006">  5  6 -1 -1</clus>
<clus scale="   85.159">  2  5  1 -1</clus>
<clus scale="   90.909">  1  3  2 -1</clus>
<clus scale="   90.909">  1  3  2 -1</clus>
</clustering>
</event>
<event>
 6    0  0.4227619E+002  0.9199415E+02  0.7546771E-02  0.1298093E+00
         21   -1    0    0  504  501  0.00000000000E+00  0.00000000000E+00  0.32544559404E+03  0.32544559404E+03  0.00000000000E+00 0.  1.
         21   -1    0    0  505  502 -0.00000000000E+00 -0.00000000000E+00 -0.20834649030E+03  0.20834649030E+03  0.00000000000E+00 0. -1.
         21    1    1    2  503  502 -0.14705690826E+02 -0.39477170859E+02  0.69873444091E+01  0.42702779108E+02  0.00000000000E+00 0.  1.
         21    1    1    2  504  503  0.10510647896E+02 -0.39571788204E+02  0.22803062645E+03  0.23167729008E+03  0.00000000000E+00 0.  1.
         21    1    1    2  505  506  0.92844866286E+02  0.13591871718E+02 -0.11599633907E+03  0.14919805244E+03  0.00000000000E+00 0.  1.
         21    1    1    2  506  501 -0.88649823356E+02  0.65457087345E+02 -0.19225280457E+01  0.11021396272E+03  0.00000000000E+00 0. -1.
<scales pt_clust_3="51.18253" pt_clust_4="40.94387" pt_clust_5="14000.00000" pt_clust_6="91.99415"></scales>
<clustering>
<clus scale="   40.944">  1  4  2 -1</clus>
<clus scale="   51.183">  1  3  2 -1</clus>
<clus scale="   91.994">  1  6  2 -1</clus>
<clus scale="   40.944">  1  3  2 -1</clus>
</clustering>
</event>
<event>
 6    0  0.4227619E+002  0.8839154E+02  0.7546771E-02  0.1306794E+00
         21   -1    0    0  506  501  0.00000000000E+00  0.00000000000E+00  0.57449470683E+02  0.57449470683E+02  0.00000000000E+00 0. -1.
         21   -1    0    0  505  502 -0.00000000000E+00 -0.00000000000E+00 -0.20929373520E+04  0.20929373520E+04  0.00000000000E+00 0.  1.
         21    1    1    2  503  501 -0.69657136069E+02 -0.12269605370E+02 -0.98375401194E+02  0.12116261544E+03  0.00000000000E+00 0.  1.
         21    1    1    2  504  503  0.10416067646E+03  0.25953888964E+02 -0.25368795270E+03  0.27546438648E+03  0.00000000000E+00 0.  1.
         21    1    1    2  505  504 -0.46215362827E+01 -0.38477903768E+02 -0.17075872419E+04  0.17080269601E+04  0.00000000000E+00 0.  1.
         21    1    1    2  506  502 -0.29882004113E+02  0.24793620174E+02  0.24162714501E+02  0.45732860650E+02  0.00000000000E+00 0. -1.
<scales pt_clust_3="14000.00000" pt_clust_4="88.39154" pt_clust_5="38.75445" pt_clust_6="38.25100"></scales>
<clustering>
<clus scale="   38.754">  2  5  1 -1</clus>
<clus scale="   38.251">  1  6  2 -1</clus>
<clus scale="   88.392">  2  4  1 -1</clus>
<clus scale="   38.251">  1  3  2 -1</clus>
</clustering>
</event>
<event>
 6    0  0.4227619E+002  0.1536002E+03  0.7546771E-02  0.1196118E+00
         21   -1    0    0  506  501  0.00000000000E+00  0.00000000000E+00  0.41237031702E+03  0.41237031702E+03  0.00000000000E+00 0.  1.
         21   -1    0    0  505  502 -0.00000000000E+00 -0.00000000000E+00 -0.14466813961E+04  0.14466813961E+04  0.00000000000E+00 0. -1.
         21    1    1    2  503  501 -0.31260670423E+02  0.12086414622E+03  0.27309733859E+03  0.30027908302E+03  0.00000000000E+00 0.  1.
         21    1    1    2  504  502 -0.10138259733E+03  0.67161849923E+00  0.55184173685E+02  0.11543039088E+03  0.00000000000E+00 0.  1.
         21    1    1    2  505  503  0.86368788558E+02 -0.12766493770E+03 -0.13835966043E+04  0.13921556908E+04  0.00000000000E+00 0. -1.
         21    1    1    2  506  504  0.46274479195E+02  0.61291729840E+01  0.21004012917E+02  0.51186548476E+02  0.00000000000E+00 0.  1.
<scales pt_clust_3="14000.00000" pt_clust_4="90.91484" pt_clust_5="153.60020" pt_clust_6="46.67863"></scales>
<clustering>
<clus scale="   46.679">  1  6  2 -1</clus>
<clus scale="   90.915">  1  4  2 -1</clus>
<clus scale="  153.600">  2  5  1 -1</clus>
<clus scale="   46.679">  1  3  2 -1</clus>
</clustering>
</event>
<event>
 6    0  0.4227619E+002  0.8977685E+02  0.7546771E-02  0.1303393E+00
         21   -1    0    0  505  501  0.00000000000E+00  0.00000000000E+00  0.46129629555E+02  0.46129629555E+02  0.00000000000E+00 0. -1.
         21   -1    0    0  506  502 -0.00000000000E+00 -0.00000000000E+00 -0.14909501400E+04  0.14909501400E+04  0.00000000000E+00 0. -1.
         21    1    1    2  503  504  0.10016373392E+02 -0.91173008853E+02 -0.28590781846E+03  0.30026009714E+03  0.00000000000E+00 0. -1.
         21    1    1    2  504  501 -0.27540012720E+01  0.10238817842E+03 -0.43375212031E+02  0.11123098768E+03  0.00000000000E+00 0. -1.
         21    1    1    2  505  502  0.28178279030E+02 -0.18510159431E+02 -0.55526011381E+02  0.64959828749E+02  0.00000000000E+00 0. -1.
         21    1    1    2  506  503 -0.35440651150E+02  0.72949898674E+01 -0.10600114686E+04  0.10606288560E+04  0.00000000000E+00 0. -1.
<scales pt_clust_3="89.77685" pt_clust_4="14000.00000" pt_clust_5="33.71411" pt_clust_6="35.95022"></scales>
<clustering>
<clus scale="   33.714">  1  5  2 -1</clus>
<clus scale="   35.950">  2  6  1 -1</clus>
<clus scale="   89.777">  2  3  1 -1</clus>
<clus scale="   33.714">  1  3  2 -1</clus>
</clustering>
</event>
<event>
 6    0  0.4227619E+002  0.2541954E+03  0.7546771E-02  0.1110682E+00
         21   -1    0    0  504  501  0.00000000000E+00  0.00000000000E+00  0.59579231235E+03  0.59579231235E+03  0.00000000000E+00 0. -1.
         21   -1    0    0  506  502 -0.00000000000E+00 -0.00000000000E+00 -0.27758788377E+04  0.27758788377E+04  0.00000000000E+00 0.  1.
         21    1    1    2  503  501  0.22469378815E+01 -0.30955488997E+02  0.10658219466E+03  0.11100925749E+03  0.00000000000E+00 0.  1.
         21    1    1    2  504  502 -0.13455543280E+02  0.34473085666E+02 -0.38049673976E+03  0.38229205360E+03  0.00000000000E+00 0.  1.
         21    1    1    2  505  503  0.21886260842E+03  0.15574212856E+03  0.44115413921E+03  0.51650113893E+03  0.00000000000E+00 0. -1.
         21    1    1    2  506  505 -0.20765400302E+03 -0.15925972523E+03 -0.23473261195E+04  0.23618687000E+04  0.00000000000E+00 0.  1.
<scales pt_clust_3="31.03693" pt_clust_4="36.95136" pt_clust_5="254.19541" pt_clust_6="14000.00000"></scales>
<clustering>
<clus scale="   31.037">  1  3  2 -1</clus>
<clus scale="   36.951">  2  4  1 -1</clus>
<clus scale="  254.195">  1  5  2 -1</clus>
<clus scale="   31.037">  1  3  2 -1</clus>
</clustering>
</event>
<event>
 6    0  0.4227619E+002  0.7034786E+02  0.7546771E-02  0.1358914E+00
         21   -1    0    0  506  501  0.00000000000E+00  0.00000000000E+00  0.65193119016E+03  0.65193119016E+03  0.00000000000E+00 0. -1.
         21   -1    0    0  504  502 -0.00000000000E+00 -0.00000000000E+00 -0.71020211708E+03  0.71020211708E+03  0.00000000000E+00 0. -1.
         21    1    1    2  503  502 -0.11290216924E+02 -0.42760616635E+02 -0.75495960411E+02  0.87496167754E+02  0.00000000000E+00 0. -1.
         21    1    1    2  504  505 -0.45443719887E+02  0.83291578439E+02 -0.61287957326E+03  0.62018061082E+03  0.00000000000E+00 0. -1.
         21    1    1    2  505  501  0.54125699661E+02 -0.81396137770E+02  0.58669040509E+03  0.59477773499E+03  0.00000000000E+00 0. -1.
         21    1    1    2  506  503  0.26082371497E+01  0.40865175966E+02  0.43414201661E+02  0.59678793667E+02  0.00000000000E+00 0.  1.
<scales pt_clust_3="43.82455" pt_clust_4="70.34786" pt_clust_5="14000.00000" pt_clust_6="40.94833"></scales>
<clustering>
<clus scale="   40.948">  1  6  2 -1</clus>
<clus scale="   43.825">  2  3  1 -1</clus>
<clus scale="   70.348">  2  4  1 -1</clus>
<clus scale="   40.948">  1  3  2 -1</clus>
</clustering>
</event>
<event>
 6    0  0.4227619E+002  0.1477209E+03  0.7546771E-02  0.1203302E+00
         21   -1    0    0  503  501  0.00000000000E+00  0.00000000000E+00  0.21242715262E+02  0.21242715262E+02  0.00000000000E+00 0. -1.
         21   -1    0    0  505  502 -0.00000000000E+00 -0.00000000000E+00 -0.18890427450E+04  0.18890427450E+04  0.00000000000E+00 0.  1.
         21    1    1    2  503  502 -0.69190899904E+02  0.11955840159E+03 -0.29628598155E+03  0.32690514662E+03  0.00000000000E+00 0. -1.
         21    1    1    2  504  501  0.71383281152E+02 -0.57978028278E+02 -0.11179254306E+04  0.11217015168E+04  0.00000000000E+00 0.  1.
         21    1    1    2  505  506 -0.30082596328E+02 -0.22156808857E+02 -0.17614451955E+03  0.18006326263E+03  0.00000000000E+00 0.  1.
         21    1    1    2  506  504  0.27890215080E+02 -0.39423564458E+02 -0.27744409806E+03  0.28161553416E+03  0.00000000000E+00 0. -1.
<scales pt_clust_3="137.55418" pt_clust_4="39.86921" pt_clust_5="37.36157" pt_clust_6="39.86921"></scales>
<clustering>
<clus scale="   37.362">  2  5  1 -1</clus>
<clus scale="   39.869">  4  6 -1 -1</clus>
<clus scale="  137.554">  1  3  2 -1</clus>
<clus scale="  137.554">  1  3  2 -1</clus>
</clustering>
</event>
<event>
 6    0  0.4227619E+002  0.9939017E+02  0.7546771E-02  0.1281584E+00
         21   -1    0    0  504  501  0.00000000000E+00  0.00000000000E+00  0.10834073209E+04  0.10834073209E+04  0.00000000000E+00 0.  1.
         21   -1    0    0  505  502 -0.00000000000E+00 -0.00000000000E+00 -0.82531903539E+02  0.82531903539E+02  0.00000000000E+00 0.  1.
         21    1    1    2  503  502  0.35580558400E+02 -0.12581117052E+03  0.42007794694E+03  0.43995443885E+03  0.00000000000E+00 0.  1.
         21    1    1    2  504  503  0.34742702896E+02 -0.21586568557E+01  0.32184528620E+03  0.32372226283E+03  0.00000000000E+00 0.  1.
         21    1    1    2  505  506  0.46653691461E+01  0.72118620215E+02 -0.44405693443E+02  0.84821734604E+02  0.00000000000E+00 0.  1.
         21    1    1    2  506  501 -0.74988630442E+02  0.55851207164E+02  0.30335787764E+03  0.31744078812E+03  0.00000000000E+00 0.  1.
<scales pt_clust_3="14000.00000" pt_clust_4="34.80970" pt_clust_5="72.27764" pt_clust_6="99.39017"></scales>
<clustering>
<clus scale="   34.810">  1  4  2 -1</clus>
<clus scale="   72.278">  2  5  1 -1</clus>
<clus scale="   99.390">  1  6  2 -1</clus>
<clus scale="   34.810">  1  3  2 -1</clus>
</clustering>
</event>
<event>
 6    0  0.4227619E+002  0.1989610E+03  0.7546771E-02  0.1150619E+00
         21   -1    0    0  503  501  0.00000000000E+00  0.00000000000E+00  0.30586081898E+03  0.30586081898E+03  0.00000000000E+00 0.  1.
         21   -1    0    0  504  502 -0.00000000000E+00 -0.00000000000E+00 -0.54635977149E+03  0.54635977149E+03  0.00000000000E+00 0. -1.
         21    1    1    2  503  502 -0.11654508245E+03  0.52740216973E+02 -0.15378856010E+03  0.20003801626E+03  0.00000000000E+00 0.  1.
         21    1    1    2  504  506 -0.63527866502E+02  0.39499112482E+02 -0.32479777062E+03  0.33330100736E+03  0.00000000000E+00 0. -1.
         21    1    1    2  505  501  0.14552168345E+03 -0.43079502984E+02  0.17780966964E+03  0.23377057674E+03  0.00000000000E+00 0.  1.
         21    1    1    2  506  505  0.34551265498E+02 -0.49159826471E+02  0.60277708581E+02  0.85110990113E+02  0.00000000000E+00 0.  1.
<scales pt_clust_3="188.46750" pt_clust_4="74.80621" pt_clust_5="40.12019" pt_clust_6="40.12019"></scales>
<clustering>
<clus scale="   40.120">  5  6 -1 -1</clus>
<clus scale="   74.806">  2  4  1 -1</clus>
<clus scale="  188.468">  2  3  1 -1</clus>
<clus scale="  198.961">  1  3  2 -1</clus>
</clustering>
</event>
<event>
 6    0  0.4227619E+002  0.2079529E+03  0.7546771E-02  0.1143197E+00
         21   -1    0    0  503  501  0.00000000000E+00  0.00000000000E+00  0.50973090460E+03  0.50973090460E+03  0.00000000000E+00 0.  1.
         21   -1    0    0  506  502 -0.00000000000E+00 -0.00000000000E+00 -0.35923916382E+03  0.35923916382E+03  0.00000000000E+00 0. -1.
         21    1    1    2  503  505 -0.46786644801E+02 -0.11492238612E+02  0.65918645303E+02  0.81647593220E+02  0.00000000000E+00 0. -1.
         21    1    1    2  504  501  0.14785104270E+03  0.18927363520E+03  0.33987102899E+03  0.41616914368E+03  0.00000000000E+00 0.  1.
         21    1    1    2  505  502 -0.13287949712E+03 -0.14964010749E+03 -0.26035238288E+03  0.32837857086E+03  0.00000000000E+00 0. -1.
         21    1    1    2  506  504  0.31815099221E+02 -0.28141289092E+02  0.50544493747E+01  0.42774760651E+02  0.00000000000E+00 0. -1.
<scales pt_clust_3="47.62546" pt_clust_4="207.95291" pt_clust_5="14000.00000" pt_clust_6="42.47508"></scales>
<clustering>
<clus scale="   42.475">  2  6  1 -1</clus>
<clus scale="   47.625">  1  3  2 -1</clus>
<clus scale="  207.953">  1  4  2 -1</clus>
<clus scale="   47.625">  1  3  2 -1</clus>
</clustering>
</event>
<event>
 6    0  0.4227619E+002  0.2201240E+03  0.7546771E-02  0.1133791E+00
         21   -1    0    0  503  501  0.00000000000E+00  0.00000000000E+00  0.17605565244E+03  0.17605565244E+03  0.00000000000E+00 0.  1.
         21   -1    0    0  506  502 -0.00000000000E+00 -0.00000000000E+00 -0.14328894806E+04  0.14328894806E+04  0.00000000000E+00 0. -1.
         21    1    1    2  503  502  0.28874911176E+03 -0.17841119846E+02 -0.89617355919E+03  0.94171195346E+03  0.00000000000E+00 0. -1.
         21    1    1    2  504  505 -0.13881388014E+03  0.98554633529E+02 -0.82469536987E+02  0.18916536057E+03  0.00000000000E+00 0.  1.
         21    1    1    2  505  501 -0.90618962193E+02 -0.78383129845E+02  0.60493537077E+02  0.13422063694E+03  0.00000000000E+00 0.  1.
         21    1    1    2  506  504 -0.59316269433E+02 -0.23303838380E+01 -0.33868426910E+03  0.34384718211E+03  0.00000000000E+00 0. -1.
<scales pt_clust_3="14000.00000" pt_clust_4="220.12395" pt_clust_5="121.38822" pt_clust_6="59.36203"></scales>
<clustering>
<clus scale="   59.362">  2  6  1 -1</clus>
<clus scale="  121.388">  1  5  2 -1</clus>
<clus scale="  220.124">  1  4  2 -1</clus>
<clus scale="  121.388">  1  3  2 -1</clus>
</clustering>
</event>
<event>
 6    0  0.4227619E+002  0.1979113E+03  0.7546771E-02  0.1151513E+00
         21   -1    0    0  504  501  0.00000000000E+00  0.00000000000E+00  0.29175383583E+03  0.29175383583E+03  0.00000000000E+00 0.  1.
         21   -1    0    0  503  502 -0.00000000000E+00 -0.00000000000E+00 -0.39018354155E+03  0.39018354155E+03  0.00000000000E+00 0.  1.
         21    1    1    2  503  501 -0.93314886437E+02 -0.14553550559E+03 -0.17261730668E+03  0.24430510839E+03  0.00000000000E+00 0.  1.
         21    1    1    2  504  506  0.28005015444E+02  0.41491167173E+02  0.10186176938E+03  0.11349721540E+03  0.00000000000E+00 0. -1.
         21    1    1    2  505  502 -0.33569301772E+02  0.38142013399E+01 -0.14000271716E+03  0.14402155035E+03  0.00000000000E+00 0.  1.
         21    1    1    2  506  505  0.98879172765E+02  0.10023013708E+03  0.11232854875E+03  0.18011350324E+03  0.00000000000E+00 0.  1.
<scales pt_clust_3="187.14602" pt_clust_4="38.63751" pt_clust_5="33.78529" pt_clust_6="38.63751"></scales>
<clustering>
<clus scale="   33.785">  2  5  1 -1</clus>
<clus scale="   38.638">  4  6 -1 -1</clus>
<clus scale="  187.146">  2  3  1 -1</clus>
<clus scale="  197.911">  1  3  2 -1</clus>
</clustering>
</event>
<event>
 6    0  0.4227619E+002  0.1154603E+03  0.7546771E-02  0.1250780E+00
         21   -1    0    0  503  501  0.00000000000E+00  0.00000000000E+00  0.30147044456E+04  0.30147044456E+04  0.00000000000E+00 0. -1.
         21   -1    0    0  506  502 -0.00000000000E+00 -0.00000000000E+00 -0.27350219267E+02  0.27350219267E+02  0.00000000000E+00 0. -1.
         21    1    1    2  503  505 -0.77991923720E+02 -0.65520830646E+02  0.27102128408E+04  0.27121263544E+04  0.00000000000E+00 0. -1.
         21    1    1    2  504  501  0.86882394653E+02  0.41082492663E+02  0.16931600689E+03  0.19469009192E+03  0.00000000000E+00 0. -1.
         21    1    1    2  505  502 -0.25324909586E+02 -0.20201724446E+02  0.30751891707E+02  0.44666985120E+02  0.00000000000E+00 0. -1.
         21    1    1    2  506  504  0.16434438654E+02  0.44640062428E+02  0.77073486914E+02  0.90571233471E+02  0.00000000000E+00 0.  1.
<scales pt_clust_3="103.38068" pt_clust_4="36.58518" pt_clust_5="32.39538" pt_clust_6="36.58518"></scales>
<clustering>
<clus scale="   32.395">  2  5  1 -1</clus>
<clus scale="   36.585">  4  6 -1 -1</clus>
<clus scale="  103.381">  1  3  2 -1</clus>
<clus scale="  103.381">  1  3  2 -1</clus>
</clustering>
</event>
<event>
 6    0  0.4227619E+002  0.1156679E+03  0.7546771E-02  0.1250420E+00
         21   -1    0    0  503  501  0.00000000000E+00  0.00000000000E+00  0.63947520130E+03  0.63947520130E+03  0.00000000000E+00 0.  1.
         21   -1    0    0  504  502 -0.00000000000E+00 -0.00000000000E+00 -0.20298614558E+03  0.20298614558E+03  0.00000000000E+00 0.  1.
         21    1    1    2  503  505  0.45138981668E+02 -0.94011006427E+02 -0.37994813149E+02  0.11099190431E+03  0.00000000000E+00 0. -1.
         21    1    1    2  504  506  0.15845880614E+02  0.64332124317E+02  0.43044820992E+02  0.79009940930E+02  0.00000000000E+00 0. -1.
         21    1    1    2  505  502  0.42651220316E+02 -0.27278101001E+02 -0.97822514417E+02  0.11014747258E+03  0.00000000000E+00 0.  1.
         21    1    1    2  506  501 -0.10363608260E+03  0.56956983111E+02  0.52926156230E+03  0.54231202906E+03  0.00000000000E+00 0.  1.
<scales pt_clust_3="115.66790" pt_clust_4="63.89287" pt_clust_5="50.62827" pt_clust_6="14000.00000"></scales>
<clustering>
<clus scale="   50.628">  2  5  1 -1</clus>
<clus scale="   63.893">  2  4  1 -1</clus>
<clus scale="  115.668">  2  3  1 -1</clus>
<clus scale="  115.668">  1  3  2 -1</clus>
</clustering>
</event>
<event>
 6    0  0.4227619E+002  0.6316173E+02  0.7546771E-02  0.1385023E+00
         21   -1    0    0  505  501  0.00000000000E+00  0.00000000000E+00  0.25821091303E+03  0.25821091303E+03  0.00000000000E+00 0. -1.
         21   -1    0    0  504  502 -0.00000000000E+00 -0.00000000000E+00 -0.64467145503E+03  0.64467145503E+03  0.00000000000E+00 0. -1.
         21    1    1    2  503  501  0.26197399955E+02 -0.59335250691E+02  0.14517649725E+03  0.15900689008E+03  0.00000000000E+00 0. -1.
         21    1    1    2  504  503 -0.74483189259E+02  0.22545802282E+02  0.79784616384E+02  0.11145242794E+03  0.00000000000E+00 0. -1.
         21    1    1    2  505  506  0.37911317909E+02  0.75590062257E+02 -0.17715849736E+03  0.19630654274E+03  0.00000000000E+00 0. -1.
         21    1    1    2  506  502  0.10374471394E+02 -0.38800613848E+02 -0.43426315828E+03  0.43611650729E+03  0.00000000000E+00 0. -1.
<scales pt_clust_3="63.16173" pt_clust_4="14000.00000" pt_clust_5="62.49191" pt_clust_6="40.16363"></scales>
<clustering>
<clus scale="   40.164">  2  6  1 -1</clus>
<clus scale="   62.492">  2  5  1 -1</clus>
<clus scale="   63.162">  1  3  2 -1</clus>
<clus scale="   63.162">  1  3  2 -1</clus>
</clustering>
</event>
<event>
 6    0  0.4227619E+002  0.2023095E+03  0.7546771E-02  0.1147805E+00
         21   -1    0    0  506  501  0.00000000000E+00  0.00000000000E+00  0.14247861966E+03  0.14247861966E+03  0.00000000000E+00 0.  1.
         21   -1    0    0  505  502 -0.00000000000E+00 -0.00000000000E+00 -0.12891919935E+04  0.12891919935E+04  0.00000000000E+00 0.  1.
         21    1    1    2  503  502 -0.96252686661E+01 -0.73118897900E+02 -0.82681443450E+03  0.83009705946E+03  0.00000000000E+00 0.  1.
         21    1    1    2  504  503  0.18050336137E+03  0.13845280158E+03 -0.44683337478E+02  0.23183451507E+03  0.00000000000E+00 0.  1.
         21    1    1    2  505  501 -0.17387222018E+03 -0.33997507863E+02 -0.28603105659E+03  0.33645377814E+03  0.00000000000E+00 0.  1.
         21    1    1    2  506  504  0.29941274816E+01 -0.31336395815E+02  0.10815454766E+02  0.33285260460E+02  0.00000000000E+00 0.  1.
<scales pt_clust_3="74.16787" pt_clust_4="202.30951" pt_clust_5="14000.00000" pt_clust_6="31.47911"></scales>
<clustering>
<clus scale="   31.479">  1  6  2 -1</clus>
<clus scale="   74.168">  2  3  1 -1</clus>
<clus scale="  202.310">  1  4  2 -1</clus>
<clus scale="   31.479">  1  3  2 -1</clus>
</clustering>
</event>
<event>
 6    0  0.4227619E+002  0.1077427E+03  0.7546771E-02  0.1264808E+00
         21   -1    0    0  506  501  0.00000000000E+00  0.00000000000E+00  0.24688036403E+04  0.24688036403E+04  0.00000000000E+00 0.  1.
         21   -1    0    0  503  502 -0.00000000000E+00 -0.00000000000E+00 -0.16955506008E+03  0.16955506008E+03  0.00000000000E+00 0. -1.
         21    1    1    2  503  504  0.73904945193E+02 -0.78160157160E+02 -0.14463232292E+03  0.18024832849E+03  0.00000000000E+00 0. -1.
         21    1    1    2  504  505  0.10056143588E+02  0.40389204928E+02  0.13694037437E+03  0.14312609836E+03  0.00000000000E+00 0.  1.
         21    1    1    2  505  501  0.34289393016E+02 -0.13393906163E+02  0.12009373546E+04  0.12015014310E+04  0.00000000000E+00 0. -1.
         21    1    1    2  506  502 -0.11825048180E+03  0.51164858395E+02  0.11060031742E+04  0.11134828425E+04  0.00000000000E+00 0.  1.
<scales pt_clust_3="107.74274" pt_clust_4="41.29908" pt_clust_5="36.81249" pt_clust_6="14000.00000"></scales>
<clustering>
<clus scale="   36.812">  1  5  2 -1</clus>
<clus scale="   41.299">  1  4  2 -1</clus>
<clus scale="  107.743">  2  3  1 -1</clus>
<clus scale="   36.812">  1  3  2 -1</clus>
</clustering>
</event>
<event>
 6    0  0.4227619E+002  0.1038662E+03  0.7546771E-02  0.1272370E+00
         21   -1    0    0  504  501  0.00000000000E+00  0.00000000000E+00  0.11002890544E+04  0.11002890544E+04  0.00000000000E+00 0.  1.
         21   -1    0    0  506  502 -0.00000000000E+00 -0.00000000000E+00 -0.12136897394E+04  0.12136897394E+04  0.00000000000E+00 0.  1.
         21    1    1    2  503  505 -0.93175392131E+02  0.12114372585E+02 -0.42814253335E+02  0.10325440432E+03  0.00000000000E+00 0. -1.
         21    1    1    2  504  502  0.28953020831E+02 -0.32973154174E+02 -0.26375608360E+02  0.51197451380E+02  0.00000000000E+00 0. -1.
         21    1    1    2  505  501  0.10335780065E+03  0.14195478766E+02  0.10547260310E+04  0.10598732693E+04  0.00000000000E+00 0.  1.
         21    1    1    2  506  503 -0.39135429347E+02  0.66633028230E+01 -0.10989368543E+04  0.10996536688E+04  0.00000000000E+00 0.  1.
<scales pt_clust_3="103.86624" pt_clust_4="34.48659" pt_clust_5="14000.00000" pt_clust_6="39.69863"></scales>
<clustering>
<clus scale="   39.699">  2  6  1 -1</clus>
<clus scale="   34.487">  2  4  1 -1</clus>
<clus scale="  103.866">  2  3  1 -1</clus>
<clus scale="  103.866">  1  3  2 -1</clus>
</clustering>
</event>
<event>
 6    0  0.4227619E+002  0.1962048E+03  0.7546771E-02  0.1152981E+00
         21   -1    0    0  504  501  0.00000000000E+00  0.00000000000E+00  0.26663061876E+03  0.26663061876E+03  0.00000000000E+00 0.  1.
         21   -1    0    0  506  502 -0.00000000000E+00 -0.00000000000E+00 -0.55409724292E+03  0.55409724292E+03  0.00000000000E+00 0.  1.
         21    1    1    2  503  501  0.23501133972E+02  0.29704968832E+02  0.10835127546E+03  0.11478104097E+03  0.00000000000E+00 0. -1.
         21    1    1    2  504  505 -0.20159114515E+03  0.66525554375E+02 -0.47061050446E+02  0.21743822492E+03  0.00000000000E+00 0.  1.
         21    1    1    2  505  502  0.45142468434E+02  0.42033163913E+02 -0.27688686957E+03  0.28367405215E+03  0.00000000000E+00 0.  1.
         21    1    1    2  506  503  0.13294754274E+03 -0.13826368712E+03 -0.71869979605E+02  0.20483454363E+03  0.00000000000E+00 0.  1.
<scales pt_clust_3="37.87728" pt_clust_4="14000.00000" pt_clust_5="62.50123" pt_clust_6="196.20477"></scales>
<clustering>
<clus scale="   37.877">  1  3  2 -1</clus>
<clus scale="   62.501">  2  5  1 -1</clus>
<clus scale="  196.205">  2  6  1 -1</clus>
<clus scale="   37.877">  1  3  2 -1</clus>
</clustering>
</event>
<event>
 6    0  0.4227619E+002  0.1315389E+03  0.7546771E-02  0.1225190E+00
         21   -1    0    0  505  501  0.00000000000E+00  0.00000000000E+00  0.47333020050E+03  0.47333020050E+03  0.00000000000E+00 0. -1.
         21   -1    0    0  506  502 -0.00000000000E+00 -0.00000000000E+00 -0.93356012817E+02  0.93356012817E+02  0.00000000000E+00 0. -1.
         21    1    1    2  503  502  0.61859760077E+02  0.49543000545E+01  0.13635888671E+02  0.63538275596E+02  0.00000000000E+00 0. -1.
         21    1    1    2  504  503  0.60922485711E+02  0.16184770146E+02 -0.20460535050E+02  0.66273143462E+02  0.00000000000E+00 0. -1.
         21    1    1    2  505  504  0.18635599424E+02 -0.54616066516E+02  0.11467902800E+03  0.12838021557E+03  0.00000000000E+00 0. -1.
         21    1    1    2  506  501 -0.14141784521E+03  0.33476996316E+02  0.27211980606E+03  0.30849457868E+03  0.00000000000E+00 0. -1.
<scales pt_clust_3="35.52746" pt_clust_4="35.52746" pt_clust_5="57.70789" pt_clust_6="126.57165"></scales>
<clustering>
<clus scale="   35.527">  3  4 -1 -1</clus>
<clus scale="   57.708">  1  5  2 -1</clus>
<clus scale="  126.572">  1  6  2 -1</clus>
<clus scale="   57.708">  1  3  2 -1</clus>
</clustering>
</event>
<event>
 6    0  0.4227619E+002  0.1015066E+03  0.7546771E-02  0.1277159E+00
         21   -1    0    0  505  501  0.00000000000E+00  0.00000000000E+00  0.23663664664E+03  0.23663664664E+03  0.00000000000E+00 0. -1.
         21   -1    0    0  503  502 -0.00000000000E+00 -0.00000000000E+00 -0.16537379523E+03  0.16537379523E+03  0.00000000000E+00 0. -1.
         21    1    1    2  503  506  0.48466560847E+02  0.22572110927E+02  0.86184802460E+01  0.54155202093E+02  0.00000000000E+00 0. -1.
         21    1    1    2  504  502 -0.87787016200E+02  0.48108003911E+02 -0.82270826717E+02  0.12957402974E+03  0.00000000000E+00 0. -1.
         21    1    1    2  505  504  0.84627085638E+02 -0.74175961726E+02  0.12633706373E+03  0.16918886073E+03  0.00000000000E+00 0. -1.
         21    1    1    2  506  501 -0.45306630285E+02  0.34958468882E+01  0.18578134146E+02  0.49092349318E+02  0.00000000000E+00 0. -1.
<scales pt_clust_3="47.46265" pt_clust_4="101.50660" pt_clust_5="14000.00000" pt_clust_6="45.44130"></scales>
<clustering>
<clus scale="   45.441">  1  6  2 -1</clus>
<clus scale="   47.463">  1  3  2 -1</clus>
<clus scale="  101.507">  2  4  1 -1</clus>
<clus scale="   45.441">  1  3  2 -1</clus>
</clustering>
</event>
<event>
 6    0  0.4227619E+002  0.1221504E+03  0.7546771E-02  0.1239591E+00
         21   -1    0    0  504  501  0.00000000000E+00  0.00000000000E+00  0.79605321324E+03  0.79605321324E+03  0.00000000000E+00 0.  1.
         21   -1    0    0  506  502 -0.00000000000E+00 -0.00000000000E+00 -0.74588070006E+02  0.74588070006E+02  0.00000000000E+00 0.  1.
         21    1    1    2  503  501 -0.30465908145E+02  0.81364904351E+02  0.24609177592E+03  0.26097812436E+03  0.00000000000E+00 0.  1.
         21    1    1    2  504  505  0.14088189032E+02 -0.17643342383E+03  0.36025088156E+03  0.40138252052E+03  0.00000000000E+00 0.  1.
         21    1    1    2  505  502 -0.43842471234E+02 -0.55181236852E+01  0.31059411705E+00  0.44189460753E+02  0.00000000000E+00 0.  1.
         21    1    1    2  506  503  0.60220190347E+02  0.10058664316E+03  0.11481189164E+03  0.16409117761E+03  0.00000000000E+00 0.  1.
<scales pt_clust_3="88.53341" pt_clust_4="122.15036" pt_clust_5="44.18837" pt_clust_6="14000.00000"></scales>
<clustering>
<clus scale="   44.188">  2  5  1 -1</clus>
<clus scale="   88.533">  1  3  2 -1</clus>
<clus scale="  122.150">  1  4  2 -1</clus>
<clus scale="   88.533">  1  3  2 -1</clus>
</clustering>
</event>
<event>
 6    0  0.4227619E+002  0.1888275E+03  0.7546771E-02  0.1159523E+00
         21   -1    0    0  505  501  0.00000000000E+00  0.00000000000E+00  0.66145623090E+02  0.66145623090E+02  0.00000000000E+00 0. -1.
         21   -1    0    0  506  502 -0.00000000000E+00 -0.00000000000E+00 -0.23732285848E+04  0.23732285848E+04  0.00000000000E+00 0. -1.
         21    1    1    2  503  502 -0.25295182423E+01 -0.33073833970E+02 -0.40238371689E+03  0.40374860071E+03  0.00000000000E+00 0.  1.
         21    1    1    2  504  501 -0.51911152764E+01  0.38339295490E+02  0.22314384487E+02  0.44662971369E+02  0.00000000000E+00 0. -1.
         21    1    1    2  505  503  0.14917001191E+03 -0.14555063532E+03 -0.40029584318E+03  0.45130194101E+03  0.00000000000E+00 0. -1.
         21    1    1    2  506  504 -0.14144937839E+03  0.14028517380E+03 -0.15267177862E+04  0.15396606948E+04  0.00000000000E+00 0. -1.
<scales pt_clust_3="33.17042" pt_clust_4="38.50519" pt_clust_5="14000.00000" pt_clust_6="188.82745"></scales>
<clustering>
<clus scale="   33.170">  2  3  1 -1</clus>
<clus scale="   38.505">  1  4  2 -1</clus>
<clus scale="  188.827">  2  6  1 -1</clus>
<clus scale="   38.505">  1  3  2 -1</clus>
</clustering>
</event>
<event>
 6    0  0.4227619E+002  0.1391212E+03  0.7546771E-02  0.1214516E+00
         21   -1    0    0  504  501  0.00000000000E+00  0.00000000000E+00  0.16176010860E+03  0.16176010860E+03  0.00000000000E+00 0. -1.
         21   -1    0    0  503  502 -0.00000000000E+00 -0.00000000000E+00 -0.47603095333E+03  0.47603095333E+03  0.00000000000E+00 0. -1.
         21    1    1    2  503  505  0.32846571392E+02 -0.27122349392E+02 -0.42183225297E+02  0.59949508632E+02  0.00000000000E+00 0. -1.
         21    1    1    2  504  506 -0.13783585947E+03  0.30583322813E+02  0.98953966767E+02  0.17241215540E+03  0.00000000000E+00 0. -1.
         21    1    1    2  505  501  0.11460142188E+03 -0.39854138767E+02 -0.31823087527E+03  0.34057705186E+03  0.00000000000E+00 0. -1.
         21    1    1    2  506  502 -0.96121337973E+01  0.36393165345E+02 -0.52810710924E+02  0.64852346051E+02  0.00000000000E+00 0.  1.
<scales pt_clust_3="38.94632" pt_clust_4="14000.00000" pt_clust_5="139.12122" pt_clust_6="37.64114"></scales>
<clustering>
<clus scale="   37.641">  2  6  1 -1</clus>
<clus scale="   38.946">  2  3  1 -1</clus>
<clus scale="  139.121">  2  5  1 -1</clus>
<clus scale="  139.121">  1  3  2 -1</clus>
</clustering>
</event>
<event>
 6    0  0.4227619E+002  0.1400764E+03  0.7546771E-02  0.1213226E+00
         21   -1    0    0  505  501  0.00000000000E+00  0.00000000000E+00  0.27632597329E+03  0.27632597329E+03  0.00000000000E+00 0. -1.
         21   -1    0    0  504  502 -0.00000000000E+00 -0.00000000000E+00 -0.14698528920E+03  0.14698528920E+03  0.00000000000E+00 0. -1.
         21    1    1    2  503  506 -0.45956186897E+02  0.50279541272E+02 -0.54961265033E+02  0.87525676454E+02  0.00000000000E+00 0. -1.
         21    1    1    2  504  503 -0.63592472769E+02  0.21653419899E+02 -0.14465589413E+02  0.68717730342E+02  0.00000000000E+00 0. -1.
         21    1    1    2  505  502  0.19792680833E+02  0.29124504150E+02  0.78937727473E+02  0.86435824605E+02  0.00000000000E+00 0. -1.
         21    1    1    2  506  501  0.89755978833E+02 -0.10105746532E+03  0.11982981106E+03  0.18063203108E+03  0.00000000000E+00 0. -1.
<scales pt_clust_3="48.14134" pt_clust_4="48.14134" pt_clust_5="35.21345" pt_clust_6="131.16681"></scales>
<clustering>
<clus scale="   35.213">  1  5  2 -1</clus>
<clus scale="   48.141">  3  4 -1 -1</clus>
<clus scale="  131.167">  1  6  2 -1</clus>
<clus scale="   35.213">  1  3  2 -1</clus>
</clustering>
</event>
<event>
 6    0  0.4227619E+002  0.9170873E+02  0.7546771E-02  0.1298766E+00
         21   -1    0    0  506  501  0.00000000000E+00  0.00000000000E+00  0.94884969666E+03  0.94884969666E+03  0.00000000000E+00 0. -1.
         21   -1    0    0  505  502 -0.00000000000E+00 -0.00000000000E+00 -0.29113438042E+03  0.29113438042E+03  0.00000000000E+00 0.  1.
         21    1    1    2  503  501  0.66023074381E+02  0.13919190623E+03  0.43459435072E+03  0.46109183769E+03  0.00000000000E+00 0. -1.
         21    1    1    2  504  502 -0.39879050816E+02 -0.13060492512E+02 -0.26377877955E+03  0.26709578750E+03  0.00000000000E+00 0.  1.
         21    1    1    2  505  503  0.57421420152E+01 -0.67549943208E+02  0.11130441199E+03  0.13032512862E+03  0.00000000000E+00 0. -1.
         21    1    1    2  506  504 -0.31886165580E+02 -0.58581470510E+02  0.37559533309E+03  0.38147132327E+03  0.00000000000E+00 0. -1.
<scales pt_clust_3="91.70873" pt_clust_4="41.96326" pt_clust_5="14000.00000" pt_clust_6="70.26558"></scales>
<clustering>
<clus scale="   41.963">  2  4  1 -1</clus>
<clus scale="   70.266">  1  6  2 -1</clus>
<clus scale="   91.709">  1  3  2 -1</clus>
<clus scale="   70.266">  1  3  2 -1</clus>
</clustering>
</event>
<event>
 6    0  0.4227619E+002  0.1179191E+03  0.7546771E-02  0.1246570E+00
         21   -1    0    0  506  501  0.00000000000E+00  0.00000000000E+00  0.16573145003E+03  0.16573145003E+03  0.00000000000E+00 0.  1.
         21   -1    0    0  503  502 -0.00000000000E+00 -0.00000000000E+00 -0.82370005198E+03  0.82370005198E+03  0.00000000000E+00 0. -1.
         21    1    1    2  503  501 -0.27066473157E+02 -0.13744818954E+02 -0.47977303216E+02  0.56774427703E+02  0.00000000000E+00 0. -1.
         21    1    1    2  504  505  0.82591731962E+02 -0.10578785399E+03 -0.26646329771E+03  0.29835407366E+03  0.00000000000E+00 0. -1.
         21    1    1    2  505  502 -0.87936070643E+02  0.58684571149E+02 -0.47458572019E+03  0.48621830202E+03  0.00000000000E+00 0. -1.
         21    1    1    2  506  504  0.32410811837E+02  0.60848101799E+02  0.13105771917E+03  0.14808469863E+03  0.00000000000E+00 0.  1.
<scales pt_clust_3="30.35645" pt_clust_4="117.91913" pt_clust_5="14000.00000" pt_clust_6="68.66758"></scales>
<clustering>
<clus scale="   30.356">  2  3  1 -1</clus>
<clus scale="   68.668">  1  6  2 -1</clus>
<clus scale="  117.919">  1  4  2 -1</clus>
<clus scale="   68.668">  1  3  2 -1</clus>
</clustering>
</event>
<event>
 6    0  0.4227619E+002  0.2906967E+03  0.7546771E-02  0.1089986E+00
         21   -1    0    0  505  501  0.00000000000E+00  0.00000000000E+00  0.70522673272E+03  0.70522673272E+03  0.00000000000E+00 0.  1.
         21   -1    0    0  504  502 -0.00000000000E+00 -0.00000000000E+00 -0.22687408815E+04  0.22687408815E+04  0.00000000000E+00 0. -1.
         21    1    1    2  503  501 -0.54378064251E+02 -0.14266634226E+02  0.12600305428E+03  0.13797565152E+03  0.00000000000E+00 0.  1.
         21    1    1    2  504  506 -0.15677625088E+03 -0.26703653680E+03 -0.20830493481E+04  0.21059396695E+04  0.00000000000E+00 0. -1.
         21    1    1    2  505  502  0.65362884875E+02 -0.74547885703E+01 -0.11199685418E+03  0.12988909092E+03  0.00000000000E+00 0. -1.
         21    1    1    2  506  503  0.14579143026E+03  0.28875795960E+03  0.50552899922E+03  0.60016320232E+03  0.00000000000E+00 0.  1.
<scales pt_clust_3="56.21842" pt_clust_4="290.69675" pt_clust_5="64.96946" pt_clust_6="14000.00000"></scales>
<clustering>
<clus scale="   56.218">  1  3  2 -1</clus>
<clus scale="   64.969">  2  5  1 -1</clus>
<clus scale="  290.697">  2  4  1 -1</clus>
<clus scale="   56.218">  1  3  2 -1</clus>
</clustering>
</event>
<event>
 6    0  0.4227619E+002  0.1353894E+03  0.7546771E-02  0.1219671E+00
         21   -1    0    0  504  501  0.00000000000E+00  0.00000000000E+00  0.17539794061E+04  0.17539794061E+04  0.00000000000E+00 0. -1.
         21   -1    0    0  503  502 -0.00000000000E+00 -0.00000000000E+00 -0.68617523659E+02  0.68617523659E+02  0.00000000000E+00 0.  1.
         21    1    1    2  503  506 -0.11621926565E+03 -0.94628179632E+02  0.30895429646E+03  0.34338632383E+03  0.00000000000E+00 0.  1.
         21    1    1    2  504  502  0.37213117304E+02  0.26763485892E+01 -0.41152731465E+02  0.55547513430E+02  0.00000000000E+00 0.  1.
         21    1    1    2  505  501  0.60579374209E+02  0.47074890120E+02  0.10680650505E+04  0.10708169115E+04  0.00000000000E+00 0. -1.
         21    1    1    2  506  505  0.18426774135E+02  0.44876940923E+02  0.34949526692E+03  0.35284618098E+03  0.00000000000E+00 0. -1.
<scales pt_clust_3="125.25197" pt_clust_4="37.30923" pt_clust_5="40.92019" pt_clust_6="40.92019"></scales>
<clustering>
<clus scale="   37.309">  2  4  1 -1</clus>
<clus scale="   40.920">  5  6 -1 -1</clus>
<clus scale="  125.252">  2  3  1 -1</clus>
<clus scale="  135.389">  1  3  2 -1</clus>
</clustering>
</event>
<event>
 6    0  0.4227619E+002  0.7609797E+02  0.7546771E-02  0.1340504E+00
         21   -1    0    0  504  501  0.00000000000E+00  0.00000000000E+00  0.55056817696E+03  0.55056817696E+03  0.00000000000E+00 0. -1.
         21   -1    0    0  503  502 -0.00000000000E+00 -0.00000000000E+00 -0.17503700086E+03  0.17503700086E+03  0.00000000000E+00 0.  1.
         21    1    1    2  503  506  0.56239255906E+02  0.31419407801E+02 -0.73020799456E+02  0.97375922304E+02  0.00000000000E+00 0.  1.
         21    1    1    2  504  502  0.18542616542E+02 -0.43330978071E+02 -0.68743363056E+02  0.83348978717E+02  0.00000000000E+00 0.  1.
         21    1    1    2  505  501  0.32352286219E+02  0.85085163245E-01  0.30576709815E+03  0.30747389479E+03  0.00000000000E+00 0. -1.
         21    1    1    2  506  505 -0.10713415867E+03  0.11826485107E+02  0.21152824046E+03  0.23740638200E+03  0.00000000000E+00 0. -1.
<scales pt_clust_3="14000.00000" pt_clust_4="47.51880" pt_clust_5="32.35240" pt_clust_6="76.09797"></scales>
<clustering>
<clus scale="   32.352">  1  5  2 -1</clus>
<clus scale="   47.519">  2  4  1 -1</clus>
<clus scale="   76.098">  1  6  2 -1</clus>
<clus scale="   32.352">  1  3  2 -1</clus>
</clustering>
</event>
<event>
 6    0  0.4227619E+002  0.1237456E+03  0.7546771E-02  0.1237043E+00
         21   -1    0    0  504  501  0.00000000000E+00  0.00000000000E+00  0.10339465789E+04  0.10339465789E+04  0.00000000000E+00 0.  1.
         21   -1    0    0  505  502 -0.00000000000E+00 -0.00000000000E+00 -0.59237872170E+02  0.59237872170E+02  0.00000000000E+00 0. -1.
         21    1    1    2  503  501 -0.64050148986E+01 -0.32648648738E+02  0.31258245683E+03  0.31434813630E+03  0.00000000000E+00 0.  1.
         21    1    1    2  504  506  0.46425257942E+02  0.37752460812E+02  0.12216998039E+03  0.13603696917E+03  0.00000000000E+00 0.  1.
         21    1    1    2  505  503  0.75854769216E+02 -0.61279082579E+02  0.49785922524E+03  0.50731930787E+03  0.00000000000E+00 0.  1.
         21    1    1    2  506  502 -0.11587501226E+03  0.56175270505E+02  0.42097044242E+02  0.13548003770E+03  0.00000000000E+00 0. -1.
<scales pt_clust_3="33.27099" pt_clust_4="55.38774" pt_clust_5="123.74560" pt_clust_6="14000.00000"></scales>
<clustering>
<clus scale="   33.271">  1  3  2 -1</clus>
<clus scale="   55.388">  1  4  2 -1</clus>
<clus scale="  123.746">  1  5  2 -1</clus>
<clus scale="   33.271">  1  3  2 -1</clus>
</clustering>
</event>
<event>
 6    0  0.4227619E+002  0.8446028E+02  0.7546771E-02  0.1316850E+00
         21   -1    0    0  506  501  0.00000000000E+00  0.00000000000E+00  0.12226279860E+03  0.12226279860E+03  0.00000000000E+00 0.  1.
         21   -1    0    0  503  502 -0.00000000000E+00 -0.00000000000E+00 -0.30399392547E+03  0.30399392547E+03  0.00000000000E+00 0. -1.
         21    1    1    2  503  504 -0.27013472256E+02  0.82474084272E+02 -0.16328614288E+03  0.18491637763E+03  0.00000000000E+00 0. -1.
         21    1    1    2  504  501 -0.38300897853E+02 -0.77953356193E+02  0.69786837186E+02  0.11141762501E+03  0.00000000000E+00 0.  1.
         21    1    1    2  505  502  0.28275466134E+02 -0.34076299259E+02 -0.60650373302E+02  0.75094366886E+02  0.00000000000E+00 0. -1.
         21    1    1    2  506  505  0.37038903975E+02  0.29555571180E+02 -0.27581447876E+02  0.54828354548E+02  0.00000000000E+00 0. -1.
<scales pt_clust_3="14000.00000" pt_clust_4="84.46028" pt_clust_5="44.27975" pt_clust_6="48.15738"></scales>
<clustering>
<clus scale="   44.280">  2  5  1 -1</clus>
<clus scale="   48.157">  2  6  1 -1</clus>
<clus scale="   84.460">  1  4  2 -1</clus>
<clus scale="   84.460">  1  3  2 -1</clus>
</clustering>
</event>
<event>
 6    0  0.4227619E+002  0.8813161E+02  0.7546771E-02  0.1307440E+00
         21   -1    0    0  504  501  0.00000000000E+00  0.00000000000E+00  0.12838887846E+03  0.12838887846E+03  0.00000000000E+00 0.  1.
         21   -1    0    0  506  502 -0.00000000000E+00 -0.00000000000E+00 -0.61365996066E+03  0.61365996066E+03  0.00000000000E+00 0.  1.
         21    1    1    2  503  501  0.86898784242E+02  0.79354888401E+01  0.93431679581E+02  0.12784306565E+03  0.00000000000E+00 0.  1.
         21    1    1    2  504  502  0.18421799985E+02 -0.36207296497E+02 -0.58345213394E+02  0.71094971414E+02  0.00000000000E+00 0.  1.
         21    1    1    2  505  503 -0.10594682170E+03 -0.19431340956E+02 -0.37084644796E+03  0.38617275150E+03  0.00000000000E+00 0.  1.
         21    1    1    2  506  505  0.62623747723E+00  0.47703148613E+02 -0.14951110043E+03  0.15693805056E+03  0.00000000000E+00 0.  1.
<scales pt_clust_3="14000.00000" pt_clust_4="40.62427" pt_clust_5="88.13161" pt_clust_6="38.03660"></scales>
<clustering>
<clus scale="   40.624">  2  4  1 -1</clus>
<clus scale="   38.037">  2  6  1 -1</clus>
<clus scale="   88.132">  2  5  1 -1</clus>
<clus scale="   88.132">  1  3  2 -1</clus>
</clustering>
</event>
<event>
 6    0  0.4227619E+002  0.8024078E+02  0.7546771E-02  0.1328370E+00
         21   -1    0    0  505  501  0.00000000000E+00  0.00000000000E+00  0.15375715449E+03  0.15375715449E+03  0.00000000000E+00 0. -1.
         21   -1    0    0  503  502 -0.00000000000E+00 -0.00000000000E+00 -0.45027573617E+03  0.45027573617E+03  0.00000000000E+00 0.  1.
         21    1    1    2  503  504 -0.30615505326E+02  0.38446950940E+02 -0.68864249604E+02  0.84603558297E+02  0.00000000000E+00 0. -1.
         21    1    1    2  504  501  0.82492739470E+02 -0.36190726511E+02 -0.30871934165E+03  0.32159361415E+03  0.00000000000E+00 0.  1.
         21    1    1    2  505  506 -0.44061327480E+02  0.74579480740E+02  0.83843078486E+02  0.12055356211E+03  0.00000000000E+00 0. -1.
         21    1    1    2  506  502 -0.78159066646E+01 -0.76835705170E+02 -0.27780689052E+01  0.77282156109E+02  0.00000000000E+00 0.  1.
<scales pt_clust_3="49.14750" pt_clust_4="56.78666" pt_clust_5="80.24078" pt_clust_6="14000.00000"></scales>
<clustering>
<clus scale="   49.148">  2  3  1 -1</clus>
<clus scale="   56.787">  2  4  1 -1</clus>
<clus scale="   80.241">  1  5  2 -1</clus>
<clus scale="   80.241">  1  3  2 -1</clus>
</clustering>
</event>
<event>
 6    0  0.4227619E+002  0.9462299E+02  0.7546771E-02  0.1292027E+00
         21   -1    0    0  505  501  0.00000000000E+00  0.00000000000E+00  0.73990669146E+03  0.73990669146E+03  0.00000000000E+00 0.  1.
         21   -1    0    0  504  502 -0.00000000000E+00 -0.00000000000E+00 -0.46615599626E+03  0.46615599626E+03  0.00000000000E+00 0.  1.
         21    1    1    2  503  501 -0.49291797751E+02 -0.89473128675E+00  0.49168667335E+02  0.69627865952E+02  0.00000000000E+00 0.  1.
         21    1    1    2  504  506 -0.69418555122E+02  0.63774301753E+02 -0.41165606432E+03  0.42231127460E+03  0.00000000000E+00 0.  1.
         21    1    1    2  505  502  0.73041751364E+02 -0.12257170143E+03  0.62132755565E+03  0.63750047125E+03  0.00000000000E+00 0.  1.
         21    1    1    2  506  503  0.45668601508E+02  0.59692130967E+02  0.14910536540E+02  0.76623075917E+02  0.00000000000E+00 0.  1.
<scales pt_clust_3="49.29992" pt_clust_4="94.62299" pt_clust_5="14000.00000" pt_clust_6="73.14228"></scales>
<clustering>
<clus scale="   49.300">  1  3  2 -1</clus>
<clus scale="   73.142">  1  6  2 -1</clus>
<clus scale="   94.623">  2  4  1 -1</clus>
<clus scale="   49.300">  1  3  2 -1</clus>
</clustering>
</event>
<event>
 6    0  0.4227619E+002  0.1009603E+03  0.7546771E-02  0.1278289E+00
         21   -1    0    0  505  501  0.00000000000E+00  0.00000000000E+00  0.10808510370E+04  0.10808510370E+04  0.00000000000E+00 0. -1.
         21   -1    0    0  504  502 -0.00000000000E+00 -0.00000000000E+00 -0.52889822817E+02  0.52889822817E+02  0.00000000000E+00 0.  1.
         21    1    1    2  503  501  0.21659153178E+02 -0.21826133548E+02  0.51343602242E+03  0.51435595471E+03  0.00000000000E+00 0. -1.
         21    1    1    2  504  506  0.65769100613E+02 -0.65038384031E+02  0.29740920260E+02  0.97160116976E+02  0.00000000000E+00 0.  1.
         21    1    1    2  505  502 -0.77693366295E+02  0.12164201788E+03  0.28789251612E+03  0.32204835122E+03  0.00000000000E+00 0. -1.
         21    1    1    2  506  503 -0.97348874958E+01 -0.34777500302E+02  0.19689175536E+03  0.20017643690E+03  0.00000000000E+00 0. -1.
<scales pt_clust_3="30.74897" pt_clust_4="100.96035" pt_clust_5="14000.00000" pt_clust_6="42.47496"></scales>
<clustering>
<clus scale="   30.749">  1  3  2 -1</clus>
<clus scale="   42.475">  1  6  2 -1</clus>
<clus scale="  100.960">  2  4  1 -1</clus>
<clus scale="   30.749">  1  3  2 -1</clus>
</clustering>
</event>
<event>
 6    0  0.4227619E+002  0.8905950E+02  0.7546771E-02  0.1305145E+00
         21   -1    0    0  504  501  0.00000000000E+00  0.00000000000E+00  0.44825590233E+03  0.44825590233E+03  0.00000000000E+00 0. -1.
         21   -1    0    0  505  502 -0.00000000000E+00 -0.00000000000E+00 -0.31877609561E+03  0.31877609561E+03  0.00000000000E+00 0. -1.
         21    1    1    2  503  502  0.22376813196E+02  0.20166586619E+02 -0.47790882732E+02  0.56492313256E+02  0.00000000000E+00 0. -1.
         21    1    1    2  504  503  0.63032356760E+02 -0.17780860686E+02  0.33309055574E+03  0.33946804758E+03  0.00000000000E+00 0. -1.
         21    1    1    2  505  506 -0.55396604174E+02  0.68251733648E+02 -0.24093134499E+03  0.25646636407E+03  0.00000000000E+00 0. -1.
         21    1    1    2  506  501 -0.30012565781E+02 -0.70637459581E+02  0.85111478702E+02  0.11460527304E+03  0.00000000000E+00 0. -1.
<scales pt_clust_3="30.12330" pt_clust_4="65.68505" pt_clust_5="14000.00000" pt_clust_6="89.05950"></scales>
<clustering>
<clus scale="   30.123">  2  3  1 -1</clus>
<clus scale="   65.685">  1  4  2 -1</clus>
<clus scale="   89.059">  1  6  2 -1</clus>
<clus scale="   65.685">  1  3  2 -1</clus>
</clustering>
</event>
<event>
 6    0  0.4227619E+002  0.8810223E+02  0.7546771E-02  0.1307514E+00
         21   -1    0    0  506  501  0.00000000000E+00  0.00000000000E+00  0.91868449328E+03  0.91868449328E+03  0.00000000000E+00 0.  1.
         21   -1    0    0  503  502 -0.00000000000E+00 -0.00000000000E+00 -0.20399496099E+03  0.20399496099E+03  0.00000000000E+00 0.  1.
         21    1    1    2  503  504 -0.54321792599E+02  0.46145607921E+02 -0.17305582476E+03  0.18715927112E+03  0.00000000000E+00 0.  1.
         21    1    1    2  504  501 -0.47337503906E+02 -0.74981924636E+02  0.11277318703E+03  0.14346051725E+03  0.00000000000E+00 0.  1.
         21    1    1    2  505  502  0.72744781162E+02  0.47704934218E+02  0.22851931942E+03  0.24451716357E+03  0.00000000000E+00 0.  1.
         21    1    1    2  506  505  0.28914515343E+02 -0.18868617503E+02  0.54645285060E+03  0.54754250233E+03  0.00000000000E+00 0.  1.
<scales pt_clust_3="70.62624" pt_clust_4="14000.00000" pt_clust_5="88.10223" pt_clust_6="34.52642"></scales>
<clustering>
<clus scale="   34.526">  1  6  2 -1</clus>
<clus scale="   70.626">  2  3  1 -1</clus>
<clus scale="   88.102">  1  5  2 -1</clus>
<clus scale="   34.526">  1  3  2 -1</clus>
</clustering>
</event>
<event>
 6    0  0.4227619E+002  0.1761250E+03  0.7546771E-02  0.1171607E+00
         21   -1    0    0  504  501  0.00000000000E+00  0.00000000000E+00  0.41053196008E+02  0.41053196008E+02  0.00000000000E+00 0.  1.
         21   -1    0    0  503  502 -0.00000000000E+00 -0.00000000000E+00 -0.20502665214E+04  0.20502665214E+04  0.00000000000E+00 0. -1.
         21    1    1    2  503  505  0.75105214667E+01  0.46467002509E+02 -0.25843893682E+03  0.26269045342E+03  0.00000000000E+00 0. -1.
         21    1    1    2  504  502 -0.59660891316E+02 -0.65882815540E+02 -0.76135084528E+02  0.11703212564E+03  0.00000000000E+00 0.  1.
         21    1    1    2  505  506 -0.32849912386E+02  0.13246879449E+03 -0.13575296990E+04  0.13643731095E+04  0.00000000000E+00 0. -1.
         21    1    1    2  506  501  0.85000282236E+02 -0.11305298146E+03 -0.31710960504E+03  0.34722402884E+03  0.00000000000E+00 0. -1.
<scales pt_clust_3="33.84365" pt_clust_4="88.88176" pt_clust_5="33.84365" pt_clust_6="166.42990"></scales>
<clustering>
<clus scale="   33.844">  3  5 -1 -1</clus>
<clus scale="   88.882">  1  4  2 -1</clus>
<clus scale="  166.430">  1  6  2 -1</clus>
<clus scale="   88.882">  1  3  2 -1</clus>
</clustering>
</event>
<event>
 6    0  0.4227619E+002  0.1412277E+03  0.7546771E-02  0.1211687E+00
         21   -1    0    0  503  501  0.00000000000E+00  0.00000000000E+00  0.70167032212E+03  0.70167032212E+03  0.00000000000E+00 0.  1.
         21   -1    0    0  506  502 -0.00000000000E+00 -0.00000000000E+00 -0.10309804726E+03  0.10309804726E+03  0.00000000000E+00 0. -1.
         21    1    1    2  503  505  0.72988757388E+01  0.43474579329E+02  0.19760613810E+03  0.20246357314E+03  0.00000000000E+00 0. -1.
         21    1    1    2  504  502  0.11820779693E+03 -0.68423744718E+02 -0.88224312964E+01  0.13686755419E+03  0.00000000000E+00 0. -1.
         21    1    1    2  505  504 -0.17072711898E+03  0.28895431150E+02  0.29596630542E+03  0.34289757806E+03  0.00000000000E+00 0.  1.
         21    1    1    2  506  501  0.45220446313E+02 -0.39462657604E+01  0.11382226264E+03  0.12253966399E+03  0.00000000000E+00 0.  1.
<scales pt_clust_3="44.08302" pt_clust_4="141.22766" pt_clust_5="14000.00000" pt_clust_6="47.36035"></scales>
<clustering>
<clus scale="   44.083">  1  3  2 -1</clus>
<clus scale="   47.360">  1  6  2 -1</clus>
<clus scale="  141.228">  2  4  1 -1</clus>
<clus scale="   44.083">  1  3  2 -1</clus>
</clustering>
</event>
<event>
 6    0  0.4227619E+002  0.6736150E+02  0.7546771E-02  0.1369302E+00
         21   -1    0    0  506  501  0.00000000000E+00  0.00000000000E+00  0.29498079998E+03  0.29498079998E+03  0.00000000000E+00 0. -1.
         21   -1    0    0  504  502 -0.00000000000E+00 -0.00000000000E+00 -0.10085734352E+04  0.10085734352E+04  0.00000000000E+00 0. -1.
         21    1    1    2  503  505 -0.88659147870E+01 -0.83577631154E+02 -0.30987493909E+02  0.89577059860E+02  0.00000000000E+00 0. -1.
         21    1    1    2  504  503 -0.39305957998E+02  0.54893119616E+02 -0.92223938426E+03  0.92470735630E+03  0.00000000000E+00 0. -1.
         21    1    1    2  505  501  0.17582985699E+02  0.55971693256E+02  0.14499310188E+02  0.60433615050E+02  0.00000000000E+00 0. -1.
         21    1    1    2  506  502  0.30588887086E+02 -0.27287181718E+02  0.22513493276E+03  0.22883620397E+03  0.00000000000E+00 0. -1.
<scales pt_clust_3="67.36150" pt_clust_4="14000.00000" pt_clust_5="53.49514" pt_clust_6="40.99110"></scales>
<clustering>
<clus scale="   40.991">  1  6  2 -1</clus>
<clus scale="   53.495">  1  5  2 -1</clus>
<clus scale="   67.361">  1  3  2 -1</clus>
<clus scale="   40.991">  1  3  2 -1</clus>
</clustering>
</event>
<event>
 6    0  0.4227619E+002  0.1611688E+03  0.7546771E-02  0.1187383E+00
         21   -1    0    0  503  501  0.00000000000E+00  0.00000000000E+00  0.10695373769E+04  0.10695373769E+04  0.00000000000E+00 0. -1.
         21   -1    0    0  501  502 -0.00000000000E+00 -0.00000000000E+00 -0.63239569683E+02  0.63239569683E+02  0.00000000000E+00 0. -1.
         21    1    1    2  503  506  0.79616903762E+02  0.80471641953E+02  0.49528131425E+03  0.50805326175E+03  0.00000000000E+00 0. -1.
         21    1    1    2  504  505 -0.68139405653E+02 -0.11274144312E+03  0.50570318398E+02  0.14110623198E+03  0.00000000000E+00 0. -1.
         21    1    1    2  505  502 -0.41892787466E+02  0.90750107204E+01  0.32061551667E+02  0.53528539645E+02  0.00000000000E+00 0. -1.
         21    1    1    2  506  504  0.30415289357E+02  0.23194790452E+02  0.42838462289E+03  0.43008891320E+03  0.00000000000E+00 0.  1.
<scales pt_clust_3="37.21231" pt_clust_4="147.90951" pt_clust_5="42.86445" pt_clust_6="37.21231"></scales>
<clustering>
<clus scale="   37.212">  3  6 -1 -1</clus>
<clus scale="   42.864">  2  5  1 -1</clus>
<clus scale="  147.910">  2  4  1 -1</clus>
<clus scale="  161.169">  1  3  2 -1</clus>
</clustering>
</event>
<event>
 6    0  0.4227619E+002  0.1007566E+03  0.7546771E-02  0.1278713E+00
         21   -1    0    0  504  501  0.00000000000E+00  0.00000000000E+00  0.22297101149E+03  0.22297101149E+03  0.00000000000E+00 0. -1.
         21   -1    0    0  506  502 -0.00000000000E+00 -0.00000000000E+00 -0.18604611462E+04  0.18604611462E+04  0.00000000000E+00 0.  1.
         21    1    1    2  503  502 -0.67539762674E+02  0.50597326994E+02 -0.13831704475E+04  0.13857424710E+04  0.00000000000E+00 0.  1.
         21    1    1    2  504  503 -0.39906817344E+02  0.11216719454E+03 -0.14720227448E+03  0.18932126984E+03  0.00000000000E+00 0.  1.
         21    1    1    2  505  501  0.63290617901E+02 -0.41459995460E+02  0.17907822295E+03  0.19440587304E+03  0.00000000000E+00 0. -1.
         21    1    1    2  506  505  0.44155962117E+02 -0.12130452608E+03 -0.28619563568E+03  0.31396254382E+03  0.00000000000E+00 0.  1.
<scales pt_clust_3="81.70999" pt_clust_4="100.75656" pt_clust_5="75.66131" pt_clust_6="14000.00000"></scales>
<clustering>
<clus scale="   75.661">  1  5  2 -1</clus>
<clus scale="   81.710">  2  3  1 -1</clus>
<clus scale="  100.757">  1  4  2 -1</clus>
<clus scale="   75.661">  1  3  2 -1</clus>
</clustering>
</event>
<event>
 6    0  0.4227619E+002  0.1201535E+03  0.7546771E-02  0.1242844E+00
         21   -1    0    0  503  501  0.00000000000E+00  0.00000000000E+00  0.79305347288E+02  0.79305347288E+02  0.00000000000E+00 0.  1.
         21   -1    0    0  505  502 -0.00000000000E+00 -0.00000000000E+00 -0.13898637782E+04  0.13898637782E+04  0.00000000000E+00 0.  1.
         21    1    1    2  503  502  0.14460785566E+03 -0.36617436215E+02 -0.11856534089E+04  0.11950005333E+04  0.00000000000E+00 0.  1.
         21    1    1    2  504  501 -0.22970188222E+02 -0.42825667028E+02  0.76883079606E+01  0.49201396145E+02  0.00000000000E+00 0. -1.
         21    1    1    2  505  506 -0.23700680796E+02  0.31906260249E+02 -0.10556296479E+03  0.11279747891E+03  0.00000000000E+00 0.  1.
         21    1    1    2  506  504 -0.97936986640E+02  0.47536842994E+02 -0.27030365150E+02  0.11216971710E+03  0.00000000000E+00 0.  1.
<scales pt_clust_3="14000.00000" pt_clust_4="48.32636" pt_clust_5="39.74584" pt_clust_6="120.15350"></scales>
<clustering>
<clus scale="   39.746">  2  5  1 -1</clus>
<clus scale="   48.326">  1  4  2 -1</clus>
<clus scale="  120.153">  1  6  2 -1</clus>
<clus scale="   48.326">  1  3  2 -1</clus>
</clustering>
</event>
<event>
 6    0  0.4227619E+002  0.8608530E+02  0.7546771E-02  0.1312619E+00
         21   -1    0    0  503  501  0.00000000000E+00  0.00000000000E+00  0.66218704702E+03  0.66218704702E+03  0.00000000000E+00 0. -1.
         21   -1    0    0  505  502 -0.00000000000E+00 -0.00000000000E+00 -0.34499424891E+03  0.34499424891E+03  0.00000000000E+00 0.  1.
         21    1    1    2  503  504  0.16324263351E+02  0.64195381810E+02  0.45982360996E+02  0.80634398010E+02  0.00000000000E+00 0.  1.
         21    1    1    2  504  502  0.57442820209E+02  0.35081129564E+02 -0.26776046936E+03  0.27609062316E+03  0.00000000000E+00 0.  1.
         21    1    1    2  505  506  0.10884026472E+02 -0.98123768044E+02 -0.60392240281E+01  0.98910101174E+02  0.00000000000E+00 0. -1.
         21    1    1    2  506  501 -0.84651110032E+02 -0.11527433296E+01  0.54501013050E+03  0.55154617359E+03  0.00000000000E+00 0. -1.
<scales pt_clust_3="66.23842" pt_clust_4="67.63833" pt_clust_5="14000.00000" pt_clust_6="86.08530"></scales>
<clustering>
<clus scale="   66.238">  1  3  2 -1</clus>
<clus scale="   67.638">  2  4  1 -1</clus>
<clus scale="   86.085">  1  6  2 -1</clus>
<clus scale="   66.238">  1  3  2 -1</clus>
</clustering>
</event>
<event>
 6    0  0.4227619E+002  0.7975313E+02  0.7546771E-02  0.1329753E+00
         21   -1    0    0  503  501  0.00000000000E+00  0.00000000000E+00  0.36014937584E+03  0.36014937584E+03  0.00000000000E+00 0.  1.
         21   -1    0    0  505  502 -0.00000000000E+00 -0.00000000000E+00 -0.27750786412E+03  0.27750786412E+03  0.00000000000E+00 0.  1.
         21    1    1    2  503  506 -0.22235285806E+02  0.94629716929E+02  0.15102484917E+03  0.17960427703E+03  0.00000000000E+00 0.  1.
         21    1    1    2  504  501 -0.35267898051E+02 -0.54957003182E+02  0.11576109069E+03  0.13290871660E+03  0.00000000000E+00 0.  1.
         21    1    1    2  505  504  0.10630154721E+03 -0.21510819511E+02  0.23583011614E+02  0.11099050739E+03  0.00000000000E+00 0.  1.
         21    1    1    2  506  502 -0.48798363351E+02 -0.18161894237E+02 -0.20772743976E+03  0.21415373893E+03  0.00000000000E+00 0.  1.
<scales pt_clust_3="14000.00000" pt_clust_4="70.77795" pt_clust_5="79.75313" pt_clust_6="52.06856"></scales>
<clustering>
<clus scale="   52.069">  2  6  1 -1</clus>
<clus scale="   70.778">  1  4  2 -1</clus>
<clus scale="   79.753">  2  5  1 -1</clus>
<clus scale="   70.778">  1  3  2 -1</clus>
</clustering>
</event>
<event>
 6    0  0.4227619E+002  0.1006393E+03  0.7546771E-02  0.1278957E+00
         21   -1    0    0  504  501  0.00000000000E+00  0.00000000000E+00  0.25835653285E+03  0.25835653285E+03  0.00000000000E+00 0.  1.
         21   -1    0    0  503  502 -0.00000000000E+00 -0.00000000000E+00 -0.21065948353E+04  0.21065948353E+04  0.00000000000E+00 0.  1.
         21    1    1    2  503  501  0.14160300473E+03  0.28024694610E+01 -0.28025119945E+03  0.31400636869E+03  0.00000000000E+00 0.  1.
         21    1    1    2  504  505  0.36496130753E+02  0.63655780607E+01  0.10222719272E+03  0.10873310018E+03  0.00000000000E+00 0.  1.
         21    1    1    2  505  506 -0.81040243970E+02 -0.45152373926E+00  0.12248369838E+03  0.14686722366E+03  0.00000000000E+00 0.  1.
         21    1    1    2  506  502 -0.97058891511E+02 -0.87165237825E+01 -0.17926979941E+04  0.17953446756E+04  0.00000000000E+00 0.  1.
<scales pt_clust_3="14000.00000" pt_clust_4="37.04711" pt_clust_5="49.16037" pt_clust_6="100.63931"></scales>
<clustering>
<clus scale="   37.047">  1  4  2 -1</clus>
<clus scale="   49.160">  1  5  2 -1</clus>
<clus scale="  100.639">  2  6  1 -1</clus>
<clus scale="   37.047">  1  3  2 -1</clus>
</clustering>
</event>
<event>
 6    0  0.4227619E+002  0.1226919E+03  0.7546771E-02  0.1238721E+00
         21   -1    0    0  506  501  0.00000000000E+00  0.00000000000E+00  0.12184395172E+04  0.12184395172E+04  0.00000000000E+00 0. -1.
         21   -1    0    0  503  502 -0.00000000000E+00 -0.00000000000E+00 -0.72267527870E+02  0.72267527870E+02  0.00000000000E+00 0. -1.
         21    1    1    2  503  505 -0.17735097597E+02  0.25544653030E+02 -0.24338191879E+02  0.39489372863E+02  0.00000000000E+00 0. -1.
         21    1    1    2  504  501  0.85186081620E+02 -0.97146822839E+02  0.91528590809E+03  0.92436057209E+03  0.00000000000E+00 0. -1.
         21    1    1    2  505  504 -0.40202304495E+02  0.87554586677E+02  0.32159964279E+02  0.10156915987E+03  0.00000000000E+00 0. -1.
         21    1    1    2  506  502 -0.27248679527E+02 -0.15952416868E+02  0.22306430885E+03  0.22528794025E+03  0.00000000000E+00 0. -1.
<scales pt_clust_3="31.09764" pt_clust_4="122.69189" pt_clust_5="14000.00000" pt_clust_6="31.65247"></scales>
<clustering>
<clus scale="   31.098">  2  3  1 -1</clus>
<clus scale="   31.652">  1  6  2 -1</clus>
<clus scale="  122.692">  1  4  2 -1</clus>
<clus scale="   31.652">  1  3  2 -1</clus>
</clustering>
</event>
<event>
 6    0  0.4227619E+002  0.9758379E+02  0.7546771E-02  0.1285461E+00
         21   -1    0    0  503  501  0.00000000000E+00  0.00000000000E+00  0.11532574871E+03  0.11532574871E+03  0.00000000000E+00 0. -1.
         21   -1    0    0  506  502 -0.00000000000E+00 -0.00000000000E+00 -0.13156165661E+04  0.13156165661E+04  0.00000000000E+00 0. -1.
         21    1    1    2  503  504  0.28069929934E+02 -0.23717962090E+02  0.57682871126E+02  0.68394271058E+02  0.00000000000E+00 0. -1.
         21    1    1    2  504  505 -0.34751094369E+02  0.80627035727E+02  0.46712926555E+01  0.87921433252E+02  0.00000000000E+00 0. -1.
         21    1    1    2  505  502  0.16691243285E+02 -0.96696848688E+02 -0.11591515697E+04  0.11632975715E+04  0.00000000000E+00 0. -1.
         21    1    1    2  506  501 -0.10010078850E+02  0.39787775050E+02 -0.10349341145E+03  0.11132903905E+03  0.00000000000E+00 0. -1.
<scales pt_clust_3="36.74864" pt_clust_4="97.58379" pt_clust_5="14000.00000" pt_clust_6="38.82428"></scales>
<clustering>
<clus scale="   36.749">  1  3  2 -1</clus>
<clus scale="   38.824">  1  6  2 -1</clus>
<clus scale="   97.584">  1  4  2 -1</clus>
<clus scale="   36.749">  1  3  2 -1</clus>
</clustering>
</event>
<event>
 6    0  0.4227619E+002  0.1642845E+03  0.7546771E-02  0.1183943E+00
         21   -1    0    0  506  501  0.00000000000E+00  0.00000000000E+00  0.77941249451E+03  0.77941249451E+03  0.00000000000E+00 0.  1.
         21   -1    0    0  503  502 -0.00000000000E+00 -0.00000000000E+00 -0.17868244154E+03  0.17868244154E+03  0.00000000000E+00 0. -1.
         21    1    1    2  503  504  0.14430432435E+03 -0.68367411298E+02 -0.12754596793E+03  0.20436686348E+03  0.00000000000E+00 0. -1.
         21    1    1    2  504  505 -0.28329077731E+02  0.37786229495E+02  0.28371910951E+03  0.28762278923E+03  0.00000000000E+00 0.  1.
         21    1    1    2  505  501 -0.82614375799E+02  0.19690720385E+02  0.40234517857E+03  0.41121101916E+03  0.00000000000E+00 0.  1.
         21    1    1    2  506  502 -0.33360870823E+02  0.10890461418E+02  0.42211732819E+02  0.54894264177E+02  0.00000000000E+00 0.  1.
<scales pt_clust_3="157.85110" pt_clust_4="33.94737" pt_clust_5="33.94737" pt_clust_6="35.09344"></scales>
<clustering>
<clus scale="   33.947">  4  5 -1 -1</clus>
<clus scale="   35.093">  1  6  2 -1</clus>
<clus scale="  157.851">  2  3  1 -1</clus>
<clus scale="   35.093">  1  3  2 -1</clus>
</clustering>
</event>
<event>
 6    0  0.4227619E+002  0.1008953E+03  0.7546771E-02  0.1278424E+00
         21   -1    0    0  504  501  0.00000000000E+00  0.00000000000E+00  0.37917176522E+03  0.37917176522E+03  0.00000000000E+00 0. -1.
         21   -1    0    0  505  502 -0.00000000000E+00 -0.00000000000E+00 -0.14753002158E+04  0.14753002158E+04  0.00000000000E+00 0.  1.
         21    1    1    2  503  501 -0.38634059915E+02  0.19291737653E+02  0.27896377245E+03  0.28228628743E+03  0.00000000000E+00 0. -1.
         21    1    1    2  504  506  0.13353879499E+01 -0.11348537915E+03  0.58080331104E+02  0.12749133070E+03  0.00000000000E+00 0.  1.
         21    1    1    2  505  503  0.49691352350E+02 -0.60813103289E+01 -0.93713373373E+03  0.93846995036E+03  0.00000000000E+00 0.  1.
         21    1    1    2  506  502 -0.12392680385E+02  0.10027495182E+03 -0.49603882046E+03  0.50622441258E+03  0.00000000000E+00 0.  1.
<scales pt_clust_3="43.18289" pt_clust_4="14000.00000" pt_clust_5="49.78631" pt_clust_6="100.89531"></scales>
<clustering>
<clus scale="   43.183">  1  3  2 -1</clus>
<clus scale="   49.786">  2  5  1 -1</clus>
<clus scale="  100.895">  2  6  1 -1</clus>
<clus scale="   43.183">  1  3  2 -1</clus>
</clustering>
</event>
<event>
 6    0  0.4227619E+002  0.1252945E+03  0.7546771E-02  0.1234610E+00
         21   -1    0    0  503  501  0.00000000000E+00  0.00000000000E+00  0.26851310567E+03  0.26851310567E+03  0.00000000000E+00 0.  1.
         21   -1    0    0  506  502 -0.00000000000E+00 -0.00000000000E+00 -0.63828616395E+03  0.63828616395E+03  0.00000000000E+00 0.  1.
         21    1    1    2  503  505  0.90440865434E+02 -0.79769138094E+02  0.19424893117E+03  0.22863795134E+03  0.00000000000E+00 0.  1.
         21    1    1    2  504  501 -0.14304073458E+03  0.93114148312E+02 -0.11477534256E+03  0.20568003215E+03  0.00000000000E+00 0.  1.
         21    1    1    2  505  502  0.23918807801E+02 -0.25683865282E+02 -0.16802324858E+02  0.38911289147E+02  0.00000000000E+00 0.  1.
         21    1    1    2  506  504  0.28681061343E+02  0.12338855064E+02 -0.43244432203E+03  0.43356999698E+03  0.00000000000E+00 0.  1.
<scales pt_clust_3="14000.00000" pt_clust_4="125.29453" pt_clust_5="36.74098" pt_clust_6="31.22260"></scales>
<clustering>
<clus scale="   31.223">  2  6  1 -1</clus>
<clus scale="   36.741">  2  5  1 -1</clus>
<clus scale="  125.295">  2  4  1 -1</clus>
<clus scale="  125.295">  1  3  2 -1</clus>
</clustering>
</event>
<event>
 6    0  0.4227619E+002  0.9998658E+02  0.7546771E-02  0.1280324E+00
         21   -1    0    0  505  501  0.00000000000E+00  0.00000000000E+00  0.41936736852E+03  0.41936736852E+03  0.00000000000E+00 0. -1.
         21   -1    0    0  506  502 -0.00000000000E+00 -0.00000000000E+00 -0.13721162352E+03  0.13721162352E+03  0.00000000000E+00 0.  1.
         21    1    1    2  503  501  0.38944501738E+02 -0.17721197765E+02  0.67009933078E+02  0.79505007370E+02  0.00000000000E+00 0. -1.
         21    1    1    2  504  502 -0.83199819245E+02 -0.31220125468E+02  0.11877092854E+03  0.14833556426E+03  0.00000000000E+00 0. -1.
         21    1    1    2  505  504 -0.56938560381E+02  0.34136291210E+02  0.18302615741E+03  0.19469427401E+03  0.00000000000E+00 0. -1.
         21    1    1    2  506  503  0.10119387789E+03  0.14805032024E+02 -0.86651274024E+02  0.13404414640E+03  0.00000000000E+00 0.  1.
<scales pt_clust_3="42.78686" pt_clust_4="14000.00000" pt_clust_5="43.26930" pt_clust_6="99.98658"></scales>
<clustering>
<clus scale="   42.787">  1  3  2 -1</clus>
<clus scale="   43.269">  1  5  2 -1</clus>
<clus scale="   99.987">  2  6  1 -1</clus>
<clus scale="   42.787">  1  3  2 -1</clus>
</clustering>
</event>
<event>
 6    0  0.4227619E+002  0.8158091E+02  0.7546771E-02  0.1324624E+00
         21   -1    0    0  506  501  0.00000000000E+00  0.00000000000E+00  0.82323759838E+02  0.82323759838E+02  0.00000000000E+00 0. -1.
         21   -1    0    0  505  502 -0.00000000000E+00 -0.00000000000E+00 -0.37329792761E+03  0.37329792761E+03  0.00000000000E+00 0.  1.
         21    1    1    2  503  502  0.57817150603E+02  0.13066845711E+02 -0.81418377437E+02  0.10071006675E+03  0.00000000000E+00 0. -1.
         21    1    1    2  504  503 -0.10165687449E+03 -0.49954260596E+02 -0.23089755729E+03  0.25718326198E+03  0.00000000000E+00 0.  1.
         21    1    1    2  505  501 -0.42582120391E+00  0.38901552152E+02 -0.13689569600E+02  0.41242167733E+02  0.00000000000E+00 0. -1.
         21    1    1    2  506  504  0.44265545087E+02 -0.20141372663E+01  0.35031336553E+02  0.56486190981E+02  0.00000000000E+00 0. -1.
<scales pt_clust_3="81.58091" pt_clust_4="14000.00000" pt_clust_5="38.90388" pt_clust_6="50.08167"></scales>
<clustering>
<clus scale="   38.904">  1  5  2 -1</clus>
<clus scale="   50.082">  1  6  2 -1</clus>
<clus scale="   81.581">  2  3  1 -1</clus>
<clus scale="   38.904">  1  3  2 -1</clus>
</clustering>
</event>
<event>
 6    0  0.4227619E+002  0.7038642E+02  0.7546771E-02  0.1358784E+00
         21   -1    0    0  503  501  0.00000000000E+00  0.00000000000E+00  0.49209240886E+02  0.49209240886E+02  0.00000000000E+00 0.  1.
         21   -1    0    0  506  502 -0.00000000000E+00 -0.00000000000E+00 -0.55296155030E+03  0.55296155030E+03  0.00000000000E+00 0.  1.
         21    1    1    2  503  505 -0.21444743801E+02 -0.21280392674E+02 -0.26099506821E+02  0.39923882644E+02  0.00000000000E+00 0.  1.
         21    1    1    2  504  501  0.24426712484E+02  0.90723358810E+02 -0.55289176082E+02  0.10901506826E+03  0.00000000000E+00 0.  1.
         21    1    1    2  505  502  0.68406857951E+02 -0.45861756889E+02 -0.15528848727E+03  0.17577631592E+03  0.00000000000E+00 0.  1.
         21    1    1    2  506  504 -0.71388826634E+02 -0.23581209247E+02 -0.26707513923E+03  0.27745552435E+03  0.00000000000E+00 0.  1.
<scales pt_clust_3="30.21146" pt_clust_4="77.96082" pt_clust_5="14000.00000" pt_clust_6="70.38642"></scales>
<clustering>
<clus scale="   30.211">  1  3  2 -1</clus>
<clus scale="   77.961">  1  4  2 -1</clus>
<clus scale="   70.386">  2  6  1 -1</clus>
<clus scale="   30.211">  1  3  2 -1</clus>
</clustering>
</event>
<event>
 6    0  0.4227619E+002  0.1352124E+03  0.7546771E-02  0.1219920E+00
         21   -1    0    0  506  501  0.00000000000E+00  0.00000000000E+00  0.22228043686E+04  0.22228043686E+04  0.00000000000E+00 0.  1.
         21   -1    0    0  503  502 -0.00000000000E+00 -0.00000000000E+00 -0.49104243063E+02  0.49104243063E+02  0.00000000000E+00 0.  1.
         21    1    1    2  503  505 -0.15332114099E+03 -0.63027921466E+02  0.15824682926E+03  0.22917667885E+03  0.00000000000E+00 0.  1.
         21    1    1    2  504  501  0.18334336655E+02 -0.41817039476E+02  0.10930440078E+04  0.10939972649E+04  0.00000000000E+00 0. -1.
         21    1    1    2  505  504  0.11618498302E+03  0.49906414579E+02  0.83013413479E+03  0.83970964162E+03  0.00000000000E+00 0.  1.
         21    1    1    2  506  502  0.18801821319E+02  0.54938546363E+02  0.92275153701E+02  0.10902502626E+03  0.00000000000E+00 0.  1.
<scales pt_clust_3="135.21238" pt_clust_4="45.65975" pt_clust_5="14000.00000" pt_clust_6="55.13841"></scales>
<clustering>
<clus scale="   45.660">  1  4  2 -1</clus>
<clus scale="   55.138">  2  6  1 -1</clus>
<clus scale="  135.212">  2  3  1 -1</clus>
<clus scale="   45.660">  1  3  2 -1</clus>
</clustering>
</event>
<event>
 6    0  0.4227619E+002  0.9022029E+02  0.7546771E-02  0.1302319E+00
         21   -1    0    0  506  501  0.00000000000E+00  0.00000000000E+00  0.26493129620E+03  0.26493129620E+03  0.00000000000E+00 0. -1.
         21   -1    0    0  505  502 -0.00000000000E+00 -0.00000000000E+00 -0.22479841680E+03  0.22479841680E+03  0.00000000000E+00 0.  1.
         21    1    1    2  503  501 -0.31477777030E+02  0.54245079846E+01  0.15412247481E+03  0.15739762697E+03  0.00000000000E+00 0. -1.
         21    1    1    2  504  502  0.32605609400E+02  0.34833106782E+02 -0.23613109969E+02  0.53235796743E+02  0.00000000000E+00 0.  1.
         21    1    1    2  505  503 -0.42908386947E+02 -0.11787365901E+03 -0.13158166851E+03  0.18179401708E+03  0.00000000000E+00 0.  1.
         21    1    1    2  506  504  0.41780554578E+02  0.77616044246E+02  0.41205183062E+02  0.97302272206E+02  0.00000000000E+00 0.  1.
<scales pt_clust_3="31.94176" pt_clust_4="45.47559" pt_clust_5="90.22029" pt_clust_6="14000.00000"></scales>
<clustering>
<clus scale="   31.942">  1  3  2 -1</clus>
<clus scale="   45.476">  2  4  1 -1</clus>
<clus scale="   90.220">  2  5  1 -1</clus>
<clus scale="   31.942">  1  3  2 -1</clus>
</clustering>
</event>
<event>
 6    0  0.4227619E+002  0.9519864E+02  0.7546771E-02  0.1290729E+00
         21   -1    0    0  506  501  0.00000000000E+00  0.00000000000E+00  0.33798594580E+03  0.33798594580E+03  0.00000000000E+00 0. -1.
         21   -1    0    0  503  502 -0.00000000000E+00 -0.00000000000E+00 -0.31230342927E+03  0.31230342927E+03  0.00000000000E+00 0.  1.
         21    1    1    2  503  504 -0.62011407470E+02  0.91870768191E+02 -0.14778121317E+03  0.18472936872E+03  0.00000000000E+00 0.  1.
         21    1    1    2  504  501  0.32166038747E+02 -0.11255833885E+02  0.79307523448E+01  0.34989208020E+02  0.00000000000E+00 0. -1.
         21    1    1    2  505  502 -0.25661588128E+02 -0.48818985440E+02 -0.12312318525E+03  0.13491156063E+03  0.00000000000E+00 0. -1.
         21    1    1    2  506  505  0.55506956851E+02 -0.31795948867E+02  0.28865616261E+03  0.29565923769E+03  0.00000000000E+00 0. -1.
<scales pt_clust_3="95.19864" pt_clust_4="34.07855" pt_clust_5="55.06302" pt_clust_6="14000.00000"></scales>
<clustering>
<clus scale="   34.079">  1  4  2 -1</clus>
<clus scale="   55.063">  2  5  1 -1</clus>
<clus scale="   95.199">  2  3  1 -1</clus>
<clus scale="   34.079">  1  3  2 -1</clus>
</clustering>
</event>
<event>
 6    0  0.4227619E+002  0.7609194E+02  0.7546771E-02  0.1340523E+00
         21   -1    0    0  503  501  0.00000000000E+00  0.00000000000E+00  0.43931191134E+02  0.43931191134E+02  0.00000000000E+00 0.  1.
         21   -1    0    0  506  502 -0.00000000000E+00 -0.00000000000E+00 -0.61053642050E+03  0.61053642050E+03  0.00000000000E+00 0.  1.
         21    1    1    2  503  504  0.82933440651E+02  0.22359612406E+02 -0.80859026459E+02  0.11796647831E+03  0.00000000000E+00 0.  1.
         21    1    1    2  504  502  0.49021001132E+02  0.34831144866E+01 -0.18297530316E+03  0.18946015994E+03  0.00000000000E+00 0.  1.
         21    1    1    2  505  501 -0.40937769537E+02  0.17552554996E+02 -0.24003618457E+02  0.50598091472E+02  0.00000000000E+00 0. -1.
         21    1    1    2  506  505 -0.91016672246E+02 -0.43395281888E+02 -0.27876728129E+03  0.29644288191E+03  0.00000000000E+00 0.  1.
<scales pt_clust_3="76.09194" pt_clust_4="45.00601" pt_clust_5="44.54204" pt_clust_6="14000.00000"></scales>
<clustering>
<clus scale="   44.542">  1  5  2 -1</clus>
<clus scale="   45.006">  2  4  1 -1</clus>
<clus scale="   76.092">  1  3  2 -1</clus>
<clus scale="   44.542">  1  3  2 -1</clus>
</clustering>
</event>
<event>
 6    0  0.4227619E+002  0.1794707E+03  0.7546771E-02  0.1168316E+00
         21   -1    0    0  505  501  0.00000000000E+00  0.00000000000E+00  0.45474754473E+03  0.45474754473E+03  0.00000000000E+00 0.  1.
         21   -1    0    0  506  502 -0.00000000000E+00 -0.00000000000E+00 -0.28528971792E+03  0.28528971792E+03  0.00000000000E+00 0.  1.
         21    1    1    2  503  501  0.59523246391E+02 -0.28466857344E+02  0.18608718362E+03  0.19743813901E+03  0.00000000000E+00 0.  1.
         21    1    1    2  504  502  0.65072798438E+02 -0.15634261101E+03 -0.14008880368E+03  0.21977796530E+03  0.00000000000E+00 0.  1.
         21    1    1    2  505  504  0.21828165770E+02  0.21104973728E+02  0.96949511304E+02  0.10159279738E+03  0.00000000000E+00 0.  1.
         21    1    1    2  506  503 -0.14642421060E+03  0.16370449463E+03  0.26509935572E+02  0.22122836096E+03  0.00000000000E+00 0.  1.
<scales pt_clust_3="73.31618" pt_clust_4="14000.00000" pt_clust_5="30.36262" pt_clust_6="179.47072"></scales>
<clustering>
<clus scale="   30.363">  1  5  2 -1</clus>
<clus scale="   73.316">  1  3  2 -1</clus>
<clus scale="  179.471">  1  6  2 -1</clus>
<clus scale="   30.363">  1  3  2 -1</clus>
</clustering>
</event>
<event>
 6    0  0.4227619E+002  0.2112868E+03  0.7546771E-02  0.1140551E+00
         21   -1    0    0  504  501  0.00000000000E+00  0.00000000000E+00  0.15054936666E+03  0.15054936666E+03  0.00000000000E+00 0.  1.
         21   -1    0    0  506  502 -0.00000000000E+00 -0.00000000000E+00 -0.35155723793E+03  0.35155723793E+03  0.00000000000E+00 0.  1.
         21    1    1    2  503  502 -0.94305966828E+02 -0.90823246598E+02 -0.82682836205E+02  0.15485131225E+03  0.00000000000E+00 0.  1.
         21    1    1    2  504  505  0.18563105386E+02 -0.27854613385E+02  0.61104866354E+01  0.34026554561E+02  0.00000000000E+00 0.  1.
         21    1    1    2  505  503 -0.77093820687E+01 -0.73877858931E+02 -0.54106507157E+02  0.91896064817E+02  0.00000000000E+00 0.  1.
         21    1    1    2  506  501  0.83452243512E+02  0.19255571891E+03 -0.70329014550E+02  0.22133267296E+03  0.00000000000E+00 0.  1.
<scales pt_clust_3="52.20801" pt_clust_4="33.47340" pt_clust_5="52.20801" pt_clust_6="200.00689"></scales>
<clustering>
<clus scale="   33.473">  1  4  2 -1</clus>
<clus scale="   52.208">  3  5 -1 -1</clus>
<clus scale="  200.007">  1  6  2 -1</clus>
<clus scale="   33.473">  1  3  2 -1</clus>
</clustering>
</event>
<event>
 6    0  0.4227619E+002  0.1239886E+03  0.7546771E-02  0.1236658E+00
         21   -1    0    0  506  501  0.00000000000E+00  0.00000000000E+00  0.90374849397E+03  0.90374849397E+03  0.00000000000E+00 0.  1.
         21   -1    0    0  505  502 -0.00000000000E+00 -0.00000000000E+00 -0.51419927158E+03  0.51419927158E+03  0.00000000000E+00 0. -1.
         21    1    1    2  503  501 -0.95929373238E+01  0.79838788456E+02  0.23919095506E+03  0.25234613048E+03  0.00000000000E+00 0. -1.
         21    1    1    2  504  502  0.57813618685E+02 -0.45047592663E+02 -0.45055712141E+03  0.45647937496E+03  0.00000000000E+00 0. -1.
         21    1    1    2  505  503  0.29991587029E+02 -0.69751248551E+02 -0.23015299109E+02  0.79337481432E+02  0.00000000000E+00 0. -1.
         21    1    1    2  506  504 -0.78212268390E+02  0.34960052759E+02  0.62393068785E+03  0.62978477868E+03  0.00000000000E+00 0.  1.
<scales pt_clust_3="75.02957" pt_clust_4="73.29188" pt_clust_5="14000.00000" pt_clust_6="123.98862"></scales>
<clustering>
<clus scale="   73.292">  2  4  1 -1</clus>
<clus scale="   75.030">  1  3  2 -1</clus>
<clus scale="  123.989">  1  6  2 -1</clus>
<clus scale="   75.030">  1  3  2 -1</clus>
</clustering>
</event>
<event>
 6    0  0.4227619E+002  0.1254020E+03  0.7546771E-02  0.1234442E+00
         21   -1    0    0  506  501  0.00000000000E+00  0.00000000000E+00  0.38510192904E+03  0.38510192904E+03  0.00000000000E+00 0.  1.
         21   -1    0    0  503  502 -0.00000000000E+00 -0.00000000000E+00 -0.43207799964E+03  0.43207799964E+03  0.00000000000E+00 0.  1.
         21    1    1    2  503  505 -0.42528719908E+01 -0.47746464068E+02 -0.16155940524E+02  0.50584841261E+02  0.00000000000E+00 0. -1.
         21    1    1    2  504  501  0.12437541455E+03 -0.18169912064E+02  0.33978061211E+03  0.36228476895E+03  0.00000000000E+00 0.  1.
         21    1    1    2  505  504 -0.11583559486E+03  0.22589282787E+02 -0.27580113632E+03  0.29999071240E+03  0.00000000000E+00 0.  1.
         21    1    1    2  506  502 -0.42869476898E+01  0.43327093345E+02 -0.94799605860E+02  0.10431960606E+03  0.00000000000E+00 0.  1.
<scales pt_clust_3="43.65025" pt_clust_4="125.40199" pt_clust_5="14000.00000" pt_clust_6="43.53866"></scales>
<clustering>
<clus scale="   43.539">  2  6  1 -1</clus>
<clus scale="   43.650">  2  3  1 -1</clus>
<clus scale="  125.402">  1  4  2 -1</clus>
<clus scale="  125.402">  1  3  2 -1</clus>
</clustering>
</event>
<event>
 6    0  0.4227619E+002  0.1046500E+03  0.7546771E-02  0.1270811E+00
         21   -1    0    0  504  501  0.00000000000E+00  0.00000000000E+00  0.12906725087E+04  0.12906725087E+04  0.00000000000E+00 0.  1.
         21   -1    0    0  506  502 -0.00000000000E+00 -0.00000000000E+00 -0.36774202014E+03  0.36774202014E+03  0.00000000000E+00 0. -1.
         21    1    1    2  503  501  0.10456724924E+03 -0.24056866499E+01  0.12429874588E+04  0.12473804230E+04  0.00000000000E+00 0.  1.
         21    1    1    2  504  505 -0.20879693274E+02  0.40790883220E+02  0.11727614000E+02  0.47301106490E+02  0.00000000000E+00 0. -1.
         21    1    1    2  505  502  0.28493916546E+02 -0.19210241922E+02 -0.61193218553E+02  0.70182239005E+02  0.00000000000E+00 0.  1.
         21    1    1    2  506  503 -0.11218147251E+03 -0.19174954648E+02 -0.27059136574E+03  0.29355076030E+03  0.00000000000E+00 0. -1.
<scales pt_clust_3="104.65004" pt_clust_4="44.06358" pt_clust_5="34.36476" pt_clust_6="14000.00000"></scales>
<clustering>
<clus scale="   34.365">  2  5  1 -1</clus>
<clus scale="   44.064">  2  4  1 -1</clus>
<clus scale="  104.650">  1  3  2 -1</clus>
<clus scale="  104.650">  1  3  2 -1</clus>
</clustering>
</event>
<event>
 6    0  0.4227619E+002  0.6688583E+02  0.7546771E-02  0.1371015E+00
         21   -1    0    0  504  501  0.00000000000E+00  0.00000000000E+00  0.25764358781E+03  0.25764358781E+03  0.00000000000E+00 0.  1.
         21   -1    0    0  505  502 -0.00000000000E+00 -0.00000000000E+00 -0.14991648823E+03  0.14991648823E+03  0.00000000000E+00 0.  1.
         21    1    1    2  503  501 -0.24502275084E+02 -0.67595155169E+02  0.11997252826E+03  0.13986734438E+03  0.00000000000E+00 0.  1.
         21    1    1    2  504  506  0.67118757676E+02  0.28830040896E+02  0.53271499262E+02  0.90409908326E+02  0.00000000000E+00 0.  1.
         21    1    1    2  505  503  0.13946192671E+02  0.71265731646E+02 -0.82466312899E+02  0.10988172532E+03  0.00000000000E+00 0.  1.
         21    1    1    2  506  502 -0.56562675262E+02 -0.32500617374E+02  0.16949384954E+02  0.67401098009E+02  0.00000000000E+00 0. -1.
<scales pt_clust_3="66.88583" pt_clust_4="14000.00000" pt_clust_5="54.91078" pt_clust_6="65.23516"></scales>
<clustering>
<clus scale="   65.235">  2  6  1 -1</clus>
<clus scale="   54.911">  2  5  1 -1</clus>
<clus scale="   66.886">  1  3  2 -1</clus>
<clus scale="   66.886">  1  3  2 -1</clus>
</clustering>
</event>
<event>
 6    0  0.4227619E+002  0.9026623E+02  0.7546771E-02  0.1302208E+00
         21   -1    0    0  506  501  0.00000000000E+00  0.00000000000E+00  0.11823837452E+04  0.11823837452E+04  0.00000000000E+00 0.  1.
         21   -1    0    0  503  502 -0.00000000000E+00 -0.00000000000E+00 -0.19706458941E+03  0.19706458941E+03  0.00000000000E+00 0. -1.
         21    1    1    2  503  501  0.10350867981E+03 -0.63156874786E+02  0.88078920360E+02  0.14986905565E+03  0.00000000000E+00 0. -1.
         21    1    1    2  504  502 -0.44197543931E+02  0.24245258926E+02 -0.97301265230E+02  0.10958463252E+03  0.00000000000E+00 0. -1.
         21    1    1    2  505  504 -0.59774903412E+02 -0.18634419088E+02 -0.46106532403E+02  0.77756626617E+02  0.00000000000E+00 0. -1.
         21    1    1    2  506  505  0.46376752854E+00  0.57546034948E+02  0.10406480331E+04  0.10422380198E+04  0.00000000000E+00 0.  1.
<scales pt_clust_3="14000.00000" pt_clust_4="50.41087" pt_clust_5="90.26623" pt_clust_6="57.75198"></scales>
<clustering>
<clus scale="   50.411">  2  4  1 -1</clus>
<clus scale="   57.752">  1  6  2 -1</clus>
<clus scale="   90.266">  2  5  1 -1</clus>
<clus scale="   57.752">  1  3  2 -1</clus>
</clustering>
</event>
<event>
 6    0  0.4227619E+002  0.1448925E+03  0.7546771E-02  0.1206893E+00
         21   -1    0    0  505  501  0.00000000000E+00  0.00000000000E+00  0.55855123780E+03  0.55855123780E+03  0.00000000000E+00 0. -1.
         21   -1    0    0  506  502 -0.00000000000E+00 -0.00000000000E+00 -0.39276525343E+03  0.39276525343E+03  0.00000000000E+00 0. -1.
         21    1    1    2  503  504 -0.16767912527E+03 -0.30420641105E+02  0.97460689374E+02  0.19631681138E+03  0.00000000000E+00 0. -1.
         21    1    1    2  504  502  0.11594272784E+03 -0.91982325019E+02 -0.30071761486E+03  0.33516346480E+03  0.00000000000E+00 0. -1.
         21    1    1    2  505  503  0.45342453970E+01  0.14380695948E+03  0.30664260402E+03  0.33871918690E+03  0.00000000000E+00 0. -1.
         21    1    1    2  506  501  0.47202152034E+02 -0.21403993351E+02  0.62400305829E+02  0.81117028148E+02  0.00000000000E+00 0. -1.
<scales pt_clust_3="14000.00000" pt_clust_4="144.89247" pt_clust_5="134.47807" pt_clust_6="51.82831"></scales>
<clustering>
<clus scale="   51.828">  1  6  2 -1</clus>
<clus scale="  134.478">  1  5  2 -1</clus>
<clus scale="  144.892">  2  4  1 -1</clus>
<clus scale="   51.828">  1  3  2 -1</clus>
</clustering>
</event>
<event>
 6    0  0.4227619E+002  0.3342189E+03  0.7546771E-02  0.1069285E+00
         21   -1    0    0  504  501  0.00000000000E+00  0.00000000000E+00  0.64272457278E+03  0.64272457278E+03  0.00000000000E+00 0. -1.
         21   -1    0    0  505  502 -0.00000000000E+00 -0.00000000000E+00 -0.87520140400E+03  0.87520140400E+03  0.00000000000E+00 0. -1.
         21    1    1    2  503  506  0.18667027718E+03 -0.17488911090E+03 -0.15077026260E+03  0.29692366962E+03  0.00000000000E+00 0. -1.
         21    1    1    2  504  502 -0.50457004267E+03  0.16523535484E+03 -0.40074183216E+03  0.66519746428E+03  0.00000000000E+00 0. -1.
         21    1    1    2  505  503  0.81757266466E+01  0.57801066947E+02 -0.46246789388E+02  0.74475307150E+02  0.00000000000E+00 0. -1.
         21    1    1    2  506  501  0.30972403883E+03 -0.48147310885E+02  0.36528205293E+03  0.48132953573E+03  0.00000000000E+00 0. -1.
<scales pt_clust_3="246.92846" pt_clust_4="334.21888" pt_clust_5="58.37642" pt_clust_6="14000.00000"></scales>
<clustering>
<clus scale="   58.376">  2  5  1 -1</clus>
<clus scale="  246.928">  2  3  1 -1</clus>
<clus scale="  334.219">  2  4  1 -1</clus>
<clus scale="  334.219">  1  3  2 -1</clus>
</clustering>
</event>
<event>
 6    0  0.4227619E+002  0.1259736E+03  0.7546771E-02  0.1233556E+00
         21   -1    0    0  505  501  0.00000000000E+00  0.00000000000E+00  0.21295484575E+04  0.21295484575E+04  0.00000000000E+00 0. -1.
         21   -1    0    0  503  502 -0.00000000000E+00 -0.00000000000E+00 -0.43628942029E+02  0.43628942029E+02  0.00000000000E+00 0.  1.
         21    1    1    2  503  504 -0.81033347721E+01 -0.29996247156E+02 -0.71449442295E+01  0.31882426286E+02  0.00000000000E+00 0.  1.
         21    1    1    2  504  501  0.86308061520E+02  0.62206789576E+02  0.96070398054E+03  0.96657690040E+03  0.00000000000E+00 0. -1.
         21    1    1    2  505  506  0.29369109556E+02  0.63364291562E+01  0.99750912656E+03  0.99796149851E+03  0.00000000000E+00 0. -1.
         21    1    1    2  506  502 -0.10757383630E+03 -0.38546971577E+02  0.13485135261E+03  0.17675657435E+03  0.00000000000E+00 0.  1.
<scales pt_clust_3="30.92234" pt_clust_4="125.97359" pt_clust_5="30.04488" pt_clust_6="14000.00000"></scales>
<clustering>
<clus scale="   30.045">  1  5  2 -1</clus>
<clus scale="   30.922">  2  3  1 -1</clus>
<clus scale="  125.974">  1  4  2 -1</clus>
<clus scale="   30.045">  1  3  2 -1</clus>
</clustering>
</event>
<event>
 6    0  0.4227619E+002  0.9364581E+02  0.7546771E-02  0.1294256E+00
         21   -1    0    0  504  501  0.00000000000E+00  0.00000000000E+00  0.15406167219E+04  0.15406167219E+04  0.00000000000E+00 0. -1.
         21   -1    0    0  505  502 -0.00000000000E+00 -0.00000000000E+00 -0.84110195158E+03  0.84110195158E+03  0.00000000000E+00 0.  1.
         21    1    1    2  503  501  0.25401433474E+02 -0.37398474624E+02  0.33699895529E+02  0.56387602232E+02  0.00000000000E+00 0. -1.
         21    1    1    2  504  502 -0.24910725363E+02  0.75950453636E+02  0.14446193957E+04  0.14468290204E+04  0.00000000000E+00 0. -1.
         21    1    1    2  505  506 -0.73750049655E+02 -0.18104624491E+02 -0.79674472228E+03  0.80035554582E+03  0.00000000000E+00 0.  1.
         21    1    1    2  506  503  0.73259341544E+02 -0.20447354521E+02  0.17940201335E+02  0.78146505067E+02  0.00000000000E+00 0.  1.
<scales pt_clust_3="37.39513" pt_clust_4="80.10555" pt_clust_5="75.93976" pt_clust_6="37.39513"></scales>
<clustering>
<clus scale="   37.395">  3  6 -1 -1</clus>
<clus scale="   75.940">  2  5  1 -1</clus>
<clus scale="   80.106">  1  4  2 -1</clus>
<clus scale="   80.106">  1  3  2 -1</clus>
</clustering>
</event>
<event>
 6    0  0.4227619E+002  0.7690291E+02  0.7546771E-02  0.1338078E+00
         21   -1    0    0  506  501  0.00000000000E+00  0.00000000000E+00  0.90654029868E+02  0.90654029868E+02  0.00000000000E+00 0.  1.
         21   -1    0    0  503  502 -0.00000000000E+00 -0.00000000000E+00 -0.27491485923E+03  0.27491485923E+03  0.00000000000E+00 0.  1.
         21    1    1    2  503  505  0.30676330828E+02  0.53295159687E+02 -0.28466821050E+01  0.61559036039E+02  0.00000000000E+00 0.  1.
         21    1    1    2  504  502  0.38227103548E+02 -0.44551093071E+02 -0.37207234887E+02  0.69501724204E+02  0.00000000000E+00 0.  1.
         21    1    1    2  505  501  0.37010007237E+02 -0.17951255448E+02  0.14387347485E+02  0.43577333277E+02  0.00000000000E+00 0.  1.
         21    1    1    2  506  504 -0.10591344161E+03  0.92071888319E+01 -0.15859425985E+03  0.19093079557E+03  0.00000000000E+00 0.  1.
<scales pt_clust_3="65.83944" pt_clust_4="14000.00000" pt_clust_5="41.13378" pt_clust_6="76.90291"></scales>
<clustering>
<clus scale="   41.134">  1  5  2 -1</clus>
<clus scale="   65.839">  1  3  2 -1</clus>
<clus scale="   76.903">  1  6  2 -1</clus>
<clus scale="   41.134">  1  3  2 -1</clus>
</clustering>
</event>
<event>
 6    0  0.4227619E+002  0.1451510E+03  0.7546771E-02  0.1206561E+00
         21   -1    0    0  503  501  0.00000000000E+00  0.00000000000E+00  0.30768663744E+03  0.30768663744E+03  0.00000000000E+00 0.  1.
         21   -1    0    0  506  502 -0.00000000000E+00 -0.00000000000E+00 -0.14138352000E+04  0.14138352000E+04  0.00000000000E+00 0.  1.
         21    1    1    2  503  505 -0.10662006373E+03  0.54400094519E+01  0.26365857234E+03  0.28445258737E+03  0.00000000000E+00 0.  1.
         21    1    1    2  504  502 -0.24039764538E+02  0.19651406150E+02 -0.84038528551E+03  0.84095868873E+03  0.00000000000E+00 0.  1.
         21    1    1    2  505  504  0.16915045044E+03 -0.27457371432E+02 -0.53054222862E+03  0.55753102020E+03  0.00000000000E+00 0. -1.
         21    1    1    2  506  501 -0.38490622175E+02  0.23659558303E+01  0.11203792769E+01  0.38579541109E+02  0.00000000000E+00 0.  1.
<scales pt_clust_3="145.15103" pt_clust_4="31.04977" pt_clust_5="14000.00000" pt_clust_6="39.39121"></scales>
<clustering>
<clus scale="   31.050">  2  4  1 -1</clus>
<clus scale="   39.391">  1  6  2 -1</clus>
<clus scale="  145.151">  1  3  2 -1</clus>
<clus scale="   39.391">  1  3  2 -1</clus>
</clustering>
</event>
<event>
 6    0  0.4227619E+002  0.1808126E+03  0.7546771E-02  0.1167019E+00
         21   -1    0    0  505  501  0.00000000000E+00  0.00000000000E+00  0.25014775796E+04  0.25014775796E+04  0.00000000000E+00 0.  1.
         21   -1    0    0  503  502 -0.00000000000E+00 -0.00000000000E+00 -0.13710530637E+03  0.13710530637E+03  0.00000000000E+00 0.  1.
         21    1    1    2  503  506  0.26680631941E+02 -0.75443347260E+02 -0.73994998607E+02  0.10898997470E+03  0.00000000000E+00 0.  1.
         21    1    1    2  504  502  0.92650676046E+02  0.12990603693E+03  0.38714063561E+03  0.41873332557E+03  0.00000000000E+00 0.  1.
         21    1    1    2  505  504 -0.19163843295E+03  0.48658840326E+02  0.19155863670E+04  0.19257632516E+04  0.00000000000E+00 0.  1.
         21    1    1    2  506  501  0.72307124959E+02 -0.10312153000E+03  0.13564026925E+03  0.18509633413E+03  0.00000000000E+00 0.  1.
<scales pt_clust_3="80.02221" pt_clust_4="145.43644" pt_clust_5="14000.00000" pt_clust_6="180.81263"></scales>
<clustering>
<clus scale="   80.022">  2  3  1 -1</clus>
<clus scale="  145.436">  2  4  1 -1</clus>
<clus scale="  180.813">  2  6  1 -1</clus>
<clus scale="  180.813">  1  3  2 -1</clus>
</clustering>
</event>
<event>
 6    0  0.4227619E+002  0.1272247E+03  0.7546771E-02  0.1231633E+00
         21   -1    0    0  506  501  0.00000000000E+00  0.00000000000E+00  0.30336649747E+03  0.30336649747E+03  0.00000000000E+00 0.  1.
         21   -1    0    0  503  502 -0.00000000000E+00 -0.00000000000E+00 -0.13510942820E+03  0.13510942820E+03  0.00000000000E+00 0. -1.
         21    1    1    2  503  501  0.24871061622E+02  0.61904475708E+02  0.15171868124E+03  0.16573862572E+03  0.00000000000E+00 0.  1.
         21    1    1    2  504  502 -0.85210087772E+02 -0.12379335824E+03 -0.36361051918E+02  0.15462108750E+03  0.00000000000E+00 0. -1.
         21    1    1    2  505  504  0.55881201076E+02  0.14390627179E+02  0.32536422037E+02  0.66245132223E+02  0.00000000000E+00 0.  1.
         21    1    1    2  506  505  0.44578250739E+01  0.47498255356E+02  0.20363017913E+02  0.51871080236E+02  0.00000000000E+00 0.  1.
<scales pt_clust_3="14000.00000" pt_clust_4="127.22466" pt_clust_5="61.25569" pt_clust_6="47.70699"></scales>
<clustering>
<clus scale="   47.707">  1  6  2 -1</clus>
<clus scale="   61.256">  1  5  2 -1</clus>
<clus scale="  127.225">  2  4  1 -1</clus>
<clus scale="   47.707">  1  3  2 -1</clus>
</clustering>
</event>
<event>
 6    0  0.4227619E+002  0.9247712E+02  0.7546771E-02  0.1296962E+00
         21   -1    0    0  504  501  0.00000000000E+00  0.00000000000E+00  0.48743599204E+03  0.48743599204E+03  0.00000000000E+00 0.  1.
         21   -1    0    0  506  502 -0.00000000000E+00 -0.00000000000E+00 -0.21420811332E+03  0.21420811332E+03  0.00000000000E+00 0.  1.
         21    1    1    2  503  501  0.26701758156E+02  0.45667864041E+02  0.29752099171E+03  0.30218748850E+03  0.00000000000E+00 0.  1.
         21    1    1    2  504  502  0.18669104538E+01 -0.37420543507E+02 -0.73591192826E+02  0.82579937592E+02  0.00000000000E+00 0.  1.
         21    1    1    2  505  503  0.68008707833E+02 -0.49699113085E+02  0.14954497547E+03  0.17163591079E+03  0.00000000000E+00 0. -1.
         21    1    1    2  506  505 -0.96577376443E+02  0.41451792551E+02 -0.10024689564E+03  0.14524076849E+03  0.00000000000E+00 0.  1.
<scales pt_clust_3="52.36482" pt_clust_4="37.46708" pt_clust_5="92.47712" pt_clust_6="14000.00000"></scales>
<clustering>
<clus scale="   37.467">  2  4  1 -1</clus>
<clus scale="   52.365">  1  3  2 -1</clus>
<clus scale="   92.477">  1  5  2 -1</clus>
<clus scale="   52.365">  1  3  2 -1</clus>
</clustering>
</event>
<event>
 6    0  0.4227619E+002  0.1184149E+03  0.7546771E-02  0.1245735E+00
         21   -1    0    0  505  501  0.00000000000E+00  0.00000000000E+00  0.64788351909E+03  0.64788351909E+03  0.00000000000E+00 0. -1.
         21   -1    0    0  506  502 -0.00000000000E+00 -0.00000000000E+00 -0.12276106311E+04  0.12276106311E+04  0.00000000000E+00 0.  1.
         21    1    1    2  503  504  0.10073329930E+03 -0.14670597239E+02 -0.58835607176E+02  0.11757573169E+03  0.00000000000E+00 0. -1.
         21    1    1    2  504  501  0.38353506272E+02 -0.76139397773E+01  0.29589566566E+02  0.49035762173E+02  0.00000000000E+00 0.  1.
         21    1    1    2  505  502 -0.32876977055E+02  0.83503506404E+02  0.57236832359E+03  0.57936105241E+03  0.00000000000E+00 0. -1.
         21    1    1    2  506  503 -0.10620982851E+03 -0.61218969389E+02 -0.11228493950E+04  0.11295216039E+04  0.00000000000E+00 0.  1.
<scales pt_clust_3="118.41487" pt_clust_4="39.10196" pt_clust_5="76.37516" pt_clust_6="14000.00000"></scales>
<clustering>
<clus scale="   39.102">  1  4  2 -1</clus>
<clus scale="   76.375">  1  5  2 -1</clus>
<clus scale="  118.415">  1  3  2 -1</clus>
<clus scale="   39.102">  1  3  2 -1</clus>
</clustering>
</event>
<event>
 6    0  0.4227619E+002  0.1713381E+03  0.7546771E-02  0.1176460E+00
         21   -1    0    0  505  501  0.00000000000E+00  0.00000000000E+00  0.18339907375E+03  0.18339907375E+03  0.00000000000E+00 0.  1.
         21   -1    0    0  504  502 -0.00000000000E+00 -0.00000000000E+00 -0.15884260652E+04  0.15884260652E+04  0.00000000000E+00 0.  1.
         21    1    1    2  503  506 -0.11080415582E+03 -0.95486824766E+02 -0.42375190478E+03  0.44828670675E+03  0.00000000000E+00 0.  1.
         21    1    1    2  504  503 -0.30090157801E+02  0.81873767614E+01 -0.66541083045E+03  0.66614114421E+03  0.00000000000E+00 0. -1.
         21    1    1    2  505  502 -0.58475306308E+02  0.16435576093E+02  0.14121232589E+03  0.15372186114E+03  0.00000000000E+00 0.  1.
         21    1    1    2  506  501  0.19936961993E+03  0.70863871912E+02 -0.45707658209E+03  0.50367542683E+03  0.00000000000E+00 0.  1.
<scales pt_clust_3="171.33814" pt_clust_4="31.18414" pt_clust_5="60.95256" pt_clust_6="14000.00000"></scales>
<clustering>
<clus scale="   31.184">  2  4  1 -1</clus>
<clus scale="   60.953">  1  5  2 -1</clus>
<clus scale="  171.338">  2  3  1 -1</clus>
<clus scale="   60.953">  1  3  2 -1</clus>
</clustering>
</event>
<event>
 6    0  0.4227619E+002  0.1720879E+03  0.7546771E-02  0.1175688E+00
         21   -1    0    0  502  501  0.00000000000E+00  0.00000000000E+00  0.27852842177E+03  0.27852842177E+03  0.00000000000E+00 0.  1.
         21   -1    0    0  504  502 -0.00000000000E+00 -0.00000000000E+00 -0.14387542387E+04  0.14387542387E+04  0.00000000000E+00 0. -1.
         21    1    1    2  503  506 -0.11822700357E+03 -0.51167539463E+02 -0.80037484949E+03  0.81067603959E+03  0.00000000000E+00 0.  1.
         21    1    1    2  504  505 -0.28640089711E+01 -0.32990064645E+02 -0.53393237745E+03  0.53495825127E+03  0.00000000000E+00 0. -1.
         21    1    1    2  505  503 -0.62015355980E+01 -0.34252324878E+02 -0.66362132644E+02  0.74937396888E+02  0.00000000000E+00 0. -1.
         21    1    1    2  506  501  0.12729254813E+03  0.11840992899E+03  0.24044354269E+03  0.29671097269E+03  0.00000000000E+00 0.  1.
<scales pt_clust_3="14000.00000" pt_clust_4="33.11415" pt_clust_5="37.38597" pt_clust_6="172.08794"></scales>
<clustering>
<clus scale="   33.114">  2  4  1 -1</clus>
<clus scale="   37.386">  2  5  1 -1</clus>
<clus scale="  172.088">  1  6  2 -1</clus>
<clus scale="  172.088">  1  3  2 -1</clus>
</clustering>
</event>
<event>
 6    0  0.4227619E+002  0.1416253E+03  0.7546771E-02  0.1211159E+00
         21   -1    0    0  506  501  0.00000000000E+00  0.00000000000E+00  0.12345110166E+03  0.12345110166E+03  0.00000000000E+00 0. -1.
         21   -1    0    0  505  502 -0.00000000000E+00 -0.00000000000E+00 -0.53122908034E+03  0.53122908034E+03  0.00000000000E+00 0. -1.
         21    1    1    2  503  501 -0.83876298733E+02  0.92446453206E+02  0.31909388571E+02  0.12884016951E+03  0.00000000000E+00 0. -1.
         21    1    1    2  504  502  0.99299755465E+01 -0.45774174681E+02 -0.64312619910E+02  0.79561250378E+02  0.00000000000E+00 0. -1.
         21    1    1    2  505  503  0.14152631031E+03 -0.28524760898E+01 -0.31587120626E+03  0.34613935355E+03  0.00000000000E+00 0. -1.
         21    1    1    2  506  504 -0.67579987126E+02 -0.43819802435E+02 -0.59503541078E+02  0.10013940856E+03  0.00000000000E+00 0. -1.
<scales pt_clust_3="14000.00000" pt_clust_4="46.83887" pt_clust_5="141.62534" pt_clust_6="83.77011"></scales>
<clustering>
<clus scale="   46.839">  2  4  1 -1</clus>
<clus scale="   83.770">  1  6  2 -1</clus>
<clus scale="  141.625">  2  5  1 -1</clus>
<clus scale="   83.770">  1  3  2 -1</clus>
</clustering>
</event>
<event>
 6    0  0.4227619E+002  0.8862987E+02  0.7546771E-02  0.1306204E+00
         21   -1    0    0  505  501  0.00000000000E+00  0.00000000000E+00  0.18432024444E+04  0.18432024444E+04  0.00000000000E+00 0.  1.
         21   -1    0    0  506  502 -0.00000000000E+00 -0.00000000000E+00 -0.44955686329E+03  0.44955686329E+03  0.00000000000E+00 0. -1.
         21    1    1    2  503  501  0.26360350284E+02 -0.11696368724E+03 -0.81065287626E+02  0.14473062239E+03  0.00000000000E+00 0. -1.
         21    1    1    2  504  502 -0.28419053521E+02  0.90448165315E+02 -0.10502645312E+03  0.14148875951E+03  0.00000000000E+00 0. -1.
         21    1    1    2  505  504  0.11024193580E+01  0.70763795862E+02  0.17901370975E+04  0.17915355308E+04  0.00000000000E+00 0.  1.
         21    1    1    2  506  503  0.95628387920E+00 -0.44248273934E+02 -0.21039977572E+03  0.21500439495E+03  0.00000000000E+00 0. -1.
<scales pt_clust_3="88.62987" pt_clust_4="14000.00000" pt_clust_5="70.64182" pt_clust_6="44.25861"></scales>
<clustering>
<clus scale="   44.259">  2  6  1 -1</clus>
<clus scale="   70.642">  1  5  2 -1</clus>
<clus scale="   88.630">  1  3  2 -1</clus>
<clus scale="   70.642">  1  3  2 -1</clus>
</clustering>
</event>
<event>
 6    0  0.4227619E+002  0.9720259E+02  0.7546771E-02  0.1286291E+00
         21   -1    0    0  504  501  0.00000000000E+00  0.00000000000E+00  0.16751813735E+03  0.16751813735E+03  0.00000000000E+00 0.  1.
         21   -1    0    0  503  502 -0.00000000000E+00 -0.00000000000E+00 -0.14815776612E+04  0.14815776612E+04  0.00000000000E+00 0.  1.
         21    1    1    2  503  506  0.16916331787E+02  0.60616758509E+02 -0.15656485225E+03  0.16873976014E+03  0.00000000000E+00 0.  1.
         21    1    1    2  504  505 -0.18922788884E+01  0.36690538145E+02  0.51194568205E+02  0.63013174198E+02  0.00000000000E+00 0.  1.
         21    1    1    2  505  502  0.76819607913E+02 -0.33984753248E+02 -0.12814203850E+04  0.12841707125E+04  0.00000000000E+00 0.  1.
         21    1    1    2  506  501 -0.91843660811E+02 -0.63322543406E+02  0.72731145167E+02  0.13317215179E+03  0.00000000000E+00 0.  1.
<scales pt_clust_3="64.85649" pt_clust_4="36.73930" pt_clust_5="14000.00000" pt_clust_6="97.20259"></scales>
<clustering>
<clus scale="   36.739">  1  4  2 -1</clus>
<clus scale="   64.856">  2  3  1 -1</clus>
<clus scale="   97.203">  1  6  2 -1</clus>
<clus scale="   36.739">  1  3  2 -1</clus>
</clustering>
</event>
<event>
 6    0  0.4227619E+002  0.7064864E+02  0.7546771E-02  0.1357901E+00
         21   -1    0    0  503  501  0.00000000000E+00  0.00000000000E+00  0.68782654054E+02  0.68782654054E+02  0.00000000000E+00 0. -1.
         21   -1    0    0  504  502 -0.00000000000E+00 -0.00000000000E+00 -0.55688056631E+03  0.55688056631E+03  0.00000000000E+00 0. -1.
         21    1    1    2  503  502 -0.61749556781E+01  0.69256869182E+02 -0.45332687276E+02  0.83004195931E+02  0.00000000000E+00 0. -1.
         21    1    1    2  504  505  0.79952357529E+02 -0.15491048273E+02 -0.36490713765E+03  0.37388443557E+03  0.00000000000E+00 0. -1.
         21    1    1    2  505  506 -0.15832999527E+02 -0.61280198338E+02 -0.89081331090E+02  0.10927685085E+03  0.00000000000E+00 0. -1.
         21    1    1    2  506  501 -0.57944402324E+02  0.75143774283E+01  0.11223243760E+02  0.59497738018E+02  0.00000000000E+00 0. -1.
<scales pt_clust_3="14000.00000" pt_clust_4="70.64864" pt_clust_5="67.77682" pt_clust_6="58.42961"></scales>
<clustering>
<clus scale="   58.430">  1  6  2 -1</clus>
<clus scale="   67.777">  1  5  2 -1</clus>
<clus scale="   70.649">  2  4  1 -1</clus>
<clus scale="   58.430">  1  3  2 -1</clus>
</clustering>
</event>
<event>
 6    0  0.4227619E+002  0.1357836E+03  0.7546771E-02  0.1219118E+00
         21   -1    0    0  506  501  0.00000000000E+00  0.00000000000E+00  0.38049219158E+03  0.38049219158E+03  0.00000000000E+00 0.  1.
         21   -1    0    0  504  502 -0.00000000000E+00 -0.00000000000E+00 -0.28720492395E+03  0.28720492395E+03  0.00000000000E+00 0.  1.
         21    1    1    2  503  502  0.14994823975E+03 -0.18292053558E+01 -0.15963067890E+03  0.21902003161E+03  0.00000000000E+00 0.  1.
         21    1    1    2  504  501 -0.22253730209E+02  0.56873309678E+02 -0.64185995883E+02  0.88598216288E+02  0.00000000000E+00 0.  1.
         21    1    1    2  505  503 -0.12007672596E+03 -0.19998323225E+02  0.17271612550E+03  0.21130360398E+03  0.00000000000E+00 0.  1.
         21    1    1    2  506  505 -0.76177835859E+01 -0.35045781097E+02  0.14438781692E+03  0.14877526365E+03  0.00000000000E+00 0. -1.
<scales pt_clust_3="135.78358" pt_clust_4="59.52292" pt_clust_5="14000.00000" pt_clust_6="35.86415"></scales>
<clustering>
<clus scale="   35.864">  1  6  2 -1</clus>
<clus scale="   59.523">  2  4  1 -1</clus>
<clus scale="  135.784">  2  3  1 -1</clus>
<clus scale="   35.864">  1  3  2 -1</clus>
</clustering>
</event>
<event>
 6    0  0.4227619E+002  0.1576123E+03  0.7546771E-02  0.1191419E+00
         21   -1    0    0  505  501  0.00000000000E+00  0.00000000000E+00  0.74152214713E+03  0.74152214713E+03  0.00000000000E+00 0. -1.
         21   -1    0    0  501  502 -0.00000000000E+00 -0.00000000000E+00 -0.70140421436E+03  0.70140421436E+03  0.00000000000E+00 0. -1.
         21    1    1    2  503  502 -0.32408822522E+02  0.87910848632E+01 -0.66274557983E+03  0.66359574934E+03  0.00000000000E+00 0. -1.
         21    1    1    2  504  506  0.88740161944E+02  0.47638686835E+02  0.18697746521E+03  0.21237898512E+03  0.00000000000E+00 0. -1.
         21    1    1    2  505  504 -0.11843510529E+03 -0.84616895106E+02  0.44663703182E+03  0.46975688531E+03  0.00000000000E+00 0. -1.
         21    1    1    2  506  503  0.62103765869E+02  0.28187123408E+02  0.69249015568E+02  0.97194741721E+02  0.00000000000E+00 0. -1.
<scales pt_clust_3="33.57998" pt_clust_4="32.73548" pt_clust_5="152.18805" pt_clust_6="32.73548"></scales>
<clustering>
<clus scale="   33.580">  2  3  1 -1</clus>
<clus scale="   32.735">  4  6 -1 -1</clus>
<clus scale="  152.188">  1  5  2 -1</clus>
<clus scale="  152.188">  1  3  2 -1</clus>
</clustering>
</event>
<event>
 6    0  0.4227619E+002  0.1468172E+03  0.7546771E-02  0.1204439E+00
         21   -1    0    0  503  501  0.00000000000E+00  0.00000000000E+00  0.14462007212E+04  0.14462007212E+04  0.00000000000E+00 0.  1.
         21   -1    0    0  504  502 -0.00000000000E+00 -0.00000000000E+00 -0.20627652917E+03  0.20627652917E+03  0.00000000000E+00 0. -1.
         21    1    1    2  503  506 -0.46724609137E+02 -0.50999005210E+01  0.70264881956E+03  0.70421911485E+03  0.00000000000E+00 0.  1.
         21    1    1    2  504  505  0.36262922590E+02 -0.30143149850E+02 -0.15131500177E+03  0.15849239350E+03  0.00000000000E+00 0. -1.
         21    1    1    2  505  501 -0.60650143747E+02  0.16583695075E+03  0.15212020335E+03  0.23306842437E+03  0.00000000000E+00 0. -1.
         21    1    1    2  506  502  0.71111830294E+02 -0.13059390038E+03  0.53647017091E+03  0.55669731767E+03  0.00000000000E+00 0.  1.
<scales pt_clust_3="47.00211" pt_clust_4="46.99759" pt_clust_5="14000.00000" pt_clust_6="146.81717"></scales>
<clustering>
<clus scale="   47.002">  1  3  2 -1</clus>
<clus scale="   46.998">  2  4  1 -1</clus>
<clus scale="  146.817">  1  6  2 -1</clus>
<clus scale="   47.002">  1  3  2 -1</clus>
</clustering>
</event>
<event>
 6    0  0.4227619E+002  0.9335530E+02  0.7546771E-02  0.1294924E+00
         21   -1    0    0  505  501  0.00000000000E+00  0.00000000000E+00  0.57536122648E+03  0.57536122648E+03  0.00000000000E+00 0.  1.
         21   -1    0    0  504  502 -0.00000000000E+00 -0.00000000000E+00 -0.62196167220E+02  0.62196167220E+02  0.00000000000E+00 0.  1.
         21    1    1    2  503  502 -0.98722023902E+02 -0.18179871733E+02  0.15610526624E+02  0.10158855389E+03  0.00000000000E+00 0.  1.
         21    1    1    2  504  506  0.72645524150E+02 -0.53528071685E+02  0.21401032755E+03  0.23225642496E+03  0.00000000000E+00 0.  1.
         21    1    1    2  505  503 -0.45942583514E+01  0.38699205263E+02  0.23199920386E+03  0.23524958297E+03  0.00000000000E+00 0.  1.
         21    1    1    2  506  501  0.30670758103E+02  0.33008738155E+02  0.51545001220E+02  0.68462831872E+02  0.00000000000E+00 0.  1.
<scales pt_clust_3="14000.00000" pt_clust_4="93.35530" pt_clust_5="38.97096" pt_clust_6="49.76144"></scales>
<clustering>
<clus scale="   38.971">  1  5  2 -1</clus>
<clus scale="   49.761">  1  6  2 -1</clus>
<clus scale="   93.355">  1  4  2 -1</clus>
<clus scale="   38.971">  1  3  2 -1</clus>
</clustering>
</event>
<event>
 6    0  0.4227619E+002  0.6179307E+02  0.7546771E-02  0.1390457E+00
         21   -1    0    0  505  501  0.00000000000E+00  0.00000000000E+00  0.22580512264E+03  0.22580512264E+03  0.00000000000E+00 0. -1.
         21   -1    0    0  504  502 -0.00000000000E+00 -0.00000000000E+00 -0.12736605400E+03  0.12736605400E+03  0.00000000000E+00 0. -1.
         21    1    1    2  503  502 -0.49653436159E+02  0.17575568057E+01 -0.24307745455E+02  0.55312016935E+02  0.00000000000E+00 0.  1.
         21    1    1    2  504  506  0.40281118269E+02  0.70039061559E+02 -0.92491036194E+01  0.81323948200E+02  0.00000000000E+00 0. -1.
         21    1    1    2  505  503  0.53265075005E+02 -0.52852646909E+02 -0.11719089718E+01  0.75046278197E+02  0.00000000000E+00 0. -1.
         21    1    1    2  506  501 -0.43892757115E+02 -0.18943971455E+02  0.13316782669E+03  0.14148893330E+03  0.00000000000E+00 0. -1.
<scales pt_clust_3="57.36521" pt_clust_4="61.79307" pt_clust_5="14000.00000" pt_clust_6="47.80636"></scales>
<clustering>
<clus scale="   47.806">  1  6  2 -1</clus>
<clus scale="   57.365">  2  3  1 -1</clus>
<clus scale="   61.793">  1  4  2 -1</clus>
<clus scale="   47.806">  1  3  2 -1</clus>
</clustering>
</event>
<event>
 6    0  0.4227619E+002  0.1080339E+03  0.7546771E-02  0.1264255E+00
         21   -1    0    0  504  501  0.00000000000E+00  0.00000000000E+00  0.65903154028E+02  0.65903154028E+02  0.00000000000E+00 0. -1.
         21   -1    0    0  503  502 -0.00000000000E+00 -0.00000000000E+00 -0.92304024009E+03  0.92304024009E+03  0.00000000000E+00 0. -1.
         21    1    1    2  503  505 -0.36216701404E+02 -0.12853685449E+02 -0.35363398213E+03  0.35571598222E+03  0.00000000000E+00 0. -1.
         21    1    1    2  504  502  0.57242281217E+02 -0.85470538420E+02 -0.17261396723E+02  0.10430650753E+03  0.00000000000E+00 0. -1.
         21    1    1    2  505  506 -0.71203903076E+02  0.60441908631E+02 -0.44269591397E+03  0.45244103746E+03  0.00000000000E+00 0. -1.
         21    1    1    2  506  501  0.50178323263E+02  0.37882315238E+02 -0.43545793244E+02  0.76479866909E+02  0.00000000000E+00 0. -1.
<scales pt_clust_3="38.43002" pt_clust_4="14000.00000" pt_clust_5="108.03394" pt_clust_6="59.01526"></scales>
<clustering>
<clus scale="   38.430">  2  3  1 -1</clus>
<clus scale="   59.015">  1  6  2 -1</clus>
<clus scale="  108.034">  2  5  1 -1</clus>
<clus scale="   59.015">  1  3  2 -1</clus>
</clustering>
</event>
<event>
 6    0  0.4227619E+002  0.1337053E+03  0.7546771E-02  0.1222059E+00
         21   -1    0    0  504  501  0.00000000000E+00  0.00000000000E+00  0.47088402039E+03  0.47088402039E+03  0.00000000000E+00 0. -1.
         21   -1    0    0  506  502 -0.00000000000E+00 -0.00000000000E+00 -0.58496368065E+03  0.58496368065E+03  0.00000000000E+00 0.  1.
         21    1    1    2  503  502 -0.66142606032E+02 -0.11665305438E+03 -0.45841942512E+03  0.47763076613E+03  0.00000000000E+00 0.  1.
         21    1    1    2  504  503  0.14413142297E+03  0.64144621261E+02 -0.66124032579E+01  0.15789909247E+03  0.00000000000E+00 0.  1.
         21    1    1    2  505  501 -0.41449100361E+02  0.20299156798E+02  0.36634000656E+03  0.36923581096E+03  0.00000000000E+00 0. -1.
         21    1    1    2  506  505 -0.36539716580E+02  0.32209276317E+02 -0.15387838438E+02  0.51082031482E+02  0.00000000000E+00 0.  1.
<scales pt_clust_3="133.70532" pt_clust_4="14000.00000" pt_clust_5="46.15283" pt_clust_6="56.45491"></scales>
<clustering>
<clus scale="   46.153">  1  5  2 -1</clus>
<clus scale="   56.455">  1  6  2 -1</clus>
<clus scale="  133.705">  2  3  1 -1</clus>
<clus scale="   46.153">  1  3  2 -1</clus>
</clustering>
</event>
<event>
 6    0  0.4227619E+002  0.8565676E+02  0.7546771E-02  0.1313724E+00
         21   -1    0    0  504  501  0.00000000000E+00  0.00000000000E+00  0.80361305984E+02  0.80361305984E+02  0.00000000000E+00 0. -1.
         21   -1    0    0  506  502 -0.00000000000E+00 -0.00000000000E+00 -0.11550356001E+04  0.11550356001E+04  0.00000000000E+00 0. -1.
         21    1    1    2  503  505 -0.10420491512E+03  0.13355340275E+02 -0.61499864749E+03  0.62390733756E+03  0.00000000000E+00 0. -1.
         21    1    1    2  504  502  0.41244523045E+02 -0.22151984284E+02 -0.41465692729E+03  0.41729149098E+03  0.00000000000E+00 0. -1.
         21    1    1    2  505  501  0.74725467710E+02  0.41903891787E+02  0.45566969853E+02  0.97037005379E+02  0.00000000000E+00 0. -1.
         21    1    1    2  506  503 -0.11765075637E+02 -0.33107247778E+02 -0.90585689238E+02  0.97161072220E+02  0.00000000000E+00 0. -1.
<scales pt_clust_3="14000.00000" pt_clust_4="50.75495" pt_clust_5="85.65676" pt_clust_6="35.13555"></scales>
<clustering>
<clus scale="   35.136">  2  6  1 -1</clus>
<clus scale="   50.755">  2  4  1 -1</clus>
<clus scale="   85.657">  1  5  2 -1</clus>
<clus scale="   85.657">  1  3  2 -1</clus>
</clustering>
</event>
<event>
 6    0  0.4227619E+002  0.6592084E+02  0.7546771E-02  0.1374541E+00
         21   -1    0    0  503  501  0.00000000000E+00  0.00000000000E+00  0.84083843218E+03  0.84083843218E+03  0.00000000000E+00 0. -1.
         21   -1    0    0  505  502 -0.00000000000E+00 -0.00000000000E+00 -0.47372009215E+02  0.47372009215E+02  0.00000000000E+00 0.  1.
         21    1    1    2  503  504  0.78613218831E+01 -0.80985812062E+02  0.31276001429E+03  0.32317074230E+03  0.00000000000E+00 0.  1.
         21    1    1    2  504  502 -0.41889818523E+02  0.44560267082E+01 -0.16665113019E+02  0.45302748943E+02  0.00000000000E+00 0.  1.
         21    1    1    2  505  506  0.78936084379E+02  0.33224373418E+02  0.23712007011E+03  0.25211245915E+03  0.00000000000E+00 0.  1.
         21    1    1    2  506  501 -0.44907587740E+02  0.43305411936E+02  0.26025145158E+03  0.26762449101E+03  0.00000000000E+00 0. -1.
<scales pt_clust_3="65.92084" pt_clust_4="42.12616" pt_clust_5="69.40099" pt_clust_6="14000.00000"></scales>
<clustering>
<clus scale="   42.126">  2  4  1 -1</clus>
<clus scale="   69.401">  2  5  1 -1</clus>
<clus scale="   65.921">  2  3  1 -1</clus>
<clus scale="   65.921">  1  3  2 -1</clus>
</clustering>
</event>
<event>
 6    0  0.4227619E+002  0.1323552E+03  0.7546771E-02  0.1224002E+00
         21   -1    0    0  503  501  0.00000000000E+00  0.00000000000E+00  0.55865098469E+03  0.55865098469E+03  0.00000000000E+00 0.  1.
         21   -1    0    0  506  502 -0.00000000000E+00 -0.00000000000E+00 -0.52350355787E+02  0.52350355787E+02  0.00000000000E+00 0. -1.
         21    1    1    2  503  504  0.28610729580E+02  0.41257619907E+02  0.12668766637E+03  0.13627373135E+03  0.00000000000E+00 0.  1.
         21    1    1    2  504  502 -0.22318322657E+02  0.85374628784E+02  0.16409282973E+03  0.18631530139E+03  0.00000000000E+00 0. -1.
         21    1    1    2  505  501  0.36680994822E+02 -0.17175162787E+02  0.14664494457E+03  0.15213553617E+03  0.00000000000E+00 0.  1.
         21    1    1    2  506  505 -0.42973401745E+02 -0.10945708590E+03  0.68875188246E+02  0.13627677156E+03  0.00000000000E+00 0. -1.
<scales pt_clust_3="48.64306" pt_clust_4="48.64306" pt_clust_5="40.50286" pt_clust_6="118.67108"></scales>
<clustering>
<clus scale="   40.503">  1  5  2 -1</clus>
<clus scale="   48.643">  3  4 -1 -1</clus>
<clus scale="  118.671">  2  6  1 -1</clus>
<clus scale="   40.503">  1  3  2 -1</clus>
</clustering>
</event>
<event>
 6    0  0.4227619E+002  0.6074955E+02  0.7546771E-02  0.1394713E+00
         21   -1    0    0  503  501  0.00000000000E+00  0.00000000000E+00  0.91656038005E+03  0.91656038005E+03  0.00000000000E+00 0. -1.
         21   -1    0    0  506  502 -0.00000000000E+00 -0.00000000000E+00 -0.55271428820E+02  0.55271428820E+02  0.00000000000E+00 0. -1.
         21    1    1    2  503  504  0.78863049235E+02 -0.48793233004E+02  0.22905372251E+03  0.24711488809E+03  0.00000000000E+00 0. -1.
         21    1    1    2  504  502  0.16265735047E+00  0.56195796237E+02  0.13131016027E+03  0.14282980138E+03  0.00000000000E+00 0. -1.
         21    1    1    2  505  501 -0.48622767247E+02  0.26928168605E+02  0.52646905137E+03  0.52939490157E+03  0.00000000000E+00 0. -1.
         21    1    1    2  506  505 -0.30402939338E+02 -0.34330731838E+02 -0.25543982920E+02  0.52492217826E+02  0.00000000000E+00 0. -1.
<scales pt_clust_3="60.74955" pt_clust_4="45.29041" pt_clust_5="14000.00000" pt_clust_6="45.85780"></scales>
<clustering>
<clus scale="   45.858">  2  6  1 -1</clus>
<clus scale="   45.290">  2  4  1 -1</clus>
<clus scale="   60.750">  2  3  1 -1</clus>
<clus scale="   60.750">  1  3  2 -1</clus>
</clustering>
</event>
<event>
 6    0  0.4227619E+002  0.1262194E+03  0.7546771E-02  0.1233176E+00
         21   -1    0    0  506  501  0.00000000000E+00  0.00000000000E+00  0.14243894611E+03  0.14243894611E+03  0.00000000000E+00 0. -1.
         21   -1    0    0  503  502 -0.00000000000E+00 -0.00000000000E+00 -0.27647956687E+03  0.27647956687E+03  0.00000000000E+00 0.  1.
         21    1    1    2  503  505  0.73876207419E+02  0.38233244000E+02 -0.15851190967E+03  0.17901257072E+03  0.00000000000E+00 0.  1.
         21    1    1    2  504  501 -0.86608657979E+02 -0.17498258708E+02 -0.30091205534E+02  0.93342002042E+02  0.00000000000E+00 0.  1.
         21    1    1    2  505  504  0.42260243478E+02  0.21568253150E+02 -0.23537416384E+02  0.52963456202E+02  0.00000000000E+00 0. -1.
         21    1    1    2  506  502 -0.29527792918E+02 -0.42303238442E+02  0.78099910828E+02  0.93600484019E+02  0.00000000000E+00 0. -1.
<scales pt_clust_3="45.35821" pt_clust_4="111.01491" pt_clust_5="45.35821" pt_clust_6="51.58929"></scales>
<clustering>
<clus scale="   45.358">  3  5 -1 -1</clus>
<clus scale="   51.589">  1  6  2 -1</clus>
<clus scale="  111.015">  1  4  2 -1</clus>
<clus scale="   51.589">  1  3  2 -1</clus>
</clustering>
</event>
<event>
 6    0  0.4227619E+002  0.8730649E+02  0.7546771E-02  0.1309509E+00
         21   -1    0    0  506  501  0.00000000000E+00  0.00000000000E+00  0.10006956771E+03  0.10006956771E+03  0.00000000000E+00 0. -1.
         21   -1    0    0  503  502 -0.00000000000E+00 -0.00000000000E+00 -0.49257550262E+03  0.49257550262E+03  0.00000000000E+00 0. -1.
         21    1    1    2  503  504  0.47110908248E+02  0.64070943282E+02 -0.16113953104E+03  0.17969549776E+03  0.00000000000E+00 0. -1.
         21    1    1    2  504  501  0.41987569718E+02  0.13870499628E+02 -0.22197260964E+02  0.49477926038E+02  0.00000000000E+00 0.  1.
         21    1    1    2  505  502 -0.87894054381E+02 -0.45601830318E+02 -0.27381969355E+03  0.29117368752E+03  0.00000000000E+00 0. -1.
         21    1    1    2  506  505 -0.12044235841E+01 -0.32339612591E+02  0.64650550652E+02  0.72297959019E+02  0.00000000000E+00 0. -1.
<scales pt_clust_3="14000.00000" pt_clust_4="41.46770" pt_clust_5="87.30649" pt_clust_6="32.36203"></scales>
<clustering>
<clus scale="   32.362">  1  6  2 -1</clus>
<clus scale="   41.468">  1  4  2 -1</clus>
<clus scale="   87.306">  2  5  1 -1</clus>
<clus scale="   32.362">  1  3  2 -1</clus>
</clustering>
</event>
<event>
 6    0  0.4227619E+002  0.7658435E+02  0.7546771E-02  0.1339034E+00
         21   -1    0    0  506  501  0.00000000000E+00  0.00000000000E+00  0.19988969281E+03  0.19988969281E+03  0.00000000000E+00 0. -1.
         21   -1    0    0  504  502 -0.00000000000E+00 -0.00000000000E+00 -0.17983737091E+03  0.17983737091E+03  0.00000000000E+00 0.  1.
         21    1    1    2  503  502  0.31778075950E+02  0.79416749532E+02 -0.60024064501E+02  0.10449762933E+03  0.00000000000E+00 0. -1.
         21    1    1    2  504  505 -0.85271944082E+02 -0.19086568685E+02 -0.32457356268E+02  0.93215243000E+02  0.00000000000E+00 0.  1.
         21    1    1    2  505  501  0.15295592234E+02 -0.63215995705E+02  0.20439870995E+01  0.65072230160E+02  0.00000000000E+00 0. -1.
         21    1    1    2  506  503  0.38198275899E+02  0.28858148581E+01  0.11048975557E+03  0.11694196123E+03  0.00000000000E+00 0. -1.
<scales pt_clust_3="14000.00000" pt_clust_4="76.58435" pt_clust_5="69.03422" pt_clust_6="38.30713"></scales>
<clustering>
<clus scale="   38.307">  1  6  2 -1</clus>
<clus scale="   69.034">  1  5  2 -1</clus>
<clus scale="   76.584">  1  4  2 -1</clus>
<clus scale="   38.307">  1  3  2 -1</clus>
</clustering>
</event>
<event>
 6    0  0.4227619E+002  0.1577919E+03  0.7546771E-02  0.1191212E+00
         21   -1    0    0  504  501  0.00000000000E+00  0.00000000000E+00  0.36424695414E+03  0.36424695414E+03  0.00000000000E+00 0. -1.
         21   -1    0    0  503  502 -0.00000000000E+00 -0.00000000000E+00 -0.14458165040E+04  0.14458165040E+04  0.00000000000E+00 0. -1.
         21    1    1    2  503  505 -0.21209136343E+02 -0.11003847116E+03 -0.73469526938E+03  0.74319272833E+03  0.00000000000E+00 0. -1.
         21    1    1    2  504  506  0.28390392101E+02 -0.15158831229E+03  0.29753952545E+03  0.33513400304E+03  0.00000000000E+00 0. -1.
         21    1    1    2  505  501  0.47121329822E+01  0.21297222450E+03 -0.22689577509E+03  0.31122510400E+03  0.00000000000E+00 0. -1.
         21    1    1    2  506  502 -0.11893388740E+02  0.48654558949E+02 -0.41751803087E+03  0.42051162279E+03  0.00000000000E+00 0. -1.
<scales pt_clust_3="80.71394" pt_clust_4="14000.00000" pt_clust_5="157.79190" pt_clust_6="50.08711"></scales>
<clustering>
<clus scale="   50.087">  2  6  1 -1</clus>
<clus scale="   80.714">  2  3  1 -1</clus>
<clus scale="  157.792">  2  5  1 -1</clus>
<clus scale="  157.792">  1  3  2 -1</clus>
</clustering>
</event>
<event>
 6    0  0.4227619E+002  0.1078269E+03  0.7546771E-02  0.1264648E+00
         21   -1    0    0  503  501  0.00000000000E+00  0.00000000000E+00  0.42929826508E+03  0.42929826508E+03  0.00000000000E+00 0. -1.
         21   -1    0    0  505  502 -0.00000000000E+00 -0.00000000000E+00 -0.29665549060E+04  0.29665549060E+04  0.00000000000E+00 0. -1.
         21    1    1    2  503  506  0.15433760459E+02 -0.40126849191E+02  0.76233941616E+02  0.87521305076E+02  0.00000000000E+00 0. -1.
         21    1    1    2  504  501 -0.84751358727E+02 -0.67544405266E+02  0.29032862162E+03  0.30989635044E+03  0.00000000000E+00 0. -1.
         21    1    1    2  505  504  0.65514570958E+02  0.20807311014E+02 -0.29104260630E+04  0.29112377043E+04  0.00000000000E+00 0. -1.
         21    1    1    2  506  502  0.38030273099E+01  0.86863943444E+02  0.66068588580E+01  0.87197811161E+02  0.00000000000E+00 0. -1.
<scales pt_clust_3="42.99262" pt_clust_4="107.82689" pt_clust_5="68.74240" pt_clust_6="14000.00000"></scales>
<clustering>
<clus scale="   42.993">  1  3  2 -1</clus>
<clus scale="   68.742">  2  5  1 -1</clus>
<clus scale="  107.827">  1  4  2 -1</clus>
<clus scale="   42.993">  1  3  2 -1</clus>
</clustering>
</event>
<event>
 6    0  0.4227619E+002  0.7746419E+02  0.7546771E-02  0.1336406E+00
         21   -1    0    0  505  501  0.00000000000E+00  0.00000000000E+00  0.35417030901E+02  0.35417030901E+02  0.00000000000E+00 0. -1.
         21   -1    0    0  506  502 -0.00000000000E+00 -0.00000000000E+00 -0.13502604959E+04  0.13502604959E+04  0.00000000000E+00 0. -1.
         21    1    1    2  503  502  0.18032573848E+02 -0.34278526365E+02 -0.29069720618E+03  0.29326618756E+03  0.00000000000E+00 0. -1.
         21    1    1    2  504  503  0.24382707620E+02  0.41658293072E+02 -0.75659755524E+03  0.75813573350E+03  0.00000000000E+00 0. -1.
         21    1    1    2  505  504 -0.10344703296E+03  0.28709183642E+02 -0.23050295550E+03  0.25427764028E+03  0.00000000000E+00 0. -1.
         21    1    1    2  506  501  0.61031751494E+02 -0.36088950349E+02 -0.37045748104E+02  0.79997965476E+02  0.00000000000E+00 0. -1.
<scales pt_clust_3="38.73230" pt_clust_4="41.03298" pt_clust_5="77.46419" pt_clust_6="14000.00000"></scales>
<clustering>
<clus scale="   38.732">  2  3  1 -1</clus>
<clus scale="   41.033">  2  4  1 -1</clus>
<clus scale="   77.464">  2  5  1 -1</clus>
<clus scale="   77.464">  1  3  2 -1</clus>
</clustering>
</event>
<event>
 6    0  0.4227619E+002  0.6818914E+02  0.7546771E-02  0.1366361E+00
         21   -1    0    0  506  501  0.00000000000E+00  0.00000000000E+00  0.29473923694E+04  0.29473923694E+04  0.00000000000E+00 0. -1.
         21   -1    0    0  505  502 -0.00000000000E+00 -0.00000000000E+00 -0.72543511741E+02  0.72543511741E+02  0.00000000000E+00 0. -1.
         21    1    1    2  503  504  0.89066835609E+02 -0.17360311089E+02  0.16525687664E+04  0.16550582495E+04  0.00000000000E+00 0. -1.
         21    1    1    2  504  501 -0.28055985813E+02  0.12653838871E+02  0.10395238043E+04  0.10399793256E+04  0.00000000000E+00 0.  1.
         21    1    1    2  505  503  0.41351343164E+02  0.95105287015E+01 -0.52965497773E+02  0.67865511801E+02  0.00000000000E+00 0. -1.
         21    1    1    2  506  502 -0.10236219296E+03 -0.48040564837E+01  0.23572178471E+03  0.25703279420E+03  0.00000000000E+00 0. -1.
<scales pt_clust_3="14000.00000" pt_clust_4="30.77756" pt_clust_5="42.33529" pt_clust_6="68.18914"></scales>
<clustering>
<clus scale="   30.778">  1  4  2 -1</clus>
<clus scale="   42.335">  2  5  1 -1</clus>
<clus scale="   68.189">  2  6  1 -1</clus>
<clus scale="   30.778">  1  3  2 -1</clus>
</clustering>
</event>
<event>
 6    0  0.4227619E+002  0.1181473E+03  0.7546771E-02  0.1246185E+00
         21   -1    0    0  503  501  0.00000000000E+00  0.00000000000E+00  0.11756284687E+03  0.11756284687E+03  0.00000000000E+00 0.  1.
         21   -1    0    0  505  502 -0.00000000000E+00 -0.00000000000E+00 -0.49612178699E+03  0.49612178699E+03  0.00000000000E+00 0.  1.
         21    1    1    2  503  506 -0.54938186555E+02  0.35414930545E+02 -0.55548133828E-01  0.65363787628E+02  0.00000000000E+00 0.  1.
         21    1    1    2  504  501  0.16310007076E+03 -0.73039362103E+02 -0.47367500692E+02  0.18487850502E+03  0.00000000000E+00 0.  1.
         21    1    1    2  505  504 -0.33006630722E+02 -0.14580616401E+02 -0.20184342870E+03  0.20504341432E+03  0.00000000000E+00 0.  1.
         21    1    1    2  506  502 -0.75155253480E+02  0.52205047960E+02 -0.12929246259E+03  0.15839892689E+03  0.00000000000E+00 0.  1.
<scales pt_clust_3="67.66520" pt_clust_4="14000.00000" pt_clust_5="36.08368" pt_clust_6="118.14732"></scales>
<clustering>
<clus scale="   36.084">  2  5  1 -1</clus>
<clus scale="   67.665">  1  3  2 -1</clus>
<clus scale="  118.147">  2  6  1 -1</clus>
<clus scale="   67.665">  1  3  2 -1</clus>
</clustering>
</event>
<event>
 6    0  0.4227619E+002  0.9090945E+02  0.7546771E-02  0.1300664E+00
         21   -1    0    0  505  501  0.00000000000E+00  0.00000000000E+00  0.22357067815E+03  0.22357067815E+03  0.00000000000E+00 0. -1.
         21   -1    0    0  504  502 -0.00000000000E+00 -0.00000000000E+00 -0.68322550612E+03  0.68322550612E+03  0.00000000000E+00 0. -1.
         21    1    1    2  503  502 -0.87309014230E+02 -0.13334663433E+02 -0.38652956966E+03  0.39649184788E+03  0.00000000000E+00 0. -1.
         21    1    1    2  504  506  0.97489678542E+02 -0.32734395271E+02 -0.27593352328E+03  0.29447425579E+03  0.00000000000E+00 0. -1.
         21    1    1    2  505  503  0.22231363219E+02  0.20456829653E+02  0.11313052428E+03  0.11709496536E+03  0.00000000000E+00 0. -1.
         21    1    1    2  506  501 -0.32412027531E+02  0.25612229052E+02  0.89677740694E+02  0.98735115241E+02  0.00000000000E+00 0.  1.
<scales pt_clust_3="90.90945" pt_clust_4="14000.00000" pt_clust_5="30.21118" pt_clust_6="45.31635"></scales>
<clustering>
<clus scale="   30.211">  1  5  2 -1</clus>
<clus scale="   45.316">  1  6  2 -1</clus>
<clus scale="   90.909">  2  3  1 -1</clus>
<clus scale="   30.211">  1  3  2 -1</clus>
</clustering>
</event>
<event>
 6    0  0.4227619E+002  0.1295516E+03  0.7546771E-02  0.1228123E+00
         21   -1    0    0  506  501  0.00000000000E+00  0.00000000000E+00  0.53381035906E+03  0.53381035906E+03  0.00000000000E+00 0.  1.
         21   -1    0    0  505  502 -0.00000000000E+00 -0.00000000000E+00 -0.68899128009E+02  0.68899128009E+02  0.00000000000E+00 0.  1.
         21    1    1    2  503  501  0.38188828419E+02 -0.10186256721E+03  0.36297100758E+03  0.37892257990E+03  0.00000000000E+00 0.  1.
         21    1    1    2  504  503  0.19650343035E+02  0.30738936514E+02  0.42566110216E+02  0.56061501392E+02  0.00000000000E+00 0.  1.
         21    1    1    2  505  504 -0.33692007132E+02  0.10648208116E+03  0.55551634771E+02  0.12473800174E+03  0.00000000000E+00 0.  1.
         21    1    1    2  506  502 -0.24147164323E+02 -0.35358450468E+02  0.38224784867E+01  0.42987404040E+02  0.00000000000E+00 0.  1.
<scales pt_clust_3="112.91158" pt_clust_4="36.30346" pt_clust_5="36.30346" pt_clust_6="42.81712"></scales>
<clustering>
<clus scale="   36.303">  4  5 -1 -1</clus>
<clus scale="   42.817">  2  6  1 -1</clus>
<clus scale="  112.912">  1  3  2 -1</clus>
<clus scale="  112.912">  1  3  2 -1</clus>
</clustering>
</event>
<event>
 6    0  0.4227619E+002  0.1441605E+03  0.7546771E-02  0.1207838E+00
         21   -1    0    0  506  501  0.00000000000E+00  0.00000000000E+00  0.10714540487E+04  0.10714540487E+04  0.00000000000E+00 0. -1.
         21   -1    0    0  505  502 -0.00000000000E+00 -0.00000000000E+00 -0.23473651018E+03  0.23473651018E+03  0.00000000000E+00 0.  1.
         21    1    1    2  503  502  0.11561817465E+03  0.12929584594E+02  0.10763054696E+03  0.15848997162E+03  0.00000000000E+00 0. -1.
         21    1    1    2  504  501  0.87622377799E+02  0.69984185756E+02  0.76984252132E+03  0.77796720687E+03  0.00000000000E+00 0. -1.
         21    1    1    2  505  504 -0.14172283684E+03 -0.51600120546E+02 -0.16750772273E+03  0.22540357604E+03  0.00000000000E+00 0.  1.
         21    1    1    2  506  503 -0.61517715615E+02 -0.31313649804E+02  0.12675219299E+03  0.14432980436E+03  0.00000000000E+00 0. -1.
<scales pt_clust_3="14000.00000" pt_clust_4="57.40064" pt_clust_5="144.16046" pt_clust_6="69.02879"></scales>
<clustering>
<clus scale="   69.029">  1  6  2 -1</clus>
<clus scale="   57.401">  1  4  2 -1</clus>
<clus scale="  144.160">  2  5  1 -1</clus>
<clus scale="   69.029">  1  3  2 -1</clus>
</clustering>
</event>
<event>
 6    0  0.4227619E+002  0.1299385E+03  0.7546771E-02  0.1227547E+00
         21   -1    0    0  503  501  0.00000000000E+00  0.00000000000E+00  0.20656351256E+03  0.20656351256E+03  0.00000000000E+00 0. -1.
         21   -1    0    0  506  502 -0.00000000000E+00 -0.00000000000E+00 -0.74152651718E+03  0.74152651718E+03  0.00000000000E+00 0. -1.
         21    1    1    2  503  502  0.11747229682E+03  0.97248757493E+02 -0.52565778423E+01  0.15259322713E+03  0.00000000000E+00 0. -1.
         21    1    1    2  504  505 -0.10738955955E+03 -0.14231900114E+03 -0.13548915125E+03  0.22392973382E+03  0.00000000000E+00 0. -1.
         21    1    1    2  505  501 -0.48894019510E+02 -0.70997679757E+02  0.57461965077E+02  0.10360102849E+03  0.00000000000E+00 0. -1.
         21    1    1    2  506  504  0.38811282238E+02  0.11606792340E+03 -0.45167924061E+03  0.46796604030E+03  0.00000000000E+00 0. -1.
<scales pt_clust_3="104.92800" pt_clust_4="14000.00000" pt_clust_5="86.20496" pt_clust_6="129.93853"></scales>
<clustering>
<clus scale="   86.205">  1  5  2 -1</clus>
<clus scale="  104.928">  1  3  2 -1</clus>
<clus scale="  129.939">  2  6  1 -1</clus>
<clus scale="   86.205">  1  3  2 -1</clus>
</clustering>
</event>
<event>
 6    0  0.4227619E+002  0.1026711E+03  0.7546771E-02  0.1274777E+00
         21   -1    0    0  502  501  0.00000000000E+00  0.00000000000E+00  0.55592685684E+03  0.55592685684E+03  0.00000000000E+00 0. -1.
         21   -1    0    0  504  502 -0.00000000000E+00 -0.00000000000E+00 -0.43792436881E+02  0.43792436881E+02  0.00000000000E+00 0. -1.
         21    1    1    2  503  501  0.27586990032E+02  0.40699051444E+02  0.11101540002E+03  0.12141611857E+03  0.00000000000E+00 0.  1.
         21    1    1    2  504  505 -0.17223570958E+02 -0.37375784099E+02  0.54854297722E+02  0.68575466547E+02  0.00000000000E+00 0. -1.
         21    1    1    2  505  506 -0.10113864897E+03  0.69041812452E+01  0.82849773677E+02  0.13092279799E+03  0.00000000000E+00 0. -1.
         21    1    1    2  506  503  0.90775229900E+02 -0.10227448590E+02  0.26341494854E+03  0.27880491061E+03  0.00000000000E+00 0. -1.
<scales pt_clust_3="43.46075" pt_clust_4="41.15338" pt_clust_5="102.67108" pt_clust_6="14000.00000"></scales>
<clustering>
<clus scale="   41.153">  2  4  1 -1</clus>
<clus scale="   43.461">  1  3  2 -1</clus>
<clus scale="  102.671">  2  5  1 -1</clus>
<clus scale="   43.461">  1  3  2 -1</clus>
</clustering>
</event>
<event>
 6    0  0.1630885E+003  0.1142555E+03  0.7546771E-02  0.1252886E+00
         21   -1    0    0  505  501  0.00000000000E+00  0.00000000000E+00  0.12804024752E+04  0.12804024752E+04  0.00000000000E+00 0.  1.
         21   -1    0    0  506  502 -0.00000000000E+00 -0.00000000000E+00 -0.48811882378E+03  0.48811882378E+03  0.00000000000E+00 0.  1.
         21    1    1    2  503  501 -0.39669738607E+02 -0.15116544108E+02  0.32677868580E+02  0.53572765113E+02  0.00000000000E+00 0. -1.
         21    1    1    2  504  502  0.45358528977E+00  0.55993192295E+02 -0.50489136765E+02  0.75396261540E+02  0.00000000000E+00 0. -1.
         21    1    1    2  505  504 -0.72194438949E+02  0.39762111882E+02  0.12119833839E+04  0.12147826083E+04  0.00000000000E+00 0.  1.
         21    1    1    2  506  503  0.11141059227E+03 -0.80638760069E+02 -0.40188846433E+03  0.42476966400E+03  0.00000000000E+00 0.  1.
<scales pt_clust_3="42.45230" pt_clust_4="55.84107" pt_clust_5="114.25554" pt_clust_6="14000.00000"></scales>
<clustering>
<clus scale="   42.452">  1  3  2 -1</clus>
<clus scale="   55.841">  2  4  1 -1</clus>
<clus scale="  114.256">  1  5  2 -1</clus>
<clus scale="   42.452">  1  3  2 -1</clus>
</clustering>
</event>
<event>
 6    0  0.4227619E+002  0.8980168E+02  0.7546771E-02  0.1303333E+00
         21   -1    0    0  503  501  0.00000000000E+00  0.00000000000E+00  0.33022749622E+03  0.33022749622E+03  0.00000000000E+00 0. -1.
         21   -1    0    0  504  502 -0.00000000000E+00 -0.00000000000E+00 -0.16619937255E+03  0.16619937255E+03  0.00000000000E+00 0.  1.
         21    1    1    2  503  502 -0.61548314124E+02  0.43569865007E+02 -0.11452254975E+03  0.13712017543E+03  0.00000000000E+00 0.  1.
         21    1    1    2  504  506  0.14615588380E+02 -0.62131169843E+02  0.28619851137E+02  0.69949936160E+02  0.00000000000E+00 0. -1.
         21    1    1    2  505  501  0.63391262055E+01  0.71059419983E+02  0.17654927489E+03  0.19041867596E+03  0.00000000000E+00 0. -1.
         21    1    1    2  506  505  0.40593599538E+02 -0.52498115147E+02  0.73381547386E+02  0.98938081213E+02  0.00000000000E+00 0. -1.
<scales pt_clust_3="78.31598" pt_clust_4="43.09519" pt_clust_5="71.34161" pt_clust_6="43.09519"></scales>
<clustering>
<clus scale="   43.095">  4  6 -1 -1</clus>
<clus scale="   71.342">  1  5  2 -1</clus>
<clus scale="   78.316">  2  3  1 -1</clus>
<clus scale="   71.342">  1  3  2 -1</clus>
</clustering>
</event>
<event>
 6    0  0.4227619E+002  0.7369124E+02  0.7546771E-02  0.1347972E+00
         21   -1    0    0  505  501  0.00000000000E+00  0.00000000000E+00  0.14852106130E+03  0.14852106130E+03  0.00000000000E+00 0. -1.
         21   -1    0    0  503  502 -0.00000000000E+00 -0.00000000000E+00 -0.13673515623E+03  0.13673515623E+03  0.00000000000E+00 0. -1.
         21    1    1    2  503  506 -0.66165420863E+02 -0.53485359174E+02 -0.15206799118E+02  0.86427965979E+02  0.00000000000E+00 0. -1.
         21    1    1    2  504  502  0.71208109122E+02  0.59461246130E+00 -0.24667614619E+01  0.71253303649E+02  0.00000000000E+00 0. -1.
         21    1    1    2  505  504 -0.32167756905E+02  0.69379816688E+02 -0.97867112779E+01  0.77098010776E+02  0.00000000000E+00 0. -1.
         21    1    1    2  506  501  0.27125068645E+02 -0.16489069975E+02  0.39246176931E+02  0.50476937123E+02  0.00000000000E+00 0. -1.
<scales pt_clust_3="73.69124" pt_clust_4="14000.00000" pt_clust_5="68.15490" pt_clust_6="31.74364"></scales>
<clustering>
<clus scale="   31.744">  1  6  2 -1</clus>
<clus scale="   68.155">  1  5  2 -1</clus>
<clus scale="   73.691">  1  3  2 -1</clus>
<clus scale="   31.744">  1  3  2 -1</clus>
</clustering>
</event>
<event>
 6    0  0.4227619E+002  0.1669922E+03  0.7546771E-02  0.1181021E+00
         21   -1    0    0  503  501  0.00000000000E+00  0.00000000000E+00  0.15416443407E+04  0.15416443407E+04  0.00000000000E+00 0.  1.
         21   -1    0    0  504  502 -0.00000000000E+00 -0.00000000000E+00 -0.12731772715E+04  0.12731772715E+04  0.00000000000E+00 0.  1.
         21    1    1    2  503  505 -0.37414382916E+02  0.15679013746E+01  0.14773530868E+04  0.14778276075E+04  0.00000000000E+00 0.  1.
         21    1    1    2  504  501  0.12771279929E+03  0.14575419603E+03 -0.94031854624E+03  0.96008010769E+03  0.00000000000E+00 0.  1.
         21    1    1    2  505  506 -0.12423386523E+03 -0.69651135306E+02 -0.65300964921E+02  0.15668295995E+03  0.00000000000E+00 0. -1.
         21    1    1    2  506  502  0.33935448851E+02 -0.77670962103E+02 -0.20326650635E+03  0.22023093707E+03  0.00000000000E+00 0.  1.
<scales pt_clust_3="37.44722" pt_clust_4="14000.00000" pt_clust_5="166.99217" pt_clust_6="82.70709"></scales>
<clustering>
<clus scale="   37.447">  1  3  2 -1</clus>
<clus scale="   82.707">  2  6  1 -1</clus>
<clus scale="  166.992">  1  5  2 -1</clus>
<clus scale="   37.447">  1  3  2 -1</clus>
</clustering>
</event>
<event>
 6    0  0.4227619E+002  0.9712290E+02  0.7546771E-02  0.1286465E+00
         21   -1    0    0  505  501  0.00000000000E+00  0.00000000000E+00  0.97866528866E+03  0.97866528866E+03  0.00000000000E+00 0.  1.
         21   -1    0    0  503  502 -0.00000000000E+00 -0.00000000000E+00 -0.13914213629E+03  0.13914213629E+03  0.00000000000E+00 0.  1.
         21    1    1    2  503  501 -0.35519733002E+02 -0.19682525796E+02 -0.95787091942E+02  0.10403951286E+03  0.00000000000E+00 0.  1.
         21    1    1    2  504  502  0.36786485542E+02 -0.47099909098E+02  0.63817685254E+01  0.60103027587E+02  0.00000000000E+00 0.  1.
         21    1    1    2  505  506 -0.69703593204E+02  0.90700006157E+02  0.77643442244E+03  0.78481557985E+03  0.00000000000E+00 0.  1.
         21    1    1    2  506  504  0.68436840663E+02 -0.23917571263E+02  0.15249405335E+03  0.16884930465E+03  0.00000000000E+00 0.  1.
<scales pt_clust_3="40.60854" pt_clust_4="61.84614" pt_clust_5="14000.00000" pt_clust_6="97.12290"></scales>
<clustering>
<clus scale="   40.609">  2  3  1 -1</clus>
<clus scale="   61.846">  2  4  1 -1</clus>
<clus scale="   97.123">  2  6  1 -1</clus>
<clus scale="   97.123">  1  3  2 -1</clus>
</clustering>
</event>
<event>
 6    0  0.4227619E+002  0.1364826E+03  0.7546771E-02  0.1218142E+00
         21   -1    0    0  505  501  0.00000000000E+00  0.00000000000E+00  0.18735584360E+04  0.18735584360E+04  0.00000000000E+00 0.  1.
         21   -1    0    0  503  502 -0.00000000000E+00 -0.00000000000E+00 -0.35234112011E+03  0.35234112011E+03  0.00000000000E+00 0. -1.
         21    1    1    2  503  506 -0.33645963024E+02  0.23833448611E+02 -0.32572334448E+03  0.32832267853E+03  0.00000000000E+00 0. -1.
         21    1    1    2  504  502 -0.23195406749E+02 -0.17260480390E+03  0.11504348098E+04  0.11635423056E+04  0.00000000000E+00 0.  1.
         21    1    1    2  505  504  0.60052978801E+02  0.36032820403E+02  0.51916796921E+03  0.52387031283E+03  0.00000000000E+00 0.  1.
         21    1    1    2  506  501 -0.32116090283E+01  0.11273853489E+03  0.17733788136E+03  0.21016425920E+03  0.00000000000E+00 0.  1.
<scales pt_clust_3="41.23208" pt_clust_4="14000.00000" pt_clust_5="68.58289" pt_clust_6="136.48264"></scales>
<clustering>
<clus scale="   41.232">  2  3  1 -1</clus>
<clus scale="   68.583">  1  5  2 -1</clus>
<clus scale="  136.483">  2  6  1 -1</clus>
<clus scale="   68.583">  1  3  2 -1</clus>
</clustering>
</event>
<event>
 6    0  0.4227619E+002  0.1663758E+03  0.7546771E-02  0.1181681E+00
         21   -1    0    0  502  501  0.00000000000E+00  0.00000000000E+00  0.78813585674E+03  0.78813585674E+03  0.00000000000E+00 0. -1.
         21   -1    0    0  505  502 -0.00000000000E+00 -0.00000000000E+00 -0.21964931510E+03  0.21964931510E+03  0.00000000000E+00 0.  1.
         21    1    1    2  503  501 -0.13825619962E+03 -0.69428876623E+02  0.71499323088E+03  0.73153979102E+03  0.00000000000E+00 0. -1.
         21    1    1    2  504  503  0.61408678581E+02  0.14679074074E+02 -0.17250968148E+01  0.63162306637E+02  0.00000000000E+00 0.  1.
         21    1    1    2  505  506  0.55028205712E+02 -0.16037997184E+02 -0.12327690495E+03  0.13595041770E+03  0.00000000000E+00 0.  1.
         21    1    1    2  506  504  0.21819315324E+02  0.70787799734E+02 -0.21504687472E+02  0.77132656480E+02  0.00000000000E+00 0. -1.
<scales pt_clust_3="150.89514" pt_clust_4="69.72735" pt_clust_5="57.31772" pt_clust_6="69.72735"></scales>
<clustering>
<clus scale="   57.318">  2  5  1 -1</clus>
<clus scale="   69.727">  4  6 -1 -1</clus>
<clus scale="  150.895">  1  3  2 -1</clus>
<clus scale="  150.895">  1  3  2 -1</clus>
</clustering>
</event>
<event>
 6    0  0.4227619E+002  0.8541381E+02  0.7546771E-02  0.1314354E+00
         21   -1    0    0  503  501  0.00000000000E+00  0.00000000000E+00  0.54112936423E+02  0.54112936423E+02  0.00000000000E+00 0. -1.
         21   -1    0    0  504  502 -0.00000000000E+00 -0.00000000000E+00 -0.12802660269E+04  0.12802660269E+04  0.00000000000E+00 0. -1.
         21    1    1    2  503  506 -0.26582109488E+02 -0.64246637972E+02 -0.14642278519E+03  0.16209216840E+03  0.00000000000E+00 0. -1.
         21    1    1    2  504  501 -0.34689577228E+01  0.10015562002E+03 -0.26512191545E+02  0.10366329240E+03  0.00000000000E+00 0. -1.
         21    1    1    2  505  502 -0.73503121990E+02 -0.14964835944E+02 -0.45782638222E+03  0.46393065377E+03  0.00000000000E+00 0. -1.
         21    1    1    2  506  505  0.10355418920E+03 -0.20944146108E+02 -0.59539173155E+03  0.60469284877E+03  0.00000000000E+00 0. -1.
<scales pt_clust_3="69.52869" pt_clust_4="53.18372" pt_clust_5="85.41381" pt_clust_6="14000.00000"></scales>
<clustering>
<clus scale="   69.529">  1  3  2 -1</clus>
<clus scale="   53.184">  1  4  2 -1</clus>
<clus scale="   85.414">  2  5  1 -1</clus>
<clus scale="   69.529">  1  3  2 -1</clus>
</clustering>
</event>
<event>
 6    0  0.5645040E+002  0.5638130E+02  0.7546771E-02  0.1413677E+00
         21   -1    0    0  505  501  0.00000000000E+00  0.00000000000E+00  0.14437120136E+03  0.14437120136E+03  0.00000000000E+00 0. -1.
         21   -1    0    0  503  502 -0.00000000000E+00 -0.00000000000E+00 -0.12829385018E+04  0.12829385018E+04  0.00000000000E+00 0. -1.
         21    1    1    2  503  504 -0.32464545075E+02 -0.35041888365E+02 -0.94626844032E+02  0.10600056716E+03  0.00000000000E+00 0. -1.
         21    1    1    2  504  501  0.87272503503E+02  0.85994284305E+02 -0.93758664884E+03  0.94555815838E+03  0.00000000000E+00 0. -1.
         21    1    1    2  505  506 -0.53753372107E+02 -0.15903947986E+02  0.12750215034E+03  0.13928086342E+03  0.00000000000E+00 0. -1.
         21    1    1    2  506  502 -0.10545863214E+01 -0.35048447954E+02 -0.23385595791E+03  0.23647011419E+03  0.00000000000E+00 0. -1.
<scales pt_clust_3="50.34753" pt_clust_4="56.38130" pt_clust_5="14000.00000" pt_clust_6="35.06431"></scales>
<clustering>
<clus scale="   35.064">  2  6  1 -1</clus>
<clus scale="   50.348">  2  3  1 -1</clus>
<clus scale="   56.381">  2  4  1 -1</clus>
<clus scale="   56.381">  1  3  2 -1</clus>
</clustering>
</event>
<event>
 6    0  0.4227619E+002  0.1578078E+03  0.7546771E-02  0.1191194E+00
         21   -1    0    0  506  501  0.00000000000E+00  0.00000000000E+00  0.11516859584E+04  0.11516859584E+04  0.00000000000E+00 0.  1.
         21   -1    0    0  503  502 -0.00000000000E+00 -0.00000000000E+00 -0.15020467009E+03  0.15020467009E+03  0.00000000000E+00 0. -1.
         21    1    1    2  503  504 -0.29049023470E+02 -0.87119725425E+02 -0.96537582987E+02  0.13324112448E+03  0.00000000000E+00 0. -1.
         21    1    1    2  504  501  0.13728638162E+03  0.91708613679E+02  0.10074155189E+04  0.10208545676E+04  0.00000000000E+00 0.  1.
         21    1    1    2  505  502 -0.70090005831E+02 -0.34033498616E+01  0.30313343239E+02  0.76440110452E+02  0.00000000000E+00 0. -1.
         21    1    1    2  506  505 -0.38147352318E+02 -0.11855383920E+01  0.60290009210E+02  0.71354826051E+02  0.00000000000E+00 0. -1.
<scales pt_clust_3="91.83514" pt_clust_4="151.67503" pt_clust_5="32.12924" pt_clust_6="32.12924"></scales>
<clustering>
<clus scale="   32.129">  5  6 -1 -1</clus>
<clus scale="   91.835">  2  3  1 -1</clus>
<clus scale="  151.675">  1  4  2 -1</clus>
<clus scale="  151.675">  1  3  2 -1</clus>
</clustering>
</event>
<event>
 6    0  0.4227619E+002  0.7235235E+02  0.7546771E-02  0.1352272E+00
         21   -1    0    0  505  501  0.00000000000E+00  0.00000000000E+00  0.98889024441E+03  0.98889024441E+03  0.00000000000E+00 0. -1.
         21   -1    0    0  506  502 -0.00000000000E+00 -0.00000000000E+00 -0.30594582006E+02  0.30594582006E+02  0.00000000000E+00 0. -1.
         21    1    1    2  503  502 -0.82828482714E+02  0.24547723678E+02  0.20993732940E+03  0.22701724728E+03  0.00000000000E+00 0. -1.
         21    1    1    2  504  501  0.61606180343E+02  0.17514207691E+01  0.42454654806E+03  0.42899669043E+03  0.00000000000E+00 0. -1.
         21    1    1    2  505  503 -0.21978475305E+02  0.31136131608E+02  0.27252992727E+03  0.27518189135E+03  0.00000000000E+00 0. -1.
         21    1    1    2  506  504  0.43200777676E+02 -0.57435276055E+02  0.51281857668E+02  0.88288997351E+02  0.00000000000E+00 0. -1.
<scales pt_clust_3="14000.00000" pt_clust_4="52.57972" pt_clust_5="38.11184" pt_clust_6="72.35235"></scales>
<clustering>
<clus scale="   38.112">  1  5  2 -1</clus>
<clus scale="   52.580">  1  4  2 -1</clus>
<clus scale="   72.352">  2  6  1 -1</clus>
<clus scale="   38.112">  1  3  2 -1</clus>
</clustering>
</event>
<event>
 6    0  0.4227619E+002  0.1806382E+03  0.7546771E-02  0.1167187E+00
         21   -1    0    0  505  501  0.00000000000E+00  0.00000000000E+00  0.14144590084E+03  0.14144590084E+03  0.00000000000E+00 0.  1.
         21   -1    0    0  501  502 -0.00000000000E+00 -0.00000000000E+00 -0.12253629558E+04  0.12253629558E+04  0.00000000000E+00 0.  1.
         21    1    1    2  503  502  0.44237956549E+02 -0.21492031708E+02 -0.60049738608E+03  0.60250810361E+03  0.00000000000E+00 0.  1.
         21    1    1    2  504  503  0.49653471866E+02  0.73173618604E+01 -0.35440488419E+03  0.35794110269E+03  0.00000000000E+00 0.  1.
         21    1    1    2  505  506 -0.21528562751E+03  0.17431281357E+02  0.16748506279E+02  0.21663855484E+03  0.00000000000E+00 0.  1.
         21    1    1    2  506  504  0.12139419909E+03 -0.32566115096E+01 -0.14576329100E+03  0.18972109555E+03  0.00000000000E+00 0.  1.
<scales pt_clust_3="39.69306" pt_clust_4="103.07440" pt_clust_5="14000.00000" pt_clust_6="180.63819"></scales>
<clustering>
<clus scale="   39.693">  3  4 -1 -1</clus>
<clus scale="  103.074">  2  3  1 -1</clus>
<clus scale="  180.638">  2  6  1 -1</clus>
<clus scale="  180.638">  1  3  2 -1</clus>
</clustering>
</event>
<event>
 6    0  0.4227619E+002  0.1894699E+03  0.7546771E-02  0.1158940E+00
         21   -1    0    0  505  501  0.00000000000E+00  0.00000000000E+00  0.22684912363E+03  0.22684912363E+03  0.00000000000E+00 0.  1.
         21   -1    0    0  503  502 -0.00000000000E+00 -0.00000000000E+00 -0.12671390329E+04  0.12671390329E+04  0.00000000000E+00 0. -1.
         21    1    1    2  503  504  0.38548787198E+02  0.28577205501E+02 -0.41145657631E+03  0.41424531362E+03  0.00000000000E+00 0. -1.
         21    1    1    2  504  506  0.14661297136E+03 -0.96021801633E+02 -0.26468104065E+03  0.31744543317E+03  0.00000000000E+00 0. -1.
         21    1    1    2  505  502 -0.15406604356E+03  0.13415309776E+03 -0.53693902980E+03  0.57448839948E+03  0.00000000000E+00 0. -1.
         21    1    1    2  506  501 -0.31095714995E+02 -0.66708501624E+02  0.17278673749E+03  0.18780901025E+03  0.00000000000E+00 0.  1.
<scales pt_clust_3="47.98610" pt_clust_4="189.46992" pt_clust_5="14000.00000" pt_clust_6="73.22940"></scales>
<clustering>
<clus scale="   47.986">  2  3  1 -1</clus>
<clus scale="   73.229">  1  6  2 -1</clus>
<clus scale="  189.470">  1  4  2 -1</clus>
<clus scale="   73.229">  1  3  2 -1</clus>
</clustering>
</event>
<event>
 6    0  0.4227619E+002  0.9972839E+02  0.7546771E-02  0.1280868E+00
         21   -1    0    0  503  501  0.00000000000E+00  0.00000000000E+00  0.66243484645E+03  0.66243484645E+03  0.00000000000E+00 0. -1.
         21   -1    0    0  506  502 -0.00000000000E+00 -0.00000000000E+00 -0.88216863587E+03  0.88216863587E+03  0.00000000000E+00 0. -1.
         21    1    1    2  503  504 -0.32881294856E+02  0.47978231356E+02  0.55906685563E+03  0.56208437026E+03  0.00000000000E+00 0. -1.
         21    1    1    2  504  502  0.10569568733E+03 -0.88136654225E+02 -0.82594012654E+03  0.83732714082E+03  0.00000000000E+00 0. -1.
         21    1    1    2  505  501 -0.49423788692E+02  0.94021729813E+01  0.79975798195E+02  0.94484072956E+02  0.00000000000E+00 0.  1.
         21    1    1    2  506  505 -0.23390603783E+02  0.30756249887E+02 -0.32836316714E+02  0.50707898278E+02  0.00000000000E+00 0. -1.
<scales pt_clust_3="99.72839" pt_clust_4="14000.00000" pt_clust_5="50.55861" pt_clust_6="38.64023"></scales>
<clustering>
<clus scale="   38.640">  2  6  1 -1</clus>
<clus scale="   50.559">  1  5  2 -1</clus>
<clus scale="   99.728">  1  3  2 -1</clus>
<clus scale="   50.559">  1  3  2 -1</clus>
</clustering>
</event>
<event>
 6    0  0.4227619E+002  0.2161733E+03  0.7546771E-02  0.1136769E+00
         21   -1    0    0  505  501  0.00000000000E+00  0.00000000000E+00  0.25454282689E+03  0.25454282689E+03  0.00000000000E+00 0.  1.
         21   -1    0    0  503  502 -0.00000000000E+00 -0.00000000000E+00 -0.48581964393E+03  0.48581964393E+03  0.00000000000E+00 0.  1.
         21    1    1    2  503  504  0.24246440980E+03  0.67904487311E+02 -0.18948592156E+03  0.31512683778E+03  0.00000000000E+00 0.  1.
         21    1    1    2  504  501 -0.57272474585E+02  0.38417162816E+02  0.63524876442E+02  0.93762597398E+02  0.00000000000E+00 0.  1.
         21    1    1    2  505  506 -0.60500059432E+01 -0.37016328337E+02  0.64812159600E+02  0.74882756142E+02  0.00000000000E+00 0.  1.
         21    1    1    2  506  502 -0.17914192927E+03 -0.69305321790E+02 -0.17012793152E+03  0.25659027950E+03  0.00000000000E+00 0.  1.
<scales pt_clust_3="14000.00000" pt_clust_4="63.99317" pt_clust_5="37.50748" pt_clust_6="216.17332"></scales>
<clustering>
<clus scale="   37.507">  1  5  2 -1</clus>
<clus scale="   63.993">  1  4  2 -1</clus>
<clus scale="  216.173">  2  6  1 -1</clus>
<clus scale="   37.507">  1  3  2 -1</clus>
</clustering>
</event>
<event>
 6    0  0.4227619E+002  0.1141098E+03  0.7546771E-02  0.1253143E+00
         21   -1    0    0  505  501  0.00000000000E+00  0.00000000000E+00  0.24842413933E+03  0.24842413933E+03  0.00000000000E+00 0.  1.
         21   -1    0    0  503  502 -0.00000000000E+00 -0.00000000000E+00 -0.70487026838E+03  0.70487026838E+03  0.00000000000E+00 0.  1.
         21    1    1    2  503  504  0.95058617745E+00 -0.35905669695E+02 -0.80207336744E+02  0.87882521572E+02  0.00000000000E+00 0.  1.
         21    1    1    2  504  506  0.10312572833E+03  0.16552022023E+02  0.14632248277E+03  0.17977528819E+03  0.00000000000E+00 0.  1.
         21    1    1    2  505  502 -0.11406544400E+03  0.55287207172E+02 -0.59275118915E+03  0.60615309373E+03  0.00000000000E+00 0.  1.
         21    1    1    2  506  501  0.99891294881E+01 -0.35933559499E+02  0.70189914070E+02  0.79483504222E+02  0.00000000000E+00 0. -1.
<scales pt_clust_3="35.91825" pt_clust_4="14000.00000" pt_clust_5="114.10983" pt_clust_6="37.55705"></scales>
<clustering>
<clus scale="   35.918">  2  3  1 -1</clus>
<clus scale="   37.557">  1  6  2 -1</clus>
<clus scale="  114.110">  2  5  1 -1</clus>
<clus scale="   37.557">  1  3  2 -1</clus>
</clustering>
</event>
<event>
 6    0  0.4227619E+002  0.8730834E+02  0.7546771E-02  0.1309504E+00
         21   -1    0    0  505  501  0.00000000000E+00  0.00000000000E+00  0.71773225947E+03  0.71773225947E+03  0.00000000000E+00 0.  1.
         21   -1    0    0  506  502 -0.00000000000E+00 -0.00000000000E+00 -0.14239001741E+03  0.14239001741E+03  0.00000000000E+00 0. -1.
         21    1    1    2  503  501  0.45998527234E+02 -0.61409154760E+01  0.15948759890E+03  0.16610198540E+03  0.00000000000E+00 0. -1.
         21    1    1    2  504  503  0.14578607655E+02 -0.12294292788E+03  0.26338759998E+03  0.29103354986E+03  0.00000000000E+00 0.  1.
         21    1    1    2  505  502 -0.67297740631E+02  0.43934078452E+02  0.25625993180E+03  0.26856720163E+03  0.00000000000E+00 0.  1.
         21    1    1    2  506  504  0.67206057426E+01  0.85149764909E+02 -0.10379288862E+03  0.13441954000E+03  0.00000000000E+00 0. -1.
<scales pt_clust_3="46.40663" pt_clust_4="87.30834" pt_clust_5="61.30214" pt_clust_6="14000.00000"></scales>
<clustering>
<clus scale="   46.407">  1  3  2 -1</clus>
<clus scale="   61.302">  1  5  2 -1</clus>
<clus scale="   87.308">  1  4  2 -1</clus>
<clus scale="   46.407">  1  3  2 -1</clus>
</clustering>
</event>
<event>
 6    0  0.4227619E+002  0.7328272E+02  0.7546771E-02  0.1349273E+00
         21   -1    0    0  506  501  0.00000000000E+00  0.00000000000E+00  0.13611556033E+04  0.13611556033E+04  0.00000000000E+00 0. -1.
         21   -1    0    0  503  502 -0.00000000000E+00 -0.00000000000E+00 -0.31719744384E+02  0.31719744384E+02  0.00000000000E+00 0. -1.
         21    1    1    2  503  504  0.56917852280E+02 -0.53875410631E+02  0.76917514189E+02  0.10981122788E+03  0.00000000000E+00 0. -1.
         21    1    1    2  504  501 -0.95361397627E+02 -0.45514361153E+02  0.26915603501E+03  0.28915449920E+03  0.00000000000E+00 0. -1.
         21    1    1    2  505  502 -0.61885367130E+01  0.45734580140E+02  0.13478980917E+03  0.14247190061E+03  0.00000000000E+00 0. -1.
         21    1    1    2  506  505  0.44632082060E+02  0.53655191645E+02  0.84857250060E+03  0.85143772004E+03  0.00000000000E+00 0. -1.
<scales pt_clust_3="59.67151" pt_clust_4="14000.00000" pt_clust_5="46.15138" pt_clust_6="73.28272"></scales>
<clustering>
<clus scale="   46.151">  2  5  1 -1</clus>
<clus scale="   59.672">  2  3  1 -1</clus>
<clus scale="   73.283">  1  6  2 -1</clus>
<clus scale="   73.283">  1  3  2 -1</clus>
</clustering>
</event>
<event>
 6    0  0.4227619E+002  0.1611820E+03  0.7546771E-02  0.1187369E+00
         21   -1    0    0  503  501  0.00000000000E+00  0.00000000000E+00  0.85813910932E+03  0.85813910932E+03  0.00000000000E+00 0.  1.
         21   -1    0    0  505  502 -0.00000000000E+00 -0.00000000000E+00 -0.20650608107E+03  0.20650608107E+03  0.00000000000E+00 0.  1.
         21    1    1    2  503  502  0.15108787461E+03 -0.27463221129E+02  0.17052489901E+02  0.15450748131E+03  0.00000000000E+00 0.  1.
         21    1    1    2  504  506 -0.52151428723E+02  0.17001845910E+03 -0.30996633295E+02  0.18051825179E+03  0.00000000000E+00 0.  1.
         21    1    1    2  505  504 -0.41004771010E+02  0.96096621082E+01 -0.23034742780E+01  0.42178701321E+02  0.00000000000E+00 0.  1.
         21    1    1    2  506  501 -0.57931674877E+02 -0.15216490008E+03  0.66788064593E+03  0.68744075597E+03  0.00000000000E+00 0.  1.
<scales pt_clust_3="137.87738" pt_clust_4="14000.00000" pt_clust_5="42.11576" pt_clust_6="161.18195"></scales>
<clustering>
<clus scale="   42.116">  2  5  1 -1</clus>
<clus scale="  137.877">  2  3  1 -1</clus>
<clus scale="  161.182">  1  6  2 -1</clus>
<clus scale="  161.182">  1  3  2 -1</clus>
</clustering>
</event>
<event>
 6    0  0.4227619E+002  0.1280788E+03  0.7546771E-02  0.1230335E+00
         21   -1    0    0  504  501  0.00000000000E+00  0.00000000000E+00  0.12988484746E+03  0.12988484746E+03  0.00000000000E+00 0. -1.
         21   -1    0    0  501  502 -0.00000000000E+00 -0.00000000000E+00 -0.76610490526E+03  0.76610490526E+03  0.00000000000E+00 0.  1.
         21    1    1    2  503  502 -0.24367281351E+02  0.10217309140E+03 -0.58652558812E+03  0.59585683728E+03  0.00000000000E+00 0.  1.
         21    1    1    2  504  505 -0.41480661900E+02  0.33125351006E+02  0.76254151763E+02  0.92911946767E+02  0.00000000000E+00 0. -1.
         21    1    1    2  505  506 -0.49931714380E+01 -0.55422810338E+02 -0.59501278781E+02  0.81467919106E+02  0.00000000000E+00 0. -1.
         21    1    1    2  506  503  0.70841114689E+02 -0.79875632070E+02 -0.66447342657E+02  0.12575304957E+03  0.00000000000E+00 0. -1.
<scales pt_clust_3="109.39989" pt_clust_4="53.08422" pt_clust_5="48.08370" pt_clust_6="48.08370"></scales>
<clustering>
<clus scale="   48.084">  5  6 -1 -1</clus>
<clus scale="   53.084">  1  4  2 -1</clus>
<clus scale="  109.400">  2  3  1 -1</clus>
<clus scale="   53.084">  1  3  2 -1</clus>
</clustering>
</event>
<event>
 6    0  0.4227619E+002  0.1541417E+03  0.7546771E-02  0.1195474E+00
         21   -1    0    0  504  501  0.00000000000E+00  0.00000000000E+00  0.39666013688E+03  0.39666013688E+03  0.00000000000E+00 0. -1.
         21   -1    0    0  506  502 -0.00000000000E+00 -0.00000000000E+00 -0.58504010930E+03  0.58504010930E+03  0.00000000000E+00 0. -1.
         21    1    1    2  503  502 -0.10650861321E+02  0.55454591693E+02 -0.12737363928E+03  0.13932945335E+03  0.00000000000E+00 0. -1.
         21    1    1    2  504  503 -0.23271333973E+02  0.21817378302E+02  0.91587829090E+02  0.96983933815E+02  0.00000000000E+00 0. -1.
         21    1    1    2  505  501  0.97709404457E+02  0.11131056744E+03  0.25322935699E+03  0.29336372882E+03  0.00000000000E+00 0. -1.
         21    1    1    2  506  505 -0.63787209163E+02 -0.18858253744E+03 -0.40582351922E+03  0.45202313020E+03  0.00000000000E+00 0. -1.
<scales pt_clust_3="56.97972" pt_clust_4="31.89911" pt_clust_5="154.14174" pt_clust_6="14000.00000"></scales>
<clustering>
<clus scale="   31.899">  1  4  2 -1</clus>
<clus scale="   56.980">  2  3  1 -1</clus>
<clus scale="  154.142">  1  5  2 -1</clus>
<clus scale="   31.899">  1  3  2 -1</clus>
</clustering>
</event>
<event>
 6    0  0.4227619E+002  0.7721243E+02  0.7546771E-02  0.1337154E+00
         21   -1    0    0  506  501  0.00000000000E+00  0.00000000000E+00  0.65727636817E+02  0.65727636817E+02  0.00000000000E+00 0.  1.
         21   -1    0    0  504  502 -0.00000000000E+00 -0.00000000000E+00 -0.15784436532E+04  0.15784436532E+04  0.00000000000E+00 0.  1.
         21    1    1    2  503  502  0.30499544829E+02 -0.64062687949E+02 -0.10316030939E+04  0.10340402282E+04  0.00000000000E+00 0.  1.
         21    1    1    2  504  505  0.96365079667E+01  0.33260079750E+02 -0.27207911716E+03  0.27427384342E+03  0.00000000000E+00 0. -1.
         21    1    1    2  505  501 -0.83721186357E+02  0.88549959476E+02 -0.23020828748E+03  0.26047300818E+03  0.00000000000E+00 0.  1.
         21    1    1    2  506  503  0.43585133561E+02 -0.57747351278E+02  0.21174482184E+02  0.75384210170E+02  0.00000000000E+00 0.  1.
<scales pt_clust_3="53.64855" pt_clust_4="34.62795" pt_clust_5="77.21243" pt_clust_6="14000.00000"></scales>
<clustering>
<clus scale="   34.628">  2  4  1 -1</clus>
<clus scale="   53.649">  2  3  1 -1</clus>
<clus scale="   77.212">  2  5  1 -1</clus>
<clus scale="   77.212">  1  3  2 -1</clus>
</clustering>
</event>
<event>
 6    0  0.4227619E+002  0.1918782E+03  0.7546771E-02  0.1156778E+00
         21   -1    0    0  506  501  0.00000000000E+00  0.00000000000E+00  0.10245991847E+04  0.10245991847E+04  0.00000000000E+00 0.  1.
         21   -1    0    0  505  502 -0.00000000000E+00 -0.00000000000E+00 -0.38201618814E+03  0.38201618814E+03  0.00000000000E+00 0.  1.
         21    1    1    2  503  501  0.18794557243E+03 -0.20927330847E+02  0.87836176191E+03  0.89848810574E+03  0.00000000000E+00 0.  1.
         21    1    1    2  504  503 -0.21992969290E+03  0.57120940160E+01  0.21979367613E+02  0.22109905119E+03  0.00000000000E+00 0.  1.
         21    1    1    2  505  504  0.10190638619E+02  0.40632363213E+02 -0.24889250923E+03  0.25239318376E+03  0.00000000000E+00 0.  1.
         21    1    1    2  506  502  0.21793481854E+02 -0.25417126382E+02 -0.88656237657E+01  0.34635032115E+02  0.00000000000E+00 0.  1.
<scales pt_clust_3="14000.00000" pt_clust_4="191.87821" pt_clust_5="34.19691" pt_clust_6="33.48113"></scales>
<clustering>
<clus scale="   33.481">  2  6  1 -1</clus>
<clus scale="   34.197">  2  5  1 -1</clus>
<clus scale="  191.878">  2  4  1 -1</clus>
<clus scale="  191.878">  1  3  2 -1</clus>
</clustering>
</event>
<event>
 6    0  0.4227619E+002  0.1342414E+03  0.7546771E-02  0.1221295E+00
         21   -1    0    0  505  501  0.00000000000E+00  0.00000000000E+00  0.30772348005E+04  0.30772348005E+04  0.00000000000E+00 0. -1.
         21   -1    0    0  503  502 -0.00000000000E+00 -0.00000000000E+00 -0.50912926280E+02  0.50912926280E+02  0.00000000000E+00 0. -1.
         21    1    1    2  503  504 -0.12213192395E+02  0.11444646727E+03  0.15901017471E+03  0.19629414561E+03  0.00000000000E+00 0. -1.
         21    1    1    2  504  501 -0.23545259080E+02 -0.21226560052E+02  0.19614161224E+04  0.19616722844E+04  0.00000000000E+00 0. -1.
         21    1    1    2  505  506  0.79871106218E+02  0.67183582706E+02  0.68886472046E+03  0.69672636701E+03  0.00000000000E+00 0. -1.
         21    1    1    2  506  502 -0.44112654742E+02 -0.16040348993E+03  0.21703085668E+03  0.27345492982E+03  0.00000000000E+00 0. -1.
<scales pt_clust_3="134.24143" pt_clust_4="31.70088" pt_clust_5="84.69908" pt_clust_6="14000.00000"></scales>
<clustering>
<clus scale="   31.701">  1  4  2 -1</clus>
<clus scale="   84.699">  1  5  2 -1</clus>
<clus scale="  134.241">  2  3  1 -1</clus>
<clus scale="   31.701">  1  3  2 -1</clus>
</clustering>
</event>
<event>
 6    0  0.4227619E+002  0.9726952E+02  0.7546771E-02  0.1286145E+00
         21   -1    0    0  505  501  0.00000000000E+00  0.00000000000E+00  0.13989154819E+03  0.13989154819E+03  0.00000000000E+00 0. -1.
         21   -1    0    0  504  502 -0.00000000000E+00 -0.00000000000E+00 -0.39689067485E+03  0.39689067485E+03  0.00000000000E+00 0. -1.
         21    1    1    2  503  506 -0.43437685774E+02  0.62738124881E+02  0.65344172996E+02  0.10046275829E+03  0.00000000000E+00 0. -1.
         21    1    1    2  504  503  0.13225368563E+02 -0.12909927415E+03 -0.31281428993E+03  0.33866548827E+03  0.00000000000E+00 0. -1.
         21    1    1    2  505  502  0.10868352537E+01  0.31271475315E+02 -0.33745861470E+02  0.46020316661E+02  0.00000000000E+00 0. -1.
         21    1    1    2  506  501  0.29125481957E+02  0.35089673956E+02  0.24216851751E+02  0.51633659819E+02  0.00000000000E+00 0. -1.
<scales pt_clust_3="97.26952" pt_clust_4="14000.00000" pt_clust_5="31.29036" pt_clust_6="46.55880"></scales>
<clustering>
<clus scale="   31.290">  2  5  1 -1</clus>
<clus scale="   46.559">  1  6  2 -1</clus>
<clus scale="   97.270">  1  3  2 -1</clus>
<clus scale="   46.559">  1  3  2 -1</clus>
</clustering>
</event>
<event>
 6    0  0.4227619E+002  0.1429175E+03  0.7546771E-02  0.1209456E+00
         21   -1    0    0  503  501  0.00000000000E+00  0.00000000000E+00  0.11724125422E+04  0.11724125422E+04  0.00000000000E+00 0.  1.
         21   -1    0    0  505  502 -0.00000000000E+00 -0.00000000000E+00 -0.21268414995E+02  0.21268414995E+02  0.00000000000E+00 0.  1.
         21    1    1    2  503  504  0.12563200515E+03 -0.23850348276E+02  0.59148953672E+03  0.60515461816E+03  0.00000000000E+00 0.  1.
         21    1    1    2  504  502 -0.13708083050E+01 -0.32683418668E+02  0.82491496858E+02  0.88740813750E+02  0.00000000000E+00 0.  1.
         21    1    1    2  505  506 -0.39392188246E+02  0.41056742136E+02  0.25918779286E+03  0.26535959101E+03  0.00000000000E+00 0.  1.
         21    1    1    2  506  501 -0.84869008602E+02  0.15477024807E+02  0.21797530074E+03  0.23442593425E+03  0.00000000000E+00 0.  1.
<scales pt_clust_3="130.23585" pt_clust_4="32.71215" pt_clust_5="46.42835" pt_clust_6="46.42835"></scales>
<clustering>
<clus scale="   32.712">  2  4  1 -1</clus>
<clus scale="   46.428">  5  6 -1 -1</clus>
<clus scale="  130.236">  1  3  2 -1</clus>
<clus scale="  130.236">  1  3  2 -1</clus>
</clustering>
</event>
<event>
 6    0  0.4227619E+002  0.9243747E+02  0.7546771E-02  0.1297054E+00
         21   -1    0    0  506  501  0.00000000000E+00  0.00000000000E+00  0.11238500575E+04  0.11238500575E+04  0.00000000000E+00 0.  1.
         21   -1    0    0  501  502 -0.00000000000E+00 -0.00000000000E+00 -0.24889715003E+03  0.24889715003E+03  0.00000000000E+00 0.  1.
         21    1    1    2  503  502  0.17791448230E+02 -0.74414173821E+02 -0.17736234971E+03  0.19316161107E+03  0.00000000000E+00 0.  1.
         21    1    1    2  504  503 -0.10071459661E+03  0.90380991233E+02  0.27022841071E+02  0.13799415743E+03  0.00000000000E+00 0.  1.
         21    1    1    2  505  504  0.12684644020E+03  0.20171725857E+01  0.57633986717E+03  0.59013704414E+03  0.00000000000E+00 0.  1.
         21    1    1    2  506  505 -0.43923291821E+02 -0.17983989997E+02  0.44895254900E+03  0.45145439494E+03  0.00000000000E+00 0. -1.
<scales pt_clust_3="76.59878" pt_clust_4="14000.00000" pt_clust_5="92.43747" pt_clust_6="47.46240"></scales>
<clustering>
<clus scale="   47.462">  1  6  2 -1</clus>
<clus scale="   76.599">  2  3  1 -1</clus>
<clus scale="   92.437">  1  5  2 -1</clus>
<clus scale="   47.462">  1  3  2 -1</clus>
</clustering>
</event>
<event>
 6    0  0.4227619E+002  0.1251935E+03  0.7546771E-02  0.1234767E+00
         21   -1    0    0  506  501  0.00000000000E+00  0.00000000000E+00  0.67246001190E+03  0.67246001190E+03  0.00000000000E+00 0.  1.
         21   -1    0    0  504  502 -0.00000000000E+00 -0.00000000000E+00 -0.14271351522E+03  0.14271351522E+03  0.00000000000E+00 0.  1.
         21    1    1    2  503  502 -0.60636029316E+02  0.73256780519E+01 -0.54577380770E+02  0.81908998906E+02  0.00000000000E+00 0.  1.
         21    1    1    2  504  501 -0.43003160746E+02 -0.49055487824E+02 -0.21803554104E+02  0.68783047994E+02  0.00000000000E+00 0.  1.
         21    1    1    2  505  503 -0.37319093690E+02  0.65940417736E+02  0.51263477714E+02  0.91481132439E+02  0.00000000000E+00 0.  1.
         21    1    1    2  506  505  0.14095828375E+03 -0.24210607964E+02  0.55486395383E+03  0.57300034778E+03  0.00000000000E+00 0.  1.
<scales pt_clust_3="61.07695" pt_clust_4="125.19348" pt_clust_5="86.57824" pt_clust_6="14000.00000"></scales>
<clustering>
<clus scale="   61.077">  2  3  1 -1</clus>
<clus scale="   86.578">  2  5  1 -1</clus>
<clus scale="  125.193">  2  4  1 -1</clus>
<clus scale="  125.193">  1  3  2 -1</clus>
</clustering>
</event>
<event>
 6    0  0.4227619E+002  0.6490394E+02  0.7546771E-02  0.1378333E+00
         21   -1    0    0  504  501  0.00000000000E+00  0.00000000000E+00  0.20805013128E+02  0.20805013128E+02  0.00000000000E+00 0.  1.
         21   -1    0    0  506  502 -0.00000000000E+00 -0.00000000000E+00 -0.19513429725E+04  0.19513429725E+04  0.00000000000E+00 0.  1.
         21    1    1    2  503  501  0.43314193176E+02 -0.19965099178E+02 -0.49074810608E+02  0.68432898170E+02  0.00000000000E+00 0.  1.
         21    1    1    2  504  505 -0.68669512276E+02 -0.34220390206E+02 -0.16618823493E+03  0.18304389214E+03  0.00000000000E+00 0.  1.
         21    1    1    2  505  502  0.10259824588E+02  0.92093617686E+02 -0.10201698855E+04  0.10243696079E+04  0.00000000000E+00 0.  1.
         21    1    1    2  506  503  0.15095494512E+02 -0.37908128302E+02 -0.69510502840E+03  0.69630158743E+03  0.00000000000E+00 0.  1.
<scales pt_clust_3="49.09570" pt_clust_4="14000.00000" pt_clust_5="64.90394" pt_clust_6="40.80319"></scales>
<clustering>
<clus scale="   40.803">  2  6  1 -1</clus>
<clus scale="   49.096">  1  3  2 -1</clus>
<clus scale="   64.904">  2  5  1 -1</clus>
<clus scale="   49.096">  1  3  2 -1</clus>
</clustering>
</event>
<event>
 6    0  0.4227619E+002  0.1129985E+03  0.7546771E-02  0.1255116E+00
         21   -1    0    0  504  501  0.00000000000E+00  0.00000000000E+00  0.16919243922E+03  0.16919243922E+03  0.00000000000E+00 0. -1.
         21   -1    0    0  505  502 -0.00000000000E+00 -0.00000000000E+00 -0.12780248990E+04  0.12780248990E+04  0.00000000000E+00 0.  1.
         21    1    1    2  503  501  0.13347064881E+02  0.53355575565E+02 -0.77566941634E+02  0.95087286317E+02  0.00000000000E+00 0.  1.
         21    1    1    2  504  506  0.72118957054E+02  0.84479070160E+02  0.12706263568E+03  0.16876839351E+03  0.00000000000E+00 0. -1.
         21    1    1    2  505  503  0.91739214547E+01  0.37815866710E+02 -0.27771413494E+03  0.28042706958E+03  0.00000000000E+00 0. -1.
         21    1    1    2  506  502 -0.94639943390E+02 -0.17565051243E+03 -0.88061401891E+03  0.90293458882E+03  0.00000000000E+00 0.  1.
<scales pt_clust_3="58.36231" pt_clust_4="112.99849" pt_clust_5="38.91273" pt_clust_6="14000.00000"></scales>
<clustering>
<clus scale="   38.913">  2  5  1 -1</clus>
<clus scale="   58.362">  2  3  1 -1</clus>
<clus scale="  112.998">  1  4  2 -1</clus>
<clus scale="  112.998">  1  3  2 -1</clus>
</clustering>
</event>
<event>
 6    0  0.4227619E+002  0.1051008E+03  0.7546771E-02  0.1269921E+00
         21   -1    0    0  502  501  0.00000000000E+00  0.00000000000E+00  0.24305092537E+03  0.24305092537E+03  0.00000000000E+00 0.  1.
         21   -1    0    0  503  502 -0.00000000000E+00 -0.00000000000E+00 -0.59500445992E+03  0.59500445992E+03  0.00000000000E+00 0.  1.
         21    1    1    2  503  506 -0.17538710625E+02  0.41747545423E+02 -0.28744340273E+03  0.29098827071E+03  0.00000000000E+00 0.  1.
         21    1    1    2  504  505  0.97081525204E+02 -0.12146172855E+02  0.12093099852E+03  0.15555275135E+03  0.00000000000E+00 0.  1.
         21    1    1    2  505  501  0.32186865299E+01  0.49583657188E+02  0.84640834297E+02  0.98147693981E+02  0.00000000000E+00 0.  1.
         21    1    1    2  506  504 -0.82761501109E+02 -0.79185029757E+02 -0.27008196463E+03  0.29336666925E+03  0.00000000000E+00 0.  1.
<scales pt_clust_3="45.28205" pt_clust_4="105.10085" pt_clust_5="50.58496" pt_clust_6="14000.00000"></scales>
<clustering>
<clus scale="   45.282">  2  3  1 -1</clus>
<clus scale="   50.585">  1  5  2 -1</clus>
<clus scale="  105.101">  1  4  2 -1</clus>
<clus scale="   50.585">  1  3  2 -1</clus>
</clustering>
</event>
<event>
 6    0  0.4227619E+002  0.1112085E+03  0.7546771E-02  0.1258348E+00
         21   -1    0    0  505  501  0.00000000000E+00  0.00000000000E+00  0.10573995639E+04  0.10573995639E+04  0.00000000000E+00 0.  1.
         21   -1    0    0  504  502 -0.00000000000E+00 -0.00000000000E+00 -0.44725908144E+03  0.44725908144E+03  0.00000000000E+00 0.  1.
         21    1    1    2  503  506  0.12540180770E+03  0.69621598416E+02  0.66289791712E+03  0.67823773772E+03  0.00000000000E+00 0.  1.
         21    1    1    2  504  501 -0.23450133168E+02  0.59449939553E+02 -0.40284144004E+03  0.40787918539E+03  0.00000000000E+00 0.  1.
         21    1    1    2  505  503 -0.32974303019E+02 -0.22783998371E+02  0.26000834216E+03  0.26307936680E+03  0.00000000000E+00 0.  1.
         21    1    1    2  506  502 -0.68977371518E+02 -0.10628753960E+03  0.90075663247E+02  0.15546235546E+03  0.00000000000E+00 0.  1.
<scales pt_clust_3="111.20850" pt_clust_4="63.87911" pt_clust_5="40.08011" pt_clust_6="14000.00000"></scales>
<clustering>
<clus scale="   40.080">  1  5  2 -1</clus>
<clus scale="   63.879">  2  4  1 -1</clus>
<clus scale="  111.209">  1  3  2 -1</clus>
<clus scale="   40.080">  1  3  2 -1</clus>
</clustering>
</event>
<event>
 6    0  0.4227619E+002  0.9133510E+02  0.7546771E-02  0.1299650E+00
         21   -1    0    0  503  501  0.00000000000E+00  0.00000000000E+00  0.10326351419E+04  0.10326351419E+04  0.00000000000E+00 0. -1.
         21   -1    0    0  504  502 -0.00000000000E+00 -0.00000000000E+00 -0.45115504727E+02  0.45115504727E+02  0.00000000000E+00 0. -1.
         21    1    1    2  503  506  0.38115138772E+02 -0.71767549968E+02  0.51361979920E+03  0.52000831067E+03  0.00000000000E+00 0. -1.
         21    1    1    2  504  501 -0.60563870158E+01 -0.72816114250E+02  0.11771269948E+03  0.13854654791E+03  0.00000000000E+00 0. -1.
         21    1    1    2  505  502  0.56948692716E+02  0.75947731327E+01  0.84723886773E+02  0.10236684605E+03  0.00000000000E+00 0. -1.
         21    1    1    2  506  505 -0.89007444471E+02  0.13698889108E+03  0.27146325168E+03  0.31682894197E+03  0.00000000000E+00 0. -1.
<scales pt_clust_3="14000.00000" pt_clust_4="71.38169" pt_clust_5="57.45289" pt_clust_6="91.33510"></scales>
<clustering>
<clus scale="   57.453">  2  5  1 -1</clus>
<clus scale="   71.382">  2  4  1 -1</clus>
<clus scale="   91.335">  2  6  1 -1</clus>
<clus scale="   91.335">  1  3  2 -1</clus>
</clustering>
</event>
<event>
 6    0  0.4227619E+002  0.1698475E+03  0.7546771E-02  0.1178007E+00
         21   -1    0    0  504  501  0.00000000000E+00  0.00000000000E+00  0.25969139499E+03  0.25969139499E+03  0.00000000000E+00 0.  1.
         21   -1    0    0  505  502 -0.00000000000E+00 -0.00000000000E+00 -0.49345628656E+03  0.49345628656E+03  0.00000000000E+00 0.  1.
         21    1    1    2  503  506  0.60447220961E+02 -0.36080548994E+02  0.63515806364E+02  0.94815242423E+02  0.00000000000E+00 0.  1.
         21    1    1    2  504  502 -0.11269497420E+03 -0.31508648839E+02 -0.34584797000E+03  0.36510788887E+03  0.00000000000E+00 0.  1.
         21    1    1    2  505  503 -0.42139946409E+02  0.36077065806E+02 -0.10003215978E+03  0.11438427667E+03  0.00000000000E+00 0.  1.
         21    1    1    2  506  501  0.94387699646E+02  0.31512132027E+02  0.14859943184E+03  0.17884027358E+03  0.00000000000E+00 0.  1.
<scales pt_clust_3="63.93441" pt_clust_4="151.48735" pt_clust_5="55.47369" pt_clust_6="63.93441"></scales>
<clustering>
<clus scale="   55.474">  2  5  1 -1</clus>
<clus scale="   63.934">  3  6 -1 -1</clus>
<clus scale="  151.487">  2  4  1 -1</clus>
<clus scale="  169.847">  1  3  2 -1</clus>
</clustering>
</event>
<event>
 6    0  0.4227619E+002  0.8656172E+02  0.7546771E-02  0.1311398E+00
         21   -1    0    0  503  501  0.00000000000E+00  0.00000000000E+00  0.25703806025E+03  0.25703806025E+03  0.00000000000E+00 0.  1.
         21   -1    0    0  504  502 -0.00000000000E+00 -0.00000000000E+00 -0.50922097783E+03  0.50922097783E+03  0.00000000000E+00 0. -1.
         21    1    1    2  503  506 -0.21235441861E+02  0.21209863186E+02  0.65334355326E+02  0.71898402439E+02  0.00000000000E+00 0.  1.
         21    1    1    2  504  505  0.44086471754E+02 -0.28504174972E+01 -0.45355800757E+03  0.45570451842E+03  0.00000000000E+00 0. -1.
         21    1    1    2  505  501  0.84369210692E+02 -0.18302500255E+02  0.79880955395E+02  0.11761850307E+03  0.00000000000E+00 0.  1.
         21    1    1    2  506  502 -0.10722024058E+03 -0.56945433365E-01  0.56159779268E+02  0.12103761416E+03  0.00000000000E+00 0.  1.
<scales pt_clust_3="30.01337" pt_clust_4="44.05017" pt_clust_5="86.56172" pt_clust_6="14000.00000"></scales>
<clustering>
<clus scale="   30.013">  1  3  2 -1</clus>
<clus scale="   44.050">  2  4  1 -1</clus>
<clus scale="   86.562">  1  5  2 -1</clus>
<clus scale="   30.013">  1  3  2 -1</clus>
</clustering>
</event>
<event>
 6    0  0.4227619E+002  0.1450777E+03  0.7546771E-02  0.1206655E+00
         21   -1    0    0  505  501  0.00000000000E+00  0.00000000000E+00  0.10677776026E+03  0.10677776026E+03  0.00000000000E+00 0. -1.
         21   -1    0    0  506  502 -0.00000000000E+00 -0.00000000000E+00 -0.36516009902E+03  0.36516009902E+03  0.00000000000E+00 0. -1.
         21    1    1    2  503  504 -0.74059772889E+02  0.13976339691E+03 -0.79905832692E+02  0.17721060683E+03  0.00000000000E+00 0. -1.
         21    1    1    2  504  502  0.10950178246E+03 -0.90705384073E+02 -0.17136224928E+03  0.22267269150E+03  0.00000000000E+00 0. -1.
         21    1    1    2  505  503 -0.29918914931E+02 -0.93959553224E+01  0.12959969663E+00  0.31359882703E+02  0.00000000000E+00 0. -1.
         21    1    1    2  506  501 -0.55230946442E+01 -0.39662057514E+02 -0.72438564900E+01  0.40694678246E+02  0.00000000000E+00 0. -1.
<scales pt_clust_3="145.07768" pt_clust_4="14000.00000" pt_clust_5="31.35961" pt_clust_6="42.83035"></scales>
<clustering>
<clus scale="   31.360">  1  5  2 -1</clus>
<clus scale="   42.830">  1  6  2 -1</clus>
<clus scale="  145.078">  1  3  2 -1</clus>
<clus scale="   31.360">  1  3  2 -1</clus>
</clustering>
</event>
<event>
 6    0  0.4227619E+002  0.1149952E+03  0.7546771E-02  0.1251590E+00
         21   -1    0    0  502  501  0.00000000000E+00  0.00000000000E+00  0.70666039844E+03  0.70666039844E+03  0.00000000000E+00 0. -1.
         21   -1    0    0  506  502 -0.00000000000E+00 -0.00000000000E+00 -0.11973350675E+03  0.11973350675E+03  0.00000000000E+00 0. -1.
         21    1    1    2  503  505 -0.27523345127E+02 -0.56726433468E+02  0.61582983332E+02  0.88135614919E+02  0.00000000000E+00 0.  1.
         21    1    1    2  504  503  0.15595983490E+02  0.85104748760E+02 -0.31304198848E+02  0.92010900593E+02  0.00000000000E+00 0. -1.
         21    1    1    2  505  501 -0.28552442466E+02 -0.54446242604E+02  0.58642335941E+03  0.58963716959E+03  0.00000000000E+00 0. -1.
         21    1    1    2  506  504  0.40479804103E+02  0.26067927312E+02 -0.29775252198E+02  0.56610220085E+02  0.00000000000E+00 0.  1.
<scales pt_clust_3="101.83422" pt_clust_4="39.84968" pt_clust_5="61.47874" pt_clust_6="39.84968"></scales>
<clustering>
<clus scale="   39.850">  4  6 -1 -1</clus>
<clus scale="   61.479">  1  5  2 -1</clus>
<clus scale="  101.834">  1  3  2 -1</clus>
<clus scale="   61.479">  1  3  2 -1</clus>
</clustering>
</event>
<event>
 6    0  0.4227619E+002  0.1117690E+03  0.7546771E-02  0.1257329E+00
         21   -1    0    0  504  501  0.00000000000E+00  0.00000000000E+00  0.20356752954E+04  0.20356752954E+04  0.00000000000E+00 0. -1.
         21   -1    0    0  505  502 -0.00000000000E+00 -0.00000000000E+00 -0.31992643032E+02  0.31992643032E+02  0.00000000000E+00 0.  1.
         21    1    1    2  503  502  0.13415910607E+02 -0.32251347455E+02  0.58218631534E+02  0.67893630981E+02  0.00000000000E+00 0.  1.
         21    1    1    2  504  506  0.10599994529E+02 -0.55990732595E+02  0.13649467121E+04  0.13661357359E+04  0.00000000000E+00 0. -1.
         21    1    1    2  505  501  0.96464479013E+02  0.88358080147E+01  0.14121823055E+03  0.17124852073E+03  0.00000000000E+00 0.  1.
         21    1    1    2  506  503 -0.12048038415E+03  0.79406272036E+02  0.43929907820E+03  0.46239005084E+03  0.00000000000E+00 0.  1.
<scales pt_clust_3="34.93045" pt_clust_4="57.73389" pt_clust_5="14000.00000" pt_clust_6="111.76897"></scales>
<clustering>
<clus scale="   34.930">  2  3  1 -1</clus>
<clus scale="   57.734">  1  4  2 -1</clus>
<clus scale="  111.769">  1  6  2 -1</clus>
<clus scale="   57.734">  1  3  2 -1</clus>
</clustering>
</event>
<event>
 6    0  0.4227619E+002  0.7864157E+02  0.7546771E-02  0.1332951E+00
         21   -1    0    0  504  501  0.00000000000E+00  0.00000000000E+00  0.53874298620E+03  0.53874298620E+03  0.00000000000E+00 0. -1.
         21   -1    0    0  505  502 -0.00000000000E+00 -0.00000000000E+00 -0.53315505977E+02  0.53315505977E+02  0.00000000000E+00 0. -1.
         21    1    1    2  503  501 -0.28293092272E+02  0.39176642881E+02  0.18476300471E+03  0.19097820903E+03  0.00000000000E+00 0. -1.
         21    1    1    2  504  502  0.92349062420E+02  0.39803993255E+02  0.33329978215E+02  0.10594146807E+03  0.00000000000E+00 0. -1.
         21    1    1    2  505  506 -0.15036536064E+02 -0.26130648374E+02  0.16953254764E+02  0.34587874296E+02  0.00000000000E+00 0. -1.
         21    1    1    2  506  503 -0.49019434085E+02 -0.52849987763E+02  0.25038124254E+03  0.26055094078E+03  0.00000000000E+00 0. -1.
<scales pt_clust_3="47.49924" pt_clust_4="14000.00000" pt_clust_5="30.14810" pt_clust_6="78.64157"></scales>
<clustering>
<clus scale="   30.148">  2  5  1 -1</clus>
<clus scale="   47.499">  1  3  2 -1</clus>
<clus scale="   78.642">  1  6  2 -1</clus>
<clus scale="   47.499">  1  3  2 -1</clus>
</clustering>
</event>
<event>
 6    0  0.4227619E+002  0.2890459E+03  0.7546771E-02  0.1090848E+00
         21   -1    0    0  505  501  0.00000000000E+00  0.00000000000E+00  0.25672296310E+03  0.25672296310E+03  0.00000000000E+00 0.  1.
         21   -1    0    0  504  502 -0.00000000000E+00 -0.00000000000E+00 -0.13235767821E+04  0.13235767821E+04  0.00000000000E+00 0.  1.
         21    1    1    2  503  506 -0.18308476773E+03 -0.22277184565E+03  0.13462803116E+01  0.28835592566E+03  0.00000000000E+00 0.  1.
         21    1    1    2  504  501  0.28326202307E+03  0.19152389960E+03 -0.10003974420E+04  0.10572198541E+04  0.00000000000E+00 0.  1.
         21    1    1    2  505  503 -0.23094155258E+02  0.31610876461E+02  0.68060650567E+02  0.78516493002E+02  0.00000000000E+00 0.  1.
         21    1    1    2  506  502 -0.77083100076E+02 -0.36293041763E+00 -0.13586330788E+03  0.15620747250E+03  0.00000000000E+00 0. -1.
<scales pt_clust_3="289.04588" pt_clust_4="14000.00000" pt_clust_5="39.14828" pt_clust_6="78.37608"></scales>
<clustering>
<clus scale="   39.148">  1  5  2 -1</clus>
<clus scale="   78.376">  2  6  1 -1</clus>
<clus scale="  289.046">  1  3  2 -1</clus>
<clus scale="   39.148">  1  3  2 -1</clus>
</clustering>
</event>
<event>
 6    0  0.4227619E+002  0.7136238E+02  0.7546771E-02  0.1355521E+00
         21   -1    0    0  503  501  0.00000000000E+00  0.00000000000E+00  0.15391285382E+04  0.15391285382E+04  0.00000000000E+00 0. -1.
         21   -1    0    0  504  502 -0.00000000000E+00 -0.00000000000E+00 -0.11875645866E+03  0.11875645866E+03  0.00000000000E+00 0. -1.
         21    1    1    2  503  502  0.55542471680E+02  0.45816998630E+02  0.11429890257E+04  0.11452545902E+04  0.00000000000E+00 0. -1.
         21    1    1    2  504  505  0.22035005281E+02  0.34986006388E+02 -0.86375032991E+02  0.95761205218E+02  0.00000000000E+00 0. -1.
         21    1    1    2  505  506 -0.24563491670E+02 -0.10204592561E+03  0.93258188696E+02  0.14040593226E+03  0.00000000000E+00 0. -1.
         21    1    1    2  506  501 -0.53013985291E+02  0.21242920590E+02  0.27049989811E+03  0.27646326915E+03  0.00000000000E+00 0. -1.
<scales pt_clust_3="71.36238" pt_clust_4="41.34685" pt_clust_5="14000.00000" pt_clust_6="56.48047"></scales>
<clustering>
<clus scale="   41.347">  2  4  1 -1</clus>
<clus scale="   56.480">  1  6  2 -1</clus>
<clus scale="   71.362">  1  3  2 -1</clus>
<clus scale="   56.480">  1  3  2 -1</clus>
</clustering>
</event>
<event>
 6    0  0.1051501E+003  0.1209507E+03  0.7546771E-02  0.1241537E+00
         21   -1    0    0  506  501  0.00000000000E+00  0.00000000000E+00  0.10037156724E+04  0.10037156724E+04  0.00000000000E+00 0.  1.
         21   -1    0    0  503  502 -0.00000000000E+00 -0.00000000000E+00 -0.19298777429E+04  0.19298777429E+04  0.00000000000E+00 0. -1.
         21    1    1    2  503  501 -0.26559278490E+02  0.33494389034E+02  0.29355551338E+02  0.51855739943E+02  0.00000000000E+00 0. -1.
         21    1    1    2  504  505 -0.17751730104E+02 -0.10798515891E+03  0.10494244598E+03  0.15162069593E+03  0.00000000000E+00 0. -1.
         21    1    1    2  505  502 -0.79306315627E+02  0.78780200247E+01 -0.18885371875E+04  0.18902180465E+04  0.00000000000E+00 0. -1.
         21    1    1    2  506  504  0.12361732422E+03  0.66612749850E+02  0.82807711966E+03  0.83989893285E+03  0.00000000000E+00 0.  1.
<scales pt_clust_3="42.74657" pt_clust_4="14000.00000" pt_clust_5="79.72260" pt_clust_6="120.95073"></scales>
<clustering>
<clus scale="   42.747">  1  3  2 -1</clus>
<clus scale="   79.723">  2  5  1 -1</clus>
<clus scale="  120.951">  1  6  2 -1</clus>
<clus scale="   42.747">  1  3  2 -1</clus>
</clustering>
</event>
<event>
 6    0  0.4227619E+002  0.7254878E+02  0.7546771E-02  0.1351634E+00
         21   -1    0    0  502  501  0.00000000000E+00  0.00000000000E+00  0.54097819226E+02  0.54097819226E+02  0.00000000000E+00 0. -1.
         21   -1    0    0  504  502 -0.00000000000E+00 -0.00000000000E+00 -0.17867021746E+04  0.17867021746E+04  0.00000000000E+00 0.  1.
         21    1    1    2  503  505 -0.10055977515E+03  0.55019953139E+02 -0.70370984206E+03  0.71298457587E+03  0.00000000000E+00 0.  1.
         21    1    1    2  504  506  0.44434815735E+02 -0.33596352627E+02 -0.57584547257E+03  0.57853364296E+03  0.00000000000E+00 0. -1.
         21    1    1    2  505  501  0.17943297680E+02 -0.69982143984E+02  0.17793236714E+02  0.74404715449E+02  0.00000000000E+00 0. -1.
         21    1    1    2  506  503  0.38181661736E+02  0.48558543473E+02 -0.47084227749E+03  0.47487705958E+03  0.00000000000E+00 0. -1.
<scales pt_clust_3="72.54878" pt_clust_4="55.70608" pt_clust_5="14000.00000" pt_clust_6="65.88665"></scales>
<clustering>
<clus scale="   55.706">  2  4  1 -1</clus>
<clus scale="   65.887">  2  6  1 -1</clus>
<clus scale="   72.549">  2  3  1 -1</clus>
<clus scale="   72.549">  1  3  2 -1</clus>
</clustering>
</event>
<event>
 6    0  0.4227619E+002  0.7941439E+02  0.7546771E-02  0.1330722E+00
         21   -1    0    0  504  501  0.00000000000E+00  0.00000000000E+00  0.50382753426E+03  0.50382753426E+03  0.00000000000E+00 0.  1.
         21   -1    0    0  505  502 -0.00000000000E+00 -0.00000000000E+00 -0.47900626456E+02  0.47900626456E+02  0.00000000000E+00 0. -1.
         21    1    1    2  503  501  0.27164958327E+02  0.19611571625E+02  0.63190344566E+02  0.71523201473E+02  0.00000000000E+00 0. -1.
         21    1    1    2  504  502 -0.12768756472E+03  0.20526374761E+02  0.17355440909E+03  0.21644070587E+03  0.00000000000E+00 0.  1.
         21    1    1    2  505  506  0.62021052058E+02 -0.22113645737E+02  0.34664519598E+02  0.74412721662E+02  0.00000000000E+00 0. -1.
         21    1    1    2  506  503  0.38501554334E+02 -0.18024300649E+02  0.18451763456E+03  0.18935153171E+03  0.00000000000E+00 0. -1.
<scales pt_clust_3="33.50446" pt_clust_4="79.41439" pt_clust_5="14000.00000" pt_clust_6="51.05146"></scales>
<clustering>
<clus scale="   33.504">  1  3  2 -1</clus>
<clus scale="   51.051">  1  6  2 -1</clus>
<clus scale="   79.414">  1  4  2 -1</clus>
<clus scale="   33.504">  1  3  2 -1</clus>
</clustering>
</event>
<event>
 6    0  0.4227619E+002  0.8886189E+02  0.7546771E-02  0.1305631E+00
         21   -1    0    0  505  501  0.00000000000E+00  0.00000000000E+00  0.22295715678E+03  0.22295715678E+03  0.00000000000E+00 0. -1.
         21   -1    0    0  504  502 -0.00000000000E+00 -0.00000000000E+00 -0.25716154557E+03  0.25716154557E+03  0.00000000000E+00 0.  1.
         21    1    1    2  503  502  0.88776177890E+02  0.35118530707E+02 -0.20421471493E+03  0.22542885963E+03  0.00000000000E+00 0.  1.
         21    1    1    2  504  501 -0.50769901256E+02 -0.86969139471E+01  0.64081649105E+02  0.82217254501E+02  0.00000000000E+00 0. -1.
         21    1    1    2  505  506 -0.86417017198E+01  0.43875301338E+02  0.80626241757E+02  0.92197136268E+02  0.00000000000E+00 0. -1.
         21    1    1    2  506  503 -0.29364574915E+02 -0.70296918098E+02  0.25302435285E+02  0.80275451947E+02  0.00000000000E+00 0. -1.
<scales pt_clust_3="88.86189" pt_clust_4="57.34424" pt_clust_5="44.71824" pt_clust_6="14000.00000"></scales>
<clustering>
<clus scale="   44.718">  1  5  2 -1</clus>
<clus scale="   57.344">  1  4  2 -1</clus>
<clus scale="   88.862">  2  3  1 -1</clus>
<clus scale="   44.718">  1  3  2 -1</clus>
</clustering>
</event>
<event>
 6    0  0.4227619E+002  0.8453015E+02  0.7546771E-02  0.1316666E+00
         21   -1    0    0  504  501  0.00000000000E+00  0.00000000000E+00  0.37753177709E+02  0.37753177709E+02  0.00000000000E+00 0. -1.
         21   -1    0    0  505  502 -0.00000000000E+00 -0.00000000000E+00 -0.27859898735E+04  0.27859898735E+04  0.00000000000E+00 0.  1.
         21    1    1    2  503  502  0.10253528322E+02 -0.84269620107E+02 -0.23885911722E+04  0.23900992221E+04  0.00000000000E+00 0.  1.
         21    1    1    2  504  506  0.40164112051E+02  0.48205944810E+02 -0.17602953726E+03  0.18687794680E+03  0.00000000000E+00 0. -1.
         21    1    1    2  505  501 -0.58728206545E+02 -0.38654238788E+02 -0.14742018433E+03  0.16332747218E+03  0.00000000000E+00 0. -1.
         21    1    1    2  506  503  0.83105661724E+01  0.74717914084E+02 -0.36195801974E+02  0.83438410075E+02  0.00000000000E+00 0. -1.
<scales pt_clust_3="84.53015" pt_clust_4="62.74527" pt_clust_5="55.71328" pt_clust_6="14000.00000"></scales>
<clustering>
<clus scale="   62.745">  1  4  2 -1</clus>
<clus scale="   55.713">  1  5  2 -1</clus>
<clus scale="   84.530">  2  3  1 -1</clus>
<clus scale="   62.745">  1  3  2 -1</clus>
</clustering>
</event>
<event>
 6    0  0.4227619E+002  0.1231145E+03  0.7546771E-02  0.1238046E+00
         21   -1    0    0  502  501  0.00000000000E+00  0.00000000000E+00  0.57359198087E+02  0.57359198087E+02  0.00000000000E+00 0. -1.
         21   -1    0    0  505  502 -0.00000000000E+00 -0.00000000000E+00 -0.14816075229E+04  0.14816075229E+04  0.00000000000E+00 0.  1.
         21    1    1    2  503  504 -0.95486506224E+02  0.35235218543E+02 -0.49153465289E+03  0.50196166037E+03  0.00000000000E+00 0.  1.
         21    1    1    2  504  506  0.95786861533E+02 -0.63110986667E+02 -0.63518595863E+02  0.13112105666E+03  0.00000000000E+00 0. -1.
         21    1    1    2  505  503 -0.28018664481E+02  0.14461287349E+02 -0.87412903686E+03  0.87469751770E+03  0.00000000000E+00 0.  1.
         21    1    1    2  506  501  0.27718309173E+02  0.13414480776E+02  0.49339607604E+01  0.31186486283E+02  0.00000000000E+00 0. -1.
<scales pt_clust_3="123.11450" pt_clust_4="14000.00000" pt_clust_5="31.39739" pt_clust_6="30.79372"></scales>
<clustering>
<clus scale="   30.794">  1  6  2 -1</clus>
<clus scale="   31.397">  2  5  1 -1</clus>
<clus scale="  123.115">  2  3  1 -1</clus>
<clus scale="   30.794">  1  3  2 -1</clus>
</clustering>
</event>
<event>
 6    0  0.4227619E+002  0.1234635E+03  0.7546771E-02  0.1237490E+00
         21   -1    0    0  505  501  0.00000000000E+00  0.00000000000E+00  0.68035096613E+02  0.68035096613E+02  0.00000000000E+00 0. -1.
         21   -1    0    0  504  502 -0.00000000000E+00 -0.00000000000E+00 -0.59787258870E+03  0.59787258870E+03  0.00000000000E+00 0. -1.
         21    1    1    2  503  502 -0.34453924364E+00 -0.32616678240E+02 -0.20292234961E+03  0.20552723999E+03  0.00000000000E+00 0. -1.
         21    1    1    2  504  501  0.75177320919E+02  0.48613454629E+02 -0.23783976844E+02  0.92631393739E+02  0.00000000000E+00 0. -1.
         21    1    1    2  505  506 -0.19608890524E+02  0.58674824675E+02 -0.13134610380E+02  0.63243668680E+02  0.00000000000E+00 0. -1.
         21    1    1    2  506  503 -0.55223891151E+02 -0.74671601064E+02 -0.28999655525E+03  0.30450538290E+03  0.00000000000E+00 0. -1.
<scales pt_clust_3="30.01791" pt_clust_4="112.59500" pt_clust_5="61.86472" pt_clust_6="30.01791"></scales>
<clustering>
<clus scale="   30.018">  3  6 -1 -1</clus>
<clus scale="   61.865">  1  5  2 -1</clus>
<clus scale="  112.595">  1  4  2 -1</clus>
<clus scale="   61.865">  1  3  2 -1</clus>
</clustering>
</event>
<event>
 6    0  0.4227619E+002  0.1181298E+03  0.7546771E-02  0.1246215E+00
         21   -1    0    0  503  501  0.00000000000E+00  0.00000000000E+00  0.17604309970E+04  0.17604309970E+04  0.00000000000E+00 0.  1.
         21   -1    0    0  505  502 -0.00000000000E+00 -0.00000000000E+00 -0.29047692105E+02  0.29047692105E+02  0.00000000000E+00 0. -1.
         21    1    1    2  503  506  0.20617245044E+02 -0.14435836791E+03  0.65349826817E+03  0.66957030674E+03  0.00000000000E+00 0. -1.
         21    1    1    2  504  501  0.26255166184E+02  0.32042097213E+02  0.51052716944E+03  0.51220505707E+03  0.00000000000E+00 0.  1.
         21    1    1    2  505  504  0.62689230769E+02  0.64069292870E+02  0.32870252278E+03  0.34070538949E+03  0.00000000000E+00 0.  1.
         21    1    1    2  506  502 -0.10956164200E+03  0.48246977822E+02  0.23865534454E+03  0.26699793584E+03  0.00000000000E+00 0. -1.
<scales pt_clust_3="14000.00000" pt_clust_4="41.42499" pt_clust_5="100.69924" pt_clust_6="118.12976"></scales>
<clustering>
<clus scale="   41.425">  1  4  2 -1</clus>
<clus scale="  100.699">  2  5  1 -1</clus>
<clus scale="  118.130">  2  6  1 -1</clus>
<clus scale="   41.425">  1  3  2 -1</clus>
</clustering>
</event>
<event>
 6    0  0.4227619E+002  0.6108776E+02  0.7546771E-02  0.1393323E+00
         21   -1    0    0  503  501  0.00000000000E+00  0.00000000000E+00  0.56592019800E+03  0.56592019800E+03  0.00000000000E+00 0. -1.
         21   -1    0    0  504  502 -0.00000000000E+00 -0.00000000000E+00 -0.10336849021E+04  0.10336849021E+04  0.00000000000E+00 0.  1.
         21    1    1    2  503  502  0.91074459414E+02 -0.11862384547E+02 -0.96272922889E+03  0.96710022308E+03  0.00000000000E+00 0.  1.
         21    1    1    2  504  505 -0.33094406954E+02  0.38182108454E+02 -0.47990107224E+02  0.69686179182E+02  0.00000000000E+00 0. -1.
         21    1    1    2  505  506 -0.13652465395E+02 -0.57589057812E+02  0.97387145575E+02  0.11396115792E+03  0.00000000000E+00 0. -1.
         21    1    1    2  506  501 -0.44327587064E+02  0.31269333905E+02  0.44556748642E+03  0.44885753995E+03  0.00000000000E+00 0. -1.
<scales pt_clust_3="61.08776" pt_clust_4="50.52834" pt_clust_5="14000.00000" pt_clust_6="54.32949"></scales>
<clustering>
<clus scale="   50.528">  2  4  1 -1</clus>
<clus scale="   54.329">  1  6  2 -1</clus>
<clus scale="   61.088">  2  3  1 -1</clus>
<clus scale="   54.329">  1  3  2 -1</clus>
</clustering>
</event>
<event>
 6    0  0.4227619E+002  0.1246870E+03  0.7546771E-02  0.1235559E+00
         21   -1    0    0  505  501  0.00000000000E+00  0.00000000000E+00  0.63885128182E+03  0.63885128182E+03  0.00000000000E+00 0.  1.
         21   -1    0    0  503  502 -0.00000000000E+00 -0.00000000000E+00 -0.10734604938E+04  0.10734604938E+04  0.00000000000E+00 0.  1.
         21    1    1    2  503  506 -0.63146346778E+02  0.27686866344E+02 -0.80039245290E+03  0.80335677152E+03  0.00000000000E+00 0.  1.
         21    1    1    2  504  502  0.60077823360E+02  0.52729153183E+02 -0.11175414654E+03  0.13739977338E+03  0.00000000000E+00 0. -1.
         21    1    1    2  505  504  0.59985135408E+02  0.25268527883E+02 -0.13366831357E+03  0.14867391508E+03  0.00000000000E+00 0. -1.
         21    1    1    2  506  501 -0.56916611990E+02 -0.10568454741E+03  0.61120570109E+03  0.62288131560E+03  0.00000000000E+00 0.  1.
<scales pt_clust_3="68.94943" pt_clust_4="30.02644" pt_clust_5="30.02644" pt_clust_6="120.16505"></scales>
<clustering>
<clus scale="   30.026">  4  5 -1 -1</clus>
<clus scale="   68.949">  2  3  1 -1</clus>
<clus scale="  120.165">  1  6  2 -1</clus>
<clus scale="  120.165">  1  3  2 -1</clus>
</clustering>
</event>
<event>
 6    0  0.4227619E+002  0.1262955E+03  0.7546771E-02  0.1233058E+00
         21   -1    0    0  505  501  0.00000000000E+00  0.00000000000E+00  0.12315253789E+04  0.12315253789E+04  0.00000000000E+00 0. -1.
         21   -1    0    0  506  502 -0.00000000000E+00 -0.00000000000E+00 -0.35520869832E+03  0.35520869832E+03  0.00000000000E+00 0.  1.
         21    1    1    2  503  502  0.27913012916E+02 -0.11032873363E+03 -0.23470822800E+03  0.26084385759E+03  0.00000000000E+00 0.  1.
         21    1    1    2  504  501 -0.70696548837E+01  0.64019435252E+02 -0.31483162497E+02  0.71691405558E+02  0.00000000000E+00 0.  1.
         21    1    1    2  505  503 -0.39063522301E+02 -0.50199089422E+02  0.11536080387E+04  0.11553602963E+04  0.00000000000E+00 0. -1.
         21    1    1    2  506  504  0.18220164270E+02  0.96508387801E+02 -0.11099967669E+02  0.98838517716E+02  0.00000000000E+00 0.  1.
<scales pt_clust_3="120.73495" pt_clust_4="30.01370" pt_clust_5="63.60745" pt_clust_6="30.01370"></scales>
<clustering>
<clus scale="   30.014">  4  6 -1 -1</clus>
<clus scale="   63.607">  1  5  2 -1</clus>
<clus scale="  120.735">  2  3  1 -1</clus>
<clus scale="   63.607">  1  3  2 -1</clus>
</clustering>
</event>
<event>
 6    0  0.4227619E+002  0.1801331E+03  0.7546771E-02  0.1167674E+00
         21   -1    0    0  506  501  0.00000000000E+00  0.00000000000E+00  0.10255380934E+04  0.10255380934E+04  0.00000000000E+00 0. -1.
         21   -1    0    0  505  502 -0.00000000000E+00 -0.00000000000E+00 -0.14047207908E+03  0.14047207908E+03  0.00000000000E+00 0. -1.
         21    1    1    2  503  504  0.81911747832E+01 -0.11998587351E+03  0.46428527805E+02  0.12891591593E+03  0.00000000000E+00 0. -1.
         21    1    1    2  504  501 -0.18159314483E+03  0.51397469451E+02  0.24877380625E+03  0.31225979055E+03  0.00000000000E+00 0. -1.
         21    1    1    2  505  503  0.54563835759E+01 -0.32276556610E+02 -0.47699530105E+02  0.57851477082E+02  0.00000000000E+00 0. -1.
         21    1    1    2  506  502  0.16794558647E+03  0.10086496066E+03  0.63756321040E+03  0.66698298896E+03  0.00000000000E+00 0. -1.
<scales pt_clust_3="135.59293" pt_clust_4="180.13312" pt_clust_5="32.73451" pt_clust_6="14000.00000"></scales>
<clustering>
<clus scale="   32.735">  2  5  1 -1</clus>
<clus scale="  135.593">  2  3  1 -1</clus>
<clus scale="  180.133">  2  4  1 -1</clus>
<clus scale="  180.133">  1  3  2 -1</clus>
</clustering>
</event>
<event>
 6    0  0.4227619E+002  0.8570995E+02  0.7546771E-02  0.1313586E+00
         21   -1    0    0  505  501  0.00000000000E+00  0.00000000000E+00  0.11844445377E+04  0.11844445377E+04  0.00000000000E+00 0. -1.
         21   -1    0    0  506  502 -0.00000000000E+00 -0.00000000000E+00 -0.33752209960E+02  0.33752209960E+02  0.00000000000E+00 0. -1.
         21    1    1    2  503  504  0.97260649092E+02 -0.22454624654E+02  0.13451983547E+03  0.16750949276E+03  0.00000000000E+00 0. -1.
         21    1    1    2  504  502 -0.64435427064E+02  0.42618986868E+02  0.10406920164E+03  0.12960980299E+03  0.00000000000E+00 0. -1.
         21    1    1    2  505  503  0.31349877716E+02  0.30651225398E+02  0.41104039772E+03  0.41337213381E+03  0.00000000000E+00 0. -1.
         21    1    1    2  506  501 -0.64175099745E+02 -0.50815587612E+02  0.50106289295E+03  0.50770531814E+03  0.00000000000E+00 0. -1.
<scales pt_clust_3="14000.00000" pt_clust_4="85.70995" pt_clust_5="43.84418" pt_clust_6="53.46021"></scales>
<clustering>
<clus scale="   43.844">  1  5  2 -1</clus>
<clus scale="   53.460">  1  6  2 -1</clus>
<clus scale="   85.710">  2  4  1 -1</clus>
<clus scale="   43.844">  1  3  2 -1</clus>
</clustering>
</event>
<event>
 6    0  0.4227619E+002  0.7767377E+02  0.7546771E-02  0.1335786E+00
         21   -1    0    0  506  501  0.00000000000E+00  0.00000000000E+00  0.24110834797E+03  0.24110834797E+03  0.00000000000E+00 0.  1.
         21   -1    0    0  503  502 -0.00000000000E+00 -0.00000000000E+00 -0.10798212526E+04  0.10798212526E+04  0.00000000000E+00 0. -1.
         21    1    1    2  503  505 -0.35814641710E+02 -0.56394300288E+02 -0.46763489328E+03  0.47238268288E+03  0.00000000000E+00 0. -1.
         21    1    1    2  504  501 -0.70794747880E+02  0.33650508365E+02  0.22536517850E+03  0.23860787229E+03  0.00000000000E+00 0.  1.
         21    1    1    2  505  504  0.69636109021E+02  0.27059065453E+02 -0.23512969111E+03  0.24671309723E+03  0.00000000000E+00 0. -1.
         21    1    1    2  506  502  0.36973280569E+02 -0.43152735306E+01 -0.36131349873E+03  0.36322594817E+03  0.00000000000E+00 0. -1.
<scales pt_clust_3="60.34560" pt_clust_4="77.67377" pt_clust_5="14000.00000" pt_clust_6="37.22425"></scales>
<clustering>
<clus scale="   37.224">  2  6  1 -1</clus>
<clus scale="   60.346">  2  3  1 -1</clus>
<clus scale="   77.674">  1  4  2 -1</clus>
<clus scale="   77.674">  1  3  2 -1</clus>
</clustering>
</event>
<event>
 6    0  0.4227619E+002  0.1282508E+03  0.7546771E-02  0.1230074E+00
         21   -1    0    0  502  501  0.00000000000E+00  0.00000000000E+00  0.28053335055E+03  0.28053335055E+03  0.00000000000E+00 0.  1.
         21   -1    0    0  506  502 -0.00000000000E+00 -0.00000000000E+00 -0.17366557262E+03  0.17366557262E+03  0.00000000000E+00 0.  1.
         21    1    1    2  503  505  0.15007493666E+03  0.19491282681E+01  0.79606306525E+02  0.16989246526E+03  0.00000000000E+00 0.  1.
         21    1    1    2  504  501 -0.50314433337E+02 -0.39348009617E+02  0.47877664141E+02  0.79825301668E+02  0.00000000000E+00 0.  1.
         21    1    1    2  505  504 -0.18839075092E+01 -0.49069010050E+02  0.37249964057E+02  0.61635028004E+02  0.00000000000E+00 0.  1.
         21    1    1    2  506  503 -0.97876595813E+02  0.86467891399E+02 -0.57866156793E+02  0.14284612824E+03  0.00000000000E+00 0.  1.
<scales pt_clust_3="128.25084" pt_clust_4="112.97925" pt_clust_5="41.33168" pt_clust_6="14000.00000"></scales>
<clustering>
<clus scale="   41.332">  4  5 -1 -1</clus>
<clus scale="  112.979">  1  4  2 -1</clus>
<clus scale="  128.251">  1  3  2 -1</clus>
<clus scale="  112.979">  1  3  2 -1</clus>
</clustering>
</event>
<event>
 6    0  0.4227619E+002  0.9585209E+02  0.7546771E-02  0.1289268E+00
         21   -1    0    0  504  501  0.00000000000E+00  0.00000000000E+00  0.35886721159E+03  0.35886721159E+03  0.00000000000E+00 0.  1.
         21   -1    0    0  505  502 -0.00000000000E+00 -0.00000000000E+00 -0.14221520415E+03  0.14221520415E+03  0.00000000000E+00 0.  1.
         21    1    1    2  503  502  0.67795009458E+02 -0.44474064353E+02 -0.11856134156E+02  0.81943112124E+02  0.00000000000E+00 0.  1.
         21    1    1    2  504  503  0.85015268822E+02  0.26042341459E+02  0.18996304490E+03  0.20974212240E+03  0.00000000000E+00 0.  1.
         21    1    1    2  505  506 -0.34055299261E+02  0.30101385391E+02 -0.44820485895E+02  0.63833633502E+02  0.00000000000E+00 0.  1.
         21    1    1    2  506  501 -0.11875497902E+03 -0.11669662497E+02  0.83365582591E+02  0.14556354772E+03  0.00000000000E+00 0.  1.
<scales pt_clust_3="57.17995" pt_clust_4="14000.00000" pt_clust_5="45.45170" pt_clust_6="95.85209"></scales>
<clustering>
<clus scale="   45.452">  2  5  1 -1</clus>
<clus scale="   57.180">  2  3  1 -1</clus>
<clus scale="   95.852">  2  6  1 -1</clus>
<clus scale="   95.852">  1  3  2 -1</clus>
</clustering>
</event>
<event>
 6    0  0.4227619E+002  0.7431286E+02  0.7546771E-02  0.1346012E+00
         21   -1    0    0  503  501  0.00000000000E+00  0.00000000000E+00  0.13339450537E+04  0.13339450537E+04  0.00000000000E+00 0. -1.
         21   -1    0    0  504  502 -0.00000000000E+00 -0.00000000000E+00 -0.11036947166E+03  0.11036947166E+03  0.00000000000E+00 0.  1.
         21    1    1    2  503  502 -0.72403302203E+02 -0.50092960552E+02  0.51859482437E+03  0.52601533697E+03  0.00000000000E+00 0. -1.
         21    1    1    2  504  505  0.22668401714E+02 -0.45338839677E+02 -0.93711384612E+02  0.10654243486E+03  0.00000000000E+00 0.  1.
         21    1    1    2  505  506  0.48135170850E+02  0.56362708453E+02  0.22839847123E+03  0.24012415796E+03  0.00000000000E+00 0. -1.
         21    1    1    2  506  501  0.15997296393E+01  0.39069091775E+02  0.57029367101E+03  0.57163259552E+03  0.00000000000E+00 0. -1.
<scales pt_clust_3="14000.00000" pt_clust_4="50.40234" pt_clust_5="74.31286" pt_clust_6="39.10183"></scales>
<clustering>
<clus scale="   39.102">  1  6  2 -1</clus>
<clus scale="   50.402">  2  4  1 -1</clus>
<clus scale="   74.313">  2  5  1 -1</clus>
<clus scale="   39.102">  1  3  2 -1</clus>
</clustering>
</event>
<event>
 6    0  0.4227619E+002  0.3114969E+03  0.7546771E-02  0.1079631E+00
         21   -1    0    0  504  501  0.00000000000E+00  0.00000000000E+00  0.12065809992E+03  0.12065809992E+03  0.00000000000E+00 0.  1.
         21   -1    0    0  505  502 -0.00000000000E+00 -0.00000000000E+00 -0.14301799835E+04  0.14301799835E+04  0.00000000000E+00 0. -1.
         21    1    1    2  503  502 -0.11661948824E+02  0.31310699894E+03 -0.82775917238E+03  0.88507470944E+03  0.00000000000E+00 0. -1.
         21    1    1    2  504  503 -0.28227036962E+02 -0.35688156314E+02  0.46947755025E+01  0.45743316821E+02  0.00000000000E+00 0.  1.
         21    1    1    2  505  506 -0.11531311562E+02 -0.30881686217E+03 -0.46011996254E+03  0.55426636686E+03  0.00000000000E+00 0.  1.
         21    1    1    2  506  501  0.51420297349E+02  0.31398019543E+02 -0.26337524200E+02  0.65753690327E+02  0.00000000000E+00 0. -1.
<scales pt_clust_3="14000.00000" pt_clust_4="45.50176" pt_clust_5="311.49691" pt_clust_6="51.53587"></scales>
<clustering>
<clus scale="   45.502">  1  4  2 -1</clus>
<clus scale="   51.536">  1  6  2 -1</clus>
<clus scale="  311.497">  1  5  2 -1</clus>
<clus scale="   45.502">  1  3  2 -1</clus>
</clustering>
</event>
<event>
 6    0  0.4227619E+002  0.1501303E+03  0.7546771E-02  0.1200313E+00
         21   -1    0    0  505  501  0.00000000000E+00  0.00000000000E+00  0.10887761745E+03  0.10887761745E+03  0.00000000000E+00 0.  1.
         21   -1    0    0  506  502 -0.00000000000E+00 -0.00000000000E+00 -0.10911681867E+04  0.10911681867E+04  0.00000000000E+00 0. -1.
         21    1    1    2  503  504  0.23271365019E+02 -0.14376301658E+03 -0.72194632991E+02  0.16254668991E+03  0.00000000000E+00 0. -1.
         21    1    1    2  504  501 -0.60893492508E+02 -0.36390658673E+02 -0.93777021774E+02  0.11758582942E+03  0.00000000000E+00 0. -1.
         21    1    1    2  505  502  0.51137472460E+01  0.31543204288E+02  0.39427334016E+02  0.50750751869E+02  0.00000000000E+00 0.  1.
         21    1    1    2  506  503  0.32508380242E+02  0.14861047097E+03 -0.85574624854E+03  0.86916253299E+03  0.00000000000E+00 0. -1.
<scales pt_clust_3="150.13029" pt_clust_4="67.25470" pt_clust_5="31.95503" pt_clust_6="14000.00000"></scales>
<clustering>
<clus scale="   31.955">  1  5  2 -1</clus>
<clus scale="   67.255">  1  4  2 -1</clus>
<clus scale="  150.130">  1  3  2 -1</clus>
<clus scale="   31.955">  1  3  2 -1</clus>
</clustering>
</event>
<event>
 6    0  0.4227619E+002  0.2056519E+03  0.7546771E-02  0.1145056E+00
         21   -1    0    0  506  501  0.00000000000E+00  0.00000000000E+00  0.17176040021E+03  0.17176040021E+03  0.00000000000E+00 0. -1.
         21   -1    0    0  503  502 -0.00000000000E+00 -0.00000000000E+00 -0.22096784555E+03  0.22096784555E+03  0.00000000000E+00 0. -1.
         21    1    1    2  503  504 -0.28898179445E+02 -0.34231315403E+02  0.83782548322E+01  0.45575024777E+02  0.00000000000E+00 0. -1.
         21    1    1    2  504  505  0.79008597949E+01 -0.91179236453E+02 -0.30806342050E+02  0.96566595965E+02  0.00000000000E+00 0. -1.
         21    1    1    2  505  501  0.21515055085E+02 -0.54437651241E+02  0.24672937862E+02  0.63522510425E+02  0.00000000000E+00 0. -1.
         21    1    1    2  506  502 -0.51773543540E+00  0.17984820310E+03 -0.51452295988E+02  0.18706411460E+03  0.00000000000E+00 0. -1.
<scales pt_clust_3="41.58277" pt_clust_4="46.22844" pt_clust_5="46.22844" pt_clust_6="179.84895"></scales>
<clustering>
<clus scale="   41.583">  3  4 -1 -1</clus>
<clus scale="   46.228">  3  5 -1 -1</clus>
<clus scale="  179.849">  2  6  1 -1</clus>
<clus scale="  205.652">  1  3  2 -1</clus>
</clustering>
</event>
<event>
 6    0  0.4227619E+002  0.1611400E+03  0.7546771E-02  0.1187416E+00
         21   -1    0    0  504  501  0.00000000000E+00  0.00000000000E+00  0.24983787091E+03  0.24983787091E+03  0.00000000000E+00 0. -1.
         21   -1    0    0  503  502 -0.00000000000E+00 -0.00000000000E+00 -0.13194504026E+04  0.13194504026E+04  0.00000000000E+00 0. -1.
         21    1    1    2  503  501  0.46098660014E+02 -0.39136544333E+02  0.34476782988E+02  0.69608937089E+02  0.00000000000E+00 0. -1.
         21    1    1    2  504  506 -0.12063889606E+02 -0.43168250603E+02  0.16337795247E+03  0.16941484777E+03  0.00000000000E+00 0. -1.
         21    1    1    2  505  502  0.27372847978E+02  0.17486566215E+03 -0.11674556276E+04  0.11807963055E+04  0.00000000000E+00 0. -1.
         21    1    1    2  506  505 -0.61407618387E+02 -0.92560867211E+02 -0.10001163951E+03  0.14946818314E+03  0.00000000000E+00 0. -1.
<scales pt_clust_3="76.49843" pt_clust_4="44.82226" pt_clust_5="14000.00000" pt_clust_6="161.13998"></scales>
<clustering>
<clus scale="   44.822">  1  4  2 -1</clus>
<clus scale="   76.498">  1  3  2 -1</clus>
<clus scale="  161.140">  1  6  2 -1</clus>
<clus scale="   44.822">  1  3  2 -1</clus>
</clustering>
</event>
<event>
 6    0  0.4227619E+002  0.8453958E+02  0.7546771E-02  0.1316641E+00
         21   -1    0    0  504  501  0.00000000000E+00  0.00000000000E+00  0.63575870472E+03  0.63575870472E+03  0.00000000000E+00 0. -1.
         21   -1    0    0  506  502 -0.00000000000E+00 -0.00000000000E+00 -0.36554616000E+03  0.36554616000E+03  0.00000000000E+00 0. -1.
         21    1    1    2  503  501  0.11320932160E+03 -0.33946650699E+02  0.46074396986E+03  0.47566136206E+03  0.00000000000E+00 0. -1.
         21    1    1    2  504  505 -0.30938860035E+02  0.28370170633E+02  0.92428864906E+02  0.10151440642E+03  0.00000000000E+00 0. -1.
         21    1    1    2  505  502 -0.59744500236E+02  0.66637672102E+02  0.37565290030E+02  0.97062534825E+02  0.00000000000E+00 0. -1.
         21    1    1    2  506  503 -0.22525961329E+02 -0.61061192036E+02 -0.32052558008E+03  0.32706656141E+03  0.00000000000E+00 0. -1.
<scales pt_clust_3="84.53958" pt_clust_4="41.97713" pt_clust_5="14000.00000" pt_clust_6="64.98756"></scales>
<clustering>
<clus scale="   41.977">  1  4  2 -1</clus>
<clus scale="   64.988">  2  6  1 -1</clus>
<clus scale="   84.540">  1  3  2 -1</clus>
<clus scale="   41.977">  1  3  2 -1</clus>
</clustering>
</event>
<event>
 6    0  0.4227619E+002  0.8010736E+02  0.7546771E-02  0.1328747E+00
         21   -1    0    0  503  501  0.00000000000E+00  0.00000000000E+00  0.39180852290E+02  0.39180852290E+02  0.00000000000E+00 0. -1.
         21   -1    0    0  504  502 -0.00000000000E+00 -0.00000000000E+00 -0.16297593682E+04  0.16297593682E+04  0.00000000000E+00 0. -1.
         21    1    1    2  503  505  0.85319170548E+02 -0.64598450780E+01 -0.37718547741E+02  0.93508177745E+02  0.00000000000E+00 0. -1.
         21    1    1    2  504  506  0.35214717634E+02 -0.31812388821E+02 -0.13747378142E+03  0.14543433225E+03  0.00000000000E+00 0. -1.
         21    1    1    2  505  502 -0.76412148942E+02  0.23555292893E+02 -0.13329447959E+04  0.13353409667E+04  0.00000000000E+00 0. -1.
         21    1    1    2  506  501 -0.44121739240E+02  0.14716941006E+02 -0.82441390817E+02  0.94656743796E+02  0.00000000000E+00 0.  1.
<scales pt_clust_3="14000.00000" pt_clust_4="42.38834" pt_clust_5="80.10736" pt_clust_6="46.51146"></scales>
<clustering>
<clus scale="   46.511">  1  6  2 -1</clus>
<clus scale="   42.388">  1  4  2 -1</clus>
<clus scale="   80.107">  2  5  1 -1</clus>
<clus scale="   46.511">  1  3  2 -1</clus>
</clustering>
</event>
<event>
 6    0  0.4227619E+002  0.1103683E+03  0.7546771E-02  0.1259889E+00
         21   -1    0    0  505  501  0.00000000000E+00  0.00000000000E+00  0.22332863680E+02  0.22332863680E+02  0.00000000000E+00 0.  1.
         21   -1    0    0  503  502 -0.00000000000E+00 -0.00000000000E+00 -0.27924341470E+04  0.27924341470E+04  0.00000000000E+00 0.  1.
         21    1    1    2  503  506 -0.10265317847E+03 -0.40324946241E+01 -0.44623887513E+03  0.45791163966E+03  0.00000000000E+00 0.  1.
         21    1    1    2  504  502  0.28108941685E+02 -0.16884656692E+02 -0.15190361943E+04  0.15193900631E+04  0.00000000000E+00 0.  1.
         21    1    1    2  505  504 -0.53216033087E+02  0.65903233238E+02 -0.19210221481E+03  0.20994866816E+03  0.00000000000E+00 0.  1.
         21    1    1    2  506  501  0.12776026987E+03 -0.44986081922E+02 -0.61272399910E+03  0.62751663978E+03  0.00000000000E+00 0.  1.
<scales pt_clust_3="110.36831" pt_clust_4="32.79031" pt_clust_5="79.86398" pt_clust_6="14000.00000"></scales>
<clustering>
<clus scale="   32.790">  2  4  1 -1</clus>
<clus scale="   79.864">  1  5  2 -1</clus>
<clus scale="  110.368">  2  3  1 -1</clus>
<clus scale="   79.864">  1  3  2 -1</clus>
</clustering>
</event>
<event>
 6    0  0.4227619E+002  0.2667499E+03  0.7546771E-02  0.1103154E+00
         21   -1    0    0  503  501  0.00000000000E+00  0.00000000000E+00  0.50039692037E+03  0.50039692037E+03  0.00000000000E+00 0.  1.
         21   -1    0    0  501  502 -0.00000000000E+00 -0.00000000000E+00 -0.10197227249E+04  0.10197227249E+04  0.00000000000E+00 0.  1.
         21    1    1    2  503  504 -0.39389897789E+02 -0.35869393199E+02  0.33529297539E+03  0.33949897903E+03  0.00000000000E+00 0.  1.
         21    1    1    2  504  505 -0.14116610869E+03  0.21151538943E+03  0.30478909965E+02  0.25611636840E+03  0.00000000000E+00 0.  1.
         21    1    1    2  505  506  0.13309641997E+03 -0.17300068201E+03 -0.75830148891E+03  0.78909127550E+03  0.00000000000E+00 0.  1.
         21    1    1    2  506  502  0.47459586512E+02 -0.26453142140E+01 -0.12679620092E+03  0.13541302230E+03  0.00000000000E+00 0. -1.
<scales pt_clust_3="53.27455" pt_clust_4="251.58936" pt_clust_5="41.36766" pt_clust_6="41.36766"></scales>
<clustering>
<clus scale="   41.368">  5  6 -1 -1</clus>
<clus scale="   53.275">  1  3  2 -1</clus>
<clus scale="  251.589">  1  4  2 -1</clus>
<clus scale="   53.275">  1  3  2 -1</clus>
</clustering>
</event>
<event>
 6    0  0.4227619E+002  0.2198569E+03  0.7546771E-02  0.1133990E+00
         21   -1    0    0  506  501  0.00000000000E+00  0.00000000000E+00  0.75183657371E+03  0.75183657371E+03  0.00000000000E+00 0. -1.
         21   -1    0    0  505  502 -0.00000000000E+00 -0.00000000000E+00 -0.21458898410E+03  0.21458898410E+03  0.00000000000E+00 0. -1.
         21    1    1    2  503  501 -0.13863674989E+03  0.15704485952E+02  0.50173275542E+03  0.52077109862E+03  0.00000000000E+00 0. -1.
         21    1    1    2  504  503 -0.47108953868E+02  0.51705728686E+02  0.12572499092E+03  0.14387324023E+03  0.00000000000E+00 0. -1.
         21    1    1    2  505  504  0.19743680779E+02  0.69619543157E+02 -0.16162121517E+02  0.74147878540E+02  0.00000000000E+00 0.  1.
         21    1    1    2  506  502  0.16600202298E+03 -0.13702975779E+03 -0.74048035202E+02  0.22763334042E+03  0.00000000000E+00 0. -1.
<scales pt_clust_3="67.18380" pt_clust_4="67.18380" pt_clust_5="72.36500" pt_clust_6="198.32750"></scales>
<clustering>
<clus scale="   67.184">  3  4 -1 -1</clus>
<clus scale="   72.365">  2  5  1 -1</clus>
<clus scale="  198.327">  2  6  1 -1</clus>
<clus scale="  219.857">  1  3  2 -1</clus>
</clustering>
</event>
<event>
 6    0  0.4227619E+002  0.1481187E+03  0.7546771E-02  0.1202804E+00
         21   -1    0    0  504  501  0.00000000000E+00  0.00000000000E+00  0.47102492864E+03  0.47102492864E+03  0.00000000000E+00 0. -1.
         21   -1    0    0  506  502 -0.00000000000E+00 -0.00000000000E+00 -0.15548587115E+04  0.15548587115E+04  0.00000000000E+00 0.  1.
         21    1    1    2  503  502  0.15377395444E+03 -0.20731007751E+03 -0.19623342758E+03  0.32423981156E+03  0.00000000000E+00 0. -1.
         21    1    1    2  504  503  0.25434927988E+02 -0.33483278014E+02  0.12005190753E+03  0.12720269639E+03  0.00000000000E+00 0.  1.
         21    1    1    2  505  501 -0.13000776678E+03  0.11336261115E+03  0.25311195774E+03  0.30629848870E+03  0.00000000000E+00 0. -1.
         21    1    1    2  506  505 -0.49201115646E+02  0.12743074438E+03 -0.12607642205E+04  0.12681426435E+04  0.00000000000E+00 0.  1.
<scales pt_clust_3="14000.00000" pt_clust_4="42.04837" pt_clust_5="148.11873" pt_clust_6="136.17027"></scales>
<clustering>
<clus scale="   42.048">  1  4  2 -1</clus>
<clus scale="  136.170">  2  6  1 -1</clus>
<clus scale="  148.119">  1  5  2 -1</clus>
<clus scale="   42.048">  1  3  2 -1</clus>
</clustering>
</event>
<event>
 6    0  0.4227619E+002  0.1110439E+03  0.7546771E-02  0.1258649E+00
         21   -1    0    0  506  501  0.00000000000E+00  0.00000000000E+00  0.98100717998E+03  0.98100717998E+03  0.00000000000E+00 0. -1.
         21   -1    0    0  503  502 -0.00000000000E+00 -0.00000000000E+00 -0.29716443653E+03  0.29716443653E+03  0.00000000000E+00 0. -1.
         21    1    1    2  503  501 -0.59144192033E+02 -0.25593786842E+02 -0.22055145424E+03  0.22977384825E+03  0.00000000000E+00 0. -1.
         21    1    1    2  504  505  0.96572169991E+02 -0.32609797952E+02  0.73847447173E+03  0.74547577314E+03  0.00000000000E+00 0. -1.
         21    1    1    2  505  502 -0.35084694539E+02  0.90939738576E+02 -0.31775147051E+02  0.10252137247E+03  0.00000000000E+00 0. -1.
         21    1    1    2  506  504 -0.23432834188E+01 -0.32736153782E+02  0.19769487301E+03  0.20040062264E+03  0.00000000000E+00 0. -1.
<scales pt_clust_3="64.53395" pt_clust_4="111.04392" pt_clust_5="14000.00000" pt_clust_6="32.81991"></scales>
<clustering>
<clus scale="   32.820">  1  6  2 -1</clus>
<clus scale="   64.534">  2  3  1 -1</clus>
<clus scale="  111.044">  1  4  2 -1</clus>
<clus scale="   32.820">  1  3  2 -1</clus>
</clustering>
</event>
<event>
 6    0  0.4227619E+002  0.1148935E+03  0.7546771E-02  0.1251767E+00
         21   -1    0    0  503  501  0.00000000000E+00  0.00000000000E+00  0.58735250599E+02  0.58735250599E+02  0.00000000000E+00 0. -1.
         21   -1    0    0  506  502 -0.00000000000E+00 -0.00000000000E+00 -0.12390459941E+04  0.12390459941E+04  0.00000000000E+00 0. -1.
         21    1    1    2  503  502  0.72829571451E+02 -0.10341467086E+03 -0.59689220564E+03  0.61014674118E+03  0.00000000000E+00 0. -1.
         21    1    1    2  504  501 -0.42032088670E+02  0.11101507829E+02 -0.61305247432E+02  0.75154995288E+02  0.00000000000E+00 0. -1.
         21    1    1    2  505  504  0.72709340737E+02  0.47543692515E+02 -0.92514180447E+01  0.87364979621E+02  0.00000000000E+00 0. -1.
         21    1    1    2  506  505 -0.10350682352E+03  0.44769470521E+02 -0.51286187243E+03  0.52511452865E+03  0.00000000000E+00 0. -1.
<scales pt_clust_3="114.89353" pt_clust_4="43.47344" pt_clust_5="69.34810" pt_clust_6="14000.00000"></scales>
<clustering>
<clus scale="   43.473">  1  4  2 -1</clus>
<clus scale="   69.348">  1  5  2 -1</clus>
<clus scale="  114.894">  1  3  2 -1</clus>
<clus scale="   43.473">  1  3  2 -1</clus>
</clustering>
</event>
<event>
 6    0  0.4227619E+002  0.1545558E+03  0.7546771E-02  0.1194984E+00
         21   -1    0    0  504  501  0.00000000000E+00  0.00000000000E+00  0.39223701171E+03  0.39223701171E+03  0.00000000000E+00 0.  1.
         21   -1    0    0  503  502 -0.00000000000E+00 -0.00000000000E+00 -0.54271664459E+03  0.54271664459E+03  0.00000000000E+00 0. -1.
         21    1    1    2  503  506 -0.32080949243E+02  0.10831184478E+02 -0.29309501620E+03  0.29504438714E+03  0.00000000000E+00 0. -1.
         21    1    1    2  504  505 -0.46756864370E+02 -0.10242581000E+03  0.99510699024E+02  0.15026519937E+03  0.00000000000E+00 0.  1.
         21    1    1    2  505  502  0.50330260687E+00  0.16022226904E+03 -0.18147983277E+03  0.24208750176E+03  0.00000000000E+00 0. -1.
         21    1    1    2  506  501  0.78334511006E+02 -0.68627643508E+02  0.22458451706E+03  0.24755656803E+03  0.00000000000E+00 0.  1.
<scales pt_clust_3="33.86003" pt_clust_4="154.55580" pt_clust_5="14000.00000" pt_clust_6="102.70173"></scales>
<clustering>
<clus scale="   33.860">  2  3  1 -1</clus>
<clus scale="  102.702">  1  6  2 -1</clus>
<clus scale="  154.556">  1  4  2 -1</clus>
<clus scale="  102.702">  1  3  2 -1</clus>
</clustering>
</event>
<event>
 6    0  0.4227619E+002  0.1525133E+03  0.7546771E-02  0.1197418E+00
         21   -1    0    0  503  501  0.00000000000E+00  0.00000000000E+00  0.15996144291E+03  0.15996144291E+03  0.00000000000E+00 0.  1.
         21   -1    0    0  504  502 -0.00000000000E+00 -0.00000000000E+00 -0.15835375281E+04  0.15835375281E+04  0.00000000000E+00 0.  1.
         21    1    1    2  503  506  0.17974756584E+02  0.13809872130E+03  0.11447287296E+03  0.18027309102E+03  0.00000000000E+00 0.  1.
         21    1    1    2  504  501 -0.24175830550E+02  0.23455072599E+02 -0.94588921092E+03  0.94648877993E+03  0.00000000000E+00 0.  1.
         21    1    1    2  505  502  0.14021837798E+02 -0.63926657441E+02 -0.33966792825E+03  0.34591549684E+03  0.00000000000E+00 0. -1.
         21    1    1    2  506  505 -0.78207638319E+01 -0.97627136463E+02 -0.25249181897E+03  0.27082160321E+03  0.00000000000E+00 0. -1.
<scales pt_clust_3="140.31007" pt_clust_4="33.68399" pt_clust_5="45.19884" pt_clust_6="45.19884"></scales>
<clustering>
<clus scale="   33.684">  2  4  1 -1</clus>
<clus scale="   45.199">  5  6 -1 -1</clus>
<clus scale="  140.310">  1  3  2 -1</clus>
<clus scale="  140.310">  1  3  2 -1</clus>
</clustering>
</event>
<event>
 6    0  0.4227619E+002  0.3113586E+03  0.7546771E-02  0.1079696E+00
         21   -1    0    0  505  501  0.00000000000E+00  0.00000000000E+00  0.43842454709E+03  0.43842454709E+03  0.00000000000E+00 0.  1.
         21   -1    0    0  506  502 -0.00000000000E+00 -0.00000000000E+00 -0.65571426457E+03  0.65571426457E+03  0.00000000000E+00 0.  1.
         21    1    1    2  503  501 -0.33180536716E+03  0.17976435124E+03  0.22703360225E+03  0.44040240713E+03  0.00000000000E+00 0.  1.
         21    1    1    2  504  502  0.88969238904E+02  0.57933168049E+02 -0.59602225881E+02  0.12175468271E+03  0.00000000000E+00 0.  1.
         21    1    1    2  505  504  0.57629434521E+02 -0.36024234891E+02 -0.11246382336E+02  0.68886706543E+02  0.00000000000E+00 0. -1.
         21    1    1    2  506  503  0.18520669374E+03 -0.20167328440E+03 -0.37347471151E+03  0.46309501528E+03  0.00000000000E+00 0.  1.
<scales pt_clust_3="311.35860" pt_clust_4="108.44208" pt_clust_5="67.96247" pt_clust_6="14000.00000"></scales>
<clustering>
<clus scale="   67.962">  1  5  2 -1</clus>
<clus scale="  108.442">  2  4  1 -1</clus>
<clus scale="  311.359">  1  3  2 -1</clus>
<clus scale="   67.962">  1  3  2 -1</clus>
</clustering>
</event>
<event>
 6    0  0.4227619E+002  0.1127853E+03  0.7546771E-02  0.1255497E+00
         21   -1    0    0  506  501  0.00000000000E+00  0.00000000000E+00  0.14137409317E+04  0.14137409317E+04  0.00000000000E+00 0. -1.
         21   -1    0    0  504  502 -0.00000000000E+00 -0.00000000000E+00 -0.68432835138E+03  0.68432835138E+03  0.00000000000E+00 0. -1.
         21    1    1    2  503  502 -0.40068792100E+02  0.10685600161E+03 -0.15338485601E+03  0.19118218336E+03  0.00000000000E+00 0. -1.
         21    1    1    2  504  505 -0.40759910953E+02  0.43106301984E+01 -0.43185097701E+03  0.43379167606E+03  0.00000000000E+00 0. -1.
         21    1    1    2  505  501  0.12862228882E+03 -0.11348545214E+02 -0.22762832787E+02  0.13111303984E+03  0.00000000000E+00 0.  1.
         21    1    1    2  506  503 -0.47793585764E+02 -0.99818086592E+02  0.13374112462E+04  0.13419823839E+04  0.00000000000E+00 0. -1.
<scales pt_clust_3="112.78530" pt_clust_4="40.98722" pt_clust_5="14000.00000" pt_clust_6="110.79531"></scales>
<clustering>
<clus scale="   40.987">  2  4  1 -1</clus>
<clus scale="  110.795">  1  6  2 -1</clus>
<clus scale="  112.785">  2  3  1 -1</clus>
<clus scale="  110.795">  1  3  2 -1</clus>
</clustering>
</event>
<event>
 6    0  0.4227619E+002  0.1244863E+03  0.7546771E-02  0.1235874E+00
         21   -1    0    0  504  501  0.00000000000E+00  0.00000000000E+00  0.21369822830E+03  0.21369822830E+03  0.00000000000E+00 0.  1.
         21   -1    0    0  503  502 -0.00000000000E+00 -0.00000000000E+00 -0.28776676674E+03  0.28776676674E+03  0.00000000000E+00 0.  1.
         21    1    1    2  503  505 -0.15521104073E+03 -0.53057153694E+02 -0.15446951127E+03  0.22531391132E+03  0.00000000000E+00 0.  1.
         21    1    1    2  504  506 -0.28328305498E+01  0.32915787512E+02  0.52517033334E+02  0.62044442029E+02  0.00000000000E+00 0.  1.
         21    1    1    2  505  501  0.97569852410E+02  0.47572448846E+02  0.75647474746E+02  0.13230855764E+03  0.00000000000E+00 0.  1.
         21    1    1    2  506  502  0.60474018872E+02 -0.27431082665E+02 -0.47763535245E+02  0.81798084047E+02  0.00000000000E+00 0.  1.
<scales pt_clust_3="124.48627" pt_clust_4="33.03746" pt_clust_5="14000.00000" pt_clust_6="64.72056"></scales>
<clustering>
<clus scale="   33.037">  1  4  2 -1</clus>
<clus scale="   64.721">  2  6  1 -1</clus>
<clus scale="  124.486">  2  3  1 -1</clus>
<clus scale="   33.037">  1  3  2 -1</clus>
</clustering>
</event>
<event>
 6    0  0.4227619E+002  0.9413616E+02  0.7546771E-02  0.1293134E+00
         21   -1    0    0  505  501  0.00000000000E+00  0.00000000000E+00  0.36346721475E+03  0.36346721475E+03  0.00000000000E+00 0. -1.
         21   -1    0    0  501  502 -0.00000000000E+00 -0.00000000000E+00 -0.29683442548E+03  0.29683442548E+03  0.00000000000E+00 0. -1.
         21    1    1    2  503  506  0.12676965830E+03 -0.26166725512E+02  0.27645084333E+02  0.13236122724E+03  0.00000000000E+00 0. -1.
         21    1    1    2  504  503 -0.64026589510E+02 -0.25526777402E+02  0.16475962465E+03  0.17859662495E+03  0.00000000000E+00 0. -1.
         21    1    1    2  505  504 -0.29929844578E+02  0.47424965568E+02  0.10348921526E+03  0.11770701181E+03  0.00000000000E+00 0. -1.
         21    1    1    2  506  502 -0.32813224210E+02  0.42685373460E+01 -0.22926113497E+03  0.23163677623E+03  0.00000000000E+00 0. -1.
<scales pt_clust_3="94.13616" pt_clust_4="14000.00000" pt_clust_5="58.40522" pt_clust_6="33.08970"></scales>
<clustering>
<clus scale="   33.090">  2  6  1 -1</clus>
<clus scale="   58.405">  1  5  2 -1</clus>
<clus scale="   94.136">  2  3  1 -1</clus>
<clus scale="   58.405">  1  3  2 -1</clus>
</clustering>
</event>
<event>
 6    0  0.4227619E+002  0.1122894E+03  0.7546771E-02  0.1256388E+00
         21   -1    0    0  504  501  0.00000000000E+00  0.00000000000E+00  0.10460677665E+04  0.10460677665E+04  0.00000000000E+00 0. -1.
         21   -1    0    0  505  502 -0.00000000000E+00 -0.00000000000E+00 -0.71277359728E+03  0.71277359728E+03  0.00000000000E+00 0. -1.
         21    1    1    2  503  501 -0.17911017299E+02  0.96352658076E+02  0.91525436230E+03  0.92048638609E+03  0.00000000000E+00 0. -1.
         21    1    1    2  504  506 -0.41495955398E+02 -0.33435429155E+00  0.10859456098E+03  0.11625319257E+03  0.00000000000E+00 0. -1.
         21    1    1    2  505  503  0.35899959626E+02 -0.55941775736E+01 -0.13701759079E+02  0.38830917137E+02  0.00000000000E+00 0. -1.
         21    1    1    2  506  502  0.23507013072E+02 -0.90424126211E+02 -0.67685299497E+03  0.68327086801E+03  0.00000000000E+00 0. -1.
<scales pt_clust_3="112.28942" pt_clust_4="41.29732" pt_clust_5="36.33321" pt_clust_6="14000.00000"></scales>
<clustering>
<clus scale="   36.333">  2  5  1 -1</clus>
<clus scale="   41.297">  1  4  2 -1</clus>
<clus scale="  112.289">  1  3  2 -1</clus>
<clus scale="   41.297">  1  3  2 -1</clus>
</clustering>
</event>
<event>
 6    0  0.4227619E+002  0.1658082E+03  0.7546771E-02  0.1182291E+00
         21   -1    0    0  504  501  0.00000000000E+00  0.00000000000E+00  0.11671117293E+04  0.11671117293E+04  0.00000000000E+00 0. -1.
         21   -1    0    0  503  502 -0.00000000000E+00 -0.00000000000E+00 -0.54599652398E+03  0.54599652398E+03  0.00000000000E+00 0. -1.
         21    1    1    2  503  506 -0.11821510610E+01 -0.19329051725E+03  0.16110588641E+03  0.25163014163E+03  0.00000000000E+00 0. -1.
         21    1    1    2  504  505  0.38477007973E+02  0.13988186453E+03  0.37680031270E+02  0.14989062987E+03  0.00000000000E+00 0. -1.
         21    1    1    2  505  502 -0.18494706293E+02  0.25423385331E+02 -0.44374496975E+03  0.44485728145E+03  0.00000000000E+00 0. -1.
         21    1    1    2  506  501 -0.18800150619E+02  0.27985267387E+02  0.86607425743E+03  0.86673020037E+03  0.00000000000E+00 0. -1.
<scales pt_clust_3="165.80825" pt_clust_4="14000.00000" pt_clust_5="31.43887" pt_clust_6="33.81513"></scales>
<clustering>
<clus scale="   31.439">  2  5  1 -1</clus>
<clus scale="   33.815">  1  6  2 -1</clus>
<clus scale="  165.808">  1  3  2 -1</clus>
<clus scale="   33.815">  1  3  2 -1</clus>
</clustering>
</event>
<event>
 6    0  0.4227619E+002  0.1488041E+03  0.7546771E-02  0.1201950E+00
         21   -1    0    0  504  501  0.00000000000E+00  0.00000000000E+00  0.12993435558E+04  0.12993435558E+04  0.00000000000E+00 0. -1.
         21   -1    0    0  506  502 -0.00000000000E+00 -0.00000000000E+00 -0.83488674793E+02  0.83488674793E+02  0.00000000000E+00 0. -1.
         21    1    1    2  503  505  0.39436435024E+02 -0.17762306055E+02  0.72290583970E+02  0.84241678845E+02  0.00000000000E+00 0. -1.
         21    1    1    2  504  503  0.65542397920E+02  0.12996692784E+03  0.10258329581E+04  0.10361083275E+04  0.00000000000E+00 0. -1.
         21    1    1    2  505  502  0.31379462209E+02  0.24961556918E+02  0.11011950511E+02  0.41581402410E+02  0.00000000000E+00 0. -1.
         21    1    1    2  506  501 -0.13635829515E+03 -0.13716617870E+03  0.10671938836E+03  0.22090082184E+03  0.00000000000E+00 0. -1.
<scales pt_clust_3="44.96914" pt_clust_4="14000.00000" pt_clust_5="40.09676" pt_clust_6="148.80409"></scales>
<clustering>
<clus scale="   40.097">  2  5  1 -1</clus>
<clus scale="   44.969">  2  3  1 -1</clus>
<clus scale="  148.804">  2  6  1 -1</clus>
<clus scale="  148.804">  1  3  2 -1</clus>
</clustering>
</event>
<event>
 6    0  0.4227619E+002  0.1194604E+03  0.7546771E-02  0.1243990E+00
         21   -1    0    0  505  501  0.00000000000E+00  0.00000000000E+00  0.81969126094E+03  0.81969126094E+03  0.00000000000E+00 0.  1.
         21   -1    0    0  503  502 -0.00000000000E+00 -0.00000000000E+00 -0.16809283291E+03  0.16809283291E+03  0.00000000000E+00 0. -1.
         21    1    1    2  503  506 -0.66234858153E+02  0.22611539138E+02  0.12561592014E+02  0.71106481636E+02  0.00000000000E+00 0.  1.
         21    1    1    2  504  502 -0.58203731418E+02 -0.39688778054E+02 -0.12019331701E+03  0.13931728862E+03  0.00000000000E+00 0. -1.
         21    1    1    2  505  504  0.98025675210E+02  0.60921415939E+02  0.54725701132E+03  0.55929481345E+03  0.00000000000E+00 0.  1.
         21    1    1    2  506  501  0.26412914361E+02 -0.43844177023E+02  0.21197314172E+03  0.21806551014E+03  0.00000000000E+00 0.  1.
<scales pt_clust_3="67.31738" pt_clust_4="119.46044" pt_clust_5="14000.00000" pt_clust_6="51.18549"></scales>
<clustering>
<clus scale="   51.185">  1  6  2 -1</clus>
<clus scale="   67.317">  2  3  1 -1</clus>
<clus scale="  119.460">  2  4  1 -1</clus>
<clus scale="   51.185">  1  3  2 -1</clus>
</clustering>
</event>
<event>
 6    0  0.4227619E+002  0.7889996E+02  0.7546771E-02  0.1332202E+00
         21   -1    0    0  503  501  0.00000000000E+00  0.00000000000E+00  0.15005318414E+03  0.15005318414E+03  0.00000000000E+00 0.  1.
         21   -1    0    0  505  502 -0.00000000000E+00 -0.00000000000E+00 -0.14876572748E+04  0.14876572748E+04  0.00000000000E+00 0. -1.
         21    1    1    2  503  504  0.48459463780E+02  0.41938148887E+00 -0.52920911137E+02  0.71757357436E+02  0.00000000000E+00 0. -1.
         21    1    1    2  504  502 -0.35274188534E+02 -0.41229212481E+02 -0.43083546088E+02  0.69284257101E+02  0.00000000000E+00 0. -1.
         21    1    1    2  505  506  0.76954011406E+02  0.17249060729E+02 -0.13508139416E+04  0.13531140953E+04  0.00000000000E+00 0. -1.
         21    1    1    2  506  501 -0.90139286652E+02  0.23560770262E+02  0.10921430817E+03  0.14355474914E+03  0.00000000000E+00 0.  1.
<scales pt_clust_3="48.46128" pt_clust_4="51.40830" pt_clust_5="14000.00000" pt_clust_6="78.89996"></scales>
<clustering>
<clus scale="   48.461">  1  3  2 -1</clus>
<clus scale="   51.408">  1  4  2 -1</clus>
<clus scale="   78.900">  1  6  2 -1</clus>
<clus scale="   48.461">  1  3  2 -1</clus>
</clustering>
</event>
<event>
 6    0  0.4227619E+002  0.1138627E+03  0.7546771E-02  0.1253579E+00
         21   -1    0    0  505  501  0.00000000000E+00  0.00000000000E+00  0.10329433357E+03  0.10329433357E+03  0.00000000000E+00 0.  1.
         21   -1    0    0  506  502 -0.00000000000E+00 -0.00000000000E+00 -0.21491658558E+04  0.21491658558E+04  0.00000000000E+00 0.  1.
         21    1    1    2  503  502  0.16947480204E+02  0.56871334930E+02 -0.17037126898E+03  0.18041046287E+03  0.00000000000E+00 0.  1.
         21    1    1    2  504  501 -0.43936763190E+01 -0.16924425445E+03 -0.14410656188E+03  0.22232773833E+03  0.00000000000E+00 0.  1.
         21    1    1    2  505  503  0.20883386563E+02  0.59823626154E+02  0.41493541956E+02  0.75740980352E+02  0.00000000000E+00 0.  1.
         21    1    1    2  506  504 -0.33437190448E+02  0.52549293364E+02 -0.17728872333E+04  0.17739810078E+04  0.00000000000E+00 0.  1.
<scales pt_clust_3="59.34278" pt_clust_4="113.86270" pt_clust_5="63.87818" pt_clust_6="14000.00000"></scales>
<clustering>
<clus scale="   59.343">  2  3  1 -1</clus>
<clus scale="   63.878">  1  5  2 -1</clus>
<clus scale="  113.863">  1  4  2 -1</clus>
<clus scale="   63.878">  1  3  2 -1</clus>
</clustering>
</event>
<event>
 6    0  0.4227619E+002  0.1099529E+03  0.7546771E-02  0.1260657E+00
         21   -1    0    0  506  501  0.00000000000E+00  0.00000000000E+00  0.12175087614E+03  0.12175087614E+03  0.00000000000E+00 0.  1.
         21   -1    0    0  505  502 -0.00000000000E+00 -0.00000000000E+00 -0.41474090369E+03  0.41474090369E+03  0.00000000000E+00 0. -1.
         21    1    1    2  503  501 -0.53908281031E+02 -0.33120817237E+02 -0.11018387132E+02  0.64222240332E+02  0.00000000000E+00 0. -1.
         21    1    1    2  504  502  0.21891912581E+02  0.49759442019E+02 -0.10816321774E+03  0.12105593574E+03  0.00000000000E+00 0. -1.
         21    1    1    2  505  503 -0.10696278360E+03 -0.61625240019E+02 -0.16336720411E+03  0.20476218074E+03  0.00000000000E+00 0. -1.
         21    1    1    2  506  504  0.13897915205E+03  0.44986615237E+02 -0.10441218568E+02  0.14645142301E+03  0.00000000000E+00 0.  1.
<scales pt_clust_3="57.79713" pt_clust_4="54.36228" pt_clust_5="14000.00000" pt_clust_6="109.95292"></scales>
<clustering>
<clus scale="   54.362">  2  4  1 -1</clus>
<clus scale="   57.797">  1  3  2 -1</clus>
<clus scale="  109.953">  1  6  2 -1</clus>
<clus scale="   57.797">  1  3  2 -1</clus>
</clustering>
</event>
<event>
 6    0  0.4227619E+002  0.1280517E+03  0.7546771E-02  0.1230376E+00
         21   -1    0    0  503  501  0.00000000000E+00  0.00000000000E+00  0.22288361993E+03  0.22288361993E+03  0.00000000000E+00 0.  1.
         21   -1    0    0  505  502 -0.00000000000E+00 -0.00000000000E+00 -0.23201385464E+03  0.23201385464E+03  0.00000000000E+00 0.  1.
         21    1    1    2  503  506 -0.83073497500E+02  0.61948144204E+01 -0.14243307020E+03  0.16500533688E+03  0.00000000000E+00 0.  1.
         21    1    1    2  504  502 -0.22567358192E+02  0.23205392533E+02 -0.15619662560E+02  0.35940920367E+02  0.00000000000E+00 0.  1.
         21    1    1    2  505  501  0.13521801425E+03 -0.85663260477E+00  0.16181176968E+03  0.21087364464E+03  0.00000000000E+00 0.  1.
         21    1    1    2  506  504 -0.29577158560E+02 -0.28543574348E+02 -0.12889271627E+02  0.43077572681E+02  0.00000000000E+00 0. -1.
<scales pt_clust_3="14000.00000" pt_clust_4="32.36937" pt_clust_5="128.05173" pt_clust_6="41.35484"></scales>
<clustering>
<clus scale="   32.369">  2  4  1 -1</clus>
<clus scale="   41.355">  2  6  1 -1</clus>
<clus scale="  128.052">  1  5  2 -1</clus>
<clus scale="  128.052">  1  3  2 -1</clus>
</clustering>
</event>
<event>
 6    0  0.4227619E+002  0.7359102E+02  0.7546771E-02  0.1348291E+00
         21   -1    0    0  505  501  0.00000000000E+00  0.00000000000E+00  0.28354572665E+04  0.28354572665E+04  0.00000000000E+00 0.  1.
         21   -1    0    0  506  502 -0.00000000000E+00 -0.00000000000E+00 -0.11936214452E+02  0.11936214452E+02  0.00000000000E+00 0.  1.
         21    1    1    2  503  502 -0.18847726981E+02 -0.54981667482E+02  0.12162822946E+03  0.13480225062E+03  0.00000000000E+00 0.  1.
         21    1    1    2  504  503  0.38469247292E+02  0.80605356985E+02  0.76576504986E+03  0.77095604164E+03  0.00000000000E+00 0.  1.
         21    1    1    2  505  504 -0.51455756430E+02 -0.52861701463E+02  0.55611550772E+03  0.56098708745E+03  0.00000000000E+00 0.  1.
         21    1    1    2  506  501  0.31834236119E+02  0.27238011960E+02  0.13800122650E+04  0.13806481012E+04  0.00000000000E+00 0.  1.
<scales pt_clust_3="54.97453" pt_clust_4="14000.00000" pt_clust_5="73.59102" pt_clust_6="41.89663"></scales>
<clustering>
<clus scale="   41.897">  1  6  2 -1</clus>
<clus scale="   54.975">  2  3  1 -1</clus>
<clus scale="   73.591">  1  5  2 -1</clus>
<clus scale="   41.897">  1  3  2 -1</clus>
</clustering>
</event>
<event>
 6    0  0.4227619E+002  0.7804660E+02  0.7546771E-02  0.1334688E+00
         21   -1    0    0  505  501  0.00000000000E+00  0.00000000000E+00  0.46985601027E+03  0.46985601027E+03  0.00000000000E+00 0. -1.
         21   -1    0    0  503  502 -0.00000000000E+00 -0.00000000000E+00 -0.60661572511E+02  0.60661572511E+02  0.00000000000E+00 0. -1.
         21    1    1    2  503  506 -0.54890415055E+02  0.22385235917E+02  0.48164567683E+01  0.59474824151E+02  0.00000000000E+00 0. -1.
         21    1    1    2  504  501 -0.24597752076E+02  0.20739468319E+02  0.15963848571E+03  0.16284846045E+03  0.00000000000E+00 0. -1.
         21    1    1    2  505  502  0.27709619909E+02  0.60104211694E+02  0.12734439046E+03  0.14351631643E+03  0.00000000000E+00 0. -1.
         21    1    1    2  506  504  0.51778547221E+02 -0.10322891593E+03  0.11739510482E+03  0.16467798175E+03  0.00000000000E+00 0. -1.
<scales pt_clust_3="62.47622" pt_clust_4="32.17413" pt_clust_5="14000.00000" pt_clust_6="78.04660"></scales>
<clustering>
<clus scale="   32.174">  1  4  2 -1</clus>
<clus scale="   62.476">  2  3  1 -1</clus>
<clus scale="   78.047">  2  6  1 -1</clus>
<clus scale="   32.174">  1  3  2 -1</clus>
</clustering>
</event>
<event>
 6    0  0.4227619E+002  0.1616479E+03  0.7546771E-02  0.1186849E+00
         21   -1    0    0  504  501  0.00000000000E+00  0.00000000000E+00  0.22010168044E+03  0.22010168044E+03  0.00000000000E+00 0. -1.
         21   -1    0    0  501  502 -0.00000000000E+00 -0.00000000000E+00 -0.42304334873E+03  0.42304334873E+03  0.00000000000E+00 0. -1.
         21    1    1    2  503  505 -0.53544919175E+02  0.15921727337E+02 -0.67112328519E+02  0.87319095335E+02  0.00000000000E+00 0. -1.
         21    1    1    2  504  506 -0.89228105580E+02 -0.10869481409E+03  0.44245440037E+02  0.14742413778E+03  0.00000000000E+00 0. -1.
         21    1    1    2  505  502 -0.49925804326E+02 -0.27355678674E+01 -0.18665096888E+03  0.19323212324E+03  0.00000000000E+00 0. -1.
         21    1    1    2  506  503  0.19269882908E+03  0.95508654621E+02  0.65761890629E+01  0.21516967281E+03  0.00000000000E+00 0. -1.
<scales pt_clust_3="71.67352" pt_clust_4="161.64786" pt_clust_5="50.00069" pt_clust_6="14000.00000"></scales>
<clustering>
<clus scale="   50.001">  2  5  1 -1</clus>
<clus scale="   71.674">  2  3  1 -1</clus>
<clus scale="  161.648">  1  4  2 -1</clus>
<clus scale="  161.648">  1  3  2 -1</clus>
</clustering>
</event>
<event>
 6    0  0.4227619E+002  0.1991612E+03  0.7546771E-02  0.1150449E+00
         21   -1    0    0  506  501  0.00000000000E+00  0.00000000000E+00  0.33528769166E+04  0.33528769166E+04  0.00000000000E+00 0. -1.
         21   -1    0    0  503  502 -0.00000000000E+00 -0.00000000000E+00 -0.15683525950E+03  0.15683525950E+03  0.00000000000E+00 0.  1.
         21    1    1    2  503  505  0.18052279303E+03  0.85052723485E+02 -0.75397577864E+02  0.21332425864E+03  0.00000000000E+00 0.  1.
         21    1    1    2  504  501  0.30461938858E+02  0.17893920897E+02  0.13535592873E+04  0.13540202607E+04  0.00000000000E+00 0. -1.
         21    1    1    2  505  504 -0.19809461285E+03 -0.23453680934E+02  0.16666756225E+04  0.16785705768E+04  0.00000000000E+00 0. -1.
         21    1    1    2  506  502 -0.12890119044E+02 -0.79492963448E+02  0.25120432524E+03  0.26379708002E+03  0.00000000000E+00 0. -1.
<scales pt_clust_3="14000.00000" pt_clust_4="35.32877" pt_clust_5="199.16118" pt_clust_6="77.70709"></scales>
<clustering>
<clus scale="   35.329">  1  4  2 -1</clus>
<clus scale="   77.707">  1  6  2 -1</clus>
<clus scale="  199.161">  1  5  2 -1</clus>
<clus scale="   35.329">  1  3  2 -1</clus>
</clustering>
</event>
<event>
 6    0  0.4227619E+002  0.7951779E+02  0.7546771E-02  0.1330425E+00
         21   -1    0    0  505  501  0.00000000000E+00  0.00000000000E+00  0.33460809681E+03  0.33460809681E+03  0.00000000000E+00 0.  1.
         21   -1    0    0  504  502 -0.00000000000E+00 -0.00000000000E+00 -0.93902368154E+02  0.93902368154E+02  0.00000000000E+00 0.  1.
         21    1    1    2  503  506  0.10478337281E+02 -0.79836266639E+02  0.72053869805E+02  0.10805269630E+03  0.00000000000E+00 0.  1.
         21    1    1    2  504  501 -0.38175639522E+02 -0.26182571842E+02 -0.23705001137E+02  0.52008014768E+02  0.00000000000E+00 0.  1.
         21    1    1    2  505  503  0.35775656660E+02  0.18447264032E+02  0.17402059197E+03  0.17861513259E+03  0.00000000000E+00 0.  1.
         21    1    1    2  506  502 -0.80783544185E+01  0.87571574449E+02  0.18336268017E+02  0.89834621312E+02  0.00000000000E+00 0.  1.
<scales pt_clust_3="79.51779" pt_clust_4="42.72342" pt_clust_5="40.25170" pt_clust_6="14000.00000"></scales>
<clustering>
<clus scale="   40.252">  1  5  2 -1</clus>
<clus scale="   42.723">  2  4  1 -1</clus>
<clus scale="   79.518">  1  3  2 -1</clus>
<clus scale="   40.252">  1  3  2 -1</clus>
</clustering>
</event>
<event>
 6    0  0.4227619E+002  0.1631056E+03  0.7546771E-02  0.1185235E+00
         21   -1    0    0  505  501  0.00000000000E+00  0.00000000000E+00  0.30506158880E+03  0.30506158880E+03  0.00000000000E+00 0.  1.
         21   -1    0    0  503  502 -0.00000000000E+00 -0.00000000000E+00 -0.14953234556E+03  0.14953234556E+03  0.00000000000E+00 0.  1.
         21    1    1    2  503  506  0.43361161762E+02 -0.95528975409E+02 -0.29164685248E+02  0.10888780628E+03  0.00000000000E+00 0. -1.
         21    1    1    2  504  501 -0.75834063797E+02  0.12261126126E+03  0.22234742239E+02  0.14587223993E+03  0.00000000000E+00 0.  1.
         21    1    1    2  505  502  0.16049590650E+02  0.25840801415E+02  0.13425159619E+03  0.13765474005E+03  0.00000000000E+00 0.  1.
         21    1    1    2  506  504  0.16423311385E+02 -0.52923087264E+02  0.28207590057E+02  0.62179148106E+02  0.00000000000E+00 0.  1.
<scales pt_clust_3="42.68766" pt_clust_4="151.50129" pt_clust_5="30.41934" pt_clust_6="42.68766"></scales>
<clustering>
<clus scale="   30.419">  1  5  2 -1</clus>
<clus scale="   42.688">  3  6 -1 -1</clus>
<clus scale="  151.501">  1  4  2 -1</clus>
<clus scale="   30.419">  1  3  2 -1</clus>
</clustering>
</event>
<event>
 6    0  0.4227619E+002  0.2160616E+03  0.7546771E-02  0.1136854E+00
         21   -1    0    0  505  501  0.00000000000E+00  0.00000000000E+00  0.84288712057E+03  0.84288712057E+03  0.00000000000E+00 0.  1.
         21   -1    0    0  504  502 -0.00000000000E+00 -0.00000000000E+00 -0.21693129862E+04  0.21693129862E+04  0.00000000000E+00 0.  1.
         21    1    1    2  503  502  0.40623847858E+02  0.66725412742E+02 -0.18062194401E+04  0.18079079743E+04  0.00000000000E+00 0.  1.
         21    1    1    2  504  501  0.89341757735E+01 -0.11237204729E+03  0.67930712995E+03  0.68859674216E+03  0.00000000000E+00 0.  1.
         21    1    1    2  505  506  0.18876847083E+02 -0.11326939915E+03  0.11133077134E+03  0.15994009124E+03  0.00000000000E+00 0.  1.
         21    1    1    2  506  503 -0.68434870714E+02  0.15891603370E+03 -0.31084432678E+03  0.35575529903E+03  0.00000000000E+00 0.  1.
<scales pt_clust_3="78.11900" pt_clust_4="216.06156" pt_clust_5="110.91656" pt_clust_6="14000.00000"></scales>
<clustering>
<clus scale="   78.119">  2  3  1 -1</clus>
<clus scale="  110.917">  1  5  2 -1</clus>
<clus scale="  216.062">  1  4  2 -1</clus>
<clus scale="  110.917">  1  3  2 -1</clus>
</clustering>
</event>
<event>
 6    0  0.4227619E+002  0.4950346E+02  0.7546771E-02  0.1448038E+00
         21   -1    0    0  505  501  0.00000000000E+00  0.00000000000E+00  0.20953712160E+03  0.20953712160E+03  0.00000000000E+00 0. -1.
         21   -1    0    0  506  502 -0.00000000000E+00 -0.00000000000E+00 -0.14946515366E+04  0.14946515366E+04  0.00000000000E+00 0. -1.
         21    1    1    2  503  501  0.37116702944E+02  0.25909019621E+02  0.35876328431E+02  0.57758444204E+02  0.00000000000E+00 0. -1.
         21    1    1    2  504  502  0.21736355475E+02  0.86173580905E+02 -0.13823486604E+04  0.13852025751E+04  0.00000000000E+00 0. -1.
         21    1    1    2  505  504 -0.42710812098E+02 -0.73393358523E+02  0.14479093614E+03  0.16785473998E+03  0.00000000000E+00 0. -1.
         21    1    1    2  506  503 -0.16142246320E+02 -0.38689242004E+02 -0.83433019232E+02  0.93372898966E+02  0.00000000000E+00 0. -1.
<scales pt_clust_3="44.99013" pt_clust_4="49.50346" pt_clust_5="14000.00000" pt_clust_6="41.92171"></scales>
<clustering>
<clus scale="   41.922">  2  6  1 -1</clus>
<clus scale="   44.990">  1  3  2 -1</clus>
<clus scale="   49.503">  2  4  1 -1</clus>
<clus scale="   44.990">  1  3  2 -1</clus>
</clustering>
</event>
<event>
 6    0  0.4227619E+002  0.8513599E+02  0.7546771E-02  0.1315077E+00
         21   -1    0    0  505  501  0.00000000000E+00  0.00000000000E+00  0.23656229409E+03  0.23656229409E+03  0.00000000000E+00 0. -1.
         21   -1    0    0  503  502 -0.00000000000E+00 -0.00000000000E+00 -0.73529099475E+03  0.73529099475E+03  0.00000000000E+00 0. -1.
         21    1    1    2  503  504 -0.30554146438E+02  0.17167053955E+02 -0.12813898241E+03  0.13284525742E+03  0.00000000000E+00 0. -1.
         21    1    1    2  504  501 -0.51807380891E+01  0.90823244535E+02 -0.15837632439E+03  0.18264381162E+03  0.00000000000E+00 0. -1.
         21    1    1    2  505  506 -0.40292385200E+02 -0.31060440321E+02  0.21228883315E+03  0.21829973875E+03  0.00000000000E+00 0. -1.
         21    1    1    2  506  502  0.76027269727E+02 -0.76929858170E+02 -0.42450222701E+03  0.43806448105E+03  0.00000000000E+00 0. -1.
<scales pt_clust_3="35.04659" pt_clust_4="14000.00000" pt_clust_5="50.94304" pt_clust_6="85.13599"></scales>
<clustering>
<clus scale="   35.047">  2  3  1 -1</clus>
<clus scale="   50.943">  1  5  2 -1</clus>
<clus scale="   85.136">  2  6  1 -1</clus>
<clus scale="   50.943">  1  3  2 -1</clus>
</clustering>
</event>
<event>
 6    0  0.4227619E+002  0.1679815E+03  0.7546771E-02  0.1179969E+00
         21   -1    0    0  504  501  0.00000000000E+00  0.00000000000E+00  0.15581335418E+03  0.15581335418E+03  0.00000000000E+00 0. -1.
         21   -1    0    0  503  502 -0.00000000000E+00 -0.00000000000E+00 -0.73209816835E+03  0.73209816835E+03  0.00000000000E+00 0. -1.
         21    1    1    2  503  506 -0.15411464675E+02 -0.68643150566E+02 -0.43052192056E+02  0.82479613262E+02  0.00000000000E+00 0.  1.
         21    1    1    2  504  505  0.13089357571E+03  0.87193054075E+02 -0.17519684467E+03  0.23543511043E+03  0.00000000000E+00 0. -1.
         21    1    1    2  505  502 -0.16681023093E+03 -0.56421671848E+02 -0.43543826615E+03  0.46969728743E+03  0.00000000000E+00 0. -1.
         21    1    1    2  506  501  0.51328119903E+02  0.37871768340E+02  0.77402488706E+02  0.10029951140E+03  0.00000000000E+00 0. -1.
<scales pt_clust_3="57.49449" pt_clust_4="14000.00000" pt_clust_5="167.98150" pt_clust_6="63.78751"></scales>
<clustering>
<clus scale="   63.788">  1  6  2 -1</clus>
<clus scale="   57.494">  1  3  2 -1</clus>
<clus scale="  167.981">  2  5  1 -1</clus>
<clus scale="   63.788">  1  3  2 -1</clus>
</clustering>
</event>
<event>
 6    0  0.4227619E+002  0.1263775E+03  0.7546771E-02  0.1232932E+00
         21   -1    0    0  503  501  0.00000000000E+00  0.00000000000E+00  0.19672985493E+04  0.19672985493E+04  0.00000000000E+00 0. -1.
         21   -1    0    0  506  502 -0.00000000000E+00 -0.00000000000E+00 -0.22160558502E+03  0.22160558502E+03  0.00000000000E+00 0. -1.
         21    1    1    2  503  504  0.22463057664E+01  0.51155903846E+02  0.21509832572E+03  0.22110916335E+03  0.00000000000E+00 0.  1.
         21    1    1    2  504  502  0.68062376740E+01 -0.85275082220E+02 -0.17872323894E+03  0.19814176908E+03  0.00000000000E+00 0. -1.
         21    1    1    2  505  501 -0.58044878355E+02  0.64915267559E+02  0.17095687220E+04  0.17117851544E+04  0.00000000000E+00 0. -1.
         21    1    1    2  506  505  0.48992334914E+02 -0.30796089185E+02 -0.25084449376E+00  0.57868047422E+02  0.00000000000E+00 0. -1.
<scales pt_clust_3="51.20520" pt_clust_4="14000.00000" pt_clust_5="126.37754" pt_clust_6="57.45513"></scales>
<clustering>
<clus scale="   51.205">  1  3  2 -1</clus>
<clus scale="   57.455">  2  6  1 -1</clus>
<clus scale="  126.378">  1  5  2 -1</clus>
<clus scale="   51.205">  1  3  2 -1</clus>
</clustering>
</event>
<event>
 6    0  0.4227619E+002  0.1423332E+03  0.7546771E-02  0.1210224E+00
         21   -1    0    0  506  501  0.00000000000E+00  0.00000000000E+00  0.13166567376E+03  0.13166567376E+03  0.00000000000E+00 0.  1.
         21   -1    0    0  504  502 -0.00000000000E+00 -0.00000000000E+00 -0.67327694792E+03  0.67327694792E+03  0.00000000000E+00 0.  1.
         21    1    1    2  503  502 -0.35624526690E+02 -0.36996132048E+02 -0.12868147071E+03  0.13855230634E+03  0.00000000000E+00 0.  1.
         21    1    1    2  504  501 -0.90406781427E+02  0.13148686434E+03 -0.37369743567E+02  0.16388617805E+03  0.00000000000E+00 0.  1.
         21    1    1    2  505  503  0.14637758076E+03 -0.45925214660E+02 -0.41122349628E+03  0.43890806028E+03  0.00000000000E+00 0.  1.
         21    1    1    2  506  505 -0.20346272640E+02 -0.48565517634E+02  0.35663436401E+02  0.63596076996E+02  0.00000000000E+00 0.  1.
<scales pt_clust_3="51.35972" pt_clust_4="142.33318" pt_clust_5="14000.00000" pt_clust_6="53.89677"></scales>
<clustering>
<clus scale="   51.360">  2  3  1 -1</clus>
<clus scale="   53.897">  1  6  2 -1</clus>
<clus scale="  142.333">  1  4  2 -1</clus>
<clus scale="   53.897">  1  3  2 -1</clus>
</clustering>
</event>
<event>
 6    0  0.4227619E+002  0.9872749E+02  0.7546771E-02  0.1282995E+00
         21   -1    0    0  504  501  0.00000000000E+00  0.00000000000E+00  0.23156013824E+02  0.23156013824E+02  0.00000000000E+00 0.  1.
         21   -1    0    0  506  502 -0.00000000000E+00 -0.00000000000E+00 -0.18764248290E+04  0.18764248290E+04  0.00000000000E+00 0.  1.
         21    1    1    2  503  502 -0.49485542606E+02  0.20439701863E+02 -0.76672660375E+03  0.76859370622E+03  0.00000000000E+00 0.  1.
         21    1    1    2  504  503 -0.41437609909E+02  0.52597725037E+02 -0.37770458919E+03  0.38359399485E+03  0.00000000000E+00 0.  1.
         21    1    1    2  505  501 -0.26148639081E+02  0.16046355884E+02 -0.85900023023E+01  0.31859457034E+02  0.00000000000E+00 0.  1.
         21    1    1    2  506  505  0.11707179160E+03 -0.89083782783E+02 -0.70024761993E+03  0.71553368471E+03  0.00000000000E+00 0.  1.
<scales pt_clust_3="55.99670" pt_clust_4="98.72749" pt_clust_5="30.67958" pt_clust_6="14000.00000"></scales>
<clustering>
<clus scale="   30.680">  1  5  2 -1</clus>
<clus scale="   55.997">  2  3  1 -1</clus>
<clus scale="   98.727">  1  4  2 -1</clus>
<clus scale="   30.680">  1  3  2 -1</clus>
</clustering>
</event>
<event>
 6    0  0.4227619E+002  0.1242879E+03  0.7546771E-02  0.1236186E+00
         21   -1    0    0  506  501  0.00000000000E+00  0.00000000000E+00  0.48415363898E+03  0.48415363898E+03  0.00000000000E+00 0.  1.
         21   -1    0    0  503  502 -0.00000000000E+00 -0.00000000000E+00 -0.23801277629E+03  0.23801277629E+03  0.00000000000E+00 0.  1.
         21    1    1    2  503  501  0.28814738697E+02 -0.37398513472E+02 -0.28925978661E+02  0.55368314202E+02  0.00000000000E+00 0.  1.
         21    1    1    2  504  505  0.12551203620E+03  0.61547598991E+02 -0.38705289782E+02  0.14504991427E+03  0.00000000000E+00 0.  1.
         21    1    1    2  505  502 -0.56713892490E+02  0.50611577060E+02 -0.79328235731E+02  0.10986794946E+03  0.00000000000E+00 0.  1.
         21    1    1    2  506  504 -0.97612882411E+02 -0.74760662579E+02  0.39310036687E+03  0.41188023734E+03  0.00000000000E+00 0.  1.
<scales pt_clust_3="47.21163" pt_clust_4="14000.00000" pt_clust_5="53.76833" pt_clust_6="124.28785"></scales>
<clustering>
<clus scale="   47.212">  2  3  1 -1</clus>
<clus scale="   53.768">  2  5  1 -1</clus>
<clus scale="  124.288">  1  6  2 -1</clus>
<clus scale="  124.288">  1  3  2 -1</clus>
</clustering>
</event>
<event>
 6    0  0.4227619E+002  0.1109864E+03  0.7546771E-02  0.1258754E+00
         21   -1    0    0  506  501  0.00000000000E+00  0.00000000000E+00  0.60570985384E+03  0.60570985384E+03  0.00000000000E+00 0.  1.
         21   -1    0    0  505  502 -0.00000000000E+00 -0.00000000000E+00 -0.62837022418E+02  0.62837022418E+02  0.00000000000E+00 0.  1.
         21    1    1    2  503  502 -0.14725957278E+03 -0.16264254700E+02  0.10096101656E+03  0.17928478637E+03  0.00000000000E+00 0.  1.
         21    1    1    2  504  501  0.68461251891E+02 -0.20331716933E+02  0.25689625518E+03  0.26663834618E+03  0.00000000000E+00 0. -1.
         21    1    1    2  505  504  0.20898889434E+02 -0.26010273125E+02  0.26434098965E+02  0.42568291905E+02  0.00000000000E+00 0.  1.
         21    1    1    2  506  503  0.57899431458E+02  0.62606244758E+02  0.15858146071E+03  0.18005545181E+03  0.00000000000E+00 0.  1.
<scales pt_clust_3="110.98639" pt_clust_4="73.87616" pt_clust_5="33.36612" pt_clust_6="14000.00000"></scales>
<clustering>
<clus scale="   33.366">  2  5  1 -1</clus>
<clus scale="   73.876">  1  4  2 -1</clus>
<clus scale="  110.986">  2  3  1 -1</clus>
<clus scale="   73.876">  1  3  2 -1</clus>
</clustering>
</event>
<event>
 6    0  0.4227619E+002  0.8317885E+02  0.7546771E-02  0.1320265E+00
         21   -1    0    0  506  501  0.00000000000E+00  0.00000000000E+00  0.13225951587E+04  0.13225951587E+04  0.00000000000E+00 0. -1.
         21   -1    0    0  503  502 -0.00000000000E+00 -0.00000000000E+00 -0.53146325637E+03  0.53146325637E+03  0.00000000000E+00 0. -1.
         21    1    1    2  503  504 -0.67375108971E+02 -0.29998519827E+02 -0.15474745972E+03  0.17142372296E+03  0.00000000000E+00 0. -1.
         21    1    1    2  504  501  0.47630199783E+02 -0.10321715238E+03  0.37015872395E+03  0.38722073472E+03  0.00000000000E+00 0. -1.
         21    1    1    2  505  502 -0.82150360417E+00  0.54750939859E+02 -0.35599118890E+03  0.36017782672E+03  0.00000000000E+00 0. -1.
         21    1    1    2  506  505  0.20566412793E+02  0.78464732346E+02  0.93171182702E+03  0.93523613070E+03  0.00000000000E+00 0. -1.
<scales pt_clust_3="71.45952" pt_clust_4="83.17885" pt_clust_5="54.75710" pt_clust_6="14000.00000"></scales>
<clustering>
<clus scale="   54.757">  2  5  1 -1</clus>
<clus scale="   71.460">  2  3  1 -1</clus>
<clus scale="   83.179">  2  4  1 -1</clus>
<clus scale="   83.179">  1  3  2 -1</clus>
</clustering>
</event>
<event>
 6    0  0.4227619E+002  0.1104137E+03  0.7546771E-02  0.1259806E+00
         21   -1    0    0  506  501  0.00000000000E+00  0.00000000000E+00  0.18551966623E+04  0.18551966623E+04  0.00000000000E+00 0.  1.
         21   -1    0    0  503  502 -0.00000000000E+00 -0.00000000000E+00 -0.63724739470E+02  0.63724739470E+02  0.00000000000E+00 0.  1.
         21    1    1    2  503  505  0.67991142846E+02 -0.10578720311E+02  0.36823177634E+01  0.68907650468E+02  0.00000000000E+00 0.  1.
         21    1    1    2  504  502 -0.29451902776E+02 -0.11575557754E+02  0.44828979864E+02  0.54872994725E+02  0.00000000000E+00 0.  1.
         21    1    1    2  505  501  0.37108334075E+02 -0.62386675320E+02  0.30188855589E+02  0.78616109780E+02  0.00000000000E+00 0.  1.
         21    1    1    2  506  504 -0.75647574144E+02  0.84540953385E+02  0.17127717696E+04  0.17165246468E+04  0.00000000000E+00 0.  1.
<scales pt_clust_3="54.35877" pt_clust_4="31.64503" pt_clust_5="110.41367" pt_clust_6="14000.00000"></scales>
<clustering>
<clus scale="   31.645">  2  4  1 -1</clus>
<clus scale="   54.359">  2  3  1 -1</clus>
<clus scale="  110.414">  2  5  1 -1</clus>
<clus scale="  110.414">  1  3  2 -1</clus>
</clustering>
</event>
<event>
 6    0  0.4227619E+002  0.8157894E+02  0.7546771E-02  0.1324629E+00
         21   -1    0    0  503  501  0.00000000000E+00  0.00000000000E+00  0.14452694777E+03  0.14452694777E+03  0.00000000000E+00 0.  1.
         21   -1    0    0  506  502 -0.00000000000E+00 -0.00000000000E+00 -0.24203339371E+04  0.24203339371E+04  0.00000000000E+00 0.  1.
         21    1    1    2  503  504 -0.41425207805E+01  0.44506804534E+02  0.11083111659E+03  0.11950544980E+03  0.00000000000E+00 0.  1.
         21    1    1    2  504  505  0.60097209741E+02 -0.99339943763E+02 -0.10214800548E+03  0.15464253641E+03  0.00000000000E+00 0.  1.
         21    1    1    2  505  502  0.29587384687E+02  0.40503386872E+02 -0.28768599901E+03  0.29202597780E+03  0.00000000000E+00 0. -1.
         21    1    1    2  506  501 -0.85542073648E+02  0.14329752357E+02 -0.19968041014E+04  0.19986869209E+04  0.00000000000E+00 0.  1.
<scales pt_clust_3="44.69917" pt_clust_4="81.57894" pt_clust_5="52.68033" pt_clust_6="14000.00000"></scales>
<clustering>
<clus scale="   44.699">  1  3  2 -1</clus>
<clus scale="   52.680">  2  5  1 -1</clus>
<clus scale="   81.579">  1  4  2 -1</clus>
<clus scale="   44.699">  1  3  2 -1</clus>
</clustering>
</event>
<event>
 6    0  0.4227619E+002  0.1170462E+03  0.7546771E-02  0.1248051E+00
         21   -1    0    0  504  501  0.00000000000E+00  0.00000000000E+00  0.38493158801E+03  0.38493158801E+03  0.00000000000E+00 0.  1.
         21   -1    0    0  503  502 -0.00000000000E+00 -0.00000000000E+00 -0.22981534614E+03  0.22981534614E+03  0.00000000000E+00 0.  1.
         21    1    1    2  503  501  0.12699894036E+03 -0.95674317340E+02 -0.93337437316E+02  0.18437511507E+03  0.00000000000E+00 0.  1.
         21    1    1    2  504  506 -0.83073302106E+02  0.77587623339E+02  0.27229320202E+03  0.29506711217E+03  0.00000000000E+00 0.  1.
         21    1    1    2  505  502  0.26591482053E+02  0.29522992883E+02 -0.45737168859E+02  0.60585498610E+02  0.00000000000E+00 0.  1.
         21    1    1    2  506  505 -0.70517120305E+02 -0.11436298883E+02  0.21897646020E+02  0.74719208303E+02  0.00000000000E+00 0.  1.
<scales pt_clust_3="117.04620" pt_clust_4="14000.00000" pt_clust_5="39.73303" pt_clust_6="66.91107"></scales>
<clustering>
<clus scale="   39.733">  2  5  1 -1</clus>
<clus scale="   66.911">  2  6  1 -1</clus>
<clus scale="  117.046">  2  3  1 -1</clus>
<clus scale="  117.046">  1  3  2 -1</clus>
</clustering>
</event>
<event>
 6    0  0.4227619E+002  0.8301106E+02  0.7546771E-02  0.1320717E+00
         21   -1    0    0  505  501  0.00000000000E+00  0.00000000000E+00  0.16507046853E+04  0.16507046853E+04  0.00000000000E+00 0. -1.
         21   -1    0    0  503  502 -0.00000000000E+00 -0.00000000000E+00 -0.24337892037E+02  0.24337892037E+02  0.00000000000E+00 0. -1.
         21    1    1    2  503  504 -0.19924117173E+02  0.68266697528E+02  0.99169312155E+02  0.12203222898E+03  0.00000000000E+00 0. -1.
         21    1    1    2  504  501 -0.63663293878E+00 -0.14154518828E+03  0.49625408372E+03  0.51604608441E+03  0.00000000000E+00 0. -1.
         21    1    1    2  505  506 -0.31294062490E+02  0.27547437156E+02  0.33130201992E+03  0.33391497128E+03  0.00000000000E+00 0. -1.
         21    1    1    2  506  502  0.51854812601E+02  0.45731053599E+02  0.69964137750E+03  0.70304929270E+03  0.00000000000E+00 0. -1.
<scales pt_clust_3="83.01106" pt_clust_4="14000.00000" pt_clust_5="41.69148" pt_clust_6="69.90060"></scales>
<clustering>
<clus scale="   41.691">  1  5  2 -1</clus>
<clus scale="   69.901">  1  6  2 -1</clus>
<clus scale="   83.011">  2  3  1 -1</clus>
<clus scale="   41.691">  1  3  2 -1</clus>
</clustering>
</event>
<event>
 6    0  0.4227619E+002  0.1904103E+03  0.7546771E-02  0.1158092E+00
         21   -1    0    0  506  501  0.00000000000E+00  0.00000000000E+00  0.13726934082E+04  0.13726934082E+04  0.00000000000E+00 0. -1.
         21   -1    0    0  501  502 -0.00000000000E+00 -0.00000000000E+00 -0.93822997140E+02  0.93822997140E+02  0.00000000000E+00 0. -1.
         21    1    1    2  503  504  0.26296434342E+02 -0.53662875036E+02  0.30397829961E+03  0.30979672892E+03  0.00000000000E+00 0. -1.
         21    1    1    2  504  505 -0.57650197974E+02 -0.12173792600E+03  0.66812189742E+03  0.68156477151E+03  0.00000000000E+00 0. -1.
         21    1    1    2  505  502  0.60480959497E+02  0.16269321869E+03  0.70078736042E+01  0.17371280943E+03  0.00000000000E+00 0. -1.
         21    1    1    2  506  503 -0.29127195865E+02  0.12707582354E+02  0.29976234042E+03  0.30144209547E+03  0.00000000000E+00 0. -1.
<scales pt_clust_3="48.56718" pt_clust_4="48.56718" pt_clust_5="173.74047" pt_clust_6="31.77855"></scales>
<clustering>
<clus scale="   31.779">  1  6  2 -1</clus>
<clus scale="   48.567">  3  4 -1 -1</clus>
<clus scale="  173.740">  2  5  1 -1</clus>
<clus scale="   31.779">  1  3  2 -1</clus>
</clustering>
</event>
<event>
 6    0  0.4227619E+002  0.1057004E+03  0.7546771E-02  0.1268746E+00
         21   -1    0    0  506  501  0.00000000000E+00  0.00000000000E+00  0.18200004948E+04  0.18200004948E+04  0.00000000000E+00 0.  1.
         21   -1    0    0  505  502 -0.00000000000E+00 -0.00000000000E+00 -0.48192793182E+03  0.48192793182E+03  0.00000000000E+00 0. -1.
         21    1    1    2  503  502  0.10318976055E+02  0.46265249359E+02 -0.41976676709E+03  0.42243472078E+03  0.00000000000E+00 0. -1.
         21    1    1    2  504  501 -0.73354891841E+02  0.35635477286E+02  0.11088144812E+04  0.11118095076E+04  0.00000000000E+00 0.  1.
         21    1    1    2  505  504  0.41061463432E+02 -0.13896061025E+03  0.32971937117E+02  0.14860431897E+03  0.00000000000E+00 0. -1.
         21    1    1    2  506  503  0.21974452354E+02  0.57059883604E+02  0.61605291166E+03  0.61907987920E+03  0.00000000000E+00 0.  1.
<scales pt_clust_3="47.40205" pt_clust_4="105.70041" pt_clust_5="14000.00000" pt_clust_6="62.31173"></scales>
<clustering>
<clus scale="   47.402">  2  3  1 -1</clus>
<clus scale="   62.312">  1  6  2 -1</clus>
<clus scale="  105.700">  1  4  2 -1</clus>
<clus scale="   62.312">  1  3  2 -1</clus>
</clustering>
</event>
<event>
 6    0  0.4227619E+002  0.8873057E+02  0.7546771E-02  0.1305955E+00
         21   -1    0    0  506  501  0.00000000000E+00  0.00000000000E+00  0.61979745464E+03  0.61979745464E+03  0.00000000000E+00 0. -1.
         21   -1    0    0  504  502 -0.00000000000E+00 -0.00000000000E+00 -0.88421953235E+03  0.88421953235E+03  0.00000000000E+00 0.  1.
         21    1    1    2  503  502  0.36349267076E+02 -0.81707783020E+02  0.21994171142E+02  0.92093292846E+02  0.00000000000E+00 0.  1.
         21    1    1    2  504  505 -0.38799702149E+02  0.26570228397E+02 -0.76052444030E+03  0.76197691449E+03  0.00000000000E+00 0.  1.
         21    1    1    2  505  501 -0.43531875198E+02 -0.24959492049E+02 -0.76586335209E+02  0.91561275342E+02  0.00000000000E+00 0. -1.
         21    1    1    2  506  503  0.45982310271E+02  0.80097046672E+02  0.55069452665E+03  0.55838550431E+03  0.00000000000E+00 0. -1.
<scales pt_clust_3="14000.00000" pt_clust_4="47.02546" pt_clust_5="70.38783" pt_clust_6="88.73057"></scales>
<clustering>
<clus scale="   47.025">  2  4  1 -1</clus>
<clus scale="   70.388">  2  5  1 -1</clus>
<clus scale="   88.731">  1  6  2 -1</clus>
<clus scale="   88.731">  1  3  2 -1</clus>
</clustering>
</event>
<event>
 6    0  0.4227619E+002  0.1291863E+03  0.7546771E-02  0.1228668E+00
         21   -1    0    0  505  501  0.00000000000E+00  0.00000000000E+00  0.10867463142E+04  0.10867463142E+04  0.00000000000E+00 0. -1.
         21   -1    0    0  506  502 -0.00000000000E+00 -0.00000000000E+00 -0.59292782694E+02  0.59292782694E+02  0.00000000000E+00 0. -1.
         21    1    1    2  503  501  0.29323867146E+02 -0.27539935434E+02  0.56160533951E+03  0.56304430962E+03  0.00000000000E+00 0. -1.
         21    1    1    2  504  503 -0.73440888970E+01 -0.81369326125E+02  0.48809745336E+02  0.95169817251E+02  0.00000000000E+00 0. -1.
         21    1    1    2  505  502 -0.21419149317E+02  0.14248571647E+03  0.42870823136E+03  0.45227392916E+03  0.00000000000E+00 0. -1.
         21    1    1    2  506  504 -0.56062893176E+00 -0.33576454907E+02 -0.11669784735E+02  0.35551040839E+02  0.00000000000E+00 0. -1.
<scales pt_clust_3="40.22856" pt_clust_4="31.62689" pt_clust_5="119.39658" pt_clust_6="31.62689"></scales>
<clustering>
<clus scale="   31.627">  4  6 -1 -1</clus>
<clus scale="   40.229">  1  3  2 -1</clus>
<clus scale="  119.397">  1  5  2 -1</clus>
<clus scale="   40.229">  1  3  2 -1</clus>
</clustering>
</event>
<event>
 6    0  0.4227619E+002  0.7695140E+02  0.7546771E-02  0.1337933E+00
         21   -1    0    0  505  501  0.00000000000E+00  0.00000000000E+00  0.35016436242E+02  0.35016436242E+02  0.00000000000E+00 0.  1.
         21   -1    0    0  503  502 -0.00000000000E+00 -0.00000000000E+00 -0.13836492090E+04  0.13836492090E+04  0.00000000000E+00 0. -1.
         21    1    1    2  503  501 -0.11195582945E+03  0.30160181230E+02 -0.16068306173E+03  0.19814840551E+03  0.00000000000E+00 0.  1.
         21    1    1    2  504  502  0.67899504161E+02 -0.30205980594E+02 -0.10536946015E+04  0.10563120075E+04  0.00000000000E+00 0. -1.
         21    1    1    2  505  506  0.18479034313E+02 -0.32358956191E+02 -0.19099183277E+02  0.41873088693E+02  0.00000000000E+00 0.  1.
         21    1    1    2  506  504  0.25577290977E+02  0.32404755555E+02 -0.11515592634E+03  0.12233214364E+03  0.00000000000E+00 0. -1.
<scales pt_clust_3="76.95140" pt_clust_4="14000.00000" pt_clust_5="37.26361" pt_clust_6="39.51420"></scales>
<clustering>
<clus scale="   37.264">  1  5  2 -1</clus>
<clus scale="   39.514">  1  6  2 -1</clus>
<clus scale="   76.951">  1  3  2 -1</clus>
<clus scale="   37.264">  1  3  2 -1</clus>
</clustering>
</event>
<event>
 6    0  0.4227619E+002  0.1084968E+03  0.7546771E-02  0.1263379E+00
         21   -1    0    0  505  501  0.00000000000E+00  0.00000000000E+00  0.37437790849E+03  0.37437790849E+03  0.00000000000E+00 0.  1.
         21   -1    0    0  503  502 -0.00000000000E+00 -0.00000000000E+00 -0.73063265157E+03  0.73063265157E+03  0.00000000000E+00 0. -1.
         21    1    1    2  503  506  0.98891094357E+02  0.93696300754E+02 -0.23674955328E+02  0.13827128707E+03  0.00000000000E+00 0.  1.
         21    1    1    2  504  502 -0.29871079398E+02 -0.29921307328E+02 -0.61142661905E+03  0.61288667508E+03  0.00000000000E+00 0. -1.
         21    1    1    2  505  504 -0.48126930134E+02 -0.90181100879E+02  0.35532165932E+02  0.10821907030E+03  0.00000000000E+00 0.  1.
         21    1    1    2  506  501 -0.20893084826E+02  0.26406107453E+02  0.24331466537E+03  0.24563352761E+03  0.00000000000E+00 0.  1.
<scales pt_clust_3="108.49682" pt_clust_4="42.25797" pt_clust_5="14000.00000" pt_clust_6="33.67200"></scales>
<clustering>
<clus scale="   33.672">  1  6  2 -1</clus>
<clus scale="   42.258">  2  4  1 -1</clus>
<clus scale="  108.497">  2  3  1 -1</clus>
<clus scale="   33.672">  1  3  2 -1</clus>
</clustering>
</event>
<event>
 6    0  0.4227619E+002  0.6524324E+02  0.7546771E-02  0.1377059E+00
         21   -1    0    0  503  501  0.00000000000E+00  0.00000000000E+00  0.43103800474E+03  0.43103800474E+03  0.00000000000E+00 0. -1.
         21   -1    0    0  505  502 -0.00000000000E+00 -0.00000000000E+00 -0.18221155450E+04  0.18221155450E+04  0.00000000000E+00 0. -1.
         21    1    1    2  503  506  0.34279705432E+02 -0.37099081124E+02  0.46737804638E+02  0.68817602451E+02  0.00000000000E+00 0.  1.
         21    1    1    2  504  502  0.63778239583E+02 -0.13641460167E+02 -0.17826866282E+04  0.17838793030E+04  0.00000000000E+00 0. -1.
         21    1    1    2  505  501 -0.33616094257E+02 -0.23156415671E+02 -0.11257367052E+01  0.40835384937E+02  0.00000000000E+00 0. -1.
         21    1    1    2  506  504 -0.64441850758E+02  0.73896956962E+02  0.34599701998E+03  0.35962125940E+03  0.00000000000E+00 0. -1.
<scales pt_clust_3="50.01922" pt_clust_4="65.24324" pt_clust_5="40.81987" pt_clust_6="14000.00000"></scales>
<clustering>
<clus scale="   40.820">  1  5  2 -1</clus>
<clus scale="   50.019">  1  3  2 -1</clus>
<clus scale="   65.243">  2  4  1 -1</clus>
<clus scale="   40.820">  1  3  2 -1</clus>
</clustering>
</event>
<event>
 6    0  0.4227619E+002  0.1203923E+03  0.7546771E-02  0.1242451E+00
         21   -1    0    0  502  501  0.00000000000E+00  0.00000000000E+00  0.69314834171E+02  0.69314834171E+02  0.00000000000E+00 0.  1.
         21   -1    0    0  503  502 -0.00000000000E+00 -0.00000000000E+00 -0.10029351892E+04  0.10029351892E+04  0.00000000000E+00 0.  1.
         21    1    1    2  503  504  0.25616863544E+02 -0.79102966940E+02 -0.22568519801E+03  0.24051468080E+03  0.00000000000E+00 0. -1.
         21    1    1    2  504  506  0.83149301963E+02  0.23128258618E+02 -0.55253889458E+03  0.55923872612E+03  0.00000000000E+00 0.  1.
         21    1    1    2  505  501  0.51560344896E+02 -0.48659297902E+01 -0.28026277281E+02  0.58886489595E+02  0.00000000000E+00 0. -1.
         21    1    1    2  506  505 -0.16032651040E+03  0.60840638112E+02 -0.12736998518E+03  0.21361012689E+03  0.00000000000E+00 0.  1.
<scales pt_clust_3="86.21901" pt_clust_4="120.39227" pt_clust_5="51.78944" pt_clust_6="14000.00000"></scales>
<clustering>
<clus scale="   51.789">  1  5  2 -1</clus>
<clus scale="   86.219">  2  3  1 -1</clus>
<clus scale="  120.392">  2  4  1 -1</clus>
<clus scale="   51.789">  1  3  2 -1</clus>
</clustering>
</event>
<event>
 6    0  0.4250402E+002  0.1168655E+03  0.7546771E-02  0.1248359E+00
         21   -1    0    0  506  501  0.00000000000E+00  0.00000000000E+00  0.14365175273E+04  0.14365175273E+04  0.00000000000E+00 0.  1.
         21   -1    0    0  504  502 -0.00000000000E+00 -0.00000000000E+00 -0.55623652876E+03  0.55623652876E+03  0.00000000000E+00 0. -1.
         21    1    1    2  503  502  0.42702640570E+02  0.45446446684E+02 -0.36687526906E+03  0.37213755263E+03  0.00000000000E+00 0. -1.
         21    1    1    2  504  501 -0.52239458830E+02  0.26192877428E+02  0.60780575325E+02  0.84316701926E+02  0.00000000000E+00 0.  1.
         21    1    1    2  505  503  0.77801839298E+02 -0.34617861721E+02 -0.16341792692E+03  0.18427409310E+03  0.00000000000E+00 0. -1.
         21    1    1    2  506  505 -0.68265021038E+02 -0.37021462391E+02  0.13497936192E+04  0.13520257084E+04  0.00000000000E+00 0.  1.
<scales pt_clust_3="62.32892" pt_clust_4="58.43824" pt_clust_5="116.86550" pt_clust_6="14000.00000"></scales>
<clustering>
<clus scale="   58.438">  1  4  2 -1</clus>
<clus scale="   62.329">  2  3  1 -1</clus>
<clus scale="  116.866">  2  5  1 -1</clus>
<clus scale="   58.438">  1  3  2 -1</clus>
</clustering>
</event>
<event>
 6    0  0.4227619E+002  0.1486468E+03  0.7546771E-02  0.1202146E+00
         21   -1    0    0  506  501  0.00000000000E+00  0.00000000000E+00  0.17483393511E+03  0.17483393511E+03  0.00000000000E+00 0.  1.
         21   -1    0    0  504  502 -0.00000000000E+00 -0.00000000000E+00 -0.86533374758E+03  0.86533374758E+03  0.00000000000E+00 0. -1.
         21    1    1    2  503  505  0.95160406178E+02 -0.87418623874E+01 -0.20725510276E+03  0.22822489058E+03  0.00000000000E+00 0. -1.
         21    1    1    2  504  503  0.68182987400E+02 -0.25808418940E+01 -0.53113980393E+03  0.53550450216E+03  0.00000000000E+00 0. -1.
         21    1    1    2  505  501 -0.15440997225E+03 -0.41628643085E+02  0.11017767312E+03  0.19420222220E+03  0.00000000000E+00 0.  1.
         21    1    1    2  506  502 -0.89334213328E+01  0.52951347366E+02 -0.62282578900E+02  0.82236067750E+02  0.00000000000E+00 0.  1.
<scales pt_clust_3="148.64681" pt_clust_4="70.40321" pt_clust_5="14000.00000" pt_clust_6="53.69964"></scales>
<clustering>
<clus scale="   53.700">  2  6  1 -1</clus>
<clus scale="   70.403">  2  4  1 -1</clus>
<clus scale="  148.647">  2  3  1 -1</clus>
<clus scale="  148.647">  1  3  2 -1</clus>
</clustering>
</event>
<event>
 6    0  0.4227619E+002  0.1333940E+03  0.7546771E-02  0.1222505E+00
         21   -1    0    0  505  501  0.00000000000E+00  0.00000000000E+00  0.11850283937E+04  0.11850283937E+04  0.00000000000E+00 0. -1.
         21   -1    0    0  503  502 -0.00000000000E+00 -0.00000000000E+00 -0.98312288526E+02  0.98312288526E+02  0.00000000000E+00 0.  1.
         21    1    1    2  503  504  0.81508544969E+02  0.10705965521E+03 -0.37624350604E+02  0.13971758814E+03  0.00000000000E+00 0.  1.
         21    1    1    2  504  501 -0.43552203317E+02  0.25061403434E+02  0.17444609774E+03  0.18153872692E+03  0.00000000000E+00 0.  1.
         21    1    1    2  505  506  0.19191048812E+02 -0.29230123164E+02  0.21493797043E+03  0.21776369667E+03  0.00000000000E+00 0. -1.
         21    1    1    2  506  502 -0.57147390464E+02 -0.10289093548E+03  0.73495638759E+03  0.74432067048E+03  0.00000000000E+00 0. -1.
<scales pt_clust_3="133.39395" pt_clust_4="44.60701" pt_clust_5="34.96708" pt_clust_6="14000.00000"></scales>
<clustering>
<clus scale="   34.967">  1  5  2 -1</clus>
<clus scale="   44.607">  1  4  2 -1</clus>
<clus scale="  133.394">  2  3  1 -1</clus>
<clus scale="   34.967">  1  3  2 -1</clus>
</clustering>
</event>
<event>
 6    0  0.4227619E+002  0.1036617E+03  0.7546771E-02  0.1272779E+00
         21   -1    0    0  504  501  0.00000000000E+00  0.00000000000E+00  0.73086026990E+03  0.73086026990E+03  0.00000000000E+00 0. -1.
         21   -1    0    0  503  502 -0.00000000000E+00 -0.00000000000E+00 -0.29213699531E+03  0.29213699531E+03  0.00000000000E+00 0.  1.
         21    1    1    2  503  501  0.63820499547E+02 -0.55131764055E+02  0.19499855422E+02  0.86561030099E+02  0.00000000000E+00 0.  1.
         21    1    1    2  504  506  0.15664352656E+02  0.35839737225E+02  0.52323401575E+03  0.52469390501E+03  0.00000000000E+00 0. -1.
         21    1    1    2  505  502  0.38614875139E+02 -0.11161389307E+02 -0.23170251415E+03  0.23516322046E+03  0.00000000000E+00 0.  1.
         21    1    1    2  506  505 -0.11809972734E+03  0.30453416137E+02  0.12769191757E+03  0.17657910965E+03  0.00000000000E+00 0. -1.
<scales pt_clust_3="14000.00000" pt_clust_4="39.11341" pt_clust_5="40.23952" pt_clust_6="103.66168"></scales>
<clustering>
<clus scale="   39.113">  1  4  2 -1</clus>
<clus scale="   40.240">  2  5  1 -1</clus>
<clus scale="  103.662">  1  6  2 -1</clus>
<clus scale="   39.113">  1  3  2 -1</clus>
</clustering>
</event>
<event>
 6    0  0.4227619E+002  0.1730562E+03  0.7546771E-02  0.1174698E+00
         21   -1    0    0  503  501  0.00000000000E+00  0.00000000000E+00  0.26228238358E+03  0.26228238358E+03  0.00000000000E+00 0.  1.
         21   -1    0    0  504  502 -0.00000000000E+00 -0.00000000000E+00 -0.39927240936E+03  0.39927240936E+03  0.00000000000E+00 0.  1.
         21    1    1    2  503  505  0.29266422117E+02 -0.60019175157E+02  0.18323935110E+02  0.69242988439E+02  0.00000000000E+00 0.  1.
         21    1    1    2  504  501 -0.21838559380E+03  0.73252294473E+02 -0.58314096667E+02  0.23761039560E+03  0.00000000000E+00 0.  1.
         21    1    1    2  505  506  0.13230784730E+03 -0.19543698694E+01  0.89279873008E+02  0.15962481556E+03  0.00000000000E+00 0.  1.
         21    1    1    2  506  502  0.56811324382E+02 -0.11278749446E+02 -0.18627973723E+03  0.19507659334E+03  0.00000000000E+00 0.  1.
<scales pt_clust_3="71.27350" pt_clust_4="14000.00000" pt_clust_5="173.05620" pt_clust_6="57.92009"></scales>
<clustering>
<clus scale="   57.920">  2  6  1 -1</clus>
<clus scale="   71.273">  1  3  2 -1</clus>
<clus scale="  173.056">  1  5  2 -1</clus>
<clus scale="   71.273">  1  3  2 -1</clus>
</clustering>
</event>
<event>
 6    0  0.4227619E+002  0.1180076E+03  0.7546771E-02  0.1246421E+00
         21   -1    0    0  506  501  0.00000000000E+00  0.00000000000E+00  0.19958482768E+03  0.19958482768E+03  0.00000000000E+00 0. -1.
         21   -1    0    0  505  502 -0.00000000000E+00 -0.00000000000E+00 -0.68899622615E+03  0.68899622615E+03  0.00000000000E+00 0. -1.
         21    1    1    2  503  502  0.13125796746E+03 -0.58637378028E+01 -0.61155648035E+03  0.62551128375E+03  0.00000000000E+00 0. -1.
         21    1    1    2  504  503 -0.49658808764E+02  0.69995096274E+02  0.67120313761E+02  0.10895158241E+03  0.00000000000E+00 0. -1.
         21    1    1    2  505  501 -0.64846877233E+02 -0.27227757895E+02 -0.16197599298E+02  0.72172228107E+02  0.00000000000E+00 0. -1.
         21    1    1    2  506  504 -0.16752281463E+02 -0.36903600577E+02  0.71222367407E+02  0.81945959564E+02  0.00000000000E+00 0. -1.
<scales pt_clust_3="14000.00000" pt_clust_4="75.49822" pt_clust_5="118.00759" pt_clust_6="40.52795"></scales>
<clustering>
<clus scale="   40.528">  1  6  2 -1</clus>
<clus scale="   75.498">  1  4  2 -1</clus>
<clus scale="  118.008">  1  5  2 -1</clus>
<clus scale="   40.528">  1  3  2 -1</clus>
</clustering>
</event>
<event>
 6    0  0.4227619E+002  0.3382836E+03  0.7546771E-02  0.1067529E+00
         21   -1    0    0  502  501  0.00000000000E+00  0.00000000000E+00  0.72419443484E+03  0.72419443484E+03  0.00000000000E+00 0.  1.
         21   -1    0    0  506  502 -0.00000000000E+00 -0.00000000000E+00 -0.41504790099E+03  0.41504790099E+03  0.00000000000E+00 0.  1.
         21    1    1    2  503  501  0.21877519399E+02  0.21162293393E+02  0.30838539562E+03  0.30988388268E+03  0.00000000000E+00 0.  1.
         21    1    1    2  504  503  0.80427236979E+02 -0.32295871761E+03  0.16069294136E+03  0.36958503099E+03  0.00000000000E+00 0.  1.
         21    1    1    2  505  504 -0.10967022535E+03  0.35559656331E+03 -0.11557891002E+03  0.38966005519E+03  0.00000000000E+00 0.  1.
         21    1    1    2  506  505  0.73654689761E+01 -0.53800139092E+02 -0.44352893108E+02  0.70113366961E+02  0.00000000000E+00 0.  1.
<scales pt_clust_3="30.43795" pt_clust_4="14000.00000" pt_clust_5="338.28357" pt_clust_6="53.74882"></scales>
<clustering>
<clus scale="   30.438">  1  3  2 -1</clus>
<clus scale="   53.749">  2  6  1 -1</clus>
<clus scale="  338.284">  2  5  1 -1</clus>
<clus scale="   30.438">  1  3  2 -1</clus>
</clustering>
</event>
<event>
 6    0  0.4227619E+002  0.5430639E+02  0.7546771E-02  0.1423408E+00
         21   -1    0    0  505  501  0.00000000000E+00  0.00000000000E+00  0.11896932295E+03  0.11896932295E+03  0.00000000000E+00 0.  1.
         21   -1    0    0  506  502 -0.00000000000E+00 -0.00000000000E+00 -0.11205113284E+04  0.11205113284E+04  0.00000000000E+00 0. -1.
         21    1    1    2  503  504  0.52434828882E+02 -0.74648009273E+02 -0.53838532635E+03  0.54605905926E+03  0.00000000000E+00 0. -1.
         21    1    1    2  504  502  0.34746144289E+02  0.50865663385E+02 -0.48028162954E+03  0.48421591664E+03  0.00000000000E+00 0. -1.
         21    1    1    2  505  503 -0.41901110871E+02  0.33885364767E+02  0.10036115067E+03  0.11391348297E+03  0.00000000000E+00 0.  1.
         21    1    1    2  506  501 -0.45279862299E+02 -0.10103018878E+02 -0.83236200194E+02  0.95292192456E+02  0.00000000000E+00 0. -1.
<scales pt_clust_3="54.30639" pt_clust_4="48.09566" pt_clust_5="14000.00000" pt_clust_6="46.39329"></scales>
<clustering>
<clus scale="   46.393">  2  6  1 -1</clus>
<clus scale="   48.096">  2  4  1 -1</clus>
<clus scale="   54.306">  2  3  1 -1</clus>
<clus scale="   54.306">  1  3  2 -1</clus>
</clustering>
</event>
<event>
 6    0  0.4227619E+002  0.1172398E+03  0.7546771E-02  0.1247721E+00
         21   -1    0    0  505  501  0.00000000000E+00  0.00000000000E+00  0.43817682606E+02  0.43817682606E+02  0.00000000000E+00 0.  1.
         21   -1    0    0  503  502 -0.00000000000E+00 -0.00000000000E+00 -0.29062948837E+04  0.29062948837E+04  0.00000000000E+00 0.  1.
         21    1    1    2  503  501 -0.17842880682E+02  0.11441139131E+03 -0.25382552064E+04  0.25408950839E+04  0.00000000000E+00 0.  1.
         21    1    1    2  504  502  0.34176979579E+02 -0.48046374651E+01 -0.28276050659E+03  0.28485900821E+03  0.00000000000E+00 0.  1.
         21    1    1    2  505  506 -0.47402264173E+01 -0.64541236795E+02 -0.43899724962E+01  0.64863802325E+02  0.00000000000E+00 0.  1.
         21    1    1    2  506  504 -0.11593872479E+02 -0.45065517054E+02 -0.37071515655E+02  0.59494671857E+02  0.00000000000E+00 0.  1.
<scales pt_clust_3="110.81351" pt_clust_4="34.51305" pt_clust_5="32.46201" pt_clust_6="32.46201"></scales>
<clustering>
<clus scale="   32.462">  5  6 -1 -1</clus>
<clus scale="   34.513">  2  4  1 -1</clus>
<clus scale="  110.814">  2  3  1 -1</clus>
<clus scale="  117.240">  1  3  2 -1</clus>
</clustering>
</event>
<event>
 6    0  0.4227619E+002  0.1036832E+03  0.7546771E-02  0.1272736E+00
         21   -1    0    0  503  501  0.00000000000E+00  0.00000000000E+00  0.89534439821E+03  0.89534439821E+03  0.00000000000E+00 0. -1.
         21   -1    0    0  504  502 -0.00000000000E+00 -0.00000000000E+00 -0.62889530237E+02  0.62889530237E+02  0.00000000000E+00 0. -1.
         21    1    1    2  503  505 -0.33625708493E+02 -0.20505495894E+02  0.20576297499E+03  0.20949836637E+03  0.00000000000E+00 0. -1.
         21    1    1    2  504  501  0.19408295353E+02  0.22996112602E+02  0.57534929522E+02  0.64928970718E+02  0.00000000000E+00 0. -1.
         21    1    1    2  505  506  0.20077501005E+02 -0.10573259416E+03  0.57032638201E+03  0.58039182414E+03  0.00000000000E+00 0. -1.
         21    1    1    2  506  502 -0.58600878645E+01  0.10324197746E+03 -0.11694185531E+01  0.10341476722E+03  0.00000000000E+00 0. -1.
<scales pt_clust_3="32.36678" pt_clust_4="30.09158" pt_clust_5="103.68316" pt_clust_6="14000.00000"></scales>
<clustering>
<clus scale="   30.092">  1  4  2 -1</clus>
<clus scale="   32.367">  1  3  2 -1</clus>
<clus scale="  103.683">  1  5  2 -1</clus>
<clus scale="   30.092">  1  3  2 -1</clus>
</clustering>
</event>
<event>
 6    0  0.4227619E+002  0.1266114E+03  0.7546771E-02  0.1232572E+00
         21   -1    0    0  504  501  0.00000000000E+00  0.00000000000E+00  0.54926626971E+03  0.54926626971E+03  0.00000000000E+00 0.  1.
         21   -1    0    0  505  502 -0.00000000000E+00 -0.00000000000E+00 -0.17355002189E+03  0.17355002189E+03  0.00000000000E+00 0. -1.
         21    1    1    2  503  506  0.63985783591E+02  0.93524112796E+02 -0.31617218017E+02  0.11764603118E+03  0.00000000000E+00 0. -1.
         21    1    1    2  504  502 -0.17831580830E+01 -0.30396878619E+02 -0.17094073532E+01  0.30497081107E+02  0.00000000000E+00 0. -1.
         21    1    1    2  505  503  0.60470370559E+01  0.45310401453E+02 -0.67323755469E+02  0.81376207748E+02  0.00000000000E+00 0. -1.
         21    1    1    2  506  501 -0.68249662564E+02 -0.10843763563E+03  0.47636662865E+03  0.49329697157E+03  0.00000000000E+00 0.  1.
<scales pt_clust_3="126.61143" pt_clust_4="30.44914" pt_clust_5="31.39083" pt_clust_6="14000.00000"></scales>
<clustering>
<clus scale="   30.449">  2  4  1 -1</clus>
<clus scale="   31.391">  2  5  1 -1</clus>
<clus scale="  126.611">  2  3  1 -1</clus>
<clus scale="  126.611">  1  3  2 -1</clus>
</clustering>
</event>
<event>
 6    0  0.4227619E+002  0.1584298E+03  0.7546771E-02  0.1190481E+00
         21   -1    0    0  506  501  0.00000000000E+00  0.00000000000E+00  0.14099851396E+04  0.14099851396E+04  0.00000000000E+00 0. -1.
         21   -1    0    0  504  502 -0.00000000000E+00 -0.00000000000E+00 -0.61747845343E+02  0.61747845343E+02  0.00000000000E+00 0. -1.
         21    1    1    2  503  502 -0.30774001057E+02  0.41970054733E+02  0.17092732957E+02  0.54778519104E+02  0.00000000000E+00 0. -1.
         21    1    1    2  504  505  0.52158666035E+01 -0.43204374400E+02  0.10825841711E+02  0.44844420840E+02  0.00000000000E+00 0. -1.
         21    1    1    2  505  501  0.12972889301E+03  0.99315587781E+02  0.10810418352E+04  0.10933181701E+04  0.00000000000E+00 0. -1.
         21    1    1    2  506  503 -0.10417075856E+03 -0.98081268114E+02  0.23927688437E+03  0.27879187486E+03  0.00000000000E+00 0. -1.
<scales pt_clust_3="37.17293" pt_clust_4="43.51808" pt_clust_5="14000.00000" pt_clust_6="158.42982"></scales>
<clustering>
<clus scale="   43.518">  2  4  1 -1</clus>
<clus scale="   37.173">  2  3  1 -1</clus>
<clus scale="  158.430">  2  6  1 -1</clus>
<clus scale="  158.430">  1  3  2 -1</clus>
</clustering>
</event>
<event>
 6    0  0.4227619E+002  0.2222554E+03  0.7546771E-02  0.1132213E+00
         21   -1    0    0  506  501  0.00000000000E+00  0.00000000000E+00  0.10326473294E+03  0.10326473294E+03  0.00000000000E+00 0.  1.
         21   -1    0    0  503  502 -0.00000000000E+00 -0.00000000000E+00 -0.72812648684E+03  0.72812648684E+03  0.00000000000E+00 0.  1.
         21    1    1    2  503  505 -0.74956329892E+02  0.12479438755E+03 -0.24860588696E+03  0.28809196029E+03  0.00000000000E+00 0.  1.
         21    1    1    2  504  502  0.86248423123E+02 -0.27085515366E+02 -0.15255268209E+03  0.17732663772E+03  0.00000000000E+00 0.  1.
         21    1    1    2  505  501 -0.37496629691E+02  0.91214391446E+02 -0.68556961148E+02  0.12010878139E+03  0.00000000000E+00 0.  1.
         21    1    1    2  506  504  0.26204536461E+02 -0.18892326363E+03 -0.15514622371E+03  0.24586384037E+03  0.00000000000E+00 0.  1.
<scales pt_clust_3="67.52304" pt_clust_4="90.40141" pt_clust_5="67.52304" pt_clust_6="206.56078"></scales>
<clustering>
<clus scale="   67.523">  3  5 -1 -1</clus>
<clus scale="   90.401">  2  4  1 -1</clus>
<clus scale="  206.561">  1  6  2 -1</clus>
<clus scale="  206.561">  1  3  2 -1</clus>
</clustering>
</event>
<event>
 6    0  0.4227619E+002  0.7757988E+02  0.7546771E-02  0.1336063E+00
         21   -1    0    0  503  501  0.00000000000E+00  0.00000000000E+00  0.80119444451E+02  0.80119444451E+02  0.00000000000E+00 0.  1.
         21   -1    0    0  505  502 -0.00000000000E+00 -0.00000000000E+00 -0.30169447044E+04  0.30169447044E+04  0.00000000000E+00 0.  1.
         21    1    1    2  503  504  0.21750491039E+02  0.37550826815E+02  0.27059715245E+02  0.51140753261E+02  0.00000000000E+00 0.  1.
         21    1    1    2  504  502 -0.39475549851E+02  0.64982647559E+02 -0.16425345196E+04  0.16442933776E+04  0.00000000000E+00 0.  1.
         21    1    1    2  505  506  0.75159343468E+02 -0.42911378149E+02 -0.13158162375E+04  0.13186594269E+04  0.00000000000E+00 0.  1.
         21    1    1    2  506  501 -0.57434284655E+02 -0.59622096225E+02 -0.55342180645E+01  0.82970591066E+02  0.00000000000E+00 0.  1.
<scales pt_clust_3="43.39526" pt_clust_4="77.57988" pt_clust_5="14000.00000" pt_clust_6="44.11872"></scales>
<clustering>
<clus scale="   43.395">  1  3  2 -1</clus>
<clus scale="   44.119">  1  6  2 -1</clus>
<clus scale="   77.580">  2  4  1 -1</clus>
<clus scale="   43.395">  1  3  2 -1</clus>
</clustering>
</event>
<event>
 6    0  0.4227619E+002  0.1160749E+03  0.7546771E-02  0.1249716E+00
         21   -1    0    0  506  501  0.00000000000E+00  0.00000000000E+00  0.83028103196E+03  0.83028103196E+03  0.00000000000E+00 0. -1.
         21   -1    0    0  504  502 -0.00000000000E+00 -0.00000000000E+00 -0.33423403436E+03  0.33423403436E+03  0.00000000000E+00 0.  1.
         21    1    1    2  503  502  0.20814826268E+02  0.41655493671E+02 -0.44797571504E+02  0.64616248407E+02  0.00000000000E+00 0. -1.
         21    1    1    2  504  501 -0.14962800697E+02 -0.27362054188E+02  0.73453018122E+03  0.73519191681E+03  0.00000000000E+00 0. -1.
         21    1    1    2  505  503 -0.12552619955E+03 -0.52511602782E+02 -0.19654168990E+03  0.23904587650E+03  0.00000000000E+00 0.  1.
         21    1    1    2  506  505  0.11967417398E+03  0.38218163299E+02  0.28560777796E+01  0.12566102461E+03  0.00000000000E+00 0.  1.
<scales pt_clust_3="43.33021" pt_clust_4="31.18601" pt_clust_5="14000.00000" pt_clust_6="116.07493"></scales>
<clustering>
<clus scale="   31.186">  1  4  2 -1</clus>
<clus scale="   43.330">  2  3  1 -1</clus>
<clus scale="  116.075">  1  6  2 -1</clus>
<clus scale="   31.186">  1  3  2 -1</clus>
</clustering>
</event>
<event>
 6    0  0.4227619E+002  0.2170499E+03  0.7546771E-02  0.1136102E+00
         21   -1    0    0  506  501  0.00000000000E+00  0.00000000000E+00  0.58924250679E+03  0.58924250679E+03  0.00000000000E+00 0.  1.
         21   -1    0    0  505  502 -0.00000000000E+00 -0.00000000000E+00 -0.24107307098E+03  0.24107307098E+03  0.00000000000E+00 0.  1.
         21    1    1    2  503  501 -0.26380127177E+02 -0.51055058756E+02  0.55003390910E+02  0.79548118431E+02  0.00000000000E+00 0. -1.
         21    1    1    2  504  503 -0.48719839982E+02  0.15523022556E+03  0.70763381464E+02  0.17741900093E+03  0.00000000000E+00 0.  1.
         21    1    1    2  505  504  0.21492048930E+03  0.69662038195E+02  0.26286953483E+03  0.34661795774E+03  0.00000000000E+00 0.  1.
         21    1    1    2  506  502 -0.13982052214E+03 -0.17383720500E+03 -0.40466871393E+02  0.22673050067E+03  0.00000000000E+00 0.  1.
<scales pt_clust_3="57.46764" pt_clust_4="153.29553" pt_clust_5="14000.00000" pt_clust_6="217.04989"></scales>
<clustering>
<clus scale="   57.468">  1  3  2 -1</clus>
<clus scale="  153.296">  1  4  2 -1</clus>
<clus scale="  217.050">  2  6  1 -1</clus>
<clus scale="   57.468">  1  3  2 -1</clus>
</clustering>
</event>
<event>
 6    0  0.4227619E+002  0.1240824E+03  0.7546771E-02  0.1236510E+00
         21   -1    0    0  506  501  0.00000000000E+00  0.00000000000E+00  0.29565101250E+03  0.29565101250E+03  0.00000000000E+00 0.  1.
         21   -1    0    0  504  502 -0.00000000000E+00 -0.00000000000E+00 -0.14101722969E+04  0.14101722969E+04  0.00000000000E+00 0. -1.
         21    1    1    2  503  505 -0.48887942570E+02  0.12541426799E+03 -0.85292634583E+02  0.15935370425E+03  0.00000000000E+00 0.  1.
         21    1    1    2  504  501  0.57725791080E+02 -0.13160970872E+03  0.18988257432E+03  0.23813604183E+03  0.00000000000E+00 0.  1.
         21    1    1    2  505  502 -0.24312583091E+02 -0.31923472039E+02 -0.12538478472E+04  0.12544897902E+04  0.00000000000E+00 0. -1.
         21    1    1    2  506  503  0.15474734580E+02  0.38118912774E+02  0.34736623071E+02  0.53843773120E+02  0.00000000000E+00 0.  1.
<scales pt_clust_3="124.08237" pt_clust_4="14000.00000" pt_clust_5="40.12742" pt_clust_6="38.77414"></scales>
<clustering>
<clus scale="   40.127">  2  5  1 -1</clus>
<clus scale="   38.774">  1  6  2 -1</clus>
<clus scale="  124.082">  2  3  1 -1</clus>
<clus scale="   38.774">  1  3  2 -1</clus>
</clustering>
</event>
<event>
 6    0  0.4227619E+002  0.2937087E+03  0.7546771E-02  0.1088429E+00
         21   -1    0    0  503  501  0.00000000000E+00  0.00000000000E+00  0.21835019260E+03  0.21835019260E+03  0.00000000000E+00 0. -1.
         21   -1    0    0  506  502 -0.00000000000E+00 -0.00000000000E+00 -0.49800866598E+03  0.49800866598E+03  0.00000000000E+00 0. -1.
         21    1    1    2  503  505 -0.17345504224E+03 -0.70046063063E+02 -0.24888646107E+02  0.18871287008E+03  0.00000000000E+00 0. -1.
         21    1    1    2  504  501  0.19528449534E+03  0.82571826248E+02 -0.20626837822E+03  0.29580531514E+03  0.00000000000E+00 0. -1.
         21    1    1    2  505  502 -0.91477224484E+02  0.80844216077E+01  0.53757828064E+02  0.10641120500E+03  0.00000000000E+00 0. -1.
         21    1    1    2  506  504  0.69647771388E+02 -0.20610184793E+02 -0.10225927712E+03  0.12542946836E+03  0.00000000000E+00 0.  1.
<scales pt_clust_3="77.50560" pt_clust_4="286.79161" pt_clust_5="77.50560" pt_clust_6="53.06886"></scales>
<clustering>
<clus scale="   53.069">  4  6 -1 -1</clus>
<clus scale="   77.506">  3  5 -1 -1</clus>
<clus scale="  286.792">  2  4  1 -1</clus>
<clus scale="  293.709">  1  3  2 -1</clus>
</clustering>
</event>
<event>
 6    0  0.4227619E+002  0.8900203E+02  0.7546771E-02  0.1305287E+00
         21   -1    0    0  505  501  0.00000000000E+00  0.00000000000E+00  0.23870575403E+03  0.23870575403E+03  0.00000000000E+00 0. -1.
         21   -1    0    0  504  502 -0.00000000000E+00 -0.00000000000E+00 -0.52099512222E+03  0.52099512222E+03  0.00000000000E+00 0. -1.
         21    1    1    2  503  506 -0.11536560693E+03  0.27635313176E+02 -0.38878018976E+03  0.40647628436E+03  0.00000000000E+00 0. -1.
         21    1    1    2  504  503  0.49805682164E+02 -0.21891594947E+01 -0.41599256897E+02  0.64929935850E+02  0.00000000000E+00 0. -1.
         21    1    1    2  505  502 -0.22828582365E+02 -0.24955767270E+02 -0.56262067798E+02  0.65645675910E+02  0.00000000000E+00 0.  1.
         21    1    1    2  506  501  0.88388507126E+02 -0.49038641129E+00  0.20435214627E+03  0.22264898014E+03  0.00000000000E+00 0. -1.
<scales pt_clust_3="89.00203" pt_clust_4="47.43519" pt_clust_5="33.82210" pt_clust_6="14000.00000"></scales>
<clustering>
<clus scale="   33.822">  2  5  1 -1</clus>
<clus scale="   47.435">  2  4  1 -1</clus>
<clus scale="   89.002">  2  3  1 -1</clus>
<clus scale="   89.002">  1  3  2 -1</clus>
</clustering>
</event>
<event>
 6    0  0.4227619E+002  0.1271939E+03  0.7546771E-02  0.1231680E+00
         21   -1    0    0  506  501  0.00000000000E+00  0.00000000000E+00  0.17090723679E+03  0.17090723679E+03  0.00000000000E+00 0.  1.
         21   -1    0    0  505  502 -0.00000000000E+00 -0.00000000000E+00 -0.10342520170E+04  0.10342520170E+04  0.00000000000E+00 0. -1.
         21    1    1    2  503  501 -0.56378106606E+02 -0.11968727356E+03 -0.18462356393E+03  0.22713298905E+03  0.00000000000E+00 0. -1.
         21    1    1    2  504  503  0.10198449291E+03  0.39065349424E+02 -0.12662262386E+03  0.16721311908E+03  0.00000000000E+00 0. -1.
         21    1    1    2  505  504  0.17831944795E+02 -0.37771464795E+02 -0.64573086752E+03  0.64708037760E+03  0.00000000000E+00 0. -1.
         21    1    1    2  506  502 -0.63438331100E+02  0.11839338893E+03  0.93632275103E+02  0.16373276806E+03  0.00000000000E+00 0.  1.
<scales pt_clust_3="127.19390" pt_clust_4="111.52203" pt_clust_5="41.76915" pt_clust_6="14000.00000"></scales>
<clustering>
<clus scale="   41.769">  2  5  1 -1</clus>
<clus scale="  111.522">  2  4  1 -1</clus>
<clus scale="  127.194">  2  3  1 -1</clus>
<clus scale="  127.194">  1  3  2 -1</clus>
</clustering>
</event>
<event>
 6    0  0.4227619E+002  0.1009569E+03  0.7546771E-02  0.1278296E+00
         21   -1    0    0  504  501  0.00000000000E+00  0.00000000000E+00  0.83199706098E+03  0.83199706098E+03  0.00000000000E+00 0.  1.
         21   -1    0    0  503  502 -0.00000000000E+00 -0.00000000000E+00 -0.41881555569E+03  0.41881555569E+03  0.00000000000E+00 0. -1.
         21    1    1    2  503  501 -0.33100577625E+02 -0.13846370655E+03  0.40593137399E+03  0.43017220582E+03  0.00000000000E+00 0.  1.
         21    1    1    2  504  506  0.38504649787E+02  0.16598457012E+02  0.29514346967E+03  0.29810700179E+03  0.00000000000E+00 0.  1.
         21    1    1    2  505  502  0.54241227325E+01  0.52886710331E+02 -0.39287310563E+03  0.39645390951E+03  0.00000000000E+00 0. -1.
         21    1    1    2  506  505 -0.10828194894E+02  0.68978539202E+02  0.10497976726E+03  0.12607949956E+03  0.00000000000E+00 0. -1.
<scales pt_clust_3="100.95691" pt_clust_4="41.92990" pt_clust_5="53.23263" pt_clust_6="14000.00000"></scales>
<clustering>
<clus scale="   41.930">  1  4  2 -1</clus>
<clus scale="   53.233">  2  5  1 -1</clus>
<clus scale="  100.957">  1  3  2 -1</clus>
<clus scale="   41.930">  1  3  2 -1</clus>
</clustering>
</event>
<event>
 6    0  0.4227619E+002  0.7639527E+02  0.7546771E-02  0.1339604E+00
         21   -1    0    0  506  501  0.00000000000E+00  0.00000000000E+00  0.19675612432E+03  0.19675612432E+03  0.00000000000E+00 0. -1.
         21   -1    0    0  503  502 -0.00000000000E+00 -0.00000000000E+00 -0.14747890913E+04  0.14747890913E+04  0.00000000000E+00 0.  1.
         21    1    1    2  503  501  0.20813398953E+02 -0.40934548452E+02 -0.13245349139E+04  0.13253307410E+04  0.00000000000E+00 0.  1.
         21    1    1    2  504  502  0.32390498278E+02  0.57760458351E+02 -0.90205539617E+02  0.11190377252E+03  0.00000000000E+00 0. -1.
         21    1    1    2  505  504 -0.16670936965E+02 -0.85383302249E+02  0.12611207790E+02  0.87904897499E+02  0.00000000000E+00 0. -1.
         21    1    1    2  506  505 -0.36532960266E+02  0.68557392350E+02  0.12409627874E+03  0.14640580463E+03  0.00000000000E+00 0. -1.
<scales pt_clust_3="45.92205" pt_clust_4="55.36043" pt_clust_5="14000.00000" pt_clust_6="76.39527"></scales>
<clustering>
<clus scale="   45.922">  2  3  1 -1</clus>
<clus scale="   55.360">  2  4  1 -1</clus>
<clus scale="   76.395">  1  6  2 -1</clus>
<clus scale="   76.395">  1  3  2 -1</clus>
</clustering>
</event>
<event>
 6    0  0.4227619E+002  0.1209276E+03  0.7546771E-02  0.1241575E+00
         21   -1    0    0  503  501  0.00000000000E+00  0.00000000000E+00  0.69385005429E+03  0.69385005429E+03  0.00000000000E+00 0. -1.
         21   -1    0    0  505  502 -0.00000000000E+00 -0.00000000000E+00 -0.40571531907E+03  0.40571531907E+03  0.00000000000E+00 0. -1.
         21    1    1    2  503  504  0.73957639863E+02  0.32016936447E+02  0.34894896075E+03  0.35813432385E+03  0.00000000000E+00 0. -1.
         21    1    1    2  504  506 -0.75172462611E+02  0.91114430141E+02  0.31332310001E+03  0.33484937437E+03  0.00000000000E+00 0. -1.
         21    1    1    2  505  501  0.37506215403E+02 -0.10761607798E+03 -0.31921396292E+03  0.33894762214E+03  0.00000000000E+00 0. -1.
         21    1    1    2  506  502 -0.36291392655E+02 -0.15515288608E+02 -0.54923362623E+02  0.67634052985E+02  0.00000000000E+00 0. -1.
<scales pt_clust_3="80.06416" pt_clust_4="120.92756" pt_clust_5="14000.00000" pt_clust_6="39.46884"></scales>
<clustering>
<clus scale="   39.469">  2  6  1 -1</clus>
<clus scale="   80.064">  1  3  2 -1</clus>
<clus scale="  120.928">  1  4  2 -1</clus>
<clus scale="   80.064">  1  3  2 -1</clus>
</clustering>
</event>
<event>
 6    0  0.4227619E+002  0.8939952E+02  0.7546771E-02  0.1304312E+00
         21   -1    0    0  505  501  0.00000000000E+00  0.00000000000E+00  0.71406249436E+02  0.71406249436E+02  0.00000000000E+00 0. -1.
         21   -1    0    0  504  502 -0.00000000000E+00 -0.00000000000E+00 -0.76029908697E+03  0.76029908697E+03  0.00000000000E+00 0.  1.
         21    1    1    2  503  501 -0.67232618742E+02 -0.11776084741E+03 -0.78094008204E+02  0.15648168047E+03  0.00000000000E+00 0. -1.
         21    1    1    2  504  503  0.28765322931E+02  0.47514075726E+02 -0.54702895119E+03  0.54984152684E+03  0.00000000000E+00 0.  1.
         21    1    1    2  505  506  0.34798626319E+02  0.35439739462E+02  0.32492320059E+01  0.49774260772E+02  0.00000000000E+00 0. -1.
         21    1    1    2  506  502  0.36686694924E+01  0.34807032222E+02 -0.67019110150E+02  0.75607868329E+02  0.00000000000E+00 0. -1.
<scales pt_clust_3="14000.00000" pt_clust_4="89.39952" pt_clust_5="50.59876" pt_clust_6="34.99984"></scales>
<clustering>
<clus scale="   35.000">  2  6  1 -1</clus>
<clus scale="   50.599">  1  5  2 -1</clus>
<clus scale="   89.400">  2  4  1 -1</clus>
<clus scale="   50.599">  1  3  2 -1</clus>
</clustering>
</event>
<event>
 6    0  0.4227619E+002  0.1993521E+03  0.7546771E-02  0.1150287E+00
         21   -1    0    0  504  501  0.00000000000E+00  0.00000000000E+00  0.11892930269E+03  0.11892930269E+03  0.00000000000E+00 0. -1.
         21   -1    0    0  503  502 -0.00000000000E+00 -0.00000000000E+00 -0.11586361679E+04  0.11586361679E+04  0.00000000000E+00 0. -1.
         21    1    1    2  503  506 -0.36012225689E+02  0.96083339628E+01 -0.23320607829E+03  0.23616577955E+03  0.00000000000E+00 0. -1.
         21    1    1    2  504  502  0.30189600454E+02  0.11624795655E+02 -0.35261135668E+03  0.35409224323E+03  0.00000000000E+00 0. -1.
         21    1    1    2  505  501 -0.12800144143E+03 -0.15581529754E+03 -0.69841163721E+01  0.20177104311E+03  0.00000000000E+00 0. -1.
         21    1    1    2  506  505  0.13382406667E+03  0.13458216792E+03 -0.44690531391E+03  0.48553640475E+03  0.00000000000E+00 0. -1.
<scales pt_clust_3="30.15796" pt_clust_4="32.35039" pt_clust_5="199.35211" pt_clust_6="14000.00000"></scales>
<clustering>
<clus scale="   32.350">  2  4  1 -1</clus>
<clus scale="   30.158">  2  3  1 -1</clus>
<clus scale="  199.352">  1  5  2 -1</clus>
<clus scale="  199.352">  1  3  2 -1</clus>
</clustering>
</event>
<event>
 6    0  0.4227619E+002  0.1529428E+03  0.7546771E-02  0.1196903E+00
         21   -1    0    0  506  501  0.00000000000E+00  0.00000000000E+00  0.12100171903E+04  0.12100171903E+04  0.00000000000E+00 0. -1.
         21   -1    0    0  503  502 -0.00000000000E+00 -0.00000000000E+00 -0.59164816993E+02  0.59164816993E+02  0.00000000000E+00 0. -1.
         21    1    1    2  503  505 -0.13029605539E+02  0.44564290149E+02  0.15459779788E+02  0.48936196911E+02  0.00000000000E+00 0. -1.
         21    1    1    2  504  502  0.97103397353E+01 -0.16387926638E+03  0.28731745204E+03  0.33091089872E+03  0.00000000000E+00 0. -1.
         21    1    1    2  505  501 -0.26775741506E+02  0.14864298034E+03  0.26712637353E+03  0.30686833556E+03  0.00000000000E+00 0. -1.
         21    1    1    2  506  504  0.30095007309E+02 -0.29328004109E+02  0.58094876796E+03  0.58246657611E+03  0.00000000000E+00 0. -1.
<scales pt_clust_3="44.56726" pt_clust_4="152.94279" pt_clust_5="14000.00000" pt_clust_6="42.02191"></scales>
<clustering>
<clus scale="   42.022">  1  6  2 -1</clus>
<clus scale="   44.567">  2  3  1 -1</clus>
<clus scale="  152.943">  2  4  1 -1</clus>
<clus scale="   42.022">  1  3  2 -1</clus>
</clustering>
</event>
<event>
 6    0  0.4227619E+002  0.1255967E+03  0.7546771E-02  0.1234140E+00
         21   -1    0    0  504  501  0.00000000000E+00  0.00000000000E+00  0.12111768956E+03  0.12111768956E+03  0.00000000000E+00 0.  1.
         21   -1    0    0  506  502 -0.00000000000E+00 -0.00000000000E+00 -0.79824780975E+03  0.79824780975E+03  0.00000000000E+00 0. -1.
         21    1    1    2  503  501  0.10728673981E+03 -0.17937079736E+02  0.29238861696E+02  0.11263700281E+03  0.00000000000E+00 0.  1.
         21    1    1    2  504  502 -0.32227231104E+02  0.30340387000E+02 -0.57939042677E+01  0.44639700207E+02  0.00000000000E+00 0. -1.
         21    1    1    2  505  503  0.34342924581E+02 -0.38162140806E+02  0.12162768203E+01  0.51354306431E+02  0.00000000000E+00 0.  1.
         21    1    1    2  506  505 -0.10940243328E+03  0.25758833543E+02 -0.70179135444E+03  0.71073448986E+03  0.00000000000E+00 0. -1.
<scales pt_clust_3="36.08946" pt_clust_4="44.26210" pt_clust_5="36.08946" pt_clust_6="114.08323"></scales>
<clustering>
<clus scale="   36.089">  3  5 -1 -1</clus>
<clus scale="   44.262">  1  4  2 -1</clus>
<clus scale="  114.083">  2  6  1 -1</clus>
<clus scale="   44.262">  1  3  2 -1</clus>
</clustering>
</event>
<event>
 6    0  0.4227619E+002  0.8375385E+02  0.7546771E-02  0.1318724E+00
         21   -1    0    0  506  501  0.00000000000E+00  0.00000000000E+00  0.16482078071E+03  0.16482078071E+03  0.00000000000E+00 0. -1.
         21   -1    0    0  505  502 -0.00000000000E+00 -0.00000000000E+00 -0.41331751893E+03  0.41331751893E+03  0.00000000000E+00 0. -1.
         21    1    1    2  503  502  0.79396662596E+02  0.94764451791E+02 -0.22120528435E+03  0.25340858150E+03  0.00000000000E+00 0. -1.
         21    1    1    2  504  501  0.29984857102E+02 -0.15500821711E+02  0.39385726513E+02  0.51871018710E+02  0.00000000000E+00 0. -1.
         21    1    1    2  505  504 -0.15912201285E+02 -0.50802414357E+02 -0.14059848008E+03  0.15033966893E+03  0.00000000000E+00 0. -1.
         21    1    1    2  506  503 -0.93469318412E+02 -0.28461215723E+02  0.73921299699E+02  0.12251903050E+03  0.00000000000E+00 0. -1.
<scales pt_clust_3="83.75385" pt_clust_4="33.75451" pt_clust_5="53.49159" pt_clust_6="14000.00000"></scales>
<clustering>
<clus scale="   33.755">  1  4  2 -1</clus>
<clus scale="   53.492">  2  5  1 -1</clus>
<clus scale="   83.754">  2  3  1 -1</clus>
<clus scale="   33.755">  1  3  2 -1</clus>
</clustering>
</event>
<event>
 6    0  0.4227619E+002  0.1173467E+03  0.7546771E-02  0.1247539E+00
         21   -1    0    0  505  501  0.00000000000E+00  0.00000000000E+00  0.10048540341E+03  0.10048540341E+03  0.00000000000E+00 0. -1.
         21   -1    0    0  503  502 -0.00000000000E+00 -0.00000000000E+00 -0.57124204154E+03  0.57124204154E+03  0.00000000000E+00 0. -1.
         21    1    1    2  503  504  0.35137593497E+02  0.20043040238E+01 -0.85870300895E+02  0.92802889434E+02  0.00000000000E+00 0.  1.
         21    1    1    2  504  501  0.27315955282E+02  0.10967890651E+03  0.32269910507E+02  0.11754561272E+03  0.00000000000E+00 0. -1.
         21    1    1    2  505  506 -0.44866874715E+02  0.83534297697E+01 -0.27521479729E+02  0.53293977916E+02  0.00000000000E+00 0. -1.
         21    1    1    2  506  502 -0.17586674064E+02 -0.12003664030E+03 -0.38963476801E+03  0.40808496488E+03  0.00000000000E+00 0. -1.
<scales pt_clust_3="35.19471" pt_clust_4="14000.00000" pt_clust_5="42.77793" pt_clust_6="117.34670"></scales>
<clustering>
<clus scale="   35.195">  2  3  1 -1</clus>
<clus scale="   42.778">  1  5  2 -1</clus>
<clus scale="  117.347">  2  6  1 -1</clus>
<clus scale="   42.778">  1  3  2 -1</clus>
</clustering>
</event>
<event>
 6    0  0.4227619E+002  0.9395864E+02  0.7546771E-02  0.1293539E+00
         21   -1    0    0  504  501  0.00000000000E+00  0.00000000000E+00  0.43506834299E+03  0.43506834299E+03  0.00000000000E+00 0. -1.
         21   -1    0    0  505  502 -0.00000000000E+00 -0.00000000000E+00 -0.29862002756E+03  0.29862002756E+03  0.00000000000E+00 0. -1.
         21    1    1    2  503  502  0.90003570556E+02  0.26873487624E+02  0.42442839625E+02  0.10307386519E+03  0.00000000000E+00 0. -1.
         21    1    1    2  504  503  0.86330335750E+00  0.52920056981E+02  0.28329117521E+03  0.28819293482E+03  0.00000000000E+00 0. -1.
         21    1    1    2  505  506  0.42953426838E+01 -0.72744997423E+02 -0.22806172271E+03  0.23942103914E+03  0.00000000000E+00 0. -1.
         21    1    1    2  506  501 -0.95162216597E+02 -0.70485471821E+01  0.38776023299E+02  0.10300053140E+03  0.00000000000E+00 0. -1.
<scales pt_clust_3="93.95864" pt_clust_4="52.92710" pt_clust_5="70.86447" pt_clust_6="14000.00000"></scales>
<clustering>
<clus scale="   52.927">  1  4  2 -1</clus>
<clus scale="   70.864">  2  5  1 -1</clus>
<clus scale="   93.959">  2  3  1 -1</clus>
<clus scale="   52.927">  1  3  2 -1</clus>
</clustering>
</event>
<event>
 6    0  0.4227619E+002  0.6795642E+02  0.7546771E-02  0.1367184E+00
         21   -1    0    0  506  501  0.00000000000E+00  0.00000000000E+00  0.35210530070E+03  0.35210530070E+03  0.00000000000E+00 0.  1.
         21   -1    0    0  504  502 -0.00000000000E+00 -0.00000000000E+00 -0.20554851123E+03  0.20554851123E+03  0.00000000000E+00 0. -1.
         21    1    1    2  503  502  0.49100515090E+01 -0.35062700107E+02 -0.42610497922E+02  0.55399964601E+02  0.00000000000E+00 0. -1.
         21    1    1    2  504  501  0.55739846939E+02 -0.20496142764E+02  0.42765955195E+00  0.59390279488E+02  0.00000000000E+00 0. -1.
         21    1    1    2  505  503 -0.11270720872E+03  0.95174587095E+02 -0.78937494962E+02  0.16730883132E+03  0.00000000000E+00 0. -1.
         21    1    1    2  506  505  0.52057310272E+02 -0.39615744225E+02  0.26767712280E+03  0.27555473652E+03  0.00000000000E+00 0.  1.
<scales pt_clust_3="35.40482" pt_clust_4="62.81120" pt_clust_5="14000.00000" pt_clust_6="67.95642"></scales>
<clustering>
<clus scale="   35.405">  2  3  1 -1</clus>
<clus scale="   62.811">  2  4  1 -1</clus>
<clus scale="   67.956">  1  6  2 -1</clus>
<clus scale="   67.956">  1  3  2 -1</clus>
</clustering>
</event>
<event>
 6    0  0.4227619E+002  0.1242157E+03  0.7546771E-02  0.1236300E+00
         21   -1    0    0  506  501  0.00000000000E+00  0.00000000000E+00  0.10414152019E+03  0.10414152019E+03  0.00000000000E+00 0. -1.
         21   -1    0    0  503  502 -0.00000000000E+00 -0.00000000000E+00 -0.45368748139E+03  0.45368748139E+03  0.00000000000E+00 0.  1.
         21    1    1    2  503  504 -0.77261229103E+01 -0.47381109255E+02 -0.24049592994E+02  0.53693997920E+02  0.00000000000E+00 0. -1.
         21    1    1    2  504  505  0.52777919930E+01 -0.39960425186E+02  0.77555332083E+01  0.41046789944E+02  0.00000000000E+00 0.  1.
         21    1    1    2  505  501  0.25723380211E+02 -0.39679758382E+02  0.43848704603E+02  0.64489413163E+02  0.00000000000E+00 0. -1.
         21    1    1    2  506  502 -0.23275049293E+02  0.12702129282E+03 -0.37710060601E+03  0.39859880055E+03  0.00000000000E+00 0.  1.
<scales pt_clust_3="30.05406" pt_clust_4="30.05406" pt_clust_5="47.28822" pt_clust_6="119.80712"></scales>
<clustering>
<clus scale="   30.054">  3  4 -1 -1</clus>
<clus scale="   47.288">  1  5  2 -1</clus>
<clus scale="  119.807">  2  6  1 -1</clus>
<clus scale="   47.288">  1  3  2 -1</clus>
</clustering>
</event>
<event>
 6    0  0.4227619E+002  0.9902842E+02  0.7546771E-02  0.1282352E+00
         21   -1    0    0  506  501  0.00000000000E+00  0.00000000000E+00  0.51147957869E+02  0.51147957869E+02  0.00000000000E+00 0.  1.
         21   -1    0    0  504  502 -0.00000000000E+00 -0.00000000000E+00 -0.18006164277E+04  0.18006164277E+04  0.00000000000E+00 0.  1.
         21    1    1    2  503  502  0.99922126791E+02  0.45238773311E+02 -0.40242382402E+03  0.41710419822E+03  0.00000000000E+00 0.  1.
         21    1    1    2  504  505 -0.29508654572E+02 -0.11615877027E+02 -0.10350803925E+04  0.10355660811E+04  0.00000000000E+00 0.  1.
         21    1    1    2  505  501 -0.68723858315E+02 -0.72776506959E+02 -0.33769122899E+03  0.35221407525E+03  0.00000000000E+00 0.  1.
         21    1    1    2  506  503 -0.16896139039E+01  0.39153610674E+02  0.25726975743E+02  0.46880030982E+02  0.00000000000E+00 0.  1.
<scales pt_clust_3="99.02842" pt_clust_4="31.71260" pt_clust_5="14000.00000" pt_clust_6="39.04945"></scales>
<clustering>
<clus scale="   31.713">  2  4  1 -1</clus>
<clus scale="   39.049">  1  6  2 -1</clus>
<clus scale="   99.028">  2  3  1 -1</clus>
<clus scale="   39.049">  1  3  2 -1</clus>
</clustering>
</event>
<event>
 6    0  0.4227619E+002  0.1421667E+03  0.7546771E-02  0.1210443E+00
         21   -1    0    0  505  501  0.00000000000E+00  0.00000000000E+00  0.77377878324E+02  0.77377878324E+02  0.00000000000E+00 0.  1.
         21   -1    0    0  504  502 -0.00000000000E+00 -0.00000000000E+00 -0.19558859373E+04  0.19558859373E+04  0.00000000000E+00 0.  1.
         21    1    1    2  503  506  0.83829056724E+02 -0.95294726049E+02 -0.63740854876E+03  0.64992157496E+03  0.00000000000E+00 0.  1.
         21    1    1    2  504  503  0.40256549098E+02  0.11954089407E+02 -0.12098942197E+04  0.12106227789E+04  0.00000000000E+00 0.  1.
         21    1    1    2  505  502 -0.31413809269E+01  0.35646195457E+02  0.85053263190E+01  0.36781246587E+02  0.00000000000E+00 0. -1.
         21    1    1    2  506  501 -0.12094422489E+03  0.47694441184E+02 -0.39710616868E+02  0.13593821518E+03  0.00000000000E+00 0.  1.
<scales pt_clust_3="14000.00000" pt_clust_4="42.04207" pt_clust_5="35.78435" pt_clust_6="142.16674"></scales>
<clustering>
<clus scale="   35.784">  1  5  2 -1</clus>
<clus scale="   42.042">  2  4  1 -1</clus>
<clus scale="  142.167">  1  6  2 -1</clus>
<clus scale="   35.784">  1  3  2 -1</clus>
</clustering>
</event>
<event>
 6    0  0.4227619E+002  0.7194368E+02  0.7546771E-02  0.1353605E+00
         21   -1    0    0  503  501  0.00000000000E+00  0.00000000000E+00  0.80706852975E+02  0.80706852975E+02  0.00000000000E+00 0.  1.
         21   -1    0    0  505  502 -0.00000000000E+00 -0.00000000000E+00 -0.71391818039E+03  0.71391818039E+03  0.00000000000E+00 0.  1.
         21    1    1    2  503  502 -0.17397755658E+01 -0.46776799981E+02 -0.35172147722E+03  0.35482262241E+03  0.00000000000E+00 0.  1.
         21    1    1    2  504  501 -0.17381036339E+02 -0.37452843846E+02  0.43494801640E+02  0.59971774245E+02  0.00000000000E+00 0.  1.
         21    1    1    2  505  506 -0.23373623268E+02  0.11641640610E+03 -0.29649400164E+03  0.31938659784E+03  0.00000000000E+00 0.  1.
         21    1    1    2  506  504  0.42494435173E+02 -0.32186762276E+02 -0.28490650203E+02  0.60444038874E+02  0.00000000000E+00 0.  1.
<scales pt_clust_3="48.85417" pt_clust_4="41.28942" pt_clust_5="71.94368" pt_clust_6="14000.00000"></scales>
<clustering>
<clus scale="   41.289">  1  4  2 -1</clus>
<clus scale="   48.854">  2  3  1 -1</clus>
<clus scale="   71.944">  2  5  1 -1</clus>
<clus scale="   41.289">  1  3  2 -1</clus>
</clustering>
</event>
<event>
 6    0  0.4227619E+002  0.1206397E+03  0.7546771E-02  0.1242045E+00
         21   -1    0    0  503  501  0.00000000000E+00  0.00000000000E+00  0.57667039672E+03  0.57667039672E+03  0.00000000000E+00 0. -1.
         21   -1    0    0  504  502 -0.00000000000E+00 -0.00000000000E+00 -0.45442423467E+03  0.45442423467E+03  0.00000000000E+00 0. -1.
         21    1    1    2  503  505  0.24507750541E+02  0.27182713904E+02  0.40162389360E+03  0.40328808771E+03  0.00000000000E+00 0. -1.
         21    1    1    2  504  506  0.77367034169E+02 -0.21955694549E+02 -0.34567157506E+03  0.35490357606E+03  0.00000000000E+00 0. -1.
         21    1    1    2  505  502  0.19677939113E+02 -0.92468073320E+02 -0.24795609675E+02  0.97736319403E+02  0.00000000000E+00 0.  1.
         21    1    1    2  506  501 -0.12155272382E+03  0.87241053965E+02  0.91089453185E+02  0.17516664822E+03  0.00000000000E+00 0. -1.
<scales pt_clust_3="36.59959" pt_clust_4="80.85482" pt_clust_5="120.63973" pt_clust_6="14000.00000"></scales>
<clustering>
<clus scale="   36.600">  1  3  2 -1</clus>
<clus scale="   80.855">  2  4  1 -1</clus>
<clus scale="  120.640">  2  5  1 -1</clus>
<clus scale="   36.600">  1  3  2 -1</clus>
</clustering>
</event>
<event>
 6    0  0.4227619E+002  0.1189843E+03  0.7546771E-02  0.1244782E+00
         21   -1    0    0  506  501  0.00000000000E+00  0.00000000000E+00  0.86601099921E+03  0.86601099921E+03  0.00000000000E+00 0.  1.
         21   -1    0    0  505  502 -0.00000000000E+00 -0.00000000000E+00 -0.44857415045E+03  0.44857415045E+03  0.00000000000E+00 0. -1.
         21    1    1    2  503  504  0.27362657731E+02  0.12407114645E+03  0.19702706479E+03  0.23443981889E+03  0.00000000000E+00 0. -1.
         21    1    1    2  504  502  0.50227385270E+02 -0.10859136740E+03 -0.41678953552E+03  0.43362240742E+03  0.00000000000E+00 0. -1.
         21    1    1    2  505  501 -0.27547276172E+02  0.13367496577E+02  0.70175546526E+02  0.76564676708E+02  0.00000000000E+00 0. -1.
         21    1    1    2  506  503 -0.50042766829E+02 -0.28847275627E+02  0.56702377295E+03  0.56995824664E+03  0.00000000000E+00 0.  1.
<scales pt_clust_3="14000.00000" pt_clust_4="118.98434" pt_clust_5="30.61931" pt_clust_6="72.40845"></scales>
<clustering>
<clus scale="   30.619">  1  5  2 -1</clus>
<clus scale="   72.408">  1  6  2 -1</clus>
<clus scale="  118.984">  2  4  1 -1</clus>
<clus scale="   30.619">  1  3  2 -1</clus>
</clustering>
</event>
<event>
 6    0  0.4227619E+002  0.1023401E+03  0.7546771E-02  0.1275451E+00
         21   -1    0    0  506  501  0.00000000000E+00  0.00000000000E+00  0.45294454510E+02  0.45294454510E+02  0.00000000000E+00 0. -1.
         21   -1    0    0  503  502 -0.00000000000E+00 -0.00000000000E+00 -0.17375054569E+04  0.17375054569E+04  0.00000000000E+00 0. -1.
         21    1    1    2  503  505  0.25525669951E+02  0.18008918395E+02 -0.89901412207E+03  0.89955670897E+03  0.00000000000E+00 0. -1.
         21    1    1    2  504  501  0.98370756794E+02 -0.42554216914E+02 -0.44984443208E+02  0.11623797701E+03  0.00000000000E+00 0. -1.
         21    1    1    2  505  504 -0.37007438057E+02  0.56890842617E+02 -0.20513567726E+03  0.21607120245E+03  0.00000000000E+00 0. -1.
         21    1    1    2  506  502 -0.86888988689E+02 -0.32345544098E+02 -0.54307675988E+03  0.55093402300E+03  0.00000000000E+00 0. -1.
<scales pt_clust_3="31.23909" pt_clust_4="14000.00000" pt_clust_5="68.61395" pt_clust_6="102.34010"></scales>
<clustering>
<clus scale="   31.239">  2  3  1 -1</clus>
<clus scale="   68.614">  2  5  1 -1</clus>
<clus scale="  102.340">  2  6  1 -1</clus>
<clus scale="  102.340">  1  3  2 -1</clus>
</clustering>
</event>
<event>
 6    0  0.4227619E+002  0.1057994E+03  0.7546771E-02  0.1268553E+00
         21   -1    0    0  506  501  0.00000000000E+00  0.00000000000E+00  0.22778857992E+04  0.22778857992E+04  0.00000000000E+00 0. -1.
         21   -1    0    0  503  502 -0.00000000000E+00 -0.00000000000E+00 -0.13275941200E+03  0.13275941200E+03  0.00000000000E+00 0.  1.
         21    1    1    2  503  501 -0.13377751197E+02 -0.10265569049E+03 -0.35714451271E+02  0.10951108185E+03  0.00000000000E+00 0.  1.
         21    1    1    2  504  505 -0.21438903019E+02  0.91363843174E+02  0.86264460410E+03  0.86773422854E+03  0.00000000000E+00 0. -1.
         21    1    1    2  505  502 -0.30689948646E+02  0.43048144074E+01 -0.52584452396E+02  0.61037111733E+02  0.00000000000E+00 0.  1.
         21    1    1    2  506  504  0.65506602862E+02  0.69870329098E+01  0.13707806867E+04  0.13723627890E+04  0.00000000000E+00 0. -1.
<scales pt_clust_3="105.79940" pt_clust_4="14000.00000" pt_clust_5="30.99039" pt_clust_6="65.56512"></scales>
<clustering>
<clus scale="   30.990">  2  5  1 -1</clus>
<clus scale="   65.565">  1  6  2 -1</clus>
<clus scale="  105.799">  2  3  1 -1</clus>
<clus scale="   65.565">  1  3  2 -1</clus>
</clustering>
</event>
<event>
 6    0  0.4227619E+002  0.1108087E+03  0.7546771E-02  0.1259080E+00
         21   -1    0    0  506  501  0.00000000000E+00  0.00000000000E+00  0.19640697862E+02  0.19640697862E+02  0.00000000000E+00 0.  1.
         21   -1    0    0  504  502 -0.00000000000E+00 -0.00000000000E+00 -0.15217841564E+04  0.15217841564E+04  0.00000000000E+00 0.  1.
         21    1    1    2  503  505 -0.31185444882E+02 -0.34386809681E+02 -0.77368560167E+02  0.90226818379E+02  0.00000000000E+00 0.  1.
         21    1    1    2  504  501  0.57555264263E+02  0.13278264863E+03 -0.74631921991E+03  0.76022116402E+03  0.00000000000E+00 0.  1.
         21    1    1    2  505  502 -0.53027626254E+02 -0.76249377868E+02 -0.55631697241E+03  0.56401637437E+03  0.00000000000E+00 0.  1.
         21    1    1    2  506  503  0.26657806873E+02 -0.22146461083E+02 -0.12213870608E+03  0.12696049751E+03  0.00000000000E+00 0.  1.
<scales pt_clust_3="47.64595" pt_clust_4="110.80872" pt_clust_5="14000.00000" pt_clust_6="34.65695"></scales>
<clustering>
<clus scale="   34.657">  1  6  2 -1</clus>
<clus scale="   47.646">  1  3  2 -1</clus>
<clus scale="  110.809">  1  4  2 -1</clus>
<clus scale="   34.657">  1  3  2 -1</clus>
</clustering>
</event>
<event>
 6    0  0.4227619E+002  0.1242553E+03  0.7546771E-02  0.1236238E+00
         21   -1    0    0  503  501  0.00000000000E+00  0.00000000000E+00  0.53873356209E+03  0.53873356209E+03  0.00000000000E+00 0.  1.
         21   -1    0    0  505  502 -0.00000000000E+00 -0.00000000000E+00 -0.79536273538E+02  0.79536273538E+02  0.00000000000E+00 0.  1.
         21    1    1    2  503  506 -0.10412413192E+03  0.32583465454E+02  0.17236992914E+03  0.20399732729E+03  0.00000000000E+00 0.  1.
         21    1    1    2  504  502 -0.52725511697E+02  0.30928452102E+02 -0.21762934256E+01  0.61166044389E+02  0.00000000000E+00 0.  1.
         21    1    1    2  505  501  0.39680341168E+02  0.26197013679E+02  0.33897628983E+02  0.58394025821E+02  0.00000000000E+00 0.  1.
         21    1    1    2  506  504  0.11716930245E+03 -0.89708931235E+02  0.25510602385E+03  0.29471243812E+03  0.00000000000E+00 0.  1.
<scales pt_clust_3="124.25533" pt_clust_4="55.05132" pt_clust_5="47.54801" pt_clust_6="14000.00000"></scales>
<clustering>
<clus scale="   47.548">  2  5  1 -1</clus>
<clus scale="   55.051">  2  4  1 -1</clus>
<clus scale="  124.255">  1  3  2 -1</clus>
<clus scale="  124.255">  1  3  2 -1</clus>
</clustering>
</event>
<event>
 6    0  0.4227619E+002  0.2516437E+03  0.7546771E-02  0.1112270E+00
         21   -1    0    0  506  501  0.00000000000E+00  0.00000000000E+00  0.41544467607E+03  0.41544467607E+03  0.00000000000E+00 0. -1.
         21   -1    0    0  503  502 -0.00000000000E+00 -0.00000000000E+00 -0.14131170985E+03  0.14131170985E+03  0.00000000000E+00 0. -1.
         21    1    1    2  503  505 -0.83155619550E+02  0.73426787661E+02  0.50149741725E+02  0.12174295382E+03  0.00000000000E+00 0. -1.
         21    1    1    2  504  502  0.54874587391E+02 -0.11950119122E+03  0.22710827683E+02  0.13344488277E+03  0.00000000000E+00 0. -1.
         21    1    1    2  505  501 -0.56295115672E+02  0.10565563799E+03  0.91111633348E+02  0.15044461977E+03  0.00000000000E+00 0. -1.
         21    1    1    2  506  504  0.84576147830E+02 -0.59581234432E+02  0.11016076346E+03  0.15112392956E+03  0.00000000000E+00 0. -1.
<scales pt_clust_3="49.21862" pt_clust_4="96.38214" pt_clust_5="232.66134" pt_clust_6="96.38214"></scales>
<clustering>
<clus scale="   49.219">  3  5 -1 -1</clus>
<clus scale="   96.382">  4  6 -1 -1</clus>
<clus scale="  232.661">  1  3  2 -1</clus>
<clus scale="  232.661">  1  3  2 -1</clus>
</clustering>
</event>
<event>
 6    0  0.4227619E+002  0.1472568E+03  0.7546771E-02  0.1203885E+00
         21   -1    0    0  506  501  0.00000000000E+00  0.00000000000E+00  0.51173210698E+03  0.51173210698E+03  0.00000000000E+00 0.  1.
         21   -1    0    0  504  502 -0.00000000000E+00 -0.00000000000E+00 -0.30221263709E+03  0.30221263709E+03  0.00000000000E+00 0.  1.
         21    1    1    2  503  505 -0.15057035769E+03  0.10398075618E+01  0.23124988843E+02  0.15233935448E+03  0.00000000000E+00 0.  1.
         21    1    1    2  504  501  0.12264817452E+03  0.11978524890E+03 -0.93374115324E+02  0.19521733012E+03  0.00000000000E+00 0.  1.
         21    1    1    2  505  502  0.77066751008E+01 -0.55777373041E+02 -0.81330785807E+02  0.98920194624E+02  0.00000000000E+00 0.  1.
         21    1    1    2  506  503  0.20215508074E+02 -0.65047683422E+02  0.36109938218E+03  0.36746786484E+03  0.00000000000E+00 0.  1.
<scales pt_clust_3="14000.00000" pt_clust_4="147.25680" pt_clust_5="56.30727" pt_clust_6="68.95076"></scales>
<clustering>
<clus scale="   56.307">  2  5  1 -1</clus>
<clus scale="   68.951">  1  6  2 -1</clus>
<clus scale="  147.257">  2  4  1 -1</clus>
<clus scale="   68.951">  1  3  2 -1</clus>
</clustering>
</event>
<event>
 6    0  0.4227619E+002  0.7169073E+02  0.7546771E-02  0.1354436E+00
         21   -1    0    0  503  501  0.00000000000E+00  0.00000000000E+00  0.46334465945E+03  0.46334465945E+03  0.00000000000E+00 0.  1.
         21   -1    0    0  505  502 -0.00000000000E+00 -0.00000000000E+00 -0.44088145050E+02  0.44088145050E+02  0.00000000000E+00 0.  1.
         21    1    1    2  503  506  0.40472000000E+02 -0.26583074660E+01  0.14331942158E+03  0.14894799759E+03  0.00000000000E+00 0.  1.
         21    1    1    2  504  501 -0.10368094429E+03 -0.22313653335E+02  0.98514177315E+02  0.14475040748E+03  0.00000000000E+00 0.  1.
         21    1    1    2  505  504  0.53808500796E+02 -0.24286123176E+02  0.52049695047E+02  0.78704137701E+02  0.00000000000E+00 0.  1.
         21    1    1    2  506  502  0.94004434958E+01  0.49258083978E+02  0.12537322046E+03  0.13503026173E+03  0.00000000000E+00 0.  1.
<scales pt_clust_3="40.55921" pt_clust_4="71.69073" pt_clust_5="14000.00000" pt_clust_6="54.74218"></scales>
<clustering>
<clus scale="   40.559">  1  3  2 -1</clus>
<clus scale="   54.742">  1  6  2 -1</clus>
<clus scale="   71.691">  1  4  2 -1</clus>
<clus scale="   40.559">  1  3  2 -1</clus>
</clustering>
</event>
<event>
 6    0  0.4227619E+002  0.1245916E+03  0.7546771E-02  0.1235709E+00
         21   -1    0    0  505  501  0.00000000000E+00  0.00000000000E+00  0.17432090247E+03  0.17432090247E+03  0.00000000000E+00 0.  1.
         21   -1    0    0  506  502 -0.00000000000E+00 -0.00000000000E+00 -0.87358733491E+03  0.87358733491E+03  0.00000000000E+00 0. -1.
         21    1    1    2  503  501  0.34237795681E+02 -0.72631358308E+01  0.12515696393E+03  0.12995862963E+03  0.00000000000E+00 0.  1.
         21    1    1    2  504  502 -0.88971767363E+02 -0.31810239417E+02 -0.37212672085E+03  0.38393510271E+03  0.00000000000E+00 0. -1.
         21    1    1    2  505  504 -0.98740335860E+02 -0.44951529321E+02 -0.15884614259E+03  0.19236005544E+03  0.00000000000E+00 0. -1.
         21    1    1    2  506  503  0.15347430754E+03  0.84024904569E+02 -0.29345053293E+03  0.34165444961E+03  0.00000000000E+00 0. -1.
<scales pt_clust_3="34.99971" pt_clust_4="90.75531" pt_clust_5="14000.00000" pt_clust_6="124.59159"></scales>
<clustering>
<clus scale="   35.000">  1  3  2 -1</clus>
<clus scale="   90.755">  2  4  1 -1</clus>
<clus scale="  124.592">  2  6  1 -1</clus>
<clus scale="   35.000">  1  3  2 -1</clus>
</clustering>
</event>
<event>
 6    0  0.4227619E+002  0.1121874E+03  0.7546771E-02  0.1256572E+00
         21   -1    0    0  505  501  0.00000000000E+00  0.00000000000E+00  0.47299477823E+03  0.47299477823E+03  0.00000000000E+00 0.  1.
         21   -1    0    0  503  502 -0.00000000000E+00 -0.00000000000E+00 -0.11585596367E+04  0.11585596367E+04  0.00000000000E+00 0.  1.
         21    1    1    2  503  506 -0.31586327175E+02 -0.18781452918E+02 -0.97910637713E+03  0.97979576279E+03  0.00000000000E+00 0.  1.
         21    1    1    2  504  501  0.11413773773E+03  0.15670699838E+02  0.44125361813E+03  0.45604577569E+03  0.00000000000E+00 0.  1.
         21    1    1    2  505  502 -0.23877868461E+02 -0.34275624225E+02 -0.12419479496E+02  0.43579978077E+02  0.00000000000E+00 0. -1.
         21    1    1    2  506  504 -0.58673542096E+02  0.37386377305E+02 -0.13529261993E+03  0.15213289834E+03  0.00000000000E+00 0.  1.
<scales pt_clust_3="36.74832" pt_clust_4="14000.00000" pt_clust_5="47.06437" pt_clust_6="112.18741"></scales>
<clustering>
<clus scale="   36.748">  2  3  1 -1</clus>
<clus scale="   47.064">  2  5  1 -1</clus>
<clus scale="  112.187">  2  6  1 -1</clus>
<clus scale="  112.187">  1  3  2 -1</clus>
</clustering>
</event>
<event>
 6    0  0.4227619E+002  0.2007974E+03  0.7546771E-02  0.1149068E+00
         21   -1    0    0  503  501  0.00000000000E+00  0.00000000000E+00  0.23146527442E+03  0.23146527442E+03  0.00000000000E+00 0.  1.
         21   -1    0    0  504  502 -0.00000000000E+00 -0.00000000000E+00 -0.39010311561E+03  0.39010311561E+03  0.00000000000E+00 0. -1.
         21    1    1    2  503  506 -0.93131731836E+02  0.33054904425E+02 -0.62628299117E+02  0.11699764968E+03  0.00000000000E+00 0.  1.
         21    1    1    2  504  505  0.19882745746E+03  0.14518511049E+03 -0.15010626963E+02  0.24665034577E+03  0.00000000000E+00 0. -1.
         21    1    1    2  505  501 -0.75417621191E+02 -0.16258931554E+03 -0.10407316984E+02  0.17953109859E+03  0.00000000000E+00 0.  1.
         21    1    1    2  506  502 -0.30278104436E+02 -0.15650699373E+02 -0.70591598127E+02  0.78389295986E+02  0.00000000000E+00 0.  1.
<scales pt_clust_3="105.69135" pt_clust_4="14000.00000" pt_clust_5="200.79741" pt_clust_6="34.08384"></scales>
<clustering>
<clus scale="   34.084">  2  6  1 -1</clus>
<clus scale="  105.691">  2  3  1 -1</clus>
<clus scale="  200.797">  1  5  2 -1</clus>
<clus scale="  200.797">  1  3  2 -1</clus>
</clustering>
</event>
<event>
 6    0  0.4227619E+002  0.1130713E+03  0.7546771E-02  0.1254986E+00
         21   -1    0    0  505  501  0.00000000000E+00  0.00000000000E+00  0.71595008741E+03  0.71595008741E+03  0.00000000000E+00 0.  1.
         21   -1    0    0  503  502 -0.00000000000E+00 -0.00000000000E+00 -0.16760795984E+03  0.16760795984E+03  0.00000000000E+00 0. -1.
         21    1    1    2  503  501  0.44814272066E+02  0.10023192258E+03  0.36255037773E+02  0.11562519211E+03  0.00000000000E+00 0. -1.
         21    1    1    2  504  506  0.11982145442E+02 -0.97607652323E+02  0.22446791834E+03  0.24506462814E+03  0.00000000000E+00 0.  1.
         21    1    1    2  505  504  0.36376463741E+02 -0.37492011940E+02  0.38210882057E+03  0.38566312869E+03  0.00000000000E+00 0.  1.
         21    1    1    2  506  502 -0.93172881249E+02  0.34867741679E+02 -0.94489649125E+02  0.13720509831E+03  0.00000000000E+00 0. -1.
<scales pt_clust_3="113.07128" pt_clust_4="14000.00000" pt_clust_5="52.23886" pt_clust_6="96.45769"></scales>
<clustering>
<clus scale="   52.239">  1  5  2 -1</clus>
<clus scale="   96.458">  2  6  1 -1</clus>
<clus scale="  113.071">  2  3  1 -1</clus>
<clus scale="   52.239">  1  3  2 -1</clus>
</clustering>
</event>
<event>
 6    0  0.4227619E+002  0.9814240E+02  0.7546771E-02  0.1284251E+00
         21   -1    0    0  506  501  0.00000000000E+00  0.00000000000E+00  0.24639692010E+04  0.24639692010E+04  0.00000000000E+00 0.  1.
         21   -1    0    0  503  502 -0.00000000000E+00 -0.00000000000E+00 -0.33961338063E+03  0.33961338063E+03  0.00000000000E+00 0.  1.
         21    1    1    2  503  501 -0.46871268585E+02 -0.42921318719E+02  0.22557750446E+04  0.22566701592E+04  0.00000000000E+00 0.  1.
         21    1    1    2  504  505  0.72550835498E+02  0.10391176712E+03  0.20753397748E+02  0.12842111429E+03  0.00000000000E+00 0. -1.
         21    1    1    2  505  502 -0.14012189374E+02 -0.95266033526E+02 -0.27451004182E+03  0.29090844205E+03  0.00000000000E+00 0.  1.
         21    1    1    2  506  504 -0.11667377539E+02  0.34275585128E+02  0.12233741980E+03  0.12758286608E+03  0.00000000000E+00 0. -1.
<scales pt_clust_3="58.95586" pt_clust_4="98.14240" pt_clust_5="14000.00000" pt_clust_6="36.20695"></scales>
<clustering>
<clus scale="   36.207">  1  6  2 -1</clus>
<clus scale="   58.956">  1  3  2 -1</clus>
<clus scale="   98.142">  1  4  2 -1</clus>
<clus scale="   36.207">  1  3  2 -1</clus>
</clustering>
</event>
<event>
 6    0  0.4227619E+002  0.1036697E+03  0.7546771E-02  0.1272763E+00
         21   -1    0    0  506  501  0.00000000000E+00  0.00000000000E+00  0.47140425579E+02  0.47140425579E+02  0.00000000000E+00 0.  1.
         21   -1    0    0  505  502 -0.00000000000E+00 -0.00000000000E+00 -0.95326705562E+03  0.95326705562E+03  0.00000000000E+00 0. -1.
         21    1    1    2  503  502 -0.66083009605E+02 -0.37174538429E+02 -0.67453766046E+03  0.67878565530E+03  0.00000000000E+00 0. -1.
         21    1    1    2  504  503  0.37810559490E+02 -0.32389318537E+02 -0.81339403132E+02  0.95366686354E+02  0.00000000000E+00 0.  1.
         21    1    1    2  505  501  0.28806278774E+02  0.10714070919E+03 -0.54939045465E+02  0.12380319858E+03  0.00000000000E+00 0.  1.
         21    1    1    2  506  504 -0.53382865918E+00 -0.37576852226E+02 -0.95310520980E+02  0.10245194096E+03  0.00000000000E+00 0. -1.
<scales pt_clust_3="75.82157" pt_clust_4="35.20773" pt_clust_5="95.42128" pt_clust_6="35.20773"></scales>
<clustering>
<clus scale="   35.208">  4  6 -1 -1</clus>
<clus scale="   75.822">  2  3  1 -1</clus>
<clus scale="   95.421">  1  5  2 -1</clus>
<clus scale="   95.421">  1  3  2 -1</clus>
</clustering>
</event>
<event>
 6    0  0.4227619E+002  0.1050824E+03  0.7546771E-02  0.1269957E+00
         21   -1    0    0  505  501  0.00000000000E+00  0.00000000000E+00  0.29045098067E+03  0.29045098067E+03  0.00000000000E+00 0.  1.
         21   -1    0    0  503  502 -0.00000000000E+00 -0.00000000000E+00 -0.31160451174E+03  0.31160451174E+03  0.00000000000E+00 0.  1.
         21    1    1    2  503  504  0.35105938031E+02 -0.22283916278E+02 -0.20743635963E+03  0.21156285852E+03  0.00000000000E+00 0.  1.
         21    1    1    2  504  506 -0.49718287801E+02  0.80961514402E+02  0.52765839575E+02  0.10867800505E+03  0.00000000000E+00 0. -1.
         21    1    1    2  505  502  0.74156544996E+02 -0.66221952513E+02 -0.33044736353E+02  0.10476876806E+03  0.00000000000E+00 0. -1.
         21    1    1    2  506  501 -0.59544195226E+02  0.75443543894E+01  0.16656172534E+03  0.17704586077E+03  0.00000000000E+00 0.  1.
<scales pt_clust_3="41.58124" pt_clust_4="14000.00000" pt_clust_5="105.08243" pt_clust_6="58.09549"></scales>
<clustering>
<clus scale="   41.581">  2  3  1 -1</clus>
<clus scale="   58.095">  1  6  2 -1</clus>
<clus scale="  105.082">  2  5  1 -1</clus>
<clus scale="   58.095">  1  3  2 -1</clus>
</clustering>
</event>
<event>
 6    0  0.4227619E+002  0.3324175E+03  0.7546771E-02  0.1070072E+00
         21   -1    0    0  505  501  0.00000000000E+00  0.00000000000E+00  0.61426601042E+03  0.61426601042E+03  0.00000000000E+00 0.  1.
         21   -1    0    0  506  502 -0.00000000000E+00 -0.00000000000E+00 -0.18878748195E+03  0.18878748195E+03  0.00000000000E+00 0.  1.
         21    1    1    2  503  501  0.92995773309E+02  0.10954201542E+02  0.57563955735E+02  0.10991732068E+03  0.00000000000E+00 0.  1.
         21    1    1    2  504  502 -0.15658139331E+03 -0.21264774938E+02  0.91531819792E+02  0.18261434067E+03  0.00000000000E+00 0.  1.
         21    1    1    2  505  504 -0.13480640266E+03  0.68630139838E+02  0.26287835641E+03  0.30329505858E+03  0.00000000000E+00 0.  1.
         21    1    1    2  506  503  0.19839202267E+03 -0.58319566442E+02  0.13504396533E+02  0.20722677243E+03  0.00000000000E+00 0.  1.
<scales pt_clust_3="61.59873" pt_clust_4="149.51214" pt_clust_5="149.51214" pt_clust_6="309.07874"></scales>
<clustering>
<clus scale="   61.599">  3  6 -1 -1</clus>
<clus scale="  149.512">  4  5 -1 -1</clus>
<clus scale="  309.079">  2  3  1 -1</clus>
<clus scale="  332.417">  1  3  2 -1</clus>
</clustering>
</event>
<event>
 6    0  0.4227619E+002  0.9430425E+02  0.7546771E-02  0.1292751E+00
         21   -1    0    0  504  501  0.00000000000E+00  0.00000000000E+00  0.41591635323E+02  0.41591635323E+02  0.00000000000E+00 0. -1.
         21   -1    0    0  503  502 -0.00000000000E+00 -0.00000000000E+00 -0.14732243933E+04  0.14732243933E+04  0.00000000000E+00 0. -1.
         21    1    1    2  503  505 -0.71009301965E+02  0.58283979422E+02 -0.86248638452E+03  0.86736503659E+03  0.00000000000E+00 0. -1.
         21    1    1    2  504  506  0.19513948778E+02  0.22838960681E+02 -0.62174668735E+02  0.69051442810E+02  0.00000000000E+00 0. -1.
         21    1    1    2  505  501  0.10601386455E+02 -0.11288870714E+03 -0.59702912155E+02  0.12814322969E+03  0.00000000000E+00 0. -1.
         21    1    1    2  506  502  0.40893966732E+02  0.31765767043E+02 -0.44726879260E+03  0.45025631957E+03  0.00000000000E+00 0. -1.
<scales pt_clust_3="14000.00000" pt_clust_4="30.04018" pt_clust_5="94.30425" pt_clust_6="52.93448"></scales>
<clustering>
<clus scale="   30.040">  1  4  2 -1</clus>
<clus scale="   52.934">  2  6  1 -1</clus>
<clus scale="   94.304">  1  5  2 -1</clus>
<clus scale="   30.040">  1  3  2 -1</clus>
</clustering>
</event>
<event>
 6    0  0.4227619E+002  0.7329777E+02  0.7546771E-02  0.1349225E+00
         21   -1    0    0  506  501  0.00000000000E+00  0.00000000000E+00  0.74746448302E+03  0.74746448302E+03  0.00000000000E+00 0.  1.
         21   -1    0    0  505  502 -0.00000000000E+00 -0.00000000000E+00 -0.31880324965E+02  0.31880324965E+02  0.00000000000E+00 0.  1.
         21    1    1    2  503  502  0.62888915962E+02  0.48926716849E+02  0.84722451685E+02  0.11630448483E+03  0.00000000000E+00 0.  1.
         21    1    1    2  504  501 -0.31279034861E+02 -0.52433213744E+02  0.35639257824E+03  0.36158441580E+03  0.00000000000E+00 0.  1.
         21    1    1    2  505  504 -0.49103263392E+02 -0.44509422203E+02  0.10254177405E+03  0.12209436746E+03  0.00000000000E+00 0.  1.
         21    1    1    2  506  503  0.17493382291E+02  0.48015919098E+02  0.17192735408E+03  0.17936153989E+03  0.00000000000E+00 0.  1.
<scales pt_clust_3="14000.00000" pt_clust_4="30.14544" pt_clust_5="73.29777" pt_clust_6="51.10330"></scales>
<clustering>
<clus scale="   51.103">  1  6  2 -1</clus>
<clus scale="   30.145">  1  4  2 -1</clus>
<clus scale="   73.298">  1  5  2 -1</clus>
<clus scale="   51.103">  1  3  2 -1</clus>
</clustering>
</event>
<event>
 6    0  0.4227619E+002  0.1145362E+03  0.7546771E-02  0.1252393E+00
         21   -1    0    0  506  501  0.00000000000E+00  0.00000000000E+00  0.11824876416E+04  0.11824876416E+04  0.00000000000E+00 0.  1.
         21   -1    0    0  503  502 -0.00000000000E+00 -0.00000000000E+00 -0.19179999039E+03  0.19179999039E+03  0.00000000000E+00 0.  1.
         21    1    1    2  503  501 -0.12056653002E+03 -0.63862312753E+02  0.13135319897E+03  0.18938940316E+03  0.00000000000E+00 0. -1.
         21    1    1    2  504  502  0.14766007286E+02  0.43856441072E+02 -0.14010235413E+03  0.14754691467E+03  0.00000000000E+00 0.  1.
         21    1    1    2  505  504  0.85698008804E+02  0.49935764333E+02  0.11370458789E+03  0.15088559434E+03  0.00000000000E+00 0. -1.
         21    1    1    2  506  505  0.20102513931E+02 -0.29929892651E+02  0.88573221849E+03  0.88646571981E+03  0.00000000000E+00 0.  1.
<scales pt_clust_3="114.53624" pt_clust_4="46.00123" pt_clust_5="14000.00000" pt_clust_6="36.05426"></scales>
<clustering>
<clus scale="   36.054">  1  6  2 -1</clus>
<clus scale="   46.001">  2  4  1 -1</clus>
<clus scale="  114.536">  2  3  1 -1</clus>
<clus scale="   36.054">  1  3  2 -1</clus>
</clustering>
</event>
<event>
 6    0  0.4227619E+002  0.1543730E+03  0.7546771E-02  0.1195200E+00
         21   -1    0    0  506  501  0.00000000000E+00  0.00000000000E+00  0.23358892604E+03  0.23358892604E+03  0.00000000000E+00 0. -1.
         21   -1    0    0  505  502 -0.00000000000E+00 -0.00000000000E+00 -0.33139379906E+03  0.33139379906E+03  0.00000000000E+00 0. -1.
         21    1    1    2  503  501  0.38549139600E+02  0.22349969675E+02  0.16240738650E+03  0.16840937177E+03  0.00000000000E+00 0. -1.
         21    1    1    2  504  502 -0.19647016505E+02 -0.37004655980E+02 -0.93343810757E+02  0.10231528150E+03  0.00000000000E+00 0. -1.
         21    1    1    2  505  503  0.12033681236E+02  0.12599893155E+03 -0.80753105066E+02  0.15013861666E+03  0.00000000000E+00 0.  1.
         21    1    1    2  506  504 -0.30935804331E+02 -0.11134424525E+03 -0.86115343692E+02  0.14411945517E+03  0.00000000000E+00 0. -1.
<scales pt_clust_3="44.55959" pt_clust_4="37.88326" pt_clust_5="140.97006" pt_clust_6="37.88326"></scales>
<clustering>
<clus scale="   37.883">  4  6 -1 -1</clus>
<clus scale="   44.560">  1  3  2 -1</clus>
<clus scale="  140.970">  1  5  2 -1</clus>
<clus scale="   44.560">  1  3  2 -1</clus>
</clustering>
</event>
<event>
 6    0  0.4227619E+002  0.1251048E+03  0.7546771E-02  0.1234906E+00
         21   -1    0    0  504  501  0.00000000000E+00  0.00000000000E+00  0.43182951667E+02  0.43182951667E+02  0.00000000000E+00 0.  1.
         21   -1    0    0  505  502 -0.00000000000E+00 -0.00000000000E+00 -0.55866533876E+03  0.55866533876E+03  0.00000000000E+00 0.  1.
         21    1    1    2  503  502 -0.44603425936E+02 -0.42162653503E+01 -0.18390965712E+03  0.18928815198E+03  0.00000000000E+00 0.  1.
         21    1    1    2  504  503 -0.30005730971E+02 -0.98139868178E+02 -0.18919788549E+03  0.21523851302E+03  0.00000000000E+00 0.  1.
         21    1    1    2  505  506  0.52185791637E+02  0.33430130648E+02 -0.48361787628E+02  0.78611659355E+02  0.00000000000E+00 0.  1.
         21    1    1    2  506  501  0.22423365270E+02  0.68926002880E+02 -0.94013056858E+02  0.11870996606E+03  0.00000000000E+00 0.  1.
<scales pt_clust_3="44.80226" pt_clust_4="114.14588" pt_clust_5="46.03387" pt_clust_6="46.03387"></scales>
<clustering>
<clus scale="   44.802">  2  3  1 -1</clus>
<clus scale="   46.034">  5  6 -1 -1</clus>
<clus scale="  114.146">  2  4  1 -1</clus>
<clus scale="  125.105">  1  3  2 -1</clus>
</clustering>
</event>
<event>
 6    0  0.4227619E+002  0.2073975E+03  0.7546771E-02  0.1143644E+00
         21   -1    0    0  504  501  0.00000000000E+00  0.00000000000E+00  0.54304000850E+03  0.54304000850E+03  0.00000000000E+00 0. -1.
         21   -1    0    0  505  502 -0.00000000000E+00 -0.00000000000E+00 -0.49898526430E+03  0.49898526430E+03  0.00000000000E+00 0. -1.
         21    1    1    2  503  501 -0.36138914714E+01 -0.12011257473E+03  0.36242157865E+03  0.38182390115E+03  0.00000000000E+00 0. -1.
         21    1    1    2  504  502 -0.55030411644E+02 -0.99255079560E+02  0.16243082716E+02  0.11464621564E+03  0.00000000000E+00 0. -1.
         21    1    1    2  505  506 -0.11460654933E+03  0.25584508217E+02 -0.24310717350E+03  0.26998208462E+03  0.00000000000E+00 0. -1.
         21    1    1    2  506  503  0.17325085244E+03  0.19378314608E+03 -0.91502743659E+02  0.27557307139E+03  0.00000000000E+00 0. -1.
<scales pt_clust_3="207.39753" pt_clust_4="113.48972" pt_clust_5="118.36986" pt_clust_6="14000.00000"></scales>
<clustering>
<clus scale="  113.490">  1  4  2 -1</clus>
<clus scale="  118.370">  2  5  1 -1</clus>
<clus scale="  207.398">  1  3  2 -1</clus>
<clus scale="  113.490">  1  3  2 -1</clus>
</clustering>
</event>
<event>
 6    0  0.4227619E+002  0.6719734E+02  0.7546771E-02  0.1369892E+00
         21   -1    0    0  506  501  0.00000000000E+00  0.00000000000E+00  0.14439531754E+03  0.14439531754E+03  0.00000000000E+00 0. -1.
         21   -1    0    0  505  502 -0.00000000000E+00 -0.00000000000E+00 -0.99281328004E+03  0.99281328004E+03  0.00000000000E+00 0. -1.
         21    1    1    2  503  501 -0.57606463167E+02  0.31141715673E+02 -0.41769012450E+02  0.77672140789E+02  0.00000000000E+00 0. -1.
         21    1    1    2  504  502  0.14229626529E+01 -0.31606253010E+02 -0.13752917384E+03  0.14112141478E+03  0.00000000000E+00 0. -1.
         21    1    1    2  505  503 -0.64976445073E+02  0.11301293524E+02 -0.76232270925E+03  0.76517028868E+03  0.00000000000E+00 0. -1.
         21    1    1    2  506  504  0.12115994559E+03 -0.10836756187E+02  0.93202933035E+02  0.15324475334E+03  0.00000000000E+00 0. -1.
<scales pt_clust_3="64.37388" pt_clust_4="31.63827" pt_clust_5="14000.00000" pt_clust_6="67.19734"></scales>
<clustering>
<clus scale="   31.638">  2  4  1 -1</clus>
<clus scale="   64.374">  1  3  2 -1</clus>
<clus scale="   67.197">  1  6  2 -1</clus>
<clus scale="   64.374">  1  3  2 -1</clus>
</clustering>
</event>
<event>
 6    0  0.4227619E+002  0.9126085E+02  0.7546771E-02  0.1299827E+00
         21   -1    0    0  503  501  0.00000000000E+00  0.00000000000E+00  0.61583302348E+03  0.61583302348E+03  0.00000000000E+00 0. -1.
         21   -1    0    0  506  502 -0.00000000000E+00 -0.00000000000E+00 -0.66676523285E+02  0.66676523285E+02  0.00000000000E+00 0. -1.
         21    1    1    2  503  505  0.33657278175E+02  0.39659323473E+02  0.67855493033E+02  0.85498785063E+02  0.00000000000E+00 0. -1.
         21    1    1    2  504  501  0.85343776162E+02 -0.40980658268E+02  0.42045949549E+03  0.43098626640E+03  0.00000000000E+00 0. -1.
         21    1    1    2  505  502 -0.31327943016E+02  0.51333460281E+01 -0.27135271461E+02  0.41762593458E+02  0.00000000000E+00 0. -1.
         21    1    1    2  506  504 -0.87673111321E+02 -0.38120112329E+01  0.87976783131E+02  0.12426190184E+03  0.00000000000E+00 0. -1.
<scales pt_clust_3="48.11852" pt_clust_4="14000.00000" pt_clust_5="31.74573" pt_clust_6="91.26085"></scales>
<clustering>
<clus scale="   31.746">  2  5  1 -1</clus>
<clus scale="   48.119">  2  3  1 -1</clus>
<clus scale="   91.261">  2  6  1 -1</clus>
<clus scale="   91.261">  1  3  2 -1</clus>
</clustering>
</event>
<event>
 6    0  0.4227619E+002  0.1154077E+03  0.7546771E-02  0.1250871E+00
         21   -1    0    0  503  501  0.00000000000E+00  0.00000000000E+00  0.68178140415E+03  0.68178140415E+03  0.00000000000E+00 0. -1.
         21   -1    0    0  505  502 -0.00000000000E+00 -0.00000000000E+00 -0.39204761373E+02  0.39204761373E+02  0.00000000000E+00 0.  1.
         21    1    1    2  503  504  0.73745401577E+02  0.44226182266E+02  0.16944317161E+03  0.19001402016E+03  0.00000000000E+00 0.  1.
         21    1    1    2  504  502  0.36678831910E+02  0.22065116713E+02  0.41802522985E+01  0.43007913169E+02  0.00000000000E+00 0.  1.
         21    1    1    2  505  506 -0.61425826480E+02 -0.45866000026E+02  0.33953666319E+03  0.34808327706E+03  0.00000000000E+00 0. -1.
         21    1    1    2  506  501 -0.48998407007E+02 -0.20425298954E+02  0.12941655568E+03  0.13988095514E+03  0.00000000000E+00 0. -1.
<scales pt_clust_3="108.23588" pt_clust_4="42.80428" pt_clust_5="33.32673" pt_clust_6="33.32673"></scales>
<clustering>
<clus scale="   33.327">  5  6 -1 -1</clus>
<clus scale="   42.804">  2  4  1 -1</clus>
<clus scale="  108.236">  2  3  1 -1</clus>
<clus scale="  115.408">  1  3  2 -1</clus>
</clustering>
</event>
<event>
 6    0  0.4227619E+002  0.1500326E+03  0.7546771E-02  0.1200433E+00
         21   -1    0    0  506  501  0.00000000000E+00  0.00000000000E+00  0.38533575273E+03  0.38533575273E+03  0.00000000000E+00 0.  1.
         21   -1    0    0  504  502 -0.00000000000E+00 -0.00000000000E+00 -0.36287964869E+03  0.36287964869E+03  0.00000000000E+00 0.  1.
         21    1    1    2  503  502 -0.94118520681E+02 -0.12630413692E+03 -0.29183832033E+03  0.33163328565E+03  0.00000000000E+00 0.  1.
         21    1    1    2  504  505  0.71811769071E+02  0.87607729359E+02  0.65286008683E+02  0.13074520010E+03  0.00000000000E+00 0. -1.
         21    1    1    2  505  501  0.40341812226E+02  0.68330891951E+02  0.23566948369E+03  0.24866981753E+03  0.00000000000E+00 0.  1.
         21    1    1    2  506  503 -0.18035060616E+02 -0.29634484394E+02  0.13338931997E+02  0.37167098132E+02  0.00000000000E+00 0.  1.
<scales pt_clust_3="150.03257" pt_clust_4="14000.00000" pt_clust_5="56.02285" pt_clust_6="34.69101"></scales>
<clustering>
<clus scale="   34.691">  1  6  2 -1</clus>
<clus scale="   56.023">  1  5  2 -1</clus>
<clus scale="  150.033">  2  3  1 -1</clus>
<clus scale="   34.691">  1  3  2 -1</clus>
</clustering>
</event>
<event>
 6    0  0.4227619E+002  0.9022472E+02  0.7546771E-02  0.1302308E+00
         21   -1    0    0  506  501  0.00000000000E+00  0.00000000000E+00  0.27543516866E+03  0.27543516866E+03  0.00000000000E+00 0.  1.
         21   -1    0    0  503  502 -0.00000000000E+00 -0.00000000000E+00 -0.51638030776E+03  0.51638030776E+03  0.00000000000E+00 0. -1.
         21    1    1    2  503  505 -0.66719240809E+02  0.70928162008E+02 -0.42267181245E+03  0.43374384411E+03  0.00000000000E+00 0. -1.
         21    1    1    2  504  502 -0.31785406192E+02 -0.52181045821E+02  0.81232239290E+02  0.10164570965E+03  0.00000000000E+00 0.  1.
         21    1    1    2  505  501  0.88611880415E+02  0.13532137878E+02 -0.49692149870E+02  0.10249143313E+03  0.00000000000E+00 0. -1.
         21    1    1    2  506  504  0.98927665862E+01 -0.32279254066E+02  0.15018658393E+03  0.15393448953E+03  0.00000000000E+00 0.  1.
<scales pt_clust_3="90.22472" pt_clust_4="79.93689" pt_clust_5="14000.00000" pt_clust_6="33.76118"></scales>
<clustering>
<clus scale="   33.761">  1  6  2 -1</clus>
<clus scale="   79.937">  1  4  2 -1</clus>
<clus scale="   90.225">  2  3  1 -1</clus>
<clus scale="   33.761">  1  3  2 -1</clus>
</clustering>
</event>
<event>
 6    0  0.4227619E+002  0.7934537E+02  0.7546771E-02  0.1330920E+00
         21   -1    0    0  503  501  0.00000000000E+00  0.00000000000E+00  0.27949925684E+03  0.27949925684E+03  0.00000000000E+00 0. -1.
         21   -1    0    0  505  502 -0.00000000000E+00 -0.00000000000E+00 -0.82524909324E+03  0.82524909324E+03  0.00000000000E+00 0. -1.
         21    1    1    2  503  502 -0.68873506928E+02 -0.85220448936E+02 -0.23940598214E+03  0.26328940191E+03  0.00000000000E+00 0. -1.
         21    1    1    2  504  501  0.68350685267E+02  0.23050510920E+02  0.22999215351E+03  0.24103844695E+03  0.00000000000E+00 0. -1.
         21    1    1    2  505  506  0.77697677277E+02  0.70910648714E+01 -0.48762250911E+03  0.49382479043E+03  0.00000000000E+00 0. -1.
         21    1    1    2  506  504 -0.77174855616E+02  0.55078873145E+02 -0.48713498670E+02  0.10659571079E+03  0.00000000000E+00 0. -1.
<scales pt_clust_3="79.34537" pt_clust_4="72.13281" pt_clust_5="14000.00000" pt_clust_6="77.27465"></scales>
<clustering>
<clus scale="   72.133">  1  4  2 -1</clus>
<clus scale="   77.275">  1  6  2 -1</clus>
<clus scale="   79.345">  1  3  2 -1</clus>
<clus scale="   72.133">  1  3  2 -1</clus>
</clustering>
</event>
<event>
 6    0  0.4227619E+002  0.1513653E+03  0.7546771E-02  0.1198805E+00
         21   -1    0    0  505  501  0.00000000000E+00  0.00000000000E+00  0.13809661718E+04  0.13809661718E+04  0.00000000000E+00 0.  1.
         21   -1    0    0  503  502 -0.00000000000E+00 -0.00000000000E+00 -0.92897410913E+02  0.92897410913E+02  0.00000000000E+00 0. -1.
         21    1    1    2  503  501 -0.16057217585E+03  0.66587494681E+02  0.13545522004E+03  0.22037566731E+03  0.00000000000E+00 0. -1.
         21    1    1    2  504  506  0.93391949062E+02 -0.92351275926E+02  0.10406794015E+04  0.10489349031E+04  0.00000000000E+00 0.  1.
         21    1    1    2  505  504  0.31981164290E+02  0.60879230794E+01  0.14733786280E+03  0.15089169458E+03  0.00000000000E+00 0.  1.
         21    1    1    2  506  502  0.35199062495E+02  0.19675858165E+02 -0.35403723384E+02  0.53661317767E+02  0.00000000000E+00 0.  1.
<scales pt_clust_3="151.36530" pt_clust_4="14000.00000" pt_clust_5="32.55546" pt_clust_6="40.55405"></scales>
<clustering>
<clus scale="   32.555">  1  5  2 -1</clus>
<clus scale="   40.554">  2  6  1 -1</clus>
<clus scale="  151.365">  2  3  1 -1</clus>
<clus scale="   32.555">  1  3  2 -1</clus>
</clustering>
</event>
<event>
 6    0  0.4227619E+002  0.8997019E+02  0.7546771E-02  0.1302924E+00
         21   -1    0    0  506  501  0.00000000000E+00  0.00000000000E+00  0.19218010124E+03  0.19218010124E+03  0.00000000000E+00 0.  1.
         21   -1    0    0  503  502 -0.00000000000E+00 -0.00000000000E+00 -0.59189980379E+03  0.59189980379E+03  0.00000000000E+00 0. -1.
         21    1    1    2  503  505 -0.17598894017E+02  0.49588126259E+02 -0.48826247419E+03  0.49108955094E+03  0.00000000000E+00 0. -1.
         21    1    1    2  504  502 -0.27721511605E+02 -0.88695586583E+02  0.62828579435E+00  0.92928919223E+02  0.00000000000E+00 0.  1.
         21    1    1    2  505  501  0.59293418523E+02  0.91229412891E+02  0.15729736391E+02  0.10993607171E+03  0.00000000000E+00 0.  1.
         21    1    1    2  506  504 -0.13973012900E+02 -0.52121952566E+02  0.72184749456E+02  0.90125363150E+02  0.00000000000E+00 0.  1.
<scales pt_clust_3="52.61847" pt_clust_4="89.97019" pt_clust_5="14000.00000" pt_clust_6="50.22758"></scales>
<clustering>
<clus scale="   52.618">  2  3  1 -1</clus>
<clus scale="   50.228">  1  6  2 -1</clus>
<clus scale="   89.970">  2  4  1 -1</clus>
<clus scale="   50.228">  1  3  2 -1</clus>
</clustering>
</event>
<event>
 6    0  0.4227619E+002  0.9022499E+02  0.7546771E-02  0.1302308E+00
         21   -1    0    0  505  501  0.00000000000E+00  0.00000000000E+00  0.25750556414E+03  0.25750556414E+03  0.00000000000E+00 0. -1.
         21   -1    0    0  503  502 -0.00000000000E+00 -0.00000000000E+00 -0.58390295426E+03  0.58390295426E+03  0.00000000000E+00 0.  1.
         21    1    1    2  503  506  0.95033164055E+01 -0.30762122065E+02 -0.33946856731E+03  0.34099197845E+03  0.00000000000E+00 0.  1.
         21    1    1    2  504  501 -0.44597522679E+02  0.65883627754E+02  0.20140003006E+03  0.21654459943E+03  0.00000000000E+00 0. -1.
         21    1    1    2  505  502 -0.18248921142E+02 -0.11187605819E+03 -0.70573003768E+02  0.13352836545E+03  0.00000000000E+00 0.  1.
         21    1    1    2  506  504  0.53343127416E+02  0.76754552499E+02 -0.11775584910E+03  0.15034357508E+03  0.00000000000E+00 0.  1.
<scales pt_clust_3="32.19660" pt_clust_4="78.60209" pt_clust_5="14000.00000" pt_clust_6="90.22499"></scales>
<clustering>
<clus scale="   32.197">  2  3  1 -1</clus>
<clus scale="   78.602">  1  4  2 -1</clus>
<clus scale="   90.225">  2  6  1 -1</clus>
<clus scale="   78.602">  1  3  2 -1</clus>
</clustering>
</event>
<event>
 6    0  0.4227619E+002  0.1416841E+03  0.7546771E-02  0.1211081E+00
         21   -1    0    0  504  501  0.00000000000E+00  0.00000000000E+00  0.17671782756E+03  0.17671782756E+03  0.00000000000E+00 0.  1.
         21   -1    0    0  505  502 -0.00000000000E+00 -0.00000000000E+00 -0.65740605092E+03  0.65740605092E+03  0.00000000000E+00 0.  1.
         21    1    1    2  503  501 -0.54784029346E+02 -0.45414226144E+02 -0.19246626770E+02  0.73716853227E+02  0.00000000000E+00 0. -1.
         21    1    1    2  504  506 -0.51260461094E+02  0.13751420525E+03  0.92138840067E+02  0.17328403667E+03  0.00000000000E+00 0.  1.
         21    1    1    2  505  503  0.97775998627E+02 -0.12312021315E+03 -0.50487827384E+03  0.52879183445E+03  0.00000000000E+00 0.  1.
         21    1    1    2  506  502  0.82684918129E+01  0.31020234046E+02 -0.48702162825E+02  0.58331154120E+02  0.00000000000E+00 0.  1.
<scales pt_clust_3="69.16104" pt_clust_4="14000.00000" pt_clust_5="141.68411" pt_clust_6="32.10332"></scales>
<clustering>
<clus scale="   32.103">  2  6  1 -1</clus>
<clus scale="   69.161">  1  3  2 -1</clus>
<clus scale="  141.684">  2  5  1 -1</clus>
<clus scale="   69.161">  1  3  2 -1</clus>
</clustering>
</event>
<event>
 6    0  0.4227619E+002  0.1848850E+03  0.7546771E-02  0.1163157E+00
         21   -1    0    0  504  501  0.00000000000E+00  0.00000000000E+00  0.16056836431E+04  0.16056836431E+04  0.00000000000E+00 0.  1.
         21   -1    0    0  505  502 -0.00000000000E+00 -0.00000000000E+00 -0.10476515967E+03  0.10476515967E+03  0.00000000000E+00 0. -1.
         21    1    1    2  503  502  0.47119087568E+02 -0.14576841846E+02  0.55824109251E+01  0.49637244517E+02  0.00000000000E+00 0.  1.
         21    1    1    2  504  506 -0.45296950445E+02 -0.16628758245E+02  0.10715458648E+04  0.10726317493E+04  0.00000000000E+00 0.  1.
         21    1    1    2  505  501 -0.11109312739E+03 -0.14376854462E+03  0.10918821567E+03  0.21197439425E+03  0.00000000000E+00 0. -1.
         21    1    1    2  506  503  0.10927099026E+03  0.17497414471E+03  0.31460199204E+03  0.37620541467E+03  0.00000000000E+00 0.  1.
<scales pt_clust_3="47.36175" pt_clust_4="48.25276" pt_clust_5="14000.00000" pt_clust_6="184.88501"></scales>
<clustering>
<clus scale="   48.253">  1  4  2 -1</clus>
<clus scale="   47.362">  2  3  1 -1</clus>
<clus scale="  184.885">  1  6  2 -1</clus>
<clus scale="   48.253">  1  3  2 -1</clus>
</clustering>
</event>
<event>
 6    0  0.4227619E+002  0.1202848E+03  0.7546771E-02  0.1242628E+00
         21   -1    0    0  503  501  0.00000000000E+00  0.00000000000E+00  0.62056052156E+03  0.62056052156E+03  0.00000000000E+00 0. -1.
         21   -1    0    0  504  502 -0.00000000000E+00 -0.00000000000E+00 -0.25508700156E+03  0.25508700156E+03  0.00000000000E+00 0.  1.
         21    1    1    2  503  502  0.11713082456E+03  0.55064118003E+00 -0.19525943359E+03  0.22769756185E+03  0.00000000000E+00 0.  1.
         21    1    1    2  504  506  0.10422200071E+02 -0.34571387655E+02 -0.11265292674E+02  0.37824726275E+02  0.00000000000E+00 0.  1.
         21    1    1    2  505  501 -0.41735082741E+02  0.68091718983E+02  0.45049391113E+03  0.45751837482E+03  0.00000000000E+00 0. -1.
         21    1    1    2  506  505 -0.85817941887E+02 -0.34070972508E+02  0.12150433513E+03  0.15260686017E+03  0.00000000000E+00 0. -1.
<scales pt_clust_3="120.28481" pt_clust_4="36.10821" pt_clust_5="79.33236" pt_clust_6="14000.00000"></scales>
<clustering>
<clus scale="   36.108">  2  4  1 -1</clus>
<clus scale="   79.332">  1  5  2 -1</clus>
<clus scale="  120.285">  2  3  1 -1</clus>
<clus scale="   79.332">  1  3  2 -1</clus>
</clustering>
</event>
<event>
 6    0  0.4227619E+002  0.8433410E+02  0.7546771E-02  0.1317183E+00
         21   -1    0    0  502  501  0.00000000000E+00  0.00000000000E+00  0.11221112601E+04  0.11221112601E+04  0.00000000000E+00 0. -1.
         21   -1    0    0  504  502 -0.00000000000E+00 -0.00000000000E+00 -0.59857688322E+03  0.59857688322E+03  0.00000000000E+00 0. -1.
         21    1    1    2  503  506 -0.50186016139E+02  0.15311101790E+02  0.20159725357E+02  0.56209257070E+02  0.00000000000E+00 0.  1.
         21    1    1    2  504  505 -0.20154278043E+02 -0.80343458399E+02 -0.44944663413E+03  0.45701591128E+03  0.00000000000E+00 0. -1.
         21    1    1    2  505  503  0.10357325394E+03  0.68621358367E+02 -0.96681419574E+02  0.15742809993E+03  0.00000000000E+00 0.  1.
         21    1    1    2  506  501 -0.33232959762E+02 -0.35890017584E+01  0.10495027052E+04  0.10500348751E+04  0.00000000000E+00 0. -1.
<scales pt_clust_3="69.04348" pt_clust_4="84.33410" pt_clust_5="14000.00000" pt_clust_6="33.42620"></scales>
<clustering>
<clus scale="   33.426">  1  6  2 -1</clus>
<clus scale="   69.043">  1  3  2 -1</clus>
<clus scale="   84.334">  2  4  1 -1</clus>
<clus scale="   33.426">  1  3  2 -1</clus>
</clustering>
</event>
<event>
 6    0  0.4227619E+002  0.1018066E+03  0.7546771E-02  0.1276542E+00
         21   -1    0    0  506  501  0.00000000000E+00  0.00000000000E+00  0.81022163503E+03  0.81022163503E+03  0.00000000000E+00 0. -1.
         21   -1    0    0  503  502 -0.00000000000E+00 -0.00000000000E+00 -0.23528769927E+03  0.23528769927E+03  0.00000000000E+00 0. -1.
         21    1    1    2  503  505  0.17361190051E+02 -0.32728936076E+02 -0.10683384067E+03  0.11307547784E+03  0.00000000000E+00 0. -1.
         21    1    1    2  504  502 -0.10282445528E+03 -0.26122410766E+02 -0.97564469298E+02  0.14413214290E+03  0.00000000000E+00 0. -1.
         21    1    1    2  505  501  0.17965282271E+02  0.42390218401E+02  0.22740000605E+03  0.23201388909E+03  0.00000000000E+00 0. -1.
         21    1    1    2  506  504  0.67497982957E+02  0.16461128441E+02  0.55193223968E+03  0.55628782446E+03  0.00000000000E+00 0. -1.
<scales pt_clust_3="37.04854" pt_clust_4="14000.00000" pt_clust_5="45.61310" pt_clust_6="101.80658"></scales>
<clustering>
<clus scale="   37.049">  2  3  1 -1</clus>
<clus scale="   45.613">  1  5  2 -1</clus>
<clus scale="  101.807">  1  6  2 -1</clus>
<clus scale="   45.613">  1  3  2 -1</clus>
</clustering>
</event>
<event>
 6    0  0.4227619E+002  0.9854548E+02  0.7546771E-02  0.1283385E+00
         21   -1    0    0  506  501  0.00000000000E+00  0.00000000000E+00  0.10865764162E+03  0.10865764162E+03  0.00000000000E+00 0. -1.
         21   -1    0    0  504  502 -0.00000000000E+00 -0.00000000000E+00 -0.12178109908E+04  0.12178109908E+04  0.00000000000E+00 0.  1.
         21    1    1    2  503  505 -0.71516109348E+02 -0.69912083909E+02 -0.18733354862E+03  0.21235845123E+03  0.00000000000E+00 0. -1.
         21    1    1    2  504  503 -0.64757075316E+02  0.32568458025E+02 -0.94857746066E+03  0.95134293614E+03  0.00000000000E+00 0.  1.
         21    1    1    2  505  501  0.68518071152E+02  0.32087954626E+02 -0.22385548066E+02  0.78901683560E+02  0.00000000000E+00 0. -1.
         21    1    1    2  506  502  0.67755113512E+02  0.52556712584E+01  0.49143208188E+02  0.83865561457E+02  0.00000000000E+00 0. -1.
<scales pt_clust_3="14000.00000" pt_clust_4="70.58705" pt_clust_5="98.54548" pt_clust_6="67.95865"></scales>
<clustering>
<clus scale="   67.959">  1  6  2 -1</clus>
<clus scale="   70.587">  2  4  1 -1</clus>
<clus scale="   98.545">  1  5  2 -1</clus>
<clus scale="   67.959">  1  3  2 -1</clus>
</clustering>
</event>
<event>
 6    0  0.4227619E+002  0.6090640E+02  0.7546771E-02  0.1394067E+00
         21   -1    0    0  505  501  0.00000000000E+00  0.00000000000E+00  0.50779821907E+02  0.50779821907E+02  0.00000000000E+00 0. -1.
         21   -1    0    0  504  502 -0.00000000000E+00 -0.00000000000E+00 -0.10319751389E+04  0.10319751389E+04  0.00000000000E+00 0. -1.
         21    1    1    2  503  502  0.14047825559E+02  0.53346476822E+02 -0.63448813984E+03  0.63688176892E+03  0.00000000000E+00 0. -1.
         21    1    1    2  504  506 -0.63285635272E+02 -0.69469434646E+02 -0.31569967316E+03  0.32938937083E+03  0.00000000000E+00 0. -1.
         21    1    1    2  505  503  0.60487025324E+02  0.48473845896E+02 -0.16302260525E+02  0.79209580650E+02  0.00000000000E+00 0. -1.
         21    1    1    2  506  501 -0.11249215611E+02 -0.32350888072E+02 -0.14705243443E+02  0.37274240377E+02  0.00000000000E+00 0. -1.
<scales pt_clust_3="54.13035" pt_clust_4="14000.00000" pt_clust_5="60.90640" pt_clust_6="34.25091"></scales>
<clustering>
<clus scale="   34.251">  1  6  2 -1</clus>
<clus scale="   54.130">  2  3  1 -1</clus>
<clus scale="   60.906">  1  5  2 -1</clus>
<clus scale="   34.251">  1  3  2 -1</clus>
</clustering>
</event>
<event>
 6    0  0.4227619E+002  0.3121593E+03  0.7546771E-02  0.1079315E+00
         21   -1    0    0  505  501  0.00000000000E+00  0.00000000000E+00  0.82011010560E+03  0.82011010560E+03  0.00000000000E+00 0. -1.
         21   -1    0    0  503  502 -0.00000000000E+00 -0.00000000000E+00 -0.77276263380E+03  0.77276263380E+03  0.00000000000E+00 0. -1.
         21    1    1    2  503  506 -0.29154168959E+03  0.96511190299E+02 -0.29828213627E+03  0.42811587151E+03  0.00000000000E+00 0. -1.
         21    1    1    2  504  502  0.52468670980E+02 -0.52393579809E+02 -0.16744963334E+03  0.18313227008E+03  0.00000000000E+00 0. -1.
         21    1    1    2  505  504  0.20184693180E+03 -0.56221981269E+02 -0.18676567872E+03  0.28068579195E+03  0.00000000000E+00 0. -1.
         21    1    1    2  506  501  0.37226086816E+02  0.12104370779E+02  0.69984492013E+03  0.70093880586E+03  0.00000000000E+00 0. -1.
<scales pt_clust_3="290.27307" pt_clust_4="66.82298" pt_clust_5="66.82298" pt_clust_6="39.14457"></scales>
<clustering>
<clus scale="   39.145">  1  6  2 -1</clus>
<clus scale="   66.823">  4  5 -1 -1</clus>
<clus scale="  290.273">  1  3  2 -1</clus>
<clus scale="   39.145">  1  3  2 -1</clus>
</clustering>
</event>
<event>
 6    0  0.4227619E+002  0.1050101E+03  0.7546771E-02  0.1270100E+00
         21   -1    0    0  506  501  0.00000000000E+00  0.00000000000E+00  0.70911764130E+02  0.70911764130E+02  0.00000000000E+00 0.  1.
         21   -1    0    0  504  502 -0.00000000000E+00 -0.00000000000E+00 -0.33270599075E+03  0.33270599075E+03  0.00000000000E+00 0.  1.
         21    1    1    2  503  501 -0.35065157287E+02 -0.11724074589E+02  0.73815177292E+01  0.37702864408E+02  0.00000000000E+00 0.  1.
         21    1    1    2  504  503 -0.33595093451E+02 -0.49533004039E+02 -0.31156319763E+02  0.67474921669E+02  0.00000000000E+00 0. -1.
         21    1    1    2  505  502  0.39992973678E+02 -0.50060525574E+02 -0.10073002155E+03  0.11938187218E+03  0.00000000000E+00 0.  1.
         21    1    1    2  506  505  0.28667277061E+02  0.11131760420E+03 -0.13728940304E+03  0.17905809662E+03  0.00000000000E+00 0.  1.
<scales pt_clust_3="35.41650" pt_clust_4="35.41650" pt_clust_5="64.07413" pt_clust_6="94.85066"></scales>
<clustering>
<clus scale="   35.416">  3  4 -1 -1</clus>
<clus scale="   64.074">  2  5  1 -1</clus>
<clus scale="   94.851">  2  6  1 -1</clus>
<clus scale="  105.010">  1  3  2 -1</clus>
</clustering>
</event>
<event>
 6    0  0.4227619E+002  0.8184105E+02  0.7546771E-02  0.1323907E+00
         21   -1    0    0  504  501  0.00000000000E+00  0.00000000000E+00  0.25094713082E+03  0.25094713082E+03  0.00000000000E+00 0. -1.
         21   -1    0    0  506  502 -0.00000000000E+00 -0.00000000000E+00 -0.70348783039E+03  0.70348783039E+03  0.00000000000E+00 0. -1.
         21    1    1    2  503  505 -0.57299417424E+02 -0.56419883016E+02 -0.25986146570E+03  0.27201913130E+03  0.00000000000E+00 0. -1.
         21    1    1    2  504  503 -0.62193224444E+00  0.30954836882E+02 -0.27230956158E+01  0.31080604496E+02  0.00000000000E+00 0.  1.
         21    1    1    2  505  502  0.99951592129E+02 -0.11109911229E+02 -0.41113016948E+03  0.42325142310E+03  0.00000000000E+00 0. -1.
         21    1    1    2  506  501 -0.42030242461E+02  0.36574957363E+02  0.22117403123E+03  0.22808380232E+03  0.00000000000E+00 0. -1.
<scales pt_clust_3="81.84105" pt_clust_4="30.96108" pt_clust_5="14000.00000" pt_clust_6="78.51705"></scales>
<clustering>
<clus scale="   30.961">  1  4  2 -1</clus>
<clus scale="   78.517">  1  6  2 -1</clus>
<clus scale="   81.841">  1  3  2 -1</clus>
<clus scale="   30.961">  1  3  2 -1</clus>
</clustering>
</event>
<event>
 6    0  0.4227619E+002  0.1049758E+03  0.7546771E-02  0.1270167E+00
         21   -1    0    0  505  501  0.00000000000E+00  0.00000000000E+00  0.41799581511E+02  0.41799581511E+02  0.00000000000E+00 0.  1.
         21   -1    0    0  503  502 -0.00000000000E+00 -0.00000000000E+00 -0.80027286575E+03  0.80027286575E+03  0.00000000000E+00 0.  1.
         21    1    1    2  503  504 -0.63211261839E+02  0.66577558795E+02 -0.11968617212E+03  0.15084102478E+03  0.00000000000E+00 0.  1.
         21    1    1    2  504  501 -0.14239734811E+02  0.34382685899E+02 -0.71684839433E+01  0.37898895751E+02  0.00000000000E+00 0.  1.
         21    1    1    2  505  506  0.41257407761E+02 -0.25260287725E+02 -0.67712637281E+02  0.83218129507E+02  0.00000000000E+00 0.  1.
         21    1    1    2  506  502  0.36193588889E+02 -0.75699956969E+02 -0.56390599089E+03  0.57011439723E+03  0.00000000000E+00 0.  1.
<scales pt_clust_3="36.79031" pt_clust_4="36.79031" pt_clust_5="48.37619" pt_clust_6="87.64072"></scales>
<clustering>
<clus scale="   36.790">  3  4 -1 -1</clus>
<clus scale="   48.376">  1  5  2 -1</clus>
<clus scale="   87.641">  2  6  1 -1</clus>
<clus scale="   48.376">  1  3  2 -1</clus>
</clustering>
</event>
<event>
 6    0  0.4227619E+002  0.8280999E+02  0.7546771E-02  0.1321261E+00
         21   -1    0    0  506  501  0.00000000000E+00  0.00000000000E+00  0.33175286880E+03  0.33175286880E+03  0.00000000000E+00 0.  1.
         21   -1    0    0  503  502 -0.00000000000E+00 -0.00000000000E+00 -0.12009070968E+03  0.12009070968E+03  0.00000000000E+00 0. -1.
         21    1    1    2  503  504 -0.20064621490E+02 -0.39861632563E+02  0.15965637561E+02  0.47396628244E+02  0.00000000000E+00 0.  1.
         21    1    1    2  504  501 -0.65987686930E+02 -0.84860435527E+02  0.19586580734E+03  0.22342578820E+03  0.00000000000E+00 0.  1.
         21    1    1    2  505  502  0.65946746439E+02  0.89645892234E+02 -0.45543442344E+02  0.12024792930E+03  0.00000000000E+00 0. -1.
         21    1    1    2  506  505  0.20105561982E+02  0.35076175856E+02  0.45374156550E+02  0.60773232742E+02  0.00000000000E+00 0.  1.
<scales pt_clust_3="40.03798" pt_clust_4="82.80999" pt_clust_5="14000.00000" pt_clust_6="40.42984"></scales>
<clustering>
<clus scale="   40.430">  1  6  2 -1</clus>
<clus scale="   40.038">  2  3  1 -1</clus>
<clus scale="   82.810">  1  4  2 -1</clus>
<clus scale="   40.430">  1  3  2 -1</clus>
</clustering>
</event>
<event>
 6    0  0.4227619E+002  0.5616096E+02  0.7546771E-02  0.1414687E+00
         21   -1    0    0  503  501  0.00000000000E+00  0.00000000000E+00  0.58438106853E+03  0.58438106853E+03  0.00000000000E+00 0.  1.
         21   -1    0    0  506  502 -0.00000000000E+00 -0.00000000000E+00 -0.24264495497E+03  0.24264495497E+03  0.00000000000E+00 0.  1.
         21    1    1    2  503  505 -0.39232753001E+02  0.54497034894E+02  0.12449336560E+03  0.14144869670E+03  0.00000000000E+00 0.  1.
         21    1    1    2  504  501 -0.13389916095E+02 -0.56419305131E+02  0.42309563662E+03  0.42705075292E+03  0.00000000000E+00 0.  1.
         21    1    1    2  505  502  0.82558752235E+02  0.27517123853E+02 -0.20076352588E+03  0.21881300921E+03  0.00000000000E+00 0.  1.
         21    1    1    2  506  504 -0.29936083139E+02 -0.25594853616E+02 -0.50893627795E+01  0.39713564670E+02  0.00000000000E+00 0. -1.
<scales pt_clust_3="56.16096" pt_clust_4="14000.00000" pt_clust_5="54.13476" pt_clust_6="39.38611"></scales>
<clustering>
<clus scale="   39.386">  2  6  1 -1</clus>
<clus scale="   54.135">  2  5  1 -1</clus>
<clus scale="   56.161">  2  3  1 -1</clus>
<clus scale="   56.161">  1  3  2 -1</clus>
</clustering>
</event>
<event>
 6    0  0.4227619E+002  0.1273484E+03  0.7546771E-02  0.1231444E+00
         21   -1    0    0  506  501  0.00000000000E+00  0.00000000000E+00  0.66424168236E+03  0.66424168236E+03  0.00000000000E+00 0.  1.
         21   -1    0    0  504  502 -0.00000000000E+00 -0.00000000000E+00 -0.32380819999E+03  0.32380819999E+03  0.00000000000E+00 0.  1.
         21    1    1    2  503  505 -0.45748769558E+02 -0.10576926511E+03  0.11581137890E+03  0.16337797539E+03  0.00000000000E+00 0.  1.
         21    1    1    2  504  503 -0.58438390466E+02  0.32230483294E+02 -0.27575315038E+03  0.28371402763E+03  0.00000000000E+00 0.  1.
         21    1    1    2  505  501  0.94861806306E+01 -0.44933826602E+02  0.19047358246E+03  0.19593167690E+03  0.00000000000E+00 0.  1.
         21    1    1    2  506  502  0.94700979393E+02  0.11847260842E+03  0.30990167138E+03  0.34502620244E+03  0.00000000000E+00 0.  1.
<scales pt_clust_3="14000.00000" pt_clust_4="66.48425" pt_clust_5="45.92425" pt_clust_6="127.34837"></scales>
<clustering>
<clus scale="   45.924">  1  5  2 -1</clus>
<clus scale="   66.484">  2  4  1 -1</clus>
<clus scale="  127.348">  1  6  2 -1</clus>
<clus scale="   45.924">  1  3  2 -1</clus>
</clustering>
</event>
<event>
 6    0  0.4227619E+002  0.9091085E+02  0.7546771E-02  0.1300661E+00
         21   -1    0    0  503  501  0.00000000000E+00  0.00000000000E+00  0.37360695511E+03  0.37360695511E+03  0.00000000000E+00 0. -1.
         21   -1    0    0  506  502 -0.00000000000E+00 -0.00000000000E+00 -0.62336092983E+03  0.62336092983E+03  0.00000000000E+00 0. -1.
         21    1    1    2  503  504  0.57270254696E+02  0.10853276560E+03  0.29937896761E+03  0.32355371970E+03  0.00000000000E+00 0. -1.
         21    1    1    2  504  502  0.46220308350E+02 -0.24187179181E+02 -0.78367928151E+02  0.94142810153E+02  0.00000000000E+00 0. -1.
         21    1    1    2  505  501 -0.12434355674E+02 -0.31049799594E+02  0.43174147597E+02  0.54614194827E+02  0.00000000000E+00 0. -1.
         21    1    1    2  506  505 -0.91056207373E+02 -0.53295786829E+02 -0.51393916178E+03  0.52465716025E+03  0.00000000000E+00 0. -1.
<scales pt_clust_3="90.91085" pt_clust_4="52.25477" pt_clust_5="33.44702" pt_clust_6="14000.00000"></scales>
<clustering>
<clus scale="   33.447">  1  5  2 -1</clus>
<clus scale="   52.255">  2  4  1 -1</clus>
<clus scale="   90.911">  1  3  2 -1</clus>
<clus scale="   33.447">  1  3  2 -1</clus>
</clustering>
</event>
<event>
 6    0  0.4227619E+002  0.1020107E+03  0.7546771E-02  0.1276124E+00
         21   -1    0    0  506  501  0.00000000000E+00  0.00000000000E+00  0.26957675766E+04  0.26957675766E+04  0.00000000000E+00 0. -1.
         21   -1    0    0  505  502 -0.00000000000E+00 -0.00000000000E+00 -0.85706152314E+02  0.85706152314E+02  0.00000000000E+00 0.  1.
         21    1    1    2  503  501 -0.39702755083E+02  0.31761171472E+02  0.23827261022E+04  0.23832685033E+04  0.00000000000E+00 0. -1.
         21    1    1    2  504  503  0.14676733870E+02 -0.12943628712E+03  0.21789669877E+03  0.25386636302E+03  0.00000000000E+00 0.  1.
         21    1    1    2  505  504 -0.25110127529E+02  0.85379910271E+02  0.20996494661E+02  0.91439052764E+02  0.00000000000E+00 0.  1.
         21    1    1    2  506  502  0.50136148742E+02  0.12295205379E+02 -0.11557871361E+02  0.52899809795E+02  0.00000000000E+00 0.  1.
<scales pt_clust_3="50.84369" pt_clust_4="14000.00000" pt_clust_5="102.01069" pt_clust_6="49.64478"></scales>
<clustering>
<clus scale="   50.844">  1  3  2 -1</clus>
<clus scale="   49.645">  2  6  1 -1</clus>
<clus scale="  102.011">  2  5  1 -1</clus>
<clus scale="   50.844">  1  3  2 -1</clus>
</clustering>
</event>
<event>
 6    0  0.4227619E+002  0.9108209E+02  0.7546771E-02  0.1300252E+00
         21   -1    0    0  506  501  0.00000000000E+00  0.00000000000E+00  0.10238008903E+03  0.10238008903E+03  0.00000000000E+00 0.  1.
         21   -1    0    0  503  502 -0.00000000000E+00 -0.00000000000E+00 -0.59212627075E+03  0.59212627075E+03  0.00000000000E+00 0.  1.
         21    1    1    2  503  505  0.57652547092E+02 -0.62956718308E+02 -0.96592502769E+00  0.85371526737E+02  0.00000000000E+00 0.  1.
         21    1    1    2  504  502  0.21064465185E+02  0.55328482450E+02 -0.43773028260E+03  0.44171569246E+03  0.00000000000E+00 0.  1.
         21    1    1    2  505  501  0.33210714032E+02  0.13238206606E+02  0.13352157956E+02  0.38163880342E+02  0.00000000000E+00 0.  1.
         21    1    1    2  506  504 -0.11192772631E+03 -0.56099707482E+01 -0.64402132049E+02  0.12925526024E+03  0.00000000000E+00 0. -1.
<scales pt_clust_3="14000.00000" pt_clust_4="59.83562" pt_clust_5="35.75195" pt_clust_6="91.08209"></scales>
<clustering>
<clus scale="   35.752">  1  5  2 -1</clus>
<clus scale="   59.836">  2  4  1 -1</clus>
<clus scale="   91.082">  2  6  1 -1</clus>
<clus scale="   35.752">  1  3  2 -1</clus>
</clustering>
</event>
<event>
 6    0  0.4227619E+002  0.9514141E+02  0.7546771E-02  0.1290858E+00
         21   -1    0    0  504  501  0.00000000000E+00  0.00000000000E+00  0.13519891152E+03  0.13519891152E+03  0.00000000000E+00 0.  1.
         21   -1    0    0  505  502 -0.00000000000E+00 -0.00000000000E+00 -0.22627899828E+04  0.22627899828E+04  0.00000000000E+00 0.  1.
         21    1    1    2  503  502 -0.12419773262E+02 -0.33802842084E+02 -0.82740573986E+03  0.82818907337E+03  0.00000000000E+00 0.  1.
         21    1    1    2  504  503  0.85779905822E+02 -0.29039473145E+02 -0.12639004654E+04  0.12671408247E+04  0.00000000000E+00 0.  1.
         21    1    1    2  505  506 -0.44815502155E+02  0.96295845923E+02 -0.14824748320E+03  0.18236950252E+03  0.00000000000E+00 0.  1.
         21    1    1    2  506  501 -0.28544630405E+02 -0.33453530695E+02  0.11196261720E+03  0.12028949369E+03  0.00000000000E+00 0.  1.
<scales pt_clust_3="36.01226" pt_clust_4="14000.00000" pt_clust_5="95.14141" pt_clust_6="44.07453"></scales>
<clustering>
<clus scale="   36.012">  2  3  1 -1</clus>
<clus scale="   44.075">  1  6  2 -1</clus>
<clus scale="   95.141">  1  5  2 -1</clus>
<clus scale="   44.075">  1  3  2 -1</clus>
</clustering>
</event>
<event>
 6    0  0.1014316E+003  0.1032986E+03  0.7546771E-02  0.1273509E+00
         21   -1    0    0  505  501  0.00000000000E+00  0.00000000000E+00  0.26234756639E+04  0.26234756639E+04  0.00000000000E+00 0. -1.
         21   -1    0    0  506  502 -0.00000000000E+00 -0.00000000000E+00 -0.41129997142E+03  0.41129997142E+03  0.00000000000E+00 0.  1.
         21    1    1    2  503  502 -0.29073749187E+02  0.52883851187E+02 -0.36145107491E+03  0.36645445032E+03  0.00000000000E+00 0.  1.
         21    1    1    2  504  501  0.26049618018E+02  0.21432641090E+02  0.12261264945E+04  0.12265904456E+04  0.00000000000E+00 0. -1.
         21    1    1    2  505  503 -0.89799184058E+01 -0.12341026671E+03  0.13774411383E+04  0.13829876436E+04  0.00000000000E+00 0. -1.
         21    1    1    2  506  504  0.12004049575E+02  0.49093774428E+02 -0.29940865361E+02  0.58743095869E+02  0.00000000000E+00 0.  1.
<scales pt_clust_3="14000.00000" pt_clust_4="33.73338" pt_clust_5="103.29858" pt_clust_6="50.81885"></scales>
<clustering>
<clus scale="   33.733">  1  4  2 -1</clus>
<clus scale="   50.819">  2  6  1 -1</clus>
<clus scale="  103.299">  1  5  2 -1</clus>
<clus scale="   33.733">  1  3  2 -1</clus>
</clustering>
</event>
<event>
 6    0  0.4227619E+002  0.2857644E+03  0.7546771E-02  0.1092582E+00
         21   -1    0    0  505  501  0.00000000000E+00  0.00000000000E+00  0.35296835589E+04  0.35296835589E+04  0.00000000000E+00 0.  1.
         21   -1    0    0  504  502 -0.00000000000E+00 -0.00000000000E+00 -0.38130384283E+03  0.38130384283E+03  0.00000000000E+00 0. -1.
         21    1    1    2  503  502  0.67003265475E+02  0.32063840584E+03 -0.16540482381E+03  0.36695664679E+03  0.00000000000E+00 0. -1.
         21    1    1    2  504  501 -0.17751554625E+03 -0.49627573761E+02 -0.24843424612E+02  0.18598887328E+03  0.00000000000E+00 0. -1.
         21    1    1    2  505  506 -0.60715029016E+02 -0.10935262087E+03  0.11482311263E+04  0.11550233893E+04  0.00000000000E+00 0.  1.
         21    1    1    2  506  503  0.17122730979E+03 -0.16165821121E+03  0.21903968382E+04  0.22030184923E+04  0.00000000000E+00 0.  1.
<scales pt_clust_3="285.76443" pt_clust_4="187.32516" pt_clust_5="125.07722" pt_clust_6="14000.00000"></scales>
<clustering>
<clus scale="  125.077">  1  5  2 -1</clus>
<clus scale="  187.325">  2  4  1 -1</clus>
<clus scale="  285.764">  2  3  1 -1</clus>
<clus scale="  125.077">  1  3  2 -1</clus>
</clustering>
</event>
<event>
 6    0  0.4227619E+002  0.1204252E+03  0.7546771E-02  0.1242397E+00
         21   -1    0    0  505  501  0.00000000000E+00  0.00000000000E+00  0.94186825890E+03  0.94186825890E+03  0.00000000000E+00 0. -1.
         21   -1    0    0  506  502 -0.00000000000E+00 -0.00000000000E+00 -0.61104991575E+02  0.61104991575E+02  0.00000000000E+00 0. -1.
         21    1    1    2  503  504  0.61890628530E+02  0.68310189780E+02  0.22260938898E+03  0.24093914582E+03  0.00000000000E+00 0. -1.
         21    1    1    2  504  502 -0.11907269433E+03 -0.67084406475E+02  0.79062037333E+02  0.15789056297E+03  0.00000000000E+00 0. -1.
         21    1    1    2  505  503  0.10926290453E+02  0.41956540331E+02  0.50435674220E+03  0.50621680977E+03  0.00000000000E+00 0. -1.
         21    1    1    2  506  501  0.46255775347E+02 -0.43182323636E+02  0.74735098820E+02  0.97926731913E+02  0.00000000000E+00 0. -1.
<scales pt_clust_3="14000.00000" pt_clust_4="120.42522" pt_clust_5="43.35591" pt_clust_6="59.67544"></scales>
<clustering>
<clus scale="   43.356">  1  5  2 -1</clus>
<clus scale="   59.675">  1  6  2 -1</clus>
<clus scale="  120.425">  2  4  1 -1</clus>
<clus scale="   43.356">  1  3  2 -1</clus>
</clustering>
</event>
<event>
 6    0  0.4227619E+002  0.9758935E+02  0.7546771E-02  0.1285448E+00
         21   -1    0    0  504  501  0.00000000000E+00  0.00000000000E+00  0.14218883694E+03  0.14218883694E+03  0.00000000000E+00 0.  1.
         21   -1    0    0  506  502 -0.00000000000E+00 -0.00000000000E+00 -0.10406221296E+04  0.10406221296E+04  0.00000000000E+00 0.  1.
         21    1    1    2  503  502 -0.39080902875E+02  0.43997812664E+02 -0.44118686879E+03  0.44509434695E+03  0.00000000000E+00 0.  1.
         21    1    1    2  504  505  0.19631521566E+02 -0.25663398790E+02  0.48913991925E+02  0.58622395741E+02  0.00000000000E+00 0.  1.
         21    1    1    2  505  503  0.81262699023E+02  0.23174099333E+02  0.62799753069E+02  0.10528282917E+03  0.00000000000E+00 0.  1.
         21    1    1    2  506  501 -0.61813317714E+02 -0.41508513207E+02 -0.56896016886E+03  0.57381139468E+03  0.00000000000E+00 0.  1.
<scales pt_clust_3="58.13631" pt_clust_4="32.31109" pt_clust_5="14000.00000" pt_clust_6="97.58935"></scales>
<clustering>
<clus scale="   32.311">  1  4  2 -1</clus>
<clus scale="   58.136">  2  3  1 -1</clus>
<clus scale="   97.589">  2  6  1 -1</clus>
<clus scale="   32.311">  1  3  2 -1</clus>
</clustering>
</event>
<event>
 6    0  0.4227619E+002  0.1814322E+03  0.7546771E-02  0.1166424E+00
         21   -1    0    0  502  501  0.00000000000E+00  0.00000000000E+00  0.39890194961E+03  0.39890194961E+03  0.00000000000E+00 0. -1.
         21   -1    0    0  503  502 -0.00000000000E+00 -0.00000000000E+00 -0.38632753983E+03  0.38632753983E+03  0.00000000000E+00 0. -1.
         21    1    1    2  503  504 -0.60622593116E+02 -0.15567006518E+03 -0.32613782934E+03  0.36643437573E+03  0.00000000000E+00 0. -1.
         21    1    1    2  504  505  0.13835856487E+02  0.59999002711E+02  0.48949955569E+02  0.78660087727E+02  0.00000000000E+00 0. -1.
         21    1    1    2  505  506  0.38871287037E+02  0.12821505910E+03  0.26956454669E+03  0.30102345950E+03  0.00000000000E+00 0. -1.
         21    1    1    2  506  501  0.79154495920E+01 -0.32543996623E+02  0.20197736866E+02  0.39111566486E+02  0.00000000000E+00 0. -1.
<scales pt_clust_3="168.55894" pt_clust_4="47.56062" pt_clust_5="47.56062" pt_clust_6="33.49278"></scales>
<clustering>
<clus scale="   33.493">  1  6  2 -1</clus>
<clus scale="   47.561">  4  5 -1 -1</clus>
<clus scale="  168.559">  2  3  1 -1</clus>
<clus scale="   33.493">  1  3  2 -1</clus>
</clustering>
</event>
<event>
 6    0  0.4227619E+002  0.1139713E+03  0.7546771E-02  0.1253387E+00
         21   -1    0    0  504  501  0.00000000000E+00  0.00000000000E+00  0.12449868670E+03  0.12449868670E+03  0.00000000000E+00 0. -1.
         21   -1    0    0  505  502 -0.00000000000E+00 -0.00000000000E+00 -0.50891767397E+03  0.50891767397E+03  0.00000000000E+00 0. -1.
         21    1    1    2  503  506 -0.10068934615E+03  0.33030671526E+00  0.56319794460E+01  0.10084727425E+03  0.00000000000E+00 0. -1.
         21    1    1    2  504  502  0.65604838731E+02 -0.56250042655E+02 -0.91712580479E+02  0.12601293418E+03  0.00000000000E+00 0. -1.
         21    1    1    2  505  503  0.64979579429E+02  0.87913491215E+02 -0.33314309364E+03  0.35062151748E+03  0.00000000000E+00 0. -1.
         21    1    1    2  506  501 -0.29895072011E+02 -0.31993755275E+02  0.34804707413E+02  0.55934634756E+02  0.00000000000E+00 0. -1.
<scales pt_clust_3="14000.00000" pt_clust_4="86.53366" pt_clust_5="113.97130" pt_clust_6="43.78716"></scales>
<clustering>
<clus scale="   43.787">  1  6  2 -1</clus>
<clus scale="   86.534">  2  4  1 -1</clus>
<clus scale="  113.971">  2  5  1 -1</clus>
<clus scale="   43.787">  1  3  2 -1</clus>
</clustering>
</event>
<event>
 6    0  0.4227619E+002  0.1210132E+03  0.7546771E-02  0.1241435E+00
         21   -1    0    0  503  501  0.00000000000E+00  0.00000000000E+00  0.10388264352E+03  0.10388264352E+03  0.00000000000E+00 0. -1.
         21   -1    0    0  506  502 -0.00000000000E+00 -0.00000000000E+00 -0.50212221739E+03  0.50212221739E+03  0.00000000000E+00 0. -1.
         21    1    1    2  503  505 -0.10416763205E+03 -0.66405510862E+02  0.30230051691E+02  0.12717878543E+03  0.00000000000E+00 0. -1.
         21    1    1    2  504  501  0.57926976960E+02  0.10237297899E+03 -0.28370973238E+03  0.30712696679E+03  0.00000000000E+00 0. -1.
         21    1    1    2  505  502  0.16955098019E+01 -0.44469797304E+02 -0.91497912480E+02  0.10174628059E+03  0.00000000000E+00 0. -1.
         21    1    1    2  506  504  0.44545145283E+02  0.85023291751E+01 -0.53261980705E+02  0.69952828094E+02  0.00000000000E+00 0. -1.
<scales pt_clust_3="121.01317" pt_clust_4="14000.00000" pt_clust_5="44.50211" pt_clust_6="44.83675"></scales>
<clustering>
<clus scale="   44.502">  2  5  1 -1</clus>
<clus scale="   44.837">  2  6  1 -1</clus>
<clus scale="  121.013">  1  3  2 -1</clus>
<clus scale="  121.013">  1  3  2 -1</clus>
</clustering>
</event>
<event>
 6    0  0.4227619E+002  0.9641664E+02  0.7546771E-02  0.1288017E+00
         21   -1    0    0  504  501  0.00000000000E+00  0.00000000000E+00  0.10181964265E+03  0.10181964265E+03  0.00000000000E+00 0. -1.
         21   -1    0    0  505  502 -0.00000000000E+00 -0.00000000000E+00 -0.35059743703E+03  0.35059743703E+03  0.00000000000E+00 0.  1.
         21    1    1    2  503  501 -0.81808067731E+01  0.76294221086E+02 -0.31281849424E+02  0.82863067008E+02  0.00000000000E+00 0.  1.
         21    1    1    2  504  506  0.15483392861E+02 -0.11257927453E+03  0.14849147661E+02  0.11460508581E+03  0.00000000000E+00 0. -1.
         21    1    1    2  505  503  0.15455892035E+02  0.65589835991E+02 -0.16096724513E+03  0.17450319535E+03  0.00000000000E+00 0.  1.
         21    1    1    2  506  502 -0.22758478123E+02 -0.29304782546E+02 -0.71377847479E+02  0.80445731505E+02  0.00000000000E+00 0.  1.
<scales pt_clust_3="96.41664" pt_clust_4="14000.00000" pt_clust_5="47.72050" pt_clust_6="37.10416"></scales>
<clustering>
<clus scale="   37.104">  2  6  1 -1</clus>
<clus scale="   47.720">  2  5  1 -1</clus>
<clus scale="   96.417">  2  3  1 -1</clus>
<clus scale="   96.417">  1  3  2 -1</clus>
</clustering>
</event>
<event>
 6    0  0.4227619E+002  0.8959528E+02  0.7546771E-02  0.1303835E+00
         21   -1    0    0  505  501  0.00000000000E+00  0.00000000000E+00  0.48853229700E+03  0.48853229700E+03  0.00000000000E+00 0. -1.
         21   -1    0    0  504  502 -0.00000000000E+00 -0.00000000000E+00 -0.15350016638E+03  0.15350016638E+03  0.00000000000E+00 0. -1.
         21    1    1    2  503  501  0.36884387204E+02 -0.45425661890E+01  0.42970412977E+02  0.56811524521E+02  0.00000000000E+00 0. -1.
         21    1    1    2  504  503 -0.43929211691E+01 -0.73576126399E+02  0.26080144817E+02  0.78185152593E+02  0.00000000000E+00 0.  1.
         21    1    1    2  505  506 -0.83870899773E+02  0.89804239153E+02  0.37030533636E+03  0.39016044307E+03  0.00000000000E+00 0. -1.
         21    1    1    2  506  502  0.51379433738E+02 -0.11685546565E+02 -0.10432376354E+03  0.11687534320E+03  0.00000000000E+00 0. -1.
<scales pt_clust_3="37.16306" pt_clust_4="14000.00000" pt_clust_5="89.59528" pt_clust_6="53.22056"></scales>
<clustering>
<clus scale="   37.163">  1  3  2 -1</clus>
<clus scale="   53.221">  2  6  1 -1</clus>
<clus scale="   89.595">  1  5  2 -1</clus>
<clus scale="   37.163">  1  3  2 -1</clus>
</clustering>
</event>
<event>
 6    0  0.4227619E+002  0.9635896E+02  0.7546771E-02  0.1288144E+00
         21   -1    0    0  504  501  0.00000000000E+00  0.00000000000E+00  0.16946328559E+03  0.16946328559E+03  0.00000000000E+00 0.  1.
         21   -1    0    0  505  502 -0.00000000000E+00 -0.00000000000E+00 -0.28671395379E+03  0.28671395379E+03  0.00000000000E+00 0.  1.
         21    1    1    2  503  501  0.15540283642E+02 -0.55669344954E+02  0.96603704452E+02  0.11257376292E+03  0.00000000000E+00 0.  1.
         21    1    1    2  504  502 -0.17250891743E+02  0.10090017757E+03 -0.17433000256E+03  0.20216178890E+03  0.00000000000E+00 0.  1.
         21    1    1    2  505  506 -0.55048625276E+02  0.10130823262E+02 -0.22626921173E+02  0.60373523059E+02  0.00000000000E+00 0.  1.
         21    1    1    2  506  503  0.56759233377E+02 -0.55361655881E+02 -0.16897448922E+02  0.81068164501E+02  0.00000000000E+00 0.  1.
<scales pt_clust_3="57.02152" pt_clust_4="96.35896" pt_clust_5="55.97307" pt_clust_6="14000.00000"></scales>
<clustering>
<clus scale="   55.973">  2  5  1 -1</clus>
<clus scale="   57.022">  1  3  2 -1</clus>
<clus scale="   96.359">  2  4  1 -1</clus>
<clus scale="   57.022">  1  3  2 -1</clus>
</clustering>
</event>
<event>
 6    0  0.4227619E+002  0.1455194E+03  0.7546771E-02  0.1206089E+00
         21   -1    0    0  506  501  0.00000000000E+00  0.00000000000E+00  0.82343349295E+03  0.82343349295E+03  0.00000000000E+00 0.  1.
         21   -1    0    0  505  502 -0.00000000000E+00 -0.00000000000E+00 -0.78461079478E+03  0.78461079478E+03  0.00000000000E+00 0. -1.
         21    1    1    2  503  502  0.12277824161E+03  0.72025264048E+02 -0.68852457970E+03  0.70308479725E+03  0.00000000000E+00 0. -1.
         21    1    1    2  504  501  0.44490956096E+02 -0.32935095931E+02  0.10554088409E+03  0.11917652425E+03  0.00000000000E+00 0. -1.
         21    1    1    2  505  504 -0.16505973829E+03 -0.11792857424E+03  0.50489636420E+02  0.20904800696E+03  0.00000000000E+00 0. -1.
         21    1    1    2  506  503 -0.22094594164E+01  0.78838406122E+02  0.57131675737E+03  0.57673495926E+03  0.00000000000E+00 0.  1.
<scales pt_clust_3="14000.00000" pt_clust_4="55.35491" pt_clust_5="145.51942" pt_clust_6="62.17960"></scales>
<clustering>
<clus scale="   55.355">  1  4  2 -1</clus>
<clus scale="   62.180">  1  6  2 -1</clus>
<clus scale="  145.519">  1  5  2 -1</clus>
<clus scale="   55.355">  1  3  2 -1</clus>
</clustering>
</event>
<event>
 6    0  0.4227619E+002  0.6160339E+02  0.7546771E-02  0.1391224E+00
         21   -1    0    0  504  501  0.00000000000E+00  0.00000000000E+00  0.50740499312E+03  0.50740499312E+03  0.00000000000E+00 0. -1.
         21   -1    0    0  505  502 -0.00000000000E+00 -0.00000000000E+00 -0.32357577645E+03  0.32357577645E+03  0.00000000000E+00 0. -1.
         21    1    1    2  503  501  0.52378811707E+02  0.37592617902E+02  0.46818438696E+02  0.79678799178E+02  0.00000000000E+00 0. -1.
         21    1    1    2  504  506 -0.36172865045E+02  0.47824950498E+02  0.64995516138E+02  0.88431437700E+02  0.00000000000E+00 0.  1.
         21    1    1    2  505  503 -0.61727226755E+02 -0.48449779920E+01 -0.28623772773E+03  0.29285791967E+03  0.00000000000E+00 0. -1.
         21    1    1    2  506  502  0.45521280093E+02 -0.80572590408E+02  0.35825298957E+03  0.37001261303E+03  0.00000000000E+00 0. -1.
<scales pt_clust_3="61.60339" pt_clust_4="59.96417" pt_clust_5="14000.00000" pt_clust_6="42.82822"></scales>
<clustering>
<clus scale="   59.964">  1  4  2 -1</clus>
<clus scale="   42.828">  1  6  2 -1</clus>
<clus scale="   61.603">  1  3  2 -1</clus>
<clus scale="   59.964">  1  3  2 -1</clus>
</clustering>
</event>
<event>
 6    0  0.4227619E+002  0.1220178E+03  0.7546771E-02  0.1239805E+00
         21   -1    0    0  504  501  0.00000000000E+00  0.00000000000E+00  0.10969962371E+04  0.10969962371E+04  0.00000000000E+00 0. -1.
         21   -1    0    0  503  502 -0.00000000000E+00 -0.00000000000E+00 -0.27679553244E+03  0.27679553244E+03  0.00000000000E+00 0.  1.
         21    1    1    2  503  506 -0.18140445750E+02 -0.24153198356E+02  0.80249659283E+01  0.31254645110E+02  0.00000000000E+00 0.  1.
         21    1    1    2  504  505  0.18886492379E+02  0.92656512610E+02  0.35675841918E+03  0.36907790313E+03  0.00000000000E+00 0. -1.
         21    1    1    2  505  502  0.38804634525E+02  0.92007013386E+02 -0.23932434746E+03  0.25932071545E+03  0.00000000000E+00 0.  1.
         21    1    1    2  506  501 -0.39550681155E+02 -0.16051032764E+03  0.69474166703E+03  0.71413850587E+03  0.00000000000E+00 0. -1.
<scales pt_clust_3="30.20683" pt_clust_4="122.01784" pt_clust_5="72.63099" pt_clust_6="14000.00000"></scales>
<clustering>
<clus scale="   30.207">  2  3  1 -1</clus>
<clus scale="   72.631">  2  5  1 -1</clus>
<clus scale="  122.018">  1  4  2 -1</clus>
<clus scale="  122.018">  1  3  2 -1</clus>
</clustering>
</event>
<event>
 6    0  0.4227619E+002  0.8165639E+02  0.7546771E-02  0.1324415E+00
         21   -1    0    0  503  501  0.00000000000E+00  0.00000000000E+00  0.59126788000E+03  0.59126788000E+03  0.00000000000E+00 0. -1.
         21   -1    0    0  504  502 -0.00000000000E+00 -0.00000000000E+00 -0.12497182010E+03  0.12497182010E+03  0.00000000000E+00 0. -1.
         21    1    1    2  503  505 -0.63670831406E+01  0.29638924042E+02  0.42708187694E+03  0.42815643774E+03  0.00000000000E+00 0. -1.
         21    1    1    2  504  506  0.34700279972E+02  0.30196444366E+02 -0.67429858240E+02  0.81625489063E+02  0.00000000000E+00 0. -1.
         21    1    1    2  505  502  0.23222529113E+02  0.50136411827E+02  0.30638194876E+02  0.63179463709E+02  0.00000000000E+00 0. -1.
         21    1    1    2  506  501 -0.51555725945E+02 -0.10997178023E+03  0.76005846321E+02  0.14327830960E+03  0.00000000000E+00 0.  1.
<scales pt_clust_3="30.31510" pt_clust_4="46.64905" pt_clust_5="81.65639" pt_clust_6="14000.00000"></scales>
<clustering>
<clus scale="   30.315">  1  3  2 -1</clus>
<clus scale="   46.649">  2  4  1 -1</clus>
<clus scale="   81.656">  1  5  2 -1</clus>
<clus scale="   30.315">  1  3  2 -1</clus>
</clustering>
</event>
<event>
 6    0  0.4227619E+002  0.7584265E+02  0.7546771E-02  0.1341281E+00
         21   -1    0    0  504  501  0.00000000000E+00  0.00000000000E+00  0.59411526999E+03  0.59411526999E+03  0.00000000000E+00 0. -1.
         21   -1    0    0  503  502 -0.00000000000E+00 -0.00000000000E+00 -0.90205425663E+02  0.90205425663E+02  0.00000000000E+00 0. -1.
         21    1    1    2  503  506  0.66795421855E+01  0.10637458678E+03 -0.30344766089E+02  0.11081955525E+03  0.00000000000E+00 0. -1.
         21    1    1    2  504  505  0.28100308868E+02 -0.11159562044E+02  0.73751818227E+02  0.79708806761E+02  0.00000000000E+00 0.  1.
         21    1    1    2  505  502  0.29791264841E+02 -0.42812736357E+02  0.41602256357E+02  0.66717296027E+02  0.00000000000E+00 0. -1.
         21    1    1    2  506  501 -0.64571115895E+02 -0.52402288377E+02  0.41890053583E+03  0.42707503761E+03  0.00000000000E+00 0. -1.
<scales pt_clust_3="75.84265" pt_clust_4="30.23513" pt_clust_5="54.82479" pt_clust_6="14000.00000"></scales>
<clustering>
<clus scale="   30.235">  1  4  2 -1</clus>
<clus scale="   54.825">  2  5  1 -1</clus>
<clus scale="   75.843">  2  3  1 -1</clus>
<clus scale="   30.235">  1  3  2 -1</clus>
</clustering>
</event>
<event>
 6    0  0.4227619E+002  0.9329038E+02  0.7546771E-02  0.1295074E+00
         21   -1    0    0  503  501  0.00000000000E+00  0.00000000000E+00  0.42827551583E+03  0.42827551583E+03  0.00000000000E+00 0. -1.
         21   -1    0    0  506  502 -0.00000000000E+00 -0.00000000000E+00 -0.90070224200E+02  0.90070224200E+02  0.00000000000E+00 0. -1.
         21    1    1    2  503  505  0.60268774988E+02  0.25173594614E+02  0.11987765897E+03  0.13651625626E+03  0.00000000000E+00 0. -1.
         21    1    1    2  504  502 -0.65904422143E+02  0.75789784575E+02  0.59165873532E+02  0.11656794111E+03  0.00000000000E+00 0. -1.
         21    1    1    2  505  504 -0.29507537426E+02 -0.11088705197E+03  0.18696221527E+03  0.21936613913E+03  0.00000000000E+00 0. -1.
         21    1    1    2  506  501  0.35143184581E+02  0.99236727819E+01 -0.27800456132E+02  0.45895403530E+02  0.00000000000E+00 0.  1.
<scales pt_clust_3="70.98497" pt_clust_4="14000.00000" pt_clust_5="93.29038" pt_clust_6="36.51743"></scales>
<clustering>
<clus scale="   36.517">  2  6  1 -1</clus>
<clus scale="   70.985">  1  3  2 -1</clus>
<clus scale="   93.290">  1  5  2 -1</clus>
<clus scale="   70.985">  1  3  2 -1</clus>
</clustering>
</event>
<event>
 6    0  0.4227619E+002  0.1601317E+03  0.7546771E-02  0.1188548E+00
         21   -1    0    0  506  501  0.00000000000E+00  0.00000000000E+00  0.22199006965E+03  0.22199006965E+03  0.00000000000E+00 0. -1.
         21   -1    0    0  503  502 -0.00000000000E+00 -0.00000000000E+00 -0.46361127394E+03  0.46361127394E+03  0.00000000000E+00 0. -1.
         21    1    1    2  503  501 -0.17618877426E+03 -0.61732611872E+02 -0.26628185254E+03  0.32520674123E+03  0.00000000000E+00 0. -1.
         21    1    1    2  504  502  0.40867343821E+02  0.49417256300E+01 -0.91378817661E+02  0.10022299517E+03  0.00000000000E+00 0. -1.
         21    1    1    2  505  504  0.17600008595E+03  0.60736912321E+02  0.70767754391E+02  0.19918101776E+03  0.00000000000E+00 0. -1.
         21    1    1    2  506  505 -0.40678655509E+02 -0.39460260791E+01  0.45271711527E+02  0.60990589442E+02  0.00000000000E+00 0. -1.
<scales pt_clust_3="160.13172" pt_clust_4="40.09505" pt_clust_5="14000.00000" pt_clust_6="40.86960"></scales>
<clustering>
<clus scale="   40.870">  1  6  2 -1</clus>
<clus scale="   40.095">  2  4  1 -1</clus>
<clus scale="  160.132">  2  3  1 -1</clus>
<clus scale="   40.870">  1  3  2 -1</clus>
</clustering>
</event>
<event>
 6    0  0.4227619E+002  0.1085990E+03  0.7546771E-02  0.1263187E+00
         21   -1    0    0  506  501  0.00000000000E+00  0.00000000000E+00  0.35444736068E+03  0.35444736068E+03  0.00000000000E+00 0.  1.
         21   -1    0    0  505  502 -0.00000000000E+00 -0.00000000000E+00 -0.29855312291E+03  0.29855312291E+03  0.00000000000E+00 0.  1.
         21    1    1    2  503  502 -0.48890972624E+01  0.55515361871E+02 -0.18149847702E+03  0.18986193888E+03  0.00000000000E+00 0.  1.
         21    1    1    2  504  501 -0.49254418458E+02  0.35092912489E+02  0.25441609412E+03  0.26150537125E+03  0.00000000000E+00 0.  1.
         21    1    1    2  505  504  0.93052141534E+02 -0.11885496474E+03 -0.24663186302E+02  0.15294926102E+03  0.00000000000E+00 0.  1.
         21    1    1    2  506  503 -0.38908625813E+02  0.28246690379E+02  0.76398069770E+01  0.48683912442E+02  0.00000000000E+00 0.  1.
<scales pt_clust_3="56.13652" pt_clust_4="108.59897" pt_clust_5="14000.00000" pt_clust_6="48.08073"></scales>
<clustering>
<clus scale="   48.081">  1  6  2 -1</clus>
<clus scale="   56.137">  2  3  1 -1</clus>
<clus scale="  108.599">  1  4  2 -1</clus>
<clus scale="   48.081">  1  3  2 -1</clus>
</clustering>
</event>
<event>
 6    0  0.4227619E+002  0.9722992E+02  0.7546771E-02  0.1286231E+00
         21   -1    0    0  506  501  0.00000000000E+00  0.00000000000E+00  0.15603267710E+03  0.15603267710E+03  0.00000000000E+00 0.  1.
         21   -1    0    0  505  502 -0.00000000000E+00 -0.00000000000E+00 -0.41834608892E+03  0.41834608892E+03  0.00000000000E+00 0.  1.
         21    1    1    2  503  501  0.33918791720E+02 -0.23402885874E+02  0.96120004973E+02  0.10458123567E+03  0.00000000000E+00 0.  1.
         21    1    1    2  504  503  0.77676159458E+02  0.10456860655E+02 -0.48765082865E+00  0.78378373843E+02  0.00000000000E+00 0.  1.
         21    1    1    2  505  504 -0.91539815896E+02 -0.40748240253E+02 -0.20754213249E+03  0.23046408340E+03  0.00000000000E+00 0.  1.
         21    1    1    2  506  502 -0.20055135282E+02  0.53694265472E+02 -0.15040363347E+03  0.16095507310E+03  0.00000000000E+00 0.  1.
<scales pt_clust_3="41.20897" pt_clust_4="14000.00000" pt_clust_5="97.22992" pt_clust_6="54.16185"></scales>
<clustering>
<clus scale="   41.209">  1  3  2 -1</clus>
<clus scale="   54.162">  2  6  1 -1</clus>
<clus scale="   97.230">  2  5  1 -1</clus>
<clus scale="   41.209">  1  3  2 -1</clus>
</clustering>
</event>
<event>
 6    0  0.4227619E+002  0.1243862E+03  0.7546771E-02  0.1236032E+00
         21   -1    0    0  506  501  0.00000000000E+00  0.00000000000E+00  0.80186748919E+02  0.80186748919E+02  0.00000000000E+00 0.  1.
         21   -1    0    0  503  502 -0.00000000000E+00 -0.00000000000E+00 -0.56615982498E+03  0.56615982498E+03  0.00000000000E+00 0. -1.
         21    1    1    2  503  504  0.68890924876E+02 -0.80525555261E+02 -0.70024278536E+02  0.12701859771E+03  0.00000000000E+00 0.  1.
         21    1    1    2  504  501 -0.10048020059E+01 -0.40660699814E+02  0.59713586443E+01  0.41109114080E+02  0.00000000000E+00 0.  1.
         21    1    1    2  505  502 -0.29573224527E+02  0.13155648841E+03 -0.41695750628E+03  0.43821826445E+03  0.00000000000E+00 0. -1.
         21    1    1    2  506  505 -0.38312898343E+02 -0.10370233341E+02 -0.49626498876E+01  0.40000597657E+02  0.00000000000E+00 0. -1.
<scales pt_clust_3="124.38619" pt_clust_4="47.14128" pt_clust_5="14000.00000" pt_clust_6="39.69156"></scales>
<clustering>
<clus scale="   39.692">  1  6  2 -1</clus>
<clus scale="   47.141">  1  4  2 -1</clus>
<clus scale="  124.386">  1  3  2 -1</clus>
<clus scale="   39.692">  1  3  2 -1</clus>
</clustering>
</event>
<event>
 6    0  0.4227619E+002  0.6481651E+02  0.7546771E-02  0.1378663E+00
         21   -1    0    0  502  501  0.00000000000E+00  0.00000000000E+00  0.40403365701E+02  0.40403365701E+02  0.00000000000E+00 0. -1.
         21   -1    0    0  506  502 -0.00000000000E+00 -0.00000000000E+00 -0.60249871806E+03  0.60249871806E+03  0.00000000000E+00 0.  1.
         21    1    1    2  503  504 -0.39040058510E+02  0.83340165544E+02 -0.19344592187E+03  0.21422192710E+03  0.00000000000E+00 0.  1.
         21    1    1    2  504  501 -0.16489109510E+02 -0.59942382468E+02 -0.31311571992E+02  0.69608867890E+02  0.00000000000E+00 0. -1.
         21    1    1    2  505  503  0.65180474217E+02  0.24444848601E+02 -0.14816311755E+03  0.16370202884E+03  0.00000000000E+00 0. -1.
         21    1    1    2  506  505 -0.96513061966E+01 -0.47842631676E+02 -0.18917474094E+03  0.19536925994E+03  0.00000000000E+00 0. -1.
<scales pt_clust_3="14000.00000" pt_clust_4="64.81651" pt_clust_5="61.82952" pt_clust_6="48.80640"></scales>
<clustering>
<clus scale="   48.806">  2  6  1 -1</clus>
<clus scale="   61.830">  2  5  1 -1</clus>
<clus scale="   64.817">  1  4  2 -1</clus>
<clus scale="   64.817">  1  3  2 -1</clus>
</clustering>
</event>
<event>
 6    0  0.4227619E+002  0.1382533E+03  0.7546771E-02  0.1215699E+00
         21   -1    0    0  504  501  0.00000000000E+00  0.00000000000E+00  0.23648518758E+03  0.23648518758E+03  0.00000000000E+00 0. -1.
         21   -1    0    0  506  502 -0.00000000000E+00 -0.00000000000E+00 -0.61303599182E+03  0.61303599182E+03  0.00000000000E+00 0. -1.
         21    1    1    2  503  501 -0.14818984152E+03 -0.83846580145E+01  0.90734989224E+02  0.17396370279E+03  0.00000000000E+00 0. -1.
         21    1    1    2  504  505  0.15014823451E+02  0.27094448879E+02  0.20128022449E+02  0.36941729399E+02  0.00000000000E+00 0.  1.
         21    1    1    2  505  502  0.13207417183E+03  0.14835250959E+02  0.16196730910E+02  0.13388803392E+03  0.00000000000E+00 0. -1.
         21    1    1    2  506  503  0.11008462346E+01 -0.33545041824E+02 -0.50361054682E+03  0.50472771329E+03  0.00000000000E+00 0. -1.
<scales pt_clust_3="138.25333" pt_clust_4="30.97667" pt_clust_5="14000.00000" pt_clust_6="33.49171"></scales>
<clustering>
<clus scale="   30.977">  1  4  2 -1</clus>
<clus scale="   33.492">  2  6  1 -1</clus>
<clus scale="  138.253">  1  3  2 -1</clus>
<clus scale="   30.977">  1  3  2 -1</clus>
</clustering>
</event>
<event>
 6    0  0.4227619E+002  0.1199214E+03  0.7546771E-02  0.1243227E+00
         21   -1    0    0  505  501  0.00000000000E+00  0.00000000000E+00  0.79450655984E+03  0.79450655984E+03  0.00000000000E+00 0.  1.
         21   -1    0    0  506  502 -0.00000000000E+00 -0.00000000000E+00 -0.19214251695E+03  0.19214251695E+03  0.00000000000E+00 0.  1.
         21    1    1    2  503  504 -0.64786912912E+02 -0.33321289947E+02 -0.39704674946E+02  0.82970559002E+02  0.00000000000E+00 0.  1.
         21    1    1    2  504  502 -0.25217433542E+02  0.28504628727E+02 -0.84438578488E+02  0.92619146781E+02  0.00000000000E+00 0.  1.
         21    1    1    2  505  503  0.70761836723E+02 -0.10404840462E+03  0.67928930900E+03  0.69084533245E+03  0.00000000000E+00 0.  1.
         21    1    1    2  506  501  0.19242509732E+02  0.10886506584E+03  0.47217987319E+02  0.12021403856E+03  0.00000000000E+00 0.  1.
<scales pt_clust_3="81.39424" pt_clust_4="38.05828" pt_clust_5="119.92140" pt_clust_6="14000.00000"></scales>
<clustering>
<clus scale="   38.058">  2  4  1 -1</clus>
<clus scale="   81.394">  2  3  1 -1</clus>
<clus scale="  119.921">  1  5  2 -1</clus>
<clus scale="  119.921">  1  3  2 -1</clus>
</clustering>
</event>
<event>
 6    0  0.4227619E+002  0.9560859E+02  0.7546771E-02  0.1289811E+00
         21   -1    0    0  506  501  0.00000000000E+00  0.00000000000E+00  0.99064661298E+03  0.99064661298E+03  0.00000000000E+00 0. -1.
         21   -1    0    0  503  502 -0.00000000000E+00 -0.00000000000E+00 -0.36297357027E+03  0.36297357027E+03  0.00000000000E+00 0.  1.
         21    1    1    2  503  501  0.20046565511E+02 -0.45378069590E+02 -0.55579543306E+02  0.74499124978E+02  0.00000000000E+00 0.  1.
         21    1    1    2  504  502 -0.14684721035E+02  0.38693943067E+02 -0.17785970438E+03  0.18261143640E+03  0.00000000000E+00 0.  1.
         21    1    1    2  505  504  0.32254495504E+02  0.94492903545E+02 -0.93702262713E+02  0.13692835841E+03  0.00000000000E+00 0.  1.
         21    1    1    2  506  505 -0.37616339979E+02 -0.87808777022E+02  0.95481455311E+03  0.95958126346E+03  0.00000000000E+00 0. -1.
<scales pt_clust_3="34.90832" pt_clust_4="41.38674" pt_clust_5="14000.00000" pt_clust_6="95.60859"></scales>
<clustering>
<clus scale="   41.387">  2  4  1 -1</clus>
<clus scale="   34.908">  2  3  1 -1</clus>
<clus scale="   95.609">  1  6  2 -1</clus>
<clus scale="   95.609">  1  3  2 -1</clus>
</clustering>
</event>
<event>
 6    0  0.4227619E+002  0.9622327E+02  0.7546771E-02  0.1288445E+00
         21   -1    0    0  504  501  0.00000000000E+00  0.00000000000E+00  0.17490162190E+04  0.17490162190E+04  0.00000000000E+00 0.  1.
         21   -1    0    0  505  502 -0.00000000000E+00 -0.00000000000E+00 -0.32353542881E+02  0.32353542881E+02  0.00000000000E+00 0.  1.
         21    1    1    2  503  501  0.29373230321E+02  0.32571072012E+02  0.89353930948E+03  0.89461508984E+03  0.00000000000E+00 0.  1.
         21    1    1    2  504  502 -0.91724111296E+02  0.80119273989E+02  0.40046675067E+03  0.41857619265E+03  0.00000000000E+00 0.  1.
         21    1    1    2  505  506  0.19326428804E+02 -0.36921437584E+02  0.55187265299E+01  0.42037599195E+02  0.00000000000E+00 0.  1.
         21    1    1    2  506  503  0.43024452171E+02 -0.75768908417E+02  0.41713788939E+03  0.42614088014E+03  0.00000000000E+00 0.  1.
<scales pt_clust_3="43.33279" pt_clust_4="96.22327" pt_clust_5="41.67377" pt_clust_6="14000.00000"></scales>
<clustering>
<clus scale="   41.674">  2  5  1 -1</clus>
<clus scale="   43.333">  1  3  2 -1</clus>
<clus scale="   96.223">  2  4  1 -1</clus>
<clus scale="   43.333">  1  3  2 -1</clus>
</clustering>
</event>
<event>
 6    0  0.4227619E+002  0.8734542E+02  0.7546771E-02  0.1309411E+00
         21   -1    0    0  505  501  0.00000000000E+00  0.00000000000E+00  0.61308714580E+02  0.61308714580E+02  0.00000000000E+00 0.  1.
         21   -1    0    0  506  502 -0.00000000000E+00 -0.00000000000E+00 -0.19933627531E+04  0.19933627531E+04  0.00000000000E+00 0. -1.
         21    1    1    2  503  502  0.12632836531E+03 -0.63953659760E+02 -0.11449657101E+04  0.11536877410E+04  0.00000000000E+00 0. -1.
         21    1    1    2  504  501 -0.47502115623E+02 -0.27875087987E+02 -0.14324982078E+03  0.15347306824E+03  0.00000000000E+00 0.  1.
         21    1    1    2  505  503 -0.24733991232E+02  0.66060647940E+02  0.25865366071E+02  0.75131862020E+02  0.00000000000E+00 0.  1.
         21    1    1    2  506  504 -0.54092258459E+02  0.25768099807E+02 -0.66970387368E+03  0.67237879638E+03  0.00000000000E+00 0. -1.
<scales pt_clust_3="87.34542" pt_clust_4="55.07696" pt_clust_5="14000.00000" pt_clust_6="60.66136"></scales>
<clustering>
<clus scale="   55.077">  1  4  2 -1</clus>
<clus scale="   60.661">  2  6  1 -1</clus>
<clus scale="   87.345">  2  3  1 -1</clus>
<clus scale="   55.077">  1  3  2 -1</clus>
</clustering>
</event>
<event>
 6    0  0.4227619E+002  0.1197919E+03  0.7546771E-02  0.1243441E+00
         21   -1    0    0  506  501  0.00000000000E+00  0.00000000000E+00  0.10439170224E+03  0.10439170224E+03  0.00000000000E+00 0.  1.
         21   -1    0    0  504  502 -0.00000000000E+00 -0.00000000000E+00 -0.19511055641E+03  0.19511055641E+03  0.00000000000E+00 0.  1.
         21    1    1    2  503  501  0.40227564062E+02 -0.42522117093E+02  0.14922110041E+02  0.60407422727E+02  0.00000000000E+00 0.  1.
         21    1    1    2  504  505 -0.10347448738E+03  0.73921902096E+02 -0.66812945990E+02  0.14365022416E+03  0.00000000000E+00 0.  1.
         21    1    1    2  505  503  0.14609198211E+02 -0.34508687313E+02 -0.24006224771E+02  0.44503674008E+02  0.00000000000E+00 0.  1.
         21    1    1    2  506  502  0.48637725111E+02  0.31089023107E+01 -0.14821793451E+02  0.50940937748E+02  0.00000000000E+00 0.  1.
<scales pt_clust_3="35.62999" pt_clust_4="111.20741" pt_clust_5="35.62999" pt_clust_6="48.73698"></scales>
<clustering>
<clus scale="   35.630">  3  5 -1 -1</clus>
<clus scale="   48.737">  1  6  2 -1</clus>
<clus scale="  111.207">  2  4  1 -1</clus>
<clus scale="   48.737">  1  3  2 -1</clus>
</clustering>
</event>
<event>
 6    0  0.4227619E+002  0.1187626E+03  0.7546771E-02  0.1245152E+00
         21   -1    0    0  506  501  0.00000000000E+00  0.00000000000E+00  0.76819728044E+03  0.76819728044E+03  0.00000000000E+00 0. -1.
         21   -1    0    0  504  502 -0.00000000000E+00 -0.00000000000E+00 -0.20645249554E+03  0.20645249554E+03  0.00000000000E+00 0. -1.
         21    1    1    2  503  501  0.13194957958E+03 -0.66425031146E+02  0.17126160429E+03  0.22617142485E+03  0.00000000000E+00 0.  1.
         21    1    1    2  504  505  0.48037878095E+02 -0.18335241515E+02 -0.98230780433E+02  0.11087427582E+03  0.00000000000E+00 0. -1.
         21    1    1    2  505  503 -0.10688701965E+03  0.96912003851E+02  0.99091881868E+00  0.14428358666E+03  0.00000000000E+00 0.  1.
         21    1    1    2  506  502 -0.73100438019E+02 -0.12151731190E+02  0.48772304222E+03  0.49332048865E+03  0.00000000000E+00 0. -1.
<scales pt_clust_3="14000.00000" pt_clust_4="51.41808" pt_clust_5="118.76264" pt_clust_6="72.88812"></scales>
<clustering>
<clus scale="   51.418">  2  4  1 -1</clus>
<clus scale="   72.888">  1  6  2 -1</clus>
<clus scale="  118.763">  2  5  1 -1</clus>
<clus scale="   72.888">  1  3  2 -1</clus>
</clustering>
</event>
<event>
 6    0  0.4227619E+002  0.6339819E+02  0.7546771E-02  0.1384100E+00
         21   -1    0    0  504  501  0.00000000000E+00  0.00000000000E+00  0.34451481944E+03  0.34451481944E+03  0.00000000000E+00 0. -1.
         21   -1    0    0  506  502 -0.00000000000E+00 -0.00000000000E+00 -0.27795218411E+03  0.27795218411E+03  0.00000000000E+00 0. -1.
         21    1    1    2  503  505  0.48696211332E+02 -0.67549070098E+02 -0.10180135143E+03  0.13152077031E+03  0.00000000000E+00 0. -1.
         21    1    1    2  504  503 -0.90962753877E+02  0.46442708817E+02  0.78804442164E+02  0.12900111589E+03  0.00000000000E+00 0. -1.
         21    1    1    2  505  502  0.17970138375E+01  0.47760274728E+02 -0.12926583015E+03  0.13781846011E+03  0.00000000000E+00 0. -1.
         21    1    1    2  506  501  0.40469528708E+02 -0.26653913447E+02  0.21882537475E+03  0.22412665725E+03  0.00000000000E+00 0. -1.
<scales pt_clust_3="14000.00000" pt_clust_4="63.39819" pt_clust_5="47.79407" pt_clust_6="48.00960"></scales>
<clustering>
<clus scale="   47.794">  2  5  1 -1</clus>
<clus scale="   48.010">  1  6  2 -1</clus>
<clus scale="   63.398">  1  4  2 -1</clus>
<clus scale="   48.010">  1  3  2 -1</clus>
</clustering>
</event>
<event>
 6    0  0.4227619E+002  0.1234578E+03  0.7546771E-02  0.1237499E+00
         21   -1    0    0  506  501  0.00000000000E+00  0.00000000000E+00  0.14969194775E+03  0.14969194775E+03  0.00000000000E+00 0. -1.
         21   -1    0    0  503  502 -0.00000000000E+00 -0.00000000000E+00 -0.38139759946E+03  0.38139759946E+03  0.00000000000E+00 0. -1.
         21    1    1    2  503  504 -0.84630370072E+01  0.53511386111E+02 -0.18172649386E+03  0.18963019277E+03  0.00000000000E+00 0. -1.
         21    1    1    2  504  501  0.12148512279E+03  0.43795305040E+02 -0.24167359566E+02  0.13138007867E+03  0.00000000000E+00 0. -1.
         21    1    1    2  505  502 -0.83073964128E+02 -0.10950453588E+03 -0.70848972612E+02  0.15463538992E+03  0.00000000000E+00 0. -1.
         21    1    1    2  506  505 -0.29948121651E+02  0.12197844731E+02  0.45037174334E+02  0.55443885853E+02  0.00000000000E+00 0.  1.
<scales pt_clust_3="54.85216" pt_clust_4="123.45780" pt_clust_5="14000.00000" pt_clust_6="32.33694"></scales>
<clustering>
<clus scale="   32.337">  1  6  2 -1</clus>
<clus scale="   54.852">  2  3  1 -1</clus>
<clus scale="  123.458">  1  4  2 -1</clus>
<clus scale="   32.337">  1  3  2 -1</clus>
</clustering>
</event>
<event>
 6    0  0.4227619E+002  0.1201778E+03  0.7546771E-02  0.1242804E+00
         21   -1    0    0  506  501  0.00000000000E+00  0.00000000000E+00  0.29120335525E+03  0.29120335525E+03  0.00000000000E+00 0.  1.
         21   -1    0    0  503  502 -0.00000000000E+00 -0.00000000000E+00 -0.26019649442E+03  0.26019649442E+03  0.00000000000E+00 0.  1.
         21    1    1    2  503  504 -0.58775288094E+02  0.19860176797E+02 -0.52685095580E+02  0.81392139726E+02  0.00000000000E+00 0.  1.
         21    1    1    2  504  505 -0.24241510544E+02 -0.10613728499E+03 -0.94349760007E+02  0.14406474694E+03  0.00000000000E+00 0.  1.
         21    1    1    2  505  501 -0.46082325483E+02  0.37307050038E+01  0.16590852383E+03  0.17222989624E+03  0.00000000000E+00 0.  1.
         21    1    1    2  506  502  0.12909912412E+03  0.82546403189E+02  0.12133192592E+02  0.15371306675E+03  0.00000000000E+00 0.  1.
<scales pt_clust_3="67.32398" pt_clust_4="120.17779" pt_clust_5="46.23309" pt_clust_6="14000.00000"></scales>
<clustering>
<clus scale="   46.233">  1  5  2 -1</clus>
<clus scale="   67.324">  2  3  1 -1</clus>
<clus scale="  120.178">  2  4  1 -1</clus>
<clus scale="   46.233">  1  3  2 -1</clus>
</clustering>
</event>
<event>
 6    0  0.4227619E+002  0.8792780E+02  0.7546771E-02  0.1307949E+00
         21   -1    0    0  506  501  0.00000000000E+00  0.00000000000E+00  0.26078298596E+03  0.26078298596E+03  0.00000000000E+00 0. -1.
         21   -1    0    0  503  502 -0.00000000000E+00 -0.00000000000E+00 -0.41553179427E+03  0.41553179427E+03  0.00000000000E+00 0. -1.
         21    1    1    2  503  504  0.62749259005E+02  0.56823699148E+02 -0.23220913004E+03  0.24715882012E+03  0.00000000000E+00 0. -1.
         21    1    1    2  504  505 -0.11907768694E+03 -0.18379670852E+01 -0.12891219997E+03  0.17550278902E+03  0.00000000000E+00 0.  1.
         21    1    1    2  505  501  0.41702250995E+02 -0.16447026042E+02  0.20762895620E+03  0.21241319605E+03  0.00000000000E+00 0. -1.
         21    1    1    2  506  502  0.14626176942E+02 -0.38538706021E+02 -0.12564345020E+01  0.41239975041E+02  0.00000000000E+00 0.  1.
<scales pt_clust_3="14000.00000" pt_clust_4="87.92780" pt_clust_5="73.97246" pt_clust_6="41.22083"></scales>
<clustering>
<clus scale="   41.221">  1  6  2 -1</clus>
<clus scale="   73.972">  1  5  2 -1</clus>
<clus scale="   87.928">  1  4  2 -1</clus>
<clus scale="   41.221">  1  3  2 -1</clus>
</clustering>
</event>
<event>
 6    0  0.4227619E+002  0.1050560E+03  0.7546771E-02  0.1270009E+00
         21   -1    0    0  503  501  0.00000000000E+00  0.00000000000E+00  0.42909408964E+03  0.42909408964E+03  0.00000000000E+00 0. -1.
         21   -1    0    0  504  502 -0.00000000000E+00 -0.00000000000E+00 -0.97835573841E+02  0.97835573841E+02  0.00000000000E+00 0. -1.
         21    1    1    2  503  505 -0.13088423324E+03  0.29662568054E+02  0.27628001682E+03  0.30715012315E+03  0.00000000000E+00 0. -1.
         21    1    1    2  504  506  0.10224477962E+03  0.66223698824E+01  0.25100722293E+02  0.10548884776E+03  0.00000000000E+00 0. -1.
         21    1    1    2  505  502 -0.77962277776E+01 -0.32057900960E+02 -0.29657665189E+02  0.44362904391E+02  0.00000000000E+00 0. -1.
         21    1    1    2  506  501  0.36435681404E+02 -0.42270369762E+01  0.59535441870E+02  0.69927788180E+02  0.00000000000E+00 0. -1.
<scales pt_clust_3="105.05603" pt_clust_4="14000.00000" pt_clust_5="32.99227" pt_clust_6="36.44159"></scales>
<clustering>
<clus scale="   32.992">  2  5  1 -1</clus>
<clus scale="   36.442">  1  6  2 -1</clus>
<clus scale="  105.056">  1  3  2 -1</clus>
<clus scale="   36.442">  1  3  2 -1</clus>
</clustering>
</event>
<event>
 6    0  0.4227619E+002  0.6986267E+02  0.7546771E-02  0.1360561E+00
         21   -1    0    0  505  501  0.00000000000E+00  0.00000000000E+00  0.46046044792E+02  0.46046044792E+02  0.00000000000E+00 0. -1.
         21   -1    0    0  503  502 -0.00000000000E+00 -0.00000000000E+00 -0.14127257483E+04  0.14127257483E+04  0.00000000000E+00 0. -1.
         21    1    1    2  503  506  0.39642467020E+02 -0.84452240561E+02 -0.25823479918E+03  0.27457042382E+03  0.00000000000E+00 0. -1.
         21    1    1    2  504  502 -0.66018636923E+02  0.14689087036E+02 -0.10318263201E+04  0.10340405140E+04  0.00000000000E+00 0. -1.
         21    1    1    2  505  504 -0.39971464129E+02  0.22606998753E+02 -0.15847521849E+02  0.48579196020E+02  0.00000000000E+00 0. -1.
         21    1    1    2  506  501  0.66347634032E+02  0.47156154772E+02 -0.60771062328E+02  0.10158165923E+03  0.00000000000E+00 0. -1.
<scales pt_clust_3="69.86267" pt_clust_4="69.27338" pt_clust_5="45.92161" pt_clust_6="14000.00000"></scales>
<clustering>
<clus scale="   45.922">  1  5  2 -1</clus>
<clus scale="   69.273">  2  4  1 -1</clus>
<clus scale="   69.863">  2  3  1 -1</clus>
<clus scale="   45.922">  1  3  2 -1</clus>
</clustering>
</event>
<event>
 6    0  0.4227619E+002  0.8196503E+02  0.7546771E-02  0.1323566E+00
         21   -1    0    0  506  501  0.00000000000E+00  0.00000000000E+00  0.13137771561E+03  0.13137771561E+03  0.00000000000E+00 0.  1.
         21   -1    0    0  505  502 -0.00000000000E+00 -0.00000000000E+00 -0.19193403390E+03  0.19193403390E+03  0.00000000000E+00 0.  1.
         21    1    1    2  503  502 -0.57003960700E+02  0.24203744350E+01  0.83015564984E+00  0.57061360888E+02  0.00000000000E+00 0.  1.
         21    1    1    2  504  501  0.62332780321E+01 -0.80483756733E+02 -0.24800554390E+02  0.84448542622E+02  0.00000000000E+00 0.  1.
         21    1    1    2  505  504  0.82754939611E+02  0.62507999210E+02 -0.76103094699E+02  0.12863635185E+03  0.00000000000E+00 0.  1.
         21    1    1    2  506  503 -0.31984256943E+02  0.15555383089E+02  0.39517175154E+02  0.53165494142E+02  0.00000000000E+00 0.  1.
<scales pt_clust_3="68.32815" pt_clust_4="14000.00000" pt_clust_5="81.96503" pt_clust_6="35.56631"></scales>
<clustering>
<clus scale="   35.566">  1  6  2 -1</clus>
<clus scale="   68.328">  1  3  2 -1</clus>
<clus scale="   81.965">  2  5  1 -1</clus>
<clus scale="   35.566">  1  3  2 -1</clus>
</clustering>
</event>
<event>
 6    0  0.4227619E+002  0.9280696E+02  0.7546771E-02  0.1296193E+00
         21   -1    0    0  503  501  0.00000000000E+00  0.00000000000E+00  0.13034891931E+04  0.13034891931E+04  0.00000000000E+00 0. -1.
         21   -1    0    0  506  502 -0.00000000000E+00 -0.00000000000E+00 -0.30687690623E+02  0.30687690623E+02  0.00000000000E+00 0. -1.
         21    1    1    2  503  502  0.53655868977E+02  0.69858047192E+02  0.19615585955E+03  0.21502609207E+03  0.00000000000E+00 0. -1.
         21    1    1    2  504  505 -0.61742606127E+02 -0.74468639295E+02  0.32699096774E+03  0.34099973700E+03  0.00000000000E+00 0. -1.
         21    1    1    2  505  501 -0.24048891327E+02  0.22196008962E+02  0.73938127679E+03  0.74010518472E+03  0.00000000000E+00 0. -1.
         21    1    1    2  506  504  0.32135628477E+02 -0.17585416859E+02  0.10273398383E+02  0.38045869921E+02  0.00000000000E+00 0. -1.
<scales pt_clust_3="14000.00000" pt_clust_4="92.80696" pt_clust_5="32.72632" pt_clust_6="35.27347"></scales>
<clustering>
<clus scale="   32.726">  1  5  2 -1</clus>
<clus scale="   35.273">  2  6  1 -1</clus>
<clus scale="   92.807">  1  4  2 -1</clus>
<clus scale="   32.726">  1  3  2 -1</clus>
</clustering>
</event>
<event>
 6    0  0.4227619E+002  0.1073634E+03  0.7546771E-02  0.1265532E+00
         21   -1    0    0  505  501  0.00000000000E+00  0.00000000000E+00  0.53597548573E+03  0.53597548573E+03  0.00000000000E+00 0. -1.
         21   -1    0    0  506  502 -0.00000000000E+00 -0.00000000000E+00 -0.23050958082E+03  0.23050958082E+03  0.00000000000E+00 0. -1.
         21    1    1    2  503  501  0.10558513348E+03  0.64073598896E+01  0.42632759473E+03  0.43925447374E+03  0.00000000000E+00 0. -1.
         21    1    1    2  504  503 -0.20776772714E+02  0.80296134330E+02 -0.20107714619E+02  0.85343210978E+02  0.00000000000E+00 0. -1.
         21    1    1    2  505  502 -0.13526518719E+03 -0.24087176632E+02 -0.79394957063E+02  0.15868340225E+03  0.00000000000E+00 0. -1.
         21    1    1    2  506  504  0.50456826426E+02 -0.62616317588E+02 -0.21359018137E+02  0.83203979575E+02  0.00000000000E+00 0. -1.
<scales pt_clust_3="107.36335" pt_clust_4="62.04865" pt_clust_5="14000.00000" pt_clust_6="80.41576"></scales>
<clustering>
<clus scale="   80.416">  2  6  1 -1</clus>
<clus scale="   62.049">  2  4  1 -1</clus>
<clus scale="  107.363">  1  3  2 -1</clus>
<clus scale="  107.363">  1  3  2 -1</clus>
</clustering>
</event>
<event>
 6    0  0.4227619E+002  0.7020690E+02  0.7546771E-02  0.1359391E+00
         21   -1    0    0  505  501  0.00000000000E+00  0.00000000000E+00  0.23555060274E+03  0.23555060274E+03  0.00000000000E+00 0. -1.
         21   -1    0    0  503  502 -0.00000000000E+00 -0.00000000000E+00 -0.64545376104E+03  0.64545376104E+03  0.00000000000E+00 0.  1.
         21    1    1    2  503  501  0.23377974260E+02  0.20186316228E+02  0.81140949726E+01  0.31935177792E+02  0.00000000000E+00 0. -1.
         21    1    1    2  504  502 -0.54642668208E+02  0.27265080328E+02 -0.48452783795E+03  0.48836096439E+03  0.00000000000E+00 0.  1.
         21    1    1    2  505  506 -0.21863354549E+02  0.48767499868E+02  0.18883829587E+03  0.19625538796E+03  0.00000000000E+00 0. -1.
         21    1    1    2  506  504  0.53128048496E+02 -0.96218896425E+02 -0.12232771119E+03  0.16445283364E+03  0.00000000000E+00 0. -1.
<scales pt_clust_3="30.88717" pt_clust_4="60.96188" pt_clust_5="14000.00000" pt_clust_6="70.20690"></scales>
<clustering>
<clus scale="   30.887">  1  3  2 -1</clus>
<clus scale="   60.962">  2  4  1 -1</clus>
<clus scale="   70.207">  2  6  1 -1</clus>
<clus scale="   30.887">  1  3  2 -1</clus>
</clustering>
</event>
<event>
 6    0  0.4227619E+002  0.1265481E+03  0.7546771E-02  0.1232669E+00
         21   -1    0    0  503  501  0.00000000000E+00  0.00000000000E+00  0.23887398390E+03  0.23887398390E+03  0.00000000000E+00 0.  1.
         21   -1    0    0  504  502 -0.00000000000E+00 -0.00000000000E+00 -0.19625869084E+03  0.19625869084E+03  0.00000000000E+00 0.  1.
         21    1    1    2  503  506  0.36106587407E+02  0.29467985023E+02  0.88154777205E+02  0.99716159872E+02  0.00000000000E+00 0.  1.
         21    1    1    2  504  505  0.66411758970E+00 -0.60581372597E+02 -0.23010112574E+02  0.64807476718E+02  0.00000000000E+00 0.  1.
         21    1    1    2  505  501  0.10066932397E+03 -0.33539628267E+02  0.29370606280E+02  0.11009928231E+03  0.00000000000E+00 0.  1.
         21    1    1    2  506  502 -0.13744002896E+03  0.64653015840E+02 -0.51899977855E+02  0.16050975584E+03  0.00000000000E+00 0.  1.
<scales pt_clust_3="46.60523" pt_clust_4="56.63743" pt_clust_5="126.54813" pt_clust_6="14000.00000"></scales>
<clustering>
<clus scale="   46.605">  1  3  2 -1</clus>
<clus scale="   56.637">  2  4  1 -1</clus>
<clus scale="  126.548">  1  5  2 -1</clus>
<clus scale="   46.605">  1  3  2 -1</clus>
</clustering>
</event>
<event>
 6    0  0.4227619E+002  0.8942370E+02  0.7546771E-02  0.1304253E+00
         21   -1    0    0  506  501  0.00000000000E+00  0.00000000000E+00  0.27181079052E+02  0.27181079052E+02  0.00000000000E+00 0. -1.
         21   -1    0    0  504  502 -0.00000000000E+00 -0.00000000000E+00 -0.94505249165E+03  0.94505249165E+03  0.00000000000E+00 0.  1.
         21    1    1    2  503  502  0.73053088520E+01 -0.30637985485E+02 -0.14599105800E+03  0.14935006765E+03  0.00000000000E+00 0. -1.
         21    1    1    2  504  505 -0.66211277996E+02  0.85359190471E+02 -0.30522406121E+03  0.32377747339E+03  0.00000000000E+00 0.  1.
         21    1    1    2  505  501  0.97609787678E+02  0.12284407564E+02 -0.29040384367E+03  0.30661534491E+03  0.00000000000E+00 0. -1.
         21    1    1    2  506  503 -0.38703818534E+02 -0.67005612550E+02 -0.17625244972E+03  0.19249068474E+03  0.00000000000E+00 0. -1.
<scales pt_clust_3="31.49688" pt_clust_4="89.42370" pt_clust_5="14000.00000" pt_clust_6="82.82137"></scales>
<clustering>
<clus scale="   31.497">  2  3  1 -1</clus>
<clus scale="   82.821">  1  6  2 -1</clus>
<clus scale="   89.424">  2  4  1 -1</clus>
<clus scale="   82.821">  1  3  2 -1</clus>
</clustering>
</event>
<event>
 6    0  0.4227619E+002  0.1777245E+03  0.7546771E-02  0.1170024E+00
         21   -1    0    0  506  501  0.00000000000E+00  0.00000000000E+00  0.90709975158E+02  0.90709975158E+02  0.00000000000E+00 0.  1.
         21   -1    0    0  503  502 -0.00000000000E+00 -0.00000000000E+00 -0.20351480517E+04  0.20351480517E+04  0.00000000000E+00 0.  1.
         21    1    1    2  503  501  0.89439100593E+02 -0.19711852609E+03 -0.17581357074E+03  0.27886462253E+03  0.00000000000E+00 0.  1.
         21    1    1    2  504  505 -0.37932561279E+02  0.13622461451E+03 -0.19589739380E+03  0.24160259457E+03  0.00000000000E+00 0.  1.
         21    1    1    2  505  502 -0.79968030116E+02  0.50837754812E+02 -0.15723498404E+04  0.15752026485E+04  0.00000000000E+00 0.  1.
         21    1    1    2  506  504  0.28461490802E+02  0.10056156762E+02 -0.37727159387E+00  0.30188161278E+02  0.00000000000E+00 0.  1.
<scales pt_clust_3="14000.00000" pt_clust_4="177.72447" pt_clust_5="94.41012" pt_clust_6="30.18580"></scales>
<clustering>
<clus scale="   30.186">  1  6  2 -1</clus>
<clus scale="   94.410">  2  5  1 -1</clus>
<clus scale="  177.724">  1  4  2 -1</clus>
<clus scale="   30.186">  1  3  2 -1</clus>
</clustering>
</event>
<event>
 6    0  0.4227619E+002  0.7849709E+02  0.7546771E-02  0.1333371E+00
         21   -1    0    0  506  501  0.00000000000E+00  0.00000000000E+00  0.13139484622E+04  0.13139484622E+04  0.00000000000E+00 0.  1.
         21   -1    0    0  503  502 -0.00000000000E+00 -0.00000000000E+00 -0.11208202285E+03  0.11208202285E+03  0.00000000000E+00 0. -1.
         21    1    1    2  503  505  0.60807814886E+02 -0.18663793812E+02  0.67803705482E+02  0.92969188594E+02  0.00000000000E+00 0. -1.
         21    1    1    2  504  502  0.72124237057E+01 -0.50187142606E+02 -0.86872112871E+02  0.10058594501E+03  0.00000000000E+00 0. -1.
         21    1    1    2  505  501  0.16218091717E+02  0.70887147153E+02  0.79274425811E+03  0.79607252992E+03  0.00000000000E+00 0.  1.
         21    1    1    2  506  504 -0.84238330309E+02 -0.20362107356E+01  0.42819058860E+03  0.43640282150E+03  0.00000000000E+00 0. -1.
<scales pt_clust_3="14000.00000" pt_clust_4="50.70274" pt_clust_5="68.44849" pt_clust_6="78.49709"></scales>
<clustering>
<clus scale="   50.703">  2  4  1 -1</clus>
<clus scale="   68.448">  1  5  2 -1</clus>
<clus scale="   78.497">  1  6  2 -1</clus>
<clus scale="   68.448">  1  3  2 -1</clus>
</clustering>
</event>
<event>
 6    0  0.4227619E+002  0.1246894E+03  0.7546771E-02  0.1235555E+00
         21   -1    0    0  504  501  0.00000000000E+00  0.00000000000E+00  0.78175972948E+03  0.78175972948E+03  0.00000000000E+00 0. -1.
         21   -1    0    0  503  502 -0.00000000000E+00 -0.00000000000E+00 -0.39008466563E+03  0.39008466563E+03  0.00000000000E+00 0.  1.
         21    1    1    2  503  501 -0.46959260637E+02 -0.23235866712E+02  0.47551100325E+03  0.47838874555E+03  0.00000000000E+00 0. -1.
         21    1    1    2  504  506 -0.27671839089E+02  0.30294236467E+02  0.99951283652E+02  0.10804503943E+03  0.00000000000E+00 0. -1.
         21    1    1    2  505  502  0.72940004445E+01  0.12426451293E+03 -0.34504686516E+03  0.36681359132E+03  0.00000000000E+00 0.  1.
         21    1    1    2  506  505  0.67337099281E+02 -0.13132288269E+03  0.16125964211E+03  0.21859701880E+03  0.00000000000E+00 0. -1.
<scales pt_clust_3="66.45997" pt_clust_4="41.03013" pt_clust_5="14000.00000" pt_clust_6="124.68940"></scales>
<clustering>
<clus scale="   41.030">  1  4  2 -1</clus>
<clus scale="   66.460">  1  3  2 -1</clus>
<clus scale="  124.689">  1  6  2 -1</clus>
<clus scale="   41.030">  1  3  2 -1</clus>
</clustering>
</event>
<event>
 6    0  0.4227619E+002  0.9095274E+02  0.7546771E-02  0.1300561E+00
         21   -1    0    0  503  501  0.00000000000E+00  0.00000000000E+00  0.62360422394E+02  0.62360422394E+02  0.00000000000E+00 0. -1.
         21   -1    0    0  504  502 -0.00000000000E+00 -0.00000000000E+00 -0.15704283844E+04  0.15704283844E+04  0.00000000000E+00 0. -1.
         21    1    1    2  503  502 -0.35347492360E+02 -0.27443361529E+02 -0.39505960375E+03  0.39758605839E+03  0.00000000000E+00 0. -1.
         21    1    1    2  504  505 -0.24477202604E+02  0.35679141916E+02 -0.64782294167E+03  0.64926627694E+03  0.00000000000E+00 0. -1.
         21    1    1    2  505  506  0.12487694531E+03 -0.66452008349E+02 -0.47728296218E+03  0.49780432588E+03  0.00000000000E+00 0. -1.
         21    1    1    2  506  501 -0.65052250350E+02  0.58216227962E+02  0.12097545603E+02  0.88132145574E+02  0.00000000000E+00 0. -1.
<scales pt_clust_3="47.44065" pt_clust_4="43.26817" pt_clust_5="14000.00000" pt_clust_6="90.95274"></scales>
<clustering>
<clus scale="   43.268">  2  4  1 -1</clus>
<clus scale="   47.441">  2  3  1 -1</clus>
<clus scale="   90.953">  1  6  2 -1</clus>
<clus scale="   90.953">  1  3  2 -1</clus>
</clustering>
</event>
<event>
 6    0  0.4227619E+002  0.7483636E+02  0.7546771E-02  0.1344379E+00
         21   -1    0    0  503  501  0.00000000000E+00  0.00000000000E+00  0.12303082656E+04  0.12303082656E+04  0.00000000000E+00 0. -1.
         21   -1    0    0  506  502 -0.00000000000E+00 -0.00000000000E+00 -0.15518306146E+03  0.15518306146E+03  0.00000000000E+00 0.  1.
         21    1    1    2  503  504 -0.46254799109E+02  0.44539036315E+02  0.71846798959E+03  0.72133174356E+03  0.00000000000E+00 0. -1.
         21    1    1    2  504  502 -0.70441581314E+02  0.18735898201E+02 -0.12592108897E+03  0.14549629173E+03  0.00000000000E+00 0.  1.
         21    1    1    2  505  501  0.23266624076E+01 -0.43743179771E+02  0.29403527276E+03  0.29728037399E+03  0.00000000000E+00 0. -1.
         21    1    1    2  506  505  0.11436971802E+03 -0.19531754745E+02  0.18854303077E+03  0.22138291780E+03  0.00000000000E+00 0. -1.
<scales pt_clust_3="45.76659" pt_clust_4="14000.00000" pt_clust_5="43.80501" pt_clust_6="74.83636"></scales>
<clustering>
<clus scale="   43.805">  1  5  2 -1</clus>
<clus scale="   45.767">  1  3  2 -1</clus>
<clus scale="   74.836">  1  6  2 -1</clus>
<clus scale="   43.805">  1  3  2 -1</clus>
</clustering>
</event>
<event>
 6    0  0.4268779E+002  0.1382316E+03  0.7546771E-02  0.1215728E+00
         21   -1    0    0  506  501  0.00000000000E+00  0.00000000000E+00  0.46162646544E+03  0.46162646544E+03  0.00000000000E+00 0. -1.
         21   -1    0    0  505  502 -0.00000000000E+00 -0.00000000000E+00 -0.63824210625E+03  0.63824210625E+03  0.00000000000E+00 0. -1.
         21    1    1    2  503  502 -0.66914426600E+02  0.90702998083E+02 -0.57655116113E+03  0.58746558686E+03  0.00000000000E+00 0. -1.
         21    1    1    2  504  501 -0.14707372366E+02 -0.30028723857E+02  0.65788013257E+02  0.73797654073E+02  0.00000000000E+00 0.  1.
         21    1    1    2  505  504  0.79891330669E+01  0.36053829699E+02 -0.34435435124E+02  0.50492614067E+02  0.00000000000E+00 0. -1.
         21    1    1    2  506  503  0.73632665899E+02 -0.96728103925E+02  0.36858294219E+03  0.38811271668E+03  0.00000000000E+00 0. -1.
<scales pt_clust_3="138.23159" pt_clust_4="33.43697" pt_clust_5="36.26283" pt_clust_6="14000.00000"></scales>
<clustering>
<clus scale="   33.437">  1  4  2 -1</clus>
<clus scale="   36.263">  2  5  1 -1</clus>
<clus scale="  138.232">  2  3  1 -1</clus>
<clus scale="   33.437">  1  3  2 -1</clus>
</clustering>
</event>
<event>
 6    0  0.4227619E+002  0.7631837E+02  0.7546771E-02  0.1339836E+00
         21   -1    0    0  506  501  0.00000000000E+00  0.00000000000E+00  0.68948200363E+02  0.68948200363E+02  0.00000000000E+00 0.  1.
         21   -1    0    0  504  502 -0.00000000000E+00 -0.00000000000E+00 -0.11411616279E+04  0.11411616279E+04  0.00000000000E+00 0.  1.
         21    1    1    2  503  505 -0.18628961470E+02  0.63542864241E+02  0.10755690952E+02  0.67085159978E+02  0.00000000000E+00 0.  1.
         21    1    1    2  504  503 -0.32696329362E+02 -0.10977148666E+03 -0.61895582845E+03  0.62946417436E+03  0.00000000000E+00 0.  1.
         21    1    1    2  505  501  0.46414781252E+02 -0.15426041274E+02 -0.36348174501E+01  0.49045963810E+02  0.00000000000E+00 0.  1.
         21    1    1    2  506  502  0.49105095802E+01  0.61654663697E+02 -0.46037847260E+03  0.46451453012E+03  0.00000000000E+00 0.  1.
<scales pt_clust_3="54.53348" pt_clust_4="14000.00000" pt_clust_5="48.91109" pt_clust_6="76.31837"></scales>
<clustering>
<clus scale="   48.911">  1  5  2 -1</clus>
<clus scale="   54.533">  1  3  2 -1</clus>
<clus scale="   76.318">  2  6  1 -1</clus>
<clus scale="   48.911">  1  3  2 -1</clus>
</clustering>
</event>
<event>
 6    0  0.4227619E+002  0.1144312E+03  0.7546771E-02  0.1252577E+00
         21   -1    0    0  506  501  0.00000000000E+00  0.00000000000E+00  0.19539997929E+03  0.19539997929E+03  0.00000000000E+00 0.  1.
         21   -1    0    0  503  502 -0.00000000000E+00 -0.00000000000E+00 -0.23222278120E+03  0.23222278120E+03  0.00000000000E+00 0.  1.
         21    1    1    2  503  505  0.85970430640E+02  0.10591702962E+01 -0.58383337406E+02  0.10392617992E+03  0.00000000000E+00 0.  1.
         21    1    1    2  504  502 -0.62831845521E+02 -0.13115997713E+01 -0.65642885786E+02  0.90876562214E+02  0.00000000000E+00 0.  1.
         21    1    1    2  505  501  0.53895118174E+02  0.30518579368E+02  0.12676363783E+03  0.14108539019E+03  0.00000000000E+00 0.  1.
         21    1    1    2  506  504 -0.77033703293E+02 -0.30266149893E+02 -0.39560216547E+02  0.91734628171E+02  0.00000000000E+00 0.  1.
<scales pt_clust_3="106.65303" pt_clust_4="36.13501" pt_clust_5="61.93599" pt_clust_6="36.13501"></scales>
<clustering>
<clus scale="   36.135">  4  6 -1 -1</clus>
<clus scale="   61.936">  1  5  2 -1</clus>
<clus scale="  106.653">  2  3  1 -1</clus>
<clus scale="   61.936">  1  3  2 -1</clus>
</clustering>
</event>
<event>
 6    0  0.4227619E+002  0.1925577E+03  0.7546771E-02  0.1156174E+00
         21   -1    0    0  503  501  0.00000000000E+00  0.00000000000E+00  0.63640124405E+02  0.63640124405E+02  0.00000000000E+00 0.  1.
         21   -1    0    0  506  502 -0.00000000000E+00 -0.00000000000E+00 -0.10842912133E+04  0.10842912133E+04  0.00000000000E+00 0.  1.
         21    1    1    2  503  502  0.12366291599E+03 -0.16951718915E+03 -0.68001756506E+03  0.71165474986E+03  0.00000000000E+00 0.  1.
         21    1    1    2  504  505 -0.12646262996E+02  0.48312708455E+02 -0.30956182464E+02  0.58756540051E+02  0.00000000000E+00 0.  1.
         21    1    1    2  505  501 -0.11512268636E+03  0.70945028936E+02 -0.11849289007E+03  0.17979709409E+03  0.00000000000E+00 0.  1.
         21    1    1    2  506  504  0.41060333675E+01  0.50259451761E+02 -0.19118445130E+03  0.19772295370E+03  0.00000000000E+00 0. -1.
<scales pt_clust_3="181.80473" pt_clust_4="38.55704" pt_clust_5="38.55704" pt_clust_6="50.42690"></scales>
<clustering>
<clus scale="   38.557">  4  5 -1 -1</clus>
<clus scale="   50.427">  2  6  1 -1</clus>
<clus scale="  181.805">  2  3  1 -1</clus>
<clus scale="  192.558">  1  3  2 -1</clus>
</clustering>
</event>
<event>
 6    0  0.4227619E+002  0.1584185E+03  0.7546771E-02  0.1190494E+00
         21   -1    0    0  504  501  0.00000000000E+00  0.00000000000E+00  0.27977125331E+03  0.27977125331E+03  0.00000000000E+00 0.  1.
         21   -1    0    0  503  502 -0.00000000000E+00 -0.00000000000E+00 -0.76528422937E+03  0.76528422937E+03  0.00000000000E+00 0.  1.
         21    1    1    2  503  501 -0.42698501590E+02 -0.17290649366E+02 -0.23781586324E+03  0.24223648239E+03  0.00000000000E+00 0. -1.
         21    1    1    2  504  505 -0.16037346561E+03 -0.12183575030E+02  0.22742367413E+03  0.27854912588E+03  0.00000000000E+00 0.  1.
         21    1    1    2  505  506  0.13475229541E+03  0.25656415078E+02 -0.21286967534E+03  0.25323888215E+03  0.00000000000E+00 0.  1.
         21    1    1    2  506  502  0.68319671783E+02  0.38178093179E+01 -0.26225111162E+03  0.27103099226E+03  0.00000000000E+00 0.  1.
<scales pt_clust_3="46.06657" pt_clust_4="14000.00000" pt_clust_5="158.41854" pt_clust_6="46.90721"></scales>
<clustering>
<clus scale="   46.067">  2  3  1 -1</clus>
<clus scale="   46.907">  2  6  1 -1</clus>
<clus scale="  158.419">  2  5  1 -1</clus>
<clus scale="  158.419">  1  3  2 -1</clus>
</clustering>
</event>
<event>
 6    0  0.4227619E+002  0.7811265E+02  0.7546771E-02  0.1334494E+00
         21   -1    0    0  506  501  0.00000000000E+00  0.00000000000E+00  0.13448418138E+04  0.13448418138E+04  0.00000000000E+00 0. -1.
         21   -1    0    0  505  502 -0.00000000000E+00 -0.00000000000E+00 -0.12617230835E+03  0.12617230835E+03  0.00000000000E+00 0. -1.
         21    1    1    2  503  502 -0.63589178588E+02  0.30069404014E+02 -0.95545903866E+02  0.11864557487E+03  0.00000000000E+00 0. -1.
         21    1    1    2  504  501 -0.26970538291E+02 -0.33355662040E+02  0.37715242563E+03  0.37958393312E+03  0.00000000000E+00 0. -1.
         21    1    1    2  505  504  0.21494843660E+02 -0.88835904871E+02  0.13834481966E+03  0.16581054075E+03  0.00000000000E+00 0. -1.
         21    1    1    2  506  503  0.69064873219E+02  0.92122162896E+02  0.79871816403E+03  0.80697407341E+03  0.00000000000E+00 0. -1.
<scales pt_clust_3="70.46300" pt_clust_4="42.89534" pt_clust_5="78.11265" pt_clust_6="14000.00000"></scales>
<clustering>
<clus scale="   42.895">  1  4  2 -1</clus>
<clus scale="   70.463">  2  3  1 -1</clus>
<clus scale="   78.113">  2  5  1 -1</clus>
<clus scale="   42.895">  1  3  2 -1</clus>
</clustering>
</event>
<event>
 6    0  0.4227619E+002  0.9097206E+02  0.7546771E-02  0.1300515E+00
         21   -1    0    0  505  501  0.00000000000E+00  0.00000000000E+00  0.10844150535E+03  0.10844150535E+03  0.00000000000E+00 0. -1.
         21   -1    0    0  504  502 -0.00000000000E+00 -0.00000000000E+00 -0.43818327984E+03  0.43818327984E+03  0.00000000000E+00 0. -1.
         21    1    1    2  503  506  0.92224561985E+02  0.27051858064E+02 -0.25215651856E+03  0.26985196443E+03  0.00000000000E+00 0. -1.
         21    1    1    2  504  503  0.16984671339E+01 -0.40695218403E+02 -0.13268566565E+03  0.13879651098E+03  0.00000000000E+00 0. -1.
         21    1    1    2  505  502 -0.75439554444E+02  0.39363366081E+02  0.14235467785E+02  0.86274269090E+02  0.00000000000E+00 0. -1.
         21    1    1    2  506  501 -0.18483474675E+02 -0.25720005743E+02  0.40864941936E+02  0.51702040684E+02  0.00000000000E+00 0. -1.
<scales pt_clust_3="90.97206" pt_clust_4="41.96694" pt_clust_5="14000.00000" pt_clust_6="31.67266"></scales>
<clustering>
<clus scale="   31.673">  1  6  2 -1</clus>
<clus scale="   41.967">  2  4  1 -1</clus>
<clus scale="   90.972">  2  3  1 -1</clus>
<clus scale="   31.673">  1  3  2 -1</clus>
</clustering>
</event>
<event>
 6    0  0.4227619E+002  0.1311866E+03  0.7546771E-02  0.1225706E+00
         21   -1    0    0  502  501  0.00000000000E+00  0.00000000000E+00  0.31965211708E+03  0.31965211708E+03  0.00000000000E+00 0. -1.
         21   -1    0    0  503  502 -0.00000000000E+00 -0.00000000000E+00 -0.50343668809E+03  0.50343668809E+03  0.00000000000E+00 0. -1.
         21    1    1    2  503  506 -0.65827766362E+00  0.34862823546E+02 -0.36427476958E+03  0.36593982776E+03  0.00000000000E+00 0. -1.
         21    1    1    2  504  505 -0.12115941362E+03  0.36152932517E+02 -0.18510020370E+02  0.12778598864E+03  0.00000000000E+00 0. -1.
         21    1    1    2  505  501  0.88430626970E+02 -0.10415784380E+03  0.23383397397E+03  0.27082680737E+03  0.00000000000E+00 0. -1.
         21    1    1    2  506  504  0.33387064313E+02  0.33142087732E+02 -0.34833755031E+02  0.58536181394E+02  0.00000000000E+00 0. -1.
<scales pt_clust_3="34.86904" pt_clust_4="131.18661" pt_clust_5="14000.00000" pt_clust_6="55.82686"></scales>
<clustering>
<clus scale="   34.869">  2  3  1 -1</clus>
<clus scale="   55.827">  2  6  1 -1</clus>
<clus scale="  131.187">  2  4  1 -1</clus>
<clus scale="  131.187">  1  3  2 -1</clus>
</clustering>
</event>
<event>
 6    0  0.4227619E+002  0.1155819E+03  0.7546771E-02  0.1250569E+00
         21   -1    0    0  506  501  0.00000000000E+00  0.00000000000E+00  0.97966030826E+03  0.97966030826E+03  0.00000000000E+00 0.  1.
         21   -1    0    0  503  502 -0.00000000000E+00 -0.00000000000E+00 -0.75620436509E+02  0.75620436509E+02  0.00000000000E+00 0.  1.
         21    1    1    2  503  505  0.25625791528E+02  0.30445128384E+02 -0.27366803563E+02  0.48296262496E+02  0.00000000000E+00 0.  1.
         21    1    1    2  504  502 -0.47731281716E+02  0.75062912123E+02  0.62472932798E+02  0.10869950949E+03  0.00000000000E+00 0.  1.
         21    1    1    2  505  501 -0.43367821722E+02 -0.42501378609E+01  0.35590046498E+02  0.56262625627E+02  0.00000000000E+00 0.  1.
         21    1    1    2  506  504  0.65473311909E+02 -0.10125790265E+03  0.83334369602E+03  0.84202234716E+03  0.00000000000E+00 0.  1.
<scales pt_clust_3="39.79431" pt_clust_4="115.58189" pt_clust_5="36.58639" pt_clust_6="14000.00000"></scales>
<clustering>
<clus scale="   39.794">  2  3  1 -1</clus>
<clus scale="   36.586">  2  5  1 -1</clus>
<clus scale="  115.582">  2  4  1 -1</clus>
<clus scale="  115.582">  1  3  2 -1</clus>
</clustering>
</event>
<event>
 6    0  0.4227619E+002  0.9522963E+02  0.7546771E-02  0.1290660E+00
         21   -1    0    0  504  501  0.00000000000E+00  0.00000000000E+00  0.15118404921E+03  0.15118404921E+03  0.00000000000E+00 0.  1.
         21   -1    0    0  506  502 -0.00000000000E+00 -0.00000000000E+00 -0.56033442003E+03  0.56033442003E+03  0.00000000000E+00 0.  1.
         21    1    1    2  503  502  0.42009568121E+02 -0.64663736921E+02 -0.21958711737E+03  0.23273311926E+03  0.00000000000E+00 0.  1.
         21    1    1    2  504  505  0.88004492602E+02  0.69480408781E+02  0.90447477988E+02  0.14405923850E+03  0.00000000000E+00 0.  1.
         21    1    1    2  505  503 -0.94493929481E+02 -0.17100929571E+02 -0.28117774221E+03  0.29712365644E+03  0.00000000000E+00 0.  1.
         21    1    1    2  506  501 -0.35520131241E+02  0.12284257711E+02  0.11670107657E+01  0.37602455040E+02  0.00000000000E+00 0.  1.
<scales pt_clust_3="75.64160" pt_clust_4="14000.00000" pt_clust_5="95.22963" pt_clust_6="37.58434"></scales>
<clustering>
<clus scale="   37.584">  1  6  2 -1</clus>
<clus scale="   75.642">  2  3  1 -1</clus>
<clus scale="   95.230">  2  5  1 -1</clus>
<clus scale="   37.584">  1  3  2 -1</clus>
</clustering>
</event>
<event>
 6    0  0.4227619E+002  0.8176069E+02  0.7546771E-02  0.1324128E+00
         21   -1    0    0  506  501  0.00000000000E+00  0.00000000000E+00  0.27784697545E+02  0.27784697545E+02  0.00000000000E+00 0. -1.
         21   -1    0    0  505  502 -0.00000000000E+00 -0.00000000000E+00 -0.10686855284E+04  0.10686855284E+04  0.00000000000E+00 0. -1.
         21    1    1    2  503  502  0.31631618202E+02  0.12043951668E+02 -0.24548282018E+03  0.24780522804E+03  0.00000000000E+00 0.  1.
         21    1    1    2  504  503 -0.87303146354E+02  0.50604904010E+01 -0.22058226319E+03  0.23728460287E+03  0.00000000000E+00 0. -1.
         21    1    1    2  505  501  0.41847945171E+02 -0.95207440088E+02 -0.46133332225E+03  0.47291028894E+03  0.00000000000E+00 0. -1.
         21    1    1    2  506  504  0.13823582981E+02  0.78102998019E+02 -0.11350242520E+03  0.13847010606E+03  0.00000000000E+00 0. -1.
<scales pt_clust_3="33.84695" pt_clust_4="78.94368" pt_clust_5="14000.00000" pt_clust_6="81.76069"></scales>
<clustering>
<clus scale="   33.847">  2  3  1 -1</clus>
<clus scale="   78.944">  2  4  1 -1</clus>
<clus scale="   81.761">  1  6  2 -1</clus>
<clus scale="   81.761">  1  3  2 -1</clus>
</clustering>
</event>
<event>
 6    0  0.4227619E+002  0.2046263E+03  0.7546771E-02  0.1145893E+00
         21   -1    0    0  505  501  0.00000000000E+00  0.00000000000E+00  0.12284715034E+04  0.12284715034E+04  0.00000000000E+00 0. -1.
         21   -1    0    0  504  502 -0.00000000000E+00 -0.00000000000E+00 -0.98359418596E+03  0.98359418596E+03  0.00000000000E+00 0. -1.
         21    1    1    2  503  502  0.99697625193E+01  0.32373179535E+02 -0.35552260139E+03  0.35713266305E+03  0.00000000000E+00 0. -1.
         21    1    1    2  504  506 -0.15508194146E+02 -0.59150982571E+02  0.25610898180E+03  0.26330809593E+03  0.00000000000E+00 0. -1.
         21    1    1    2  505  503  0.87954812276E+02  0.13859532425E+03 -0.60773778519E+03  0.62951563004E+03  0.00000000000E+00 0. -1.
         21    1    1    2  506  501 -0.82416380650E+02 -0.11181752122E+03  0.95202872226E+03  0.96210930037E+03  0.00000000000E+00 0. -1.
<scales pt_clust_3="33.87357" pt_clust_4="37.69262" pt_clust_5="196.57137" pt_clust_6="37.69262"></scales>
<clustering>
<clus scale="   33.874">  2  3  1 -1</clus>
<clus scale="   37.693">  4  6 -1 -1</clus>
<clus scale="  196.571">  2  5  1 -1</clus>
<clus scale="  204.626">  1  3  2 -1</clus>
</clustering>
</event>
<event>
 6    0  0.4227619E+002  0.1119328E+03  0.7546771E-02  0.1257032E+00
         21   -1    0    0  503  501  0.00000000000E+00  0.00000000000E+00  0.14458036882E+03  0.14458036882E+03  0.00000000000E+00 0. -1.
         21   -1    0    0  505  502 -0.00000000000E+00 -0.00000000000E+00 -0.70372789809E+03  0.70372789809E+03  0.00000000000E+00 0. -1.
         21    1    1    2  503  506  0.35265834725E+02 -0.54580549274E+02  0.83004297797E+02  0.10541550603E+03  0.00000000000E+00 0. -1.
         21    1    1    2  504  502 -0.47160002517E+02  0.12694527768E+03 -0.35741933234E+03  0.38221427040E+03  0.00000000000E+00 0. -1.
         21    1    1    2  505  501 -0.95622803352E+02 -0.52936623386E+02 -0.17118637554E+03  0.20310288473E+03  0.00000000000E+00 0. -1.
         21    1    1    2  506  504  0.10751697114E+03 -0.19428105024E+02 -0.11354611918E+03  0.15757560576E+03  0.00000000000E+00 0. -1.
<scales pt_clust_3="64.98242" pt_clust_4="111.93282" pt_clust_5="109.83564" pt_clust_6="14000.00000"></scales>
<clustering>
<clus scale="   64.982">  1  3  2 -1</clus>
<clus scale="  109.836">  1  5  2 -1</clus>
<clus scale="  111.933">  2  4  1 -1</clus>
<clus scale="   64.982">  1  3  2 -1</clus>
</clustering>
</event>
<event>
 6    0  0.4227619E+002  0.1304806E+03  0.7546771E-02  0.1226744E+00
         21   -1    0    0  503  501  0.00000000000E+00  0.00000000000E+00  0.15527702866E+04  0.15527702866E+04  0.00000000000E+00 0. -1.
         21   -1    0    0  505  502 -0.00000000000E+00 -0.00000000000E+00 -0.37598398822E+03  0.37598398822E+03  0.00000000000E+00 0.  1.
         21    1    1    2  503  506 -0.35609922718E+01 -0.10424282291E+03  0.11167534067E+04  0.11216137562E+04  0.00000000000E+00 0. -1.
         21    1    1    2  504  502  0.85256185692E+01  0.95472836303E+02  0.17282438380E+03  0.19762595042E+03  0.00000000000E+00 0.  1.
         21    1    1    2  505  501  0.21168549046E+02  0.25250115729E+02 -0.35943572601E+03  0.36094281672E+03  0.00000000000E+00 0.  1.
         21    1    1    2  506  504 -0.26133175344E+02 -0.16480129120E+02  0.24664423382E+03  0.24857175139E+03  0.00000000000E+00 0.  1.
<scales pt_clust_3="30.29975" pt_clust_4="118.00744" pt_clust_5="32.94960" pt_clust_6="30.29975"></scales>
<clustering>
<clus scale="   30.300">  3  6 -1 -1</clus>
<clus scale="   32.950">  2  5  1 -1</clus>
<clus scale="  118.007">  2  4  1 -1</clus>
<clus scale="  130.481">  1  3  2 -1</clus>
</clustering>
</event>
<event>
 6    0  0.4227619E+002  0.1584690E+03  0.7546771E-02  0.1190436E+00
         21   -1    0    0  503  501  0.00000000000E+00  0.00000000000E+00  0.13325601109E+04  0.13325601109E+04  0.00000000000E+00 0.  1.
         21   -1    0    0  506  502 -0.00000000000E+00 -0.00000000000E+00 -0.67193816458E+03  0.67193816458E+03  0.00000000000E+00 0. -1.
         21    1    1    2  503  505 -0.33388989952E+02  0.46268772570E+02  0.12585316474E+04  0.12598244050E+04  0.00000000000E+00 0.  1.
         21    1    1    2  504  502  0.77015943903E+01 -0.52236387089E+02 -0.66597371140E+02  0.84989202461E+02  0.00000000000E+00 0. -1.
         21    1    1    2  505  504 -0.64884121058E+02  0.10604178449E+03 -0.14057652943E+02  0.12510965922E+03  0.00000000000E+00 0.  1.
         21    1    1    2  506  501  0.90571516620E+02 -0.10007416997E+03 -0.51725467700E+03  0.53457500877E+03  0.00000000000E+00 0. -1.
<scales pt_clust_3="57.00727" pt_clust_4="52.80109" pt_clust_5="14000.00000" pt_clust_6="158.46899"></scales>
<clustering>
<clus scale="   52.801">  2  4  1 -1</clus>
<clus scale="   57.007">  1  3  2 -1</clus>
<clus scale="  158.469">  2  6  1 -1</clus>
<clus scale="   57.007">  1  3  2 -1</clus>
</clustering>
</event>
<event>
 6    0  0.4227619E+002  0.8561116E+02  0.7546771E-02  0.1313842E+00
         21   -1    0    0  503  501  0.00000000000E+00  0.00000000000E+00  0.10932020412E+03  0.10932020412E+03  0.00000000000E+00 0. -1.
         21   -1    0    0  505  502 -0.00000000000E+00 -0.00000000000E+00 -0.71634551856E+03  0.71634551856E+03  0.00000000000E+00 0. -1.
         21    1    1    2  503  504  0.74653736260E+02 -0.49298544477E+02  0.54773117423E+02  0.10489814687E+03  0.00000000000E+00 0. -1.
         21    1    1    2  504  502 -0.70853636131E+02  0.89394844546E+02 -0.58787319761E+03  0.59883768456E+03  0.00000000000E+00 0. -1.
         21    1    1    2  505  506  0.34611191463E+02 -0.13750429489E+02 -0.64391485794E+02  0.74385968626E+02  0.00000000000E+00 0. -1.
         21    1    1    2  506  501 -0.38411291592E+02 -0.26345870580E+02 -0.95337484629E+01  0.47543922620E+02  0.00000000000E+00 0. -1.
<scales pt_clust_3="85.61116" pt_clust_4="14000.00000" pt_clust_5="37.24257" pt_clust_6="45.68261"></scales>
<clustering>
<clus scale="   37.243">  2  5  1 -1</clus>
<clus scale="   45.683">  1  6  2 -1</clus>
<clus scale="   85.611">  1  3  2 -1</clus>
<clus scale="   45.683">  1  3  2 -1</clus>
</clustering>
</event>
<event>
 6    0  0.4227619E+002  0.6812387E+02  0.7546771E-02  0.1366592E+00
         21   -1    0    0  506  501  0.00000000000E+00  0.00000000000E+00  0.36788197225E+03  0.36788197225E+03  0.00000000000E+00 0.  1.
         21   -1    0    0  505  502 -0.00000000000E+00 -0.00000000000E+00 -0.34211076107E+03  0.34211076107E+03  0.00000000000E+00 0.  1.
         21    1    1    2  503  502  0.84802464035E+02 -0.58292523031E+02 -0.20274380230E+03  0.22736430133E+03  0.00000000000E+00 0.  1.
         21    1    1    2  504  501  0.21046447941E+02  0.29661948518E+02  0.59819917676E+02  0.70008618838E+02  0.00000000000E+00 0. -1.
         21    1    1    2  505  504 -0.21247909666E+02  0.40176434844E+02 -0.11112624099E+03  0.12006107203E+03  0.00000000000E+00 0.  1.
         21    1    1    2  506  503 -0.84601002310E+02 -0.11545860332E+02  0.27982133679E+03  0.29255874112E+03  0.00000000000E+00 0.  1.
<scales pt_clust_3="68.12387" pt_clust_4="36.37010" pt_clust_5="45.69315" pt_clust_6="14000.00000"></scales>
<clustering>
<clus scale="   36.370">  1  4  2 -1</clus>
<clus scale="   45.693">  2  5  1 -1</clus>
<clus scale="   68.124">  2  3  1 -1</clus>
<clus scale="   36.370">  1  3  2 -1</clus>
</clustering>
</event>
<event>
 6    0  0.4227619E+002  0.6996728E+02  0.7546771E-02  0.1360204E+00
         21   -1    0    0  506  501  0.00000000000E+00  0.00000000000E+00  0.43530628090E+04  0.43530628090E+04  0.00000000000E+00 0. -1.
         21   -1    0    0  503  502 -0.00000000000E+00 -0.00000000000E+00 -0.19113533815E+02  0.19113533815E+02  0.00000000000E+00 0. -1.
         21    1    1    2  503  505 -0.99967605133E+02  0.99570242245E+01  0.36039035502E+03  0.37413082257E+03  0.00000000000E+00 0. -1.
         21    1    1    2  504  502  0.58602796859E+02 -0.24596122019E+02  0.74730140148E+02  0.98101227640E+02  0.00000000000E+00 0. -1.
         21    1    1    2  505  501 -0.10999733080E+02  0.30247301427E+02  0.22038445301E+04  0.22040795372E+04  0.00000000000E+00 0. -1.
         21    1    1    2  506  504  0.52364541354E+02 -0.15608203632E+02  0.16949842499E+04  0.16958647554E+04  0.00000000000E+00 0. -1.
<scales pt_clust_3="69.96728" pt_clust_4="14000.00000" pt_clust_5="32.18530" pt_clust_6="44.45973"></scales>
<clustering>
<clus scale="   32.185">  1  5  2 -1</clus>
<clus scale="   44.460">  1  6  2 -1</clus>
<clus scale="   69.967">  1  3  2 -1</clus>
<clus scale="   32.185">  1  3  2 -1</clus>
</clustering>
</event>
<event>
 6    0  0.4227619E+002  0.6367890E+02  0.7546771E-02  0.1383011E+00
         21   -1    0    0  506  501  0.00000000000E+00  0.00000000000E+00  0.17424375138E+03  0.17424375138E+03  0.00000000000E+00 0.  1.
         21   -1    0    0  501  502 -0.00000000000E+00 -0.00000000000E+00 -0.50419576850E+03  0.50419576850E+03  0.00000000000E+00 0. -1.
         21    1    1    2  503  502 -0.55780114065E+02 -0.37697007584E+02 -0.30587305506E+03  0.31319452633E+03  0.00000000000E+00 0. -1.
         21    1    1    2  504  505 -0.51782340132E+02  0.49519625897E+02 -0.15335197425E+02  0.73271907158E+02  0.00000000000E+00 0. -1.
         21    1    1    2  505  503  0.67581056499E+02 -0.26796346323E+02 -0.13792921839E+03  0.15591572293E+03  0.00000000000E+00 0. -1.
         21    1    1    2  506  504  0.39981397697E+02  0.14973728010E+02  0.12918545375E+03  0.13605736347E+03  0.00000000000E+00 0.  1.
<scales pt_clust_3="63.67890" pt_clust_4="14000.00000" pt_clust_5="62.90383" pt_clust_6="42.69338"></scales>
<clustering>
<clus scale="   42.693">  1  6  2 -1</clus>
<clus scale="   63.679">  2  3  1 -1</clus>
<clus scale="   62.904">  2  5  1 -1</clus>
<clus scale="   42.693">  1  3  2 -1</clus>
</clustering>
</event>
<event>
 6    0  0.4227619E+002  0.3245527E+03  0.7546771E-02  0.1073573E+00
         21   -1    0    0  503  501  0.00000000000E+00  0.00000000000E+00  0.34523550305E+03  0.34523550305E+03  0.00000000000E+00 0. -1.
         21   -1    0    0  505  502 -0.00000000000E+00 -0.00000000000E+00 -0.37838021910E+03  0.37838021910E+03  0.00000000000E+00 0. -1.
         21    1    1    2  503  504 -0.84325752946E+01 -0.55790229455E+02  0.31678263486E+02  0.64708348814E+02  0.00000000000E+00 0.  1.
         21    1    1    2  504  502 -0.25044996587E+03  0.21695805916E+03  0.21842552780E+02  0.33207391037E+03  0.00000000000E+00 0. -1.
         21    1    1    2  505  506  0.11638774626E+03 -0.60397366966E+02  0.18607802009E+01  0.13113890315E+03  0.00000000000E+00 0. -1.
         21    1    1    2  506  501  0.14249479490E+03 -0.10077046274E+03 -0.88526312508E+02  0.19569455981E+03  0.00000000000E+00 0.  1.
<scales pt_clust_3="56.42391" pt_clust_4="314.67518" pt_clust_5="69.13022" pt_clust_6="69.13022"></scales>
<clustering>
<clus scale="   56.424">  1  3  2 -1</clus>
<clus scale="   69.130">  5  6 -1 -1</clus>
<clus scale="  314.675">  1  4  2 -1</clus>
<clus scale="   56.424">  1  3  2 -1</clus>
</clustering>
</event>
<event>
 6    0  0.4227619E+002  0.9417738E+02  0.7546771E-02  0.1293040E+00
         21   -1    0    0  506  501  0.00000000000E+00  0.00000000000E+00  0.64155233661E+03  0.64155233661E+03  0.00000000000E+00 0.  1.
         21   -1    0    0  503  502 -0.00000000000E+00 -0.00000000000E+00 -0.10949217906E+04  0.10949217906E+04  0.00000000000E+00 0. -1.
         21    1    1    2  503  504  0.23185362620E+02 -0.11043566724E+03 -0.27318276979E+03  0.29557135070E+03  0.00000000000E+00 0. -1.
         21    1    1    2  504  501  0.14558668534E+02  0.78323234959E+02  0.54680949523E+03  0.55258221835E+03  0.00000000000E+00 0.  1.
         21    1    1    2  505  502  0.21248248674E+02  0.27577718477E+02 -0.79637694355E+03  0.79713753823E+03  0.00000000000E+00 0. -1.
         21    1    1    2  506  505 -0.58992279828E+02  0.45347138085E+01  0.69380764082E+02  0.91183019983E+02  0.00000000000E+00 0.  1.
<scales pt_clust_3="94.17738" pt_clust_4="14000.00000" pt_clust_5="34.81406" pt_clust_6="58.47872"></scales>
<clustering>
<clus scale="   34.814">  2  5  1 -1</clus>
<clus scale="   58.479">  1  6  2 -1</clus>
<clus scale="   94.177">  2  3  1 -1</clus>
<clus scale="   58.479">  1  3  2 -1</clus>
</clustering>
</event>
<event>
 6    0  0.4227619E+002  0.8487807E+02  0.7546771E-02  0.1315752E+00
         21   -1    0    0  503  501  0.00000000000E+00  0.00000000000E+00  0.49020138880E+03  0.49020138880E+03  0.00000000000E+00 0. -1.
         21   -1    0    0  505  502 -0.00000000000E+00 -0.00000000000E+00 -0.19857737611E+03  0.19857737611E+03  0.00000000000E+00 0. -1.
         21    1    1    2  503  502  0.29011136551E+02 -0.49051982874E+02  0.81062904608E+02  0.99090552382E+02  0.00000000000E+00 0. -1.
         21    1    1    2  504  506 -0.13509044227E+03  0.10810510475E+02  0.11078754236E+03  0.17504334969E+03  0.00000000000E+00 0. -1.
         21    1    1    2  505  504  0.70176588088E+02  0.44007883494E+02 -0.14510374036E+03  0.16708244310E+03  0.00000000000E+00 0. -1.
         21    1    1    2  506  501  0.35902717627E+02 -0.57664110942E+01  0.24487730609E+03  0.24756241974E+03  0.00000000000E+00 0. -1.
<scales pt_clust_3="66.37711" pt_clust_4="84.87807" pt_clust_5="14000.00000" pt_clust_6="36.36285"></scales>
<clustering>
<clus scale="   36.363">  1  6  2 -1</clus>
<clus scale="   66.377">  1  3  2 -1</clus>
<clus scale="   84.878">  1  4  2 -1</clus>
<clus scale="   36.363">  1  3  2 -1</clus>
</clustering>
</event>
<event>
 6    0  0.4227619E+002  0.1882822E+03  0.7546771E-02  0.1160020E+00
         21   -1    0    0  505  501  0.00000000000E+00  0.00000000000E+00  0.16683602748E+03  0.16683602748E+03  0.00000000000E+00 0. -1.
         21   -1    0    0  504  502 -0.00000000000E+00 -0.00000000000E+00 -0.16206673120E+04  0.16206673120E+04  0.00000000000E+00 0. -1.
         21    1    1    2  503  506 -0.79233382412E+02  0.13442751308E+03 -0.18478464963E+03  0.24185543595E+03  0.00000000000E+00 0. -1.
         21    1    1    2  504  501 -0.13945466325E+03 -0.21511566661E+03 -0.71165978884E+03  0.75642713342E+03  0.00000000000E+00 0. -1.
         21    1    1    2  505  503  0.17336338614E+03  0.66709641289E+02  0.39950838248E+02  0.19000291937E+03  0.00000000000E+00 0. -1.
         21    1    1    2  506  502  0.45324659526E+02  0.13978512250E+02 -0.59733768427E+03  0.59921785072E+03  0.00000000000E+00 0. -1.
<scales pt_clust_3="154.05245" pt_clust_4="14000.00000" pt_clust_5="188.28215" pt_clust_6="47.43125"></scales>
<clustering>
<clus scale="   47.431">  2  6  1 -1</clus>
<clus scale="  154.052">  2  3  1 -1</clus>
<clus scale="  188.282">  1  5  2 -1</clus>
<clus scale="  188.282">  1  3  2 -1</clus>
</clustering>
</event>
<event>
 6    0  0.4227619E+002  0.1276627E+03  0.7546771E-02  0.1230966E+00
         21   -1    0    0  503  501  0.00000000000E+00  0.00000000000E+00  0.25489412843E+04  0.25489412843E+04  0.00000000000E+00 0. -1.
         21   -1    0    0  504  502 -0.00000000000E+00 -0.00000000000E+00 -0.17945486610E+03  0.17945486610E+03  0.00000000000E+00 0.  1.
         21    1    1    2  503  502  0.28275904784E+02  0.13228118865E+02  0.17736889665E+03  0.18009507328E+03  0.00000000000E+00 0.  1.
         21    1    1    2  504  506 -0.12806185694E+03  0.85179352435E+00 -0.15192920412E+03  0.19870341673E+03  0.00000000000E+00 0.  1.
         21    1    1    2  505  501 -0.43427263019E+01  0.34890795907E+02  0.10053339965E+04  0.10059486426E+04  0.00000000000E+00 0. -1.
         21    1    1    2  506  505  0.10412867846E+03 -0.48970708297E+02  0.13387127292E+04  0.13436490179E+04  0.00000000000E+00 0. -1.
<scales pt_clust_3="31.21714" pt_clust_4="127.66268" pt_clust_5="41.22018" pt_clust_6="14000.00000"></scales>
<clustering>
<clus scale="   31.217">  1  3  2 -1</clus>
<clus scale="   41.220">  1  5  2 -1</clus>
<clus scale="  127.663">  2  4  1 -1</clus>
<clus scale="   31.217">  1  3  2 -1</clus>
</clustering>
</event>
<event>
 6    0  0.4227619E+002  0.6438069E+02  0.7546771E-02  0.1380316E+00
         21   -1    0    0  504  501  0.00000000000E+00  0.00000000000E+00  0.65020707867E+03  0.65020707867E+03  0.00000000000E+00 0. -1.
         21   -1    0    0  505  502 -0.00000000000E+00 -0.00000000000E+00 -0.77465483088E+02  0.77465483088E+02  0.00000000000E+00 0.  1.
         21    1    1    2  503  501  0.36649083812E+02 -0.21744931492E+02  0.21783994092E+03  0.22196900065E+03  0.00000000000E+00 0. -1.
         21    1    1    2  504  506 -0.47041305139E+02  0.65738075794E+02  0.33558025805E+03  0.34517892258E+03  0.00000000000E+00 0. -1.
         21    1    1    2  505  503 -0.61160604232E+02  0.10509079121E+00 -0.24321234005E+02  0.65819092805E+02  0.00000000000E+00 0.  1.
         21    1    1    2  506  502  0.71552825559E+02 -0.44098235093E+02  0.43642630616E+02  0.94705545724E+02  0.00000000000E+00 0. -1.
<scales pt_clust_3="42.61452" pt_clust_4="51.78523" pt_clust_5="64.38069" pt_clust_6="14000.00000"></scales>
<clustering>
<clus scale="   42.615">  1  3  2 -1</clus>
<clus scale="   51.785">  1  4  2 -1</clus>
<clus scale="   64.381">  2  5  1 -1</clus>
<clus scale="   42.615">  1  3  2 -1</clus>
</clustering>
</event>
<event>
 6    0  0.4227619E+002  0.1049341E+03  0.7546771E-02  0.1270250E+00
         21   -1    0    0  502  501  0.00000000000E+00  0.00000000000E+00  0.20996370828E+04  0.20996370828E+04  0.00000000000E+00 0. -1.
         21   -1    0    0  505  502 -0.00000000000E+00 -0.00000000000E+00 -0.45897256673E+03  0.45897256673E+03  0.00000000000E+00 0. -1.
         21    1    1    2  503  501 -0.85870760197E+02  0.43186376042E+02  0.20781998421E+04  0.20804214560E+04  0.00000000000E+00 0. -1.
         21    1    1    2  504  506  0.14744128899E+02 -0.57621647177E+02 -0.87030654534E+02  0.10541336912E+03  0.00000000000E+00 0. -1.
         21    1    1    2  505  504  0.23246031107E+02  0.55512085288E+02 -0.21570527625E+03  0.22394359955E+03  0.00000000000E+00 0. -1.
         21    1    1    2  506  503  0.47880600192E+02 -0.41076814153E+02 -0.13479939530E+03  0.14883122491E+03  0.00000000000E+00 0. -1.
<scales pt_clust_3="96.13873" pt_clust_4="40.83327" pt_clust_5="60.18280" pt_clust_6="40.83327"></scales>
<clustering>
<clus scale="   40.833">  4  6 -1 -1</clus>
<clus scale="   60.183">  2  5  1 -1</clus>
<clus scale="   96.139">  1  3  2 -1</clus>
<clus scale="   96.139">  1  3  2 -1</clus>
</clustering>
</event>
<event>
 6    0  0.4227619E+002  0.1376967E+03  0.7546771E-02  0.1216462E+00
         21   -1    0    0  505  501  0.00000000000E+00  0.00000000000E+00  0.38095404881E+03  0.38095404881E+03  0.00000000000E+00 0. -1.
         21   -1    0    0  504  502 -0.00000000000E+00 -0.00000000000E+00 -0.79146629611E+03  0.79146629611E+03  0.00000000000E+00 0.  1.
         21    1    1    2  503  501 -0.10646409447E+03 -0.20209962382E+02  0.33897585290E+03  0.35587592619E+03  0.00000000000E+00 0. -1.
         21    1    1    2  504  506  0.49345912420E+02 -0.35552590548E+02 -0.21323437077E+03  0.22173836529E+03  0.00000000000E+00 0.  1.
         21    1    1    2  505  502 -0.28575523789E+02 -0.17870523208E+02  0.11430861747E+02  0.35589053933E+02  0.00000000000E+00 0. -1.
         21    1    1    2  506  503  0.85693705838E+02  0.73633076138E+02 -0.54768459118E+03  0.55921699951E+03  0.00000000000E+00 0.  1.
<scales pt_clust_3="137.69673" pt_clust_4="60.66906" pt_clust_5="33.70336" pt_clust_6="14000.00000"></scales>
<clustering>
<clus scale="   33.703">  1  5  2 -1</clus>
<clus scale="   60.669">  2  4  1 -1</clus>
<clus scale="  137.697">  1  3  2 -1</clus>
<clus scale="   33.703">  1  3  2 -1</clus>
</clustering>
</event>
<event>
 6    0  0.4227619E+002  0.9812350E+02  0.7546771E-02  0.1284292E+00
         21   -1    0    0  506  501  0.00000000000E+00  0.00000000000E+00  0.11478568096E+04  0.11478568096E+04  0.00000000000E+00 0.  1.
         21   -1    0    0  503  502 -0.00000000000E+00 -0.00000000000E+00 -0.19435975447E+04  0.19435975447E+04  0.00000000000E+00 0.  1.
         21    1    1    2  503  505 -0.43755724859E+02 -0.74168655195E+02 -0.18140262498E+04  0.18160690482E+04  0.00000000000E+00 0.  1.
         21    1    1    2  504  502 -0.10430332681E+02  0.62674831774E+02 -0.10779478870E+03  0.12512650737E+03  0.00000000000E+00 0.  1.
         21    1    1    2  505  501  0.13433745622E+03  0.38568986015E+02  0.52632376127E+03  0.54456479918E+03  0.00000000000E+00 0.  1.
         21    1    1    2  506  504 -0.80151398681E+02 -0.27075162594E+02  0.59975654222E+03  0.60569399954E+03  0.00000000000E+00 0.  1.
<scales pt_clust_3="55.41180" pt_clust_4="63.53681" pt_clust_5="14000.00000" pt_clust_6="98.12350"></scales>
<clustering>
<clus scale="   63.537">  2  4  1 -1</clus>
<clus scale="   55.412">  2  3  1 -1</clus>
<clus scale="   98.123">  1  6  2 -1</clus>
<clus scale="   98.123">  1  3  2 -1</clus>
</clustering>
</event>
<event>
 6    0  0.4227619E+002  0.2229375E+03  0.7546771E-02  0.1131712E+00
         21   -1    0    0  503  501  0.00000000000E+00  0.00000000000E+00  0.15507111207E+04  0.15507111207E+04  0.00000000000E+00 0. -1.
         21   -1    0    0  504  502 -0.00000000000E+00 -0.00000000000E+00 -0.45898469692E+03  0.45898469692E+03  0.00000000000E+00 0. -1.
         21    1    1    2  503  505  0.17397260370E+02  0.19513565546E+03 -0.27747165019E+03  0.33966322344E+03  0.00000000000E+00 0. -1.
         21    1    1    2  504  506 -0.12812160434E+03 -0.27553979988E+03  0.62935696045E+03  0.69887589062E+03  0.00000000000E+00 0. -1.
         21    1    1    2  505  502 -0.53656409775E+02  0.26579962580E+02 -0.98437510990E+02  0.11521913162E+03  0.00000000000E+00 0. -1.
         21    1    1    2  506  501  0.16438075374E+03  0.53824181848E+02  0.83827862448E+03  0.85593757192E+03  0.00000000000E+00 0. -1.
<scales pt_clust_3="222.93752" pt_clust_4="14000.00000" pt_clust_5="59.87908" pt_clust_6="171.90051"></scales>
<clustering>
<clus scale="   59.879">  2  5  1 -1</clus>
<clus scale="  171.901">  1  6  2 -1</clus>
<clus scale="  222.938">  2  3  1 -1</clus>
<clus scale="  171.901">  1  3  2 -1</clus>
</clustering>
</event>
<event>
 6    0  0.4227619E+002  0.1515308E+03  0.7546771E-02  0.1198604E+00
         21   -1    0    0  505  501  0.00000000000E+00  0.00000000000E+00  0.53114398249E+03  0.53114398249E+03  0.00000000000E+00 0.  1.
         21   -1    0    0  506  502 -0.00000000000E+00 -0.00000000000E+00 -0.25855680121E+03  0.25855680121E+03  0.00000000000E+00 0. -1.
         21    1    1    2  503  502  0.23067400409E+02 -0.14421587878E+03 -0.21763205017E+03  0.26209546718E+03  0.00000000000E+00 0. -1.
         21    1    1    2  504  503 -0.57060624441E+01  0.69755388364E+02  0.19309655022E+03  0.20538902371E+03  0.00000000000E+00 0.  1.
         21    1    1    2  505  504  0.26862746600E+02  0.68676201079E+02  0.13227989793E+03  0.15144635732E+03  0.00000000000E+00 0.  1.
         21    1    1    2  506  501 -0.44224084564E+02  0.57842893393E+01  0.16484278330E+03  0.17076993548E+03  0.00000000000E+00 0.  1.
<scales pt_clust_3="145.29573" pt_clust_4="41.91081" pt_clust_5="41.91081" pt_clust_6="44.60076"></scales>
<clustering>
<clus scale="   41.911">  4  5 -1 -1</clus>
<clus scale="   44.601">  1  6  2 -1</clus>
<clus scale="  145.296">  2  3  1 -1</clus>
<clus scale="   44.601">  1  3  2 -1</clus>
</clustering>
</event>
<event>
 6    0  0.4227619E+002  0.1788951E+03  0.7546771E-02  0.1168877E+00
         21   -1    0    0  503  501  0.00000000000E+00  0.00000000000E+00  0.10617888338E+04  0.10617888338E+04  0.00000000000E+00 0. -1.
         21   -1    0    0  506  502 -0.00000000000E+00 -0.00000000000E+00 -0.26278589097E+03  0.26278589097E+03  0.00000000000E+00 0.  1.
         21    1    1    2  503  505 -0.12203288890E+03 -0.19339447334E+02  0.85577494079E+03  0.86464836176E+03  0.00000000000E+00 0. -1.
         21    1    1    2  504  501 -0.60011895566E+02 -0.24661379330E+02  0.12707977913E+03  0.14268455243E+03  0.00000000000E+00 0.  1.
         21    1    1    2  505  502  0.63548273666E+02 -0.40998016184E+02  0.82328163889E+01  0.76072331913E+02  0.00000000000E+00 0. -1.
         21    1    1    2  506  504  0.11849651080E+03  0.84998842847E+02 -0.19208459351E+03  0.24116947863E+03  0.00000000000E+00 0.  1.
<scales pt_clust_3="178.89506" pt_clust_4="64.88152" pt_clust_5="73.97988" pt_clust_6="14000.00000"></scales>
<clustering>
<clus scale="   64.882">  1  4  2 -1</clus>
<clus scale="   73.980">  2  5  1 -1</clus>
<clus scale="  178.895">  1  3  2 -1</clus>
<clus scale="   64.882">  1  3  2 -1</clus>
</clustering>
</event>
<event>
 6    0  0.4227619E+002  0.1077177E+03  0.7546771E-02  0.1264856E+00
         21   -1    0    0  506  501  0.00000000000E+00  0.00000000000E+00  0.10144533543E+04  0.10144533543E+04  0.00000000000E+00 0. -1.
         21   -1    0    0  503  502 -0.00000000000E+00 -0.00000000000E+00 -0.99493370783E+02  0.99493370783E+02  0.00000000000E+00 0. -1.
         21    1    1    2  503  504  0.18997356385E+02 -0.24176558728E+02 -0.58700830697E+02  0.66266077793E+02  0.00000000000E+00 0. -1.
         21    1    1    2  504  501  0.29130013892E+02 -0.15170889566E+03  0.34329132007E+03  0.37644797405E+03  0.00000000000E+00 0. -1.
         21    1    1    2  505  502 -0.74621681934E+01  0.88690542356E+02  0.10739826433E+03  0.13948506529E+03  0.00000000000E+00 0. -1.
         21    1    1    2  506  505 -0.40665202083E+02  0.87194912035E+02  0.52297122981E+03  0.53174760794E+03  0.00000000000E+00 0. -1.
<scales pt_clust_3="30.74745" pt_clust_4="14000.00000" pt_clust_5="78.21408" pt_clust_6="107.71767"></scales>
<clustering>
<clus scale="   30.747">  2  3  1 -1</clus>
<clus scale="   78.214">  2  5  1 -1</clus>
<clus scale="  107.718">  1  6  2 -1</clus>
<clus scale="  107.718">  1  3  2 -1</clus>
</clustering>
</event>
<event>
 6    0  0.4227619E+002  0.1582007E+03  0.7546771E-02  0.1190743E+00
         21   -1    0    0  506  501  0.00000000000E+00  0.00000000000E+00  0.11154758296E+04  0.11154758296E+04  0.00000000000E+00 0.  1.
         21   -1    0    0  504  502 -0.00000000000E+00 -0.00000000000E+00 -0.74806065833E+03  0.74806065833E+03  0.00000000000E+00 0.  1.
         21    1    1    2  503  502 -0.16657005632E+03 -0.95253304870E+02  0.12822200756E+02  0.19231012605E+03  0.00000000000E+00 0.  1.
         21    1    1    2  504  505  0.29228939556E+02  0.15828427934E+03 -0.63604171272E+03  0.65609245104E+03  0.00000000000E+00 0.  1.
         21    1    1    2  505  501  0.17148180413E+03 -0.51316449572E+02  0.71126096476E+03  0.73343816858E+03  0.00000000000E+00 0.  1.
         21    1    1    2  506  503 -0.34140687368E+02 -0.11714524897E+02  0.27937371848E+03  0.28169574226E+03  0.00000000000E+00 0.  1.
<scales pt_clust_3="158.20074" pt_clust_4="14000.00000" pt_clust_5="154.67591" pt_clust_6="36.09455"></scales>
<clustering>
<clus scale="   36.095">  1  6  2 -1</clus>
<clus scale="  154.676">  1  5  2 -1</clus>
<clus scale="  158.201">  1  3  2 -1</clus>
<clus scale="   36.095">  1  3  2 -1</clus>
</clustering>
</event>
<event>
 6    0  0.4227619E+002  0.1328581E+03  0.7546771E-02  0.1223275E+00
         21   -1    0    0  505  501  0.00000000000E+00  0.00000000000E+00  0.45996394926E+04  0.45996394926E+04  0.00000000000E+00 0. -1.
         21   -1    0    0  506  502 -0.00000000000E+00 -0.00000000000E+00 -0.13034944741E+02  0.13034944741E+02  0.00000000000E+00 0. -1.
         21    1    1    2  503  501  0.21051414346E+02  0.37099624234E+02  0.61765830804E+03  0.61912949344E+03  0.00000000000E+00 0. -1.
         21    1    1    2  504  503  0.93781963050E+02 -0.65738311706E+02  0.67467829363E+03  0.68432987814E+03  0.00000000000E+00 0.  1.
         21    1    1    2  505  502 -0.15575002148E+03  0.42953103523E+01  0.31982330857E+04  0.32020261382E+04  0.00000000000E+00 0. -1.
         21    1    1    2  506  504  0.40916644082E+02  0.24343377120E+02  0.96034860448E+02  0.10718892757E+03  0.00000000000E+00 0. -1.
<scales pt_clust_3="42.65612" pt_clust_4="14000.00000" pt_clust_5="132.85813" pt_clust_6="48.55951"></scales>
<clustering>
<clus scale="   42.656">  1  3  2 -1</clus>
<clus scale="   48.560">  2  6  1 -1</clus>
<clus scale="  132.858">  1  5  2 -1</clus>
<clus scale="   42.656">  1  3  2 -1</clus>
</clustering>
</event>
<event>
 6    0  0.4227619E+002  0.1483208E+03  0.7546771E-02  0.1202552E+00
         21   -1    0    0  503  501  0.00000000000E+00  0.00000000000E+00  0.57653396653E+03  0.57653396653E+03  0.00000000000E+00 0.  1.
         21   -1    0    0  501  502 -0.00000000000E+00 -0.00000000000E+00 -0.50976240546E+03  0.50976240546E+03  0.00000000000E+00 0.  1.
         21    1    1    2  503  506 -0.30571931968E+02  0.64252180881E+01  0.15713365457E+03  0.16020896308E+03  0.00000000000E+00 0.  1.
         21    1    1    2  504  502 -0.10075407672E+03  0.11778416375E+03 -0.29879678707E+03  0.33660661486E+03  0.00000000000E+00 0.  1.
         21    1    1    2  505  504  0.13823375950E+02 -0.15467258440E+03 -0.14703590923E+03  0.21385568192E+03  0.00000000000E+00 0.  1.
         21    1    1    2  506  505  0.11750263274E+03  0.30463202558E+02  0.35547060280E+03  0.37562511213E+03  0.00000000000E+00 0.  1.
<scales pt_clust_3="31.23982" pt_clust_4="14000.00000" pt_clust_5="148.32077" pt_clust_6="97.66834"></scales>
<clustering>
<clus scale="   31.240">  1  3  2 -1</clus>
<clus scale="   97.668">  1  6  2 -1</clus>
<clus scale="  148.321">  1  5  2 -1</clus>
<clus scale="   31.240">  1  3  2 -1</clus>
</clustering>
</event>
<event>
 6    0  0.4227619E+002  0.1167123E+03  0.7546771E-02  0.1248621E+00
         21   -1    0    0  503  501  0.00000000000E+00  0.00000000000E+00  0.46481403358E+03  0.46481403358E+03  0.00000000000E+00 0.  1.
         21   -1    0    0  505  502 -0.00000000000E+00 -0.00000000000E+00 -0.89569760220E+02  0.89569760220E+02  0.00000000000E+00 0. -1.
         21    1    1    2  503  506 -0.39049701331E+02 -0.19759702329E+02  0.29756672096E+03  0.30076781482E+03  0.00000000000E+00 0.  1.
         21    1    1    2  504  502 -0.11798160108E+02  0.73072515680E+02  0.11795840003E+02  0.74952858325E+02  0.00000000000E+00 0. -1.
         21    1    1    2  505  501  0.34327374895E+02 -0.95692895297E+02  0.81784739399E+02  0.13047698064E+03  0.00000000000E+00 0.  1.
         21    1    1    2  506  504  0.16520486543E+02  0.42380081946E+02 -0.15903027006E+02  0.48186140012E+02  0.00000000000E+00 0. -1.
<scales pt_clust_3="43.76443" pt_clust_4="33.21007" pt_clust_5="108.75212" pt_clust_6="33.21007"></scales>
<clustering>
<clus scale="   33.210">  4  6 -1 -1</clus>
<clus scale="   43.764">  1  3  2 -1</clus>
<clus scale="  108.752">  1  5  2 -1</clus>
<clus scale="   43.764">  1  3  2 -1</clus>
</clustering>
</event>
<event>
 6    0  0.4227619E+002  0.1280823E+03  0.7546771E-02  0.1230329E+00
         21   -1    0    0  504  501  0.00000000000E+00  0.00000000000E+00  0.70532013236E+03  0.70532013236E+03  0.00000000000E+00 0. -1.
         21   -1    0    0  503  502 -0.00000000000E+00 -0.00000000000E+00 -0.58104076942E+03  0.58104076942E+03  0.00000000000E+00 0.  1.
         21    1    1    2  503  506 -0.56459170441E+02  0.20408453067E+02 -0.45750992631E+03  0.46143198368E+03  0.00000000000E+00 0.  1.
         21    1    1    2  504  502 -0.17449465679E+03  0.14080645238E+02  0.55030611756E+02  0.18350754221E+03  0.00000000000E+00 0. -1.
         21    1    1    2  505  501  0.12174219042E+03 -0.16318278531E+02  0.51573564591E+03  0.53016101668E+03  0.00000000000E+00 0. -1.
         21    1    1    2  506  505  0.10921163681E+03 -0.18170819774E+02  0.11023031589E+02  0.11126035921E+03  0.00000000000E+00 0. -1.
<scales pt_clust_3="60.03451" pt_clust_4="14000.00000" pt_clust_5="128.08228" pt_clust_6="86.48779"></scales>
<clustering>
<clus scale="   60.035">  2  3  1 -1</clus>
<clus scale="   86.488">  2  6  1 -1</clus>
<clus scale="  128.082">  1  5  2 -1</clus>
<clus scale="  128.082">  1  3  2 -1</clus>
</clustering>
</event>
<event>
 6    0  0.4227619E+002  0.1000421E+03  0.7546771E-02  0.1280207E+00
         21   -1    0    0  505  501  0.00000000000E+00  0.00000000000E+00  0.11800543826E+04  0.11800543826E+04  0.00000000000E+00 0. -1.
         21   -1    0    0  503  502 -0.00000000000E+00 -0.00000000000E+00 -0.16728216765E+03  0.16728216765E+03  0.00000000000E+00 0.  1.
         21    1    1    2  503  504  0.46799379757E+02  0.10930078715E+03  0.14308970648E+02  0.11975638045E+03  0.00000000000E+00 0.  1.
         21    1    1    2  504  501 -0.74688872144E+02  0.32636858058E+02  0.74790717943E+03  0.75233552433E+03  0.00000000000E+00 0. -1.
         21    1    1    2  505  506 -0.34009075804E+02 -0.52378342405E+02  0.33292232550E+03  0.33872906991E+03  0.00000000000E+00 0. -1.
         21    1    1    2  506  502  0.61898568191E+02 -0.89559302807E+02 -0.82366260660E+02  0.13651557552E+03  0.00000000000E+00 0.  1.
<scales pt_clust_3="100.04207" pt_clust_4="105.82413" pt_clust_5="62.45084" pt_clust_6="14000.00000"></scales>
<clustering>
<clus scale="   62.451">  1  5  2 -1</clus>
<clus scale="  105.824">  1  4  2 -1</clus>
<clus scale="  100.042">  1  3  2 -1</clus>
<clus scale="   62.451">  1  3  2 -1</clus>
</clustering>
</event>
<event>
 6    0  0.4227619E+002  0.1464554E+03  0.7546771E-02  0.1204897E+00
         21   -1    0    0  505  501  0.00000000000E+00  0.00000000000E+00  0.13083935551E+04  0.13083935551E+04  0.00000000000E+00 0. -1.
         21   -1    0    0  503  502 -0.00000000000E+00 -0.00000000000E+00 -0.12146903706E+03  0.12146903706E+03  0.00000000000E+00 0.  1.
         21    1    1    2  503  501  0.11133141830E+03 -0.58784073085E+02  0.13500347492E+03  0.18459737319E+03  0.00000000000E+00 0.  1.
         21    1    1    2  504  506 -0.77067683898E+02  0.11537894446E+03  0.59901794551E+03  0.61487740873E+03  0.00000000000E+00 0. -1.
         21    1    1    2  505  504 -0.72124463520E+02 -0.19925366627E+02  0.53095748889E+03  0.53620407820E+03  0.00000000000E+00 0. -1.
         21    1    1    2  506  502  0.37860729119E+02 -0.36669504750E+02 -0.78054391264E+02  0.94183732054E+02  0.00000000000E+00 0.  1.
<scales pt_clust_3="146.45538" pt_clust_4="14000.00000" pt_clust_5="72.92061" pt_clust_6="52.70756"></scales>
<clustering>
<clus scale="   52.708">  2  6  1 -1</clus>
<clus scale="   72.921">  1  5  2 -1</clus>
<clus scale="  146.455">  2  3  1 -1</clus>
<clus scale="   72.921">  1  3  2 -1</clus>
</clustering>
</event>
<event>
 6    0  0.4227619E+002  0.1027536E+03  0.7546771E-02  0.1274610E+00
         21   -1    0    0  504  501  0.00000000000E+00  0.00000000000E+00  0.10407749583E+03  0.10407749583E+03  0.00000000000E+00 0.  1.
         21   -1    0    0  506  502 -0.00000000000E+00 -0.00000000000E+00 -0.55826196656E+03  0.55826196656E+03  0.00000000000E+00 0.  1.
         21    1    1    2  503  501  0.23775186473E+02 -0.62168998310E+02 -0.23378172543E+01  0.66601120353E+02  0.00000000000E+00 0.  1.
         21    1    1    2  504  505 -0.11314571793E+03  0.99760364467E+02 -0.46918266917E+02  0.15797280644E+03  0.00000000000E+00 0.  1.
         21    1    1    2  505  502  0.38313781487E+02 -0.85912367657E+02 -0.19770766106E+03  0.21894565538E+03  0.00000000000E+00 0.  1.
         21    1    1    2  506  503  0.51056749970E+02  0.48321001500E+02 -0.20722072550E+03  0.21881988022E+03  0.00000000000E+00 0.  1.
<scales pt_clust_3="66.56008" pt_clust_4="14000.00000" pt_clust_5="102.75356" pt_clust_6="68.42429"></scales>
<clustering>
<clus scale="   66.560">  1  3  2 -1</clus>
<clus scale="   68.424">  2  6  1 -1</clus>
<clus scale="  102.754">  2  5  1 -1</clus>
<clus scale="   66.560">  1  3  2 -1</clus>
</clustering>
</event>
<event>
 6    0  0.4227619E+002  0.6063661E+02  0.7546771E-02  0.1395179E+00
         21   -1    0    0  506  501  0.00000000000E+00  0.00000000000E+00  0.54289987745E+03  0.54289987745E+03  0.00000000000E+00 0. -1.
         21   -1    0    0  505  502 -0.00000000000E+00 -0.00000000000E+00 -0.16308117443E+03  0.16308117443E+03  0.00000000000E+00 0. -1.
         21    1    1    2  503  502  0.30567157939E+02  0.46892345499E+02 -0.18744636702E+02  0.59030539688E+02  0.00000000000E+00 0. -1.
         21    1    1    2  504  501 -0.63061943571E+02  0.44718596611E+02  0.27375889228E+02  0.82012199829E+02  0.00000000000E+00 0.  1.
         21    1    1    2  505  504 -0.14015272549E+02 -0.62942066196E+02 -0.84328443865E+02  0.10615751507E+03  0.00000000000E+00 0.  1.
         21    1    1    2  506  503  0.46510058181E+02 -0.28668875914E+02  0.45551589436E+03  0.45878079730E+03  0.00000000000E+00 0. -1.
<scales pt_clust_3="14000.00000" pt_clust_4="42.59175" pt_clust_5="60.63661" pt_clust_6="54.63598"></scales>
<clustering>
<clus scale="   54.636">  1  6  2 -1</clus>
<clus scale="   42.592">  1  4  2 -1</clus>
<clus scale="   60.637">  2  5  1 -1</clus>
<clus scale="   54.636">  1  3  2 -1</clus>
</clustering>
</event>
<event>
 6    0  0.4227619E+002  0.1206114E+03  0.7546771E-02  0.1242092E+00
         21   -1    0    0  504  501  0.00000000000E+00  0.00000000000E+00  0.32985517067E+03  0.32985517067E+03  0.00000000000E+00 0. -1.
         21   -1    0    0  503  502 -0.00000000000E+00 -0.00000000000E+00 -0.39316962524E+03  0.39316962524E+03  0.00000000000E+00 0. -1.
         21    1    1    2  503  501  0.22349233457E+02  0.65258487094E+02  0.22486507565E+03  0.23520727162E+03  0.00000000000E+00 0. -1.
         21    1    1    2  504  506  0.10180519847E+03  0.33491966559E+02 -0.63000377573E+01  0.10735781637E+03  0.00000000000E+00 0. -1.
         21    1    1    2  505  502 -0.67295860029E+02  0.41170661173E+02 -0.18475550872E+03  0.20089388771E+03  0.00000000000E+00 0. -1.
         21    1    1    2  506  505 -0.56858571897E+02 -0.13992111483E+03 -0.97123983751E+02  0.17956582022E+03  0.00000000000E+00 0. -1.
<scales pt_clust_3="68.97941" pt_clust_4="14000.00000" pt_clust_5="80.28741" pt_clust_6="120.61142"></scales>
<clustering>
<clus scale="   68.979">  1  3  2 -1</clus>
<clus scale="   80.287">  2  5  1 -1</clus>
<clus scale="  120.611">  2  6  1 -1</clus>
<clus scale="   68.979">  1  3  2 -1</clus>
</clustering>
</event>
<event>
 6    0  0.4227619E+002  0.8213623E+02  0.7546771E-02  0.1323096E+00
         21   -1    0    0  504  501  0.00000000000E+00  0.00000000000E+00  0.40820767348E+03  0.40820767348E+03  0.00000000000E+00 0. -1.
         21   -1    0    0  505  502 -0.00000000000E+00 -0.00000000000E+00 -0.13693596969E+03  0.13693596969E+03  0.00000000000E+00 0.  1.
         21    1    1    2  503  502 -0.42847334313E+02 -0.38295032131E+02 -0.68917836916E+02  0.89733337110E+02  0.00000000000E+00 0. -1.
         21    1    1    2  504  503 -0.22182037553E+02  0.75618858290E+02  0.22956912603E+02  0.82080901283E+02  0.00000000000E+00 0. -1.
         21    1    1    2  505  506  0.90039141171E+02 -0.55401797836E+02  0.76172756984E+02  0.13030232175E+03  0.00000000000E+00 0.  1.
         21    1    1    2  506  501 -0.25009769305E+02  0.18077971677E+02  0.24105987112E+03  0.24302708303E+03  0.00000000000E+00 0. -1.
<scales pt_clust_3="57.91075" pt_clust_4="82.13623" pt_clust_5="14000.00000" pt_clust_6="30.85938"></scales>
<clustering>
<clus scale="   30.859">  1  6  2 -1</clus>
<clus scale="   57.911">  2  3  1 -1</clus>
<clus scale="   82.136">  2  4  1 -1</clus>
<clus scale="   30.859">  1  3  2 -1</clus>
</clustering>
</event>
<event>
 6    0  0.4227619E+002  0.9102355E+02  0.7546771E-02  0.1300392E+00
         21   -1    0    0  504  501  0.00000000000E+00  0.00000000000E+00  0.88178349165E+03  0.88178349165E+03  0.00000000000E+00 0. -1.
         21   -1    0    0  503  502 -0.00000000000E+00 -0.00000000000E+00 -0.27049977111E+03  0.27049977111E+03  0.00000000000E+00 0. -1.
         21    1    1    2  503  506  0.46761524090E+02 -0.38773144078E+02 -0.75277487534E+02  0.96730021019E+02  0.00000000000E+00 0. -1.
         21    1    1    2  504  502  0.42015921346E+02  0.80620238469E+02 -0.10414017086E+03  0.13823941436E+03  0.00000000000E+00 0. -1.
         21    1    1    2  505  501  0.16070163299E+02 -0.25670267900E+02  0.80907897492E+03  0.80964560176E+03  0.00000000000E+00 0. -1.
         21    1    1    2  506  505 -0.10484760873E+03 -0.16176826492E+02 -0.18377595984E+02  0.10766822561E+03  0.00000000000E+00 0.  1.
<scales pt_clust_3="65.01959" pt_clust_4="91.02355" pt_clust_5="30.28552" pt_clust_6="14000.00000"></scales>
<clustering>
<clus scale="   30.286">  1  5  2 -1</clus>
<clus scale="   65.020">  2  3  1 -1</clus>
<clus scale="   91.024">  2  4  1 -1</clus>
<clus scale="   30.286">  1  3  2 -1</clus>
</clustering>
</event>
<event>
 6    0  0.4227619E+002  0.6900915E+02  0.7546771E-02  0.1363495E+00
         21   -1    0    0  504  501  0.00000000000E+00  0.00000000000E+00  0.13995611815E+04  0.13995611815E+04  0.00000000000E+00 0. -1.
         21   -1    0    0  506  502 -0.00000000000E+00 -0.00000000000E+00 -0.11157443727E+03  0.11157443727E+03  0.00000000000E+00 0. -1.
         21    1    1    2  503  502  0.18860661858E+02 -0.53612518662E+02 -0.88221856454E+02  0.10494342609E+03  0.00000000000E+00 0. -1.
         21    1    1    2  504  505 -0.37281483669E+02  0.56941287330E+02  0.80581807350E+03  0.80868719961E+03  0.00000000000E+00 0. -1.
         21    1    1    2  505  503 -0.41929804498E+02 -0.51248995796E+02  0.44805185592E+03  0.45291835210E+03  0.00000000000E+00 0. -1.
         21    1    1    2  506  501  0.60350626308E+02  0.47920227127E+02  0.12233867126E+03  0.14458664098E+03  0.00000000000E+00 0. -1.
<scales pt_clust_3="56.83332" pt_clust_4="62.79322" pt_clust_5="69.00915" pt_clust_6="14000.00000"></scales>
<clustering>
<clus scale="   56.833">  2  3  1 -1</clus>
<clus scale="   62.793">  1  4  2 -1</clus>
<clus scale="   69.009">  1  5  2 -1</clus>
<clus scale="   62.793">  1  3  2 -1</clus>
</clustering>
</event>
<event>
 6    0  0.4227619E+002  0.1010103E+03  0.7546771E-02  0.1278186E+00
         21   -1    0    0  504  501  0.00000000000E+00  0.00000000000E+00  0.66386940491E+03  0.66386940491E+03  0.00000000000E+00 0. -1.
         21   -1    0    0  505  502 -0.00000000000E+00 -0.00000000000E+00 -0.27490940874E+03  0.27490940874E+03  0.00000000000E+00 0.  1.
         21    1    1    2  503  502 -0.78586652252E+02  0.49386445400E+02  0.16760097134E+01  0.92831524333E+02  0.00000000000E+00 0.  1.
         21    1    1    2  504  503  0.26362851439E+02 -0.27854549225E+02  0.36063530166E+03  0.36266885261E+03  0.00000000000E+00 0. -1.
         21    1    1    2  505  506  0.10250603541E+03 -0.19878489297E+02 -0.21363376887E+03  0.23778567836E+03  0.00000000000E+00 0.  1.
         21    1    1    2  506  501 -0.50282234595E+02 -0.16534068773E+01  0.24028245366E+03  0.24549275836E+03  0.00000000000E+00 0. -1.
<scales pt_clust_3="14000.00000" pt_clust_4="38.35200" pt_clust_5="101.01034" pt_clust_6="37.74142"></scales>
<clustering>
<clus scale="   38.352">  1  4  2 -1</clus>
<clus scale="   37.741">  1  6  2 -1</clus>
<clus scale="  101.010">  2  5  1 -1</clus>
<clus scale="   38.352">  1  3  2 -1</clus>
</clustering>
</event>
<event>
 6    0  0.4227619E+002  0.1133886E+03  0.7546771E-02  0.1254420E+00
         21   -1    0    0  505  501  0.00000000000E+00  0.00000000000E+00  0.14203266260E+03  0.14203266260E+03  0.00000000000E+00 0.  1.
         21   -1    0    0  503  502 -0.00000000000E+00 -0.00000000000E+00 -0.53040359149E+03  0.53040359149E+03  0.00000000000E+00 0.  1.
         21    1    1    2  503  506 -0.74001457389E+02 -0.87728584458E+02 -0.42568497486E+03  0.44088571995E+03  0.00000000000E+00 0.  1.
         21    1    1    2  504  502  0.20845282380E+02  0.11595166748E+03 -0.16163643894E+02  0.11891416388E+03  0.00000000000E+00 0.  1.
         21    1    1    2  505  504  0.63691756336E+02  0.13729817676E+00  0.18363259306E+02  0.66286257764E+02  0.00000000000E+00 0.  1.
         21    1    1    2  506  501 -0.10535581328E+02 -0.28360381195E+02  0.35114430562E+02  0.46350112504E+02  0.00000000000E+00 0.  1.
<scales pt_clust_3="113.38858" pt_clust_4="14000.00000" pt_clust_5="60.43557" pt_clust_6="30.25409"></scales>
<clustering>
<clus scale="   30.254">  1  6  2 -1</clus>
<clus scale="   60.436">  1  5  2 -1</clus>
<clus scale="  113.389">  2  3  1 -1</clus>
<clus scale="   30.254">  1  3  2 -1</clus>
</clustering>
</event>
<event>
 6    0  0.4227619E+002  0.1134972E+03  0.7546771E-02  0.1254227E+00
         21   -1    0    0  505  501  0.00000000000E+00  0.00000000000E+00  0.55632472212E+03  0.55632472212E+03  0.00000000000E+00 0.  1.
         21   -1    0    0  506  502 -0.00000000000E+00 -0.00000000000E+00 -0.12700566235E+03  0.12700566235E+03  0.00000000000E+00 0.  1.
         21    1    1    2  503  502 -0.71824780012E+02 -0.11542997035E+03 -0.20794379439E+02  0.13753284442E+03  0.00000000000E+00 0.  1.
         21    1    1    2  504  501  0.31750050876E+02  0.26032799111E+02  0.30197161725E+03  0.30475011072E+03  0.00000000000E+00 0.  1.
         21    1    1    2  505  503 -0.21834491413E+01  0.90696309910E+02  0.17056451197E+03  0.19319120276E+03  0.00000000000E+00 0. -1.
         21    1    1    2  506  504  0.42258178277E+02 -0.12991386695E+01 -0.22422690011E+02  0.47856226553E+02  0.00000000000E+00 0.  1.
<scales pt_clust_3="113.49717" pt_clust_4="41.05816" pt_clust_5="14000.00000" pt_clust_6="43.85429"></scales>
<clustering>
<clus scale="   41.058">  1  4  2 -1</clus>
<clus scale="   43.854">  2  6  1 -1</clus>
<clus scale="  113.497">  2  3  1 -1</clus>
<clus scale="   41.058">  1  3  2 -1</clus>
</clustering>
</event>
<event>
 6    0  0.4227619E+002  0.1113842E+03  0.7546771E-02  0.1258028E+00
         21   -1    0    0  506  501  0.00000000000E+00  0.00000000000E+00  0.18114381770E+03  0.18114381770E+03  0.00000000000E+00 0. -1.
         21   -1    0    0  504  502 -0.00000000000E+00 -0.00000000000E+00 -0.11457051527E+04  0.11457051527E+04  0.00000000000E+00 0.  1.
         21    1    1    2  503  505  0.94953126455E+02  0.92268613486E+01 -0.29970751146E+03  0.31452475835E+03  0.00000000000E+00 0.  1.
         21    1    1    2  504  503  0.31440931355E+02 -0.10593406719E+02 -0.71638630194E+03  0.71715415779E+03  0.00000000000E+00 0.  1.
         21    1    1    2  505  501 -0.23035012906E+02  0.47416717375E+02  0.14124879924E+03  0.15076531495E+03  0.00000000000E+00 0. -1.
         21    1    1    2  506  502 -0.10335904490E+03 -0.46050172004E+02 -0.89716320781E+02  0.14440473926E+03  0.00000000000E+00 0. -1.
<scales pt_clust_3="111.38422" pt_clust_4="33.17759" pt_clust_5="52.45836" pt_clust_6="14000.00000"></scales>
<clustering>
<clus scale="   33.178">  2  4  1 -1</clus>
<clus scale="   52.458">  1  5  2 -1</clus>
<clus scale="  111.384">  2  3  1 -1</clus>
<clus scale="   52.458">  1  3  2 -1</clus>
</clustering>
</event>
<event>
 6    0  0.4227619E+002  0.2480095E+03  0.7546771E-02  0.1114569E+00
         21   -1    0    0  504  501  0.00000000000E+00  0.00000000000E+00  0.12843635545E+03  0.12843635545E+03  0.00000000000E+00 0. -1.
         21   -1    0    0  503  502 -0.00000000000E+00 -0.00000000000E+00 -0.82193161575E+03  0.82193161575E+03  0.00000000000E+00 0. -1.
         21    1    1    2  503  506 -0.11889894527E+03 -0.18482423682E+03 -0.29628532153E+03  0.36889286989E+03  0.00000000000E+00 0. -1.
         21    1    1    2  504  505  0.81424747502E+02  0.70042074395E+02 -0.19478335654E+03  0.22243299592E+03  0.00000000000E+00 0.  1.
         21    1    1    2  505  502  0.15293778983E+03  0.50708108797E+02 -0.13785193484E+03  0.21204819215E+03  0.00000000000E+00 0. -1.
         21    1    1    2  506  501 -0.11546359206E+03  0.64074053632E+02 -0.64574647396E+02  0.14699391323E+03  0.00000000000E+00 0. -1.
<scales pt_clust_3="229.97272" pt_clust_4="75.80826" pt_clust_5="75.80826" pt_clust_6="132.05047"></scales>
<clustering>
<clus scale="   75.808">  4  5 -1 -1</clus>
<clus scale="  132.050">  1  6  2 -1</clus>
<clus scale="  229.973">  2  3  1 -1</clus>
<clus scale="  132.050">  1  3  2 -1</clus>
</clustering>
</event>
<event>
 6    0  0.4227619E+002  0.1004988E+03  0.7546771E-02  0.1279251E+00
         21   -1    0    0  505  501  0.00000000000E+00  0.00000000000E+00  0.12323647540E+04  0.12323647540E+04  0.00000000000E+00 0. -1.
         21   -1    0    0  506  502 -0.00000000000E+00 -0.00000000000E+00 -0.58899284736E+02  0.58899284736E+02  0.00000000000E+00 0. -1.
         21    1    1    2  503  501  0.99722603135E+01  0.41555326017E+02  0.61381336356E+03  0.61529922508E+03  0.00000000000E+00 0. -1.
         21    1    1    2  504  502 -0.10716039316E+03  0.20266078564E+01  0.91579972838E+01  0.10757009768E+03  0.00000000000E+00 0. -1.
         21    1    1    2  505  504  0.45981631680E+02 -0.49438953658E+02  0.45405226017E+03  0.45904463351E+03  0.00000000000E+00 0. -1.
         21    1    1    2  506  503  0.51206501165E+02  0.58570197850E+01  0.96441848297E+02  0.10935008251E+03  0.00000000000E+00 0. -1.
<scales pt_clust_3="42.73513" pt_clust_4="100.49879" pt_clust_5="14000.00000" pt_clust_6="54.38969"></scales>
<clustering>
<clus scale="   42.735">  1  3  2 -1</clus>
<clus scale="   54.390">  1  6  2 -1</clus>
<clus scale="  100.499">  2  4  1 -1</clus>
<clus scale="   42.735">  1  3  2 -1</clus>
</clustering>
</event>
<event>
 6    0  0.4227619E+002  0.7775820E+02  0.7546771E-02  0.1335536E+00
         21   -1    0    0  505  501  0.00000000000E+00  0.00000000000E+00  0.44694507395E+02  0.44694507395E+02  0.00000000000E+00 0. -1.
         21   -1    0    0  503  502 -0.00000000000E+00 -0.00000000000E+00 -0.10579782985E+04  0.10579782985E+04  0.00000000000E+00 0.  1.
         21    1    1    2  503  506  0.26912456652E+02  0.24120524737E+02 -0.37447980015E+03  0.37621961772E+03  0.00000000000E+00 0.  1.
         21    1    1    2  504  502 -0.82150301226E+02 -0.86826505542E+02 -0.59843043867E+03  0.61025118106E+03  0.00000000000E+00 0.  1.
         21    1    1    2  505  504  0.46778445139E+02  0.12519865873E+02  0.41216857818E+01  0.48599982148E+02  0.00000000000E+00 0.  1.
         21    1    1    2  506  501  0.84593994360E+01  0.50186114932E+02 -0.44495238098E+02  0.67602025001E+02  0.00000000000E+00 0. -1.
<scales pt_clust_3="36.13973" pt_clust_4="77.75820" pt_clust_5="49.47788" pt_clust_6="14000.00000"></scales>
<clustering>
<clus scale="   36.140">  2  3  1 -1</clus>
<clus scale="   49.478">  1  5  2 -1</clus>
<clus scale="   77.758">  2  4  1 -1</clus>
<clus scale="   49.478">  1  3  2 -1</clus>
</clustering>
</event>
<event>
 6    0  0.4227619E+002  0.6996348E+02  0.7546771E-02  0.1360217E+00
         21   -1    0    0  503  501  0.00000000000E+00  0.00000000000E+00  0.23155625020E+03  0.23155625020E+03  0.00000000000E+00 0. -1.
         21   -1    0    0  504  502 -0.00000000000E+00 -0.00000000000E+00 -0.71232376250E+03  0.71232376250E+03  0.00000000000E+00 0. -1.
         21    1    1    2  503  502  0.20369447133E+02  0.70327143330E+02 -0.12221290245E+03  0.14246689086E+03  0.00000000000E+00 0.  1.
         21    1    1    2  504  505  0.35997993540E+02  0.23061588394E+01 -0.50318521018E+03  0.50447649069E+03  0.00000000000E+00 0. -1.
         21    1    1    2  505  506 -0.73869485942E+02 -0.45838195519E+01 -0.50461421559E+02  0.89577159035E+02  0.00000000000E+00 0.  1.
         21    1    1    2  506  501  0.17502045270E+02 -0.68049482617E+02  0.19509202189E+03  0.20735947212E+03  0.00000000000E+00 0. -1.
<scales pt_clust_3="69.96348" pt_clust_4="36.07179" pt_clust_5="61.89742" pt_clust_6="14000.00000"></scales>
<clustering>
<clus scale="   36.072">  2  4  1 -1</clus>
<clus scale="   61.897">  2  5  1 -1</clus>
<clus scale="   69.963">  2  3  1 -1</clus>
<clus scale="   69.963">  1  3  2 -1</clus>
</clustering>
</event>
<event>
 6    0  0.4227619E+002  0.8890032E+02  0.7546771E-02  0.1305537E+00
         21   -1    0    0  506  501  0.00000000000E+00  0.00000000000E+00  0.14365696194E+03  0.14365696194E+03  0.00000000000E+00 0. -1.
         21   -1    0    0  504  502 -0.00000000000E+00 -0.00000000000E+00 -0.99077628787E+03  0.99077628787E+03  0.00000000000E+00 0.  1.
         21    1    1    2  503  501  0.52709005029E+02 -0.37945266919E+02  0.71159192225E+02  0.96341647956E+02  0.00000000000E+00 0. -1.
         21    1    1    2  504  503 -0.85689461675E+02 -0.27602140495E+02 -0.84485996304E+03  0.84964281858E+03  0.00000000000E+00 0.  1.
         21    1    1    2  505  502  0.42702118276E+02  0.10461259613E+03 -0.90451691352E+02  0.14473691527E+03  0.00000000000E+00 0. -1.
         21    1    1    2  506  505 -0.97216616301E+01 -0.39065188710E+02  0.17033136241E+02  0.43711868000E+02  0.00000000000E+00 0. -1.
<scales pt_clust_3="80.85752" pt_clust_4="88.90032" pt_clust_5="14000.00000" pt_clust_6="40.25667"></scales>
<clustering>
<clus scale="   40.257">  1  6  2 -1</clus>
<clus scale="   80.858">  1  3  2 -1</clus>
<clus scale="   88.900">  2  4  1 -1</clus>
<clus scale="   40.257">  1  3  2 -1</clus>
</clustering>
</event>
<event>
 6    0  0.4227619E+002  0.8980459E+02  0.7546771E-02  0.1303326E+00
         21   -1    0    0  506  501  0.00000000000E+00  0.00000000000E+00  0.12315562192E+04  0.12315562192E+04  0.00000000000E+00 0.  1.
         21   -1    0    0  503  502 -0.00000000000E+00 -0.00000000000E+00 -0.38528923935E+02  0.38528923935E+02  0.00000000000E+00 0.  1.
         21    1    1    2  503  504  0.70208786061E+02 -0.11799285142E+02  0.74853652664E+02  0.10330327239E+03  0.00000000000E+00 0.  1.
         21    1    1    2  504  505  0.33223313788E+02 -0.40274976629E+02  0.31614116212E+03  0.32042330862E+03  0.00000000000E+00 0.  1.
         21    1    1    2  505  501  0.24906944165E+02 -0.22342022572E+02  0.56982424428E+03  0.57080573859E+03  0.00000000000E+00 0.  1.
         21    1    1    2  506  502 -0.12833904401E+03  0.74416284343E+02  0.23220823620E+03  0.27555282352E+03  0.00000000000E+00 0.  1.
<scales pt_clust_3="89.80459" pt_clust_4="68.17695" pt_clust_5="33.45926" pt_clust_6="14000.00000"></scales>
<clustering>
<clus scale="   33.459">  1  5  2 -1</clus>
<clus scale="   68.177">  1  4  2 -1</clus>
<clus scale="   89.805">  2  3  1 -1</clus>
<clus scale="   33.459">  1  3  2 -1</clus>
</clustering>
</event>
<event>
 6    0  0.4227619E+002  0.8749266E+02  0.7546771E-02  0.1309040E+00
         21   -1    0    0  506  501  0.00000000000E+00  0.00000000000E+00  0.72141926800E+03  0.72141926800E+03  0.00000000000E+00 0.  1.
         21   -1    0    0  503  502 -0.00000000000E+00 -0.00000000000E+00 -0.31077807019E+03  0.31077807019E+03  0.00000000000E+00 0. -1.
         21    1    1    2  503  501  0.65861695893E+02  0.42937274311E+02 -0.23040371538E+03  0.24344864874E+03  0.00000000000E+00 0. -1.
         21    1    1    2  504  502 -0.50550825441E+02  0.56499813653E+02 -0.43991507924E+02  0.87651968973E+02  0.00000000000E+00 0. -1.
         21    1    1    2  505  504 -0.22269247781E+02 -0.50398585388E+02  0.10174721195E+03  0.11570839185E+03  0.00000000000E+00 0. -1.
         21    1    1    2  506  505  0.69583773290E+01 -0.49038502575E+02  0.58328920917E+03  0.58538832862E+03  0.00000000000E+00 0.  1.
<scales pt_clust_3="87.49266" pt_clust_4="69.39260" pt_clust_5="14000.00000" pt_clust_6="49.52973"></scales>
<clustering>
<clus scale="   49.530">  1  6  2 -1</clus>
<clus scale="   69.393">  2  4  1 -1</clus>
<clus scale="   87.493">  2  3  1 -1</clus>
<clus scale="   49.530">  1  3  2 -1</clus>
</clustering>
</event>
<event>
 6    0  0.4227619E+002  0.2100270E+03  0.7546771E-02  0.1141545E+00
         21   -1    0    0  503  501  0.00000000000E+00  0.00000000000E+00  0.20677238861E+04  0.20677238861E+04  0.00000000000E+00 0.  1.
         21   -1    0    0  504  502 -0.00000000000E+00 -0.00000000000E+00 -0.11188783275E+04  0.11188783275E+04  0.00000000000E+00 0. -1.
         21    1    1    2  503  505 -0.83634075560E+02 -0.32134122663E+02  0.13540523632E+04  0.13570132876E+04  0.00000000000E+00 0.  1.
         21    1    1    2  504  501  0.36743611187E+02  0.17576837574E+02 -0.10288740044E+04  0.10296799284E+04  0.00000000000E+00 0. -1.
         21    1    1    2  505  506 -0.84043248751E+02 -0.60365117473E+02  0.63987400780E+03  0.64818667136E+03  0.00000000000E+00 0.  1.
         21    1    1    2  506  502  0.13093371312E+03  0.74922402562E+02 -0.16206807983E+02  0.15172232619E+03  0.00000000000E+00 0.  1.
<scales pt_clust_3="85.80175" pt_clust_4="40.73129" pt_clust_5="85.80175" pt_clust_6="188.94077"></scales>
<clustering>
<clus scale="   40.731">  2  4  1 -1</clus>
<clus scale="   85.802">  3  5 -1 -1</clus>
<clus scale="  188.941">  2  6  1 -1</clus>
<clus scale="  210.027">  1  3  2 -1</clus>
</clustering>
</event>
<event>
 6    0  0.4227619E+002  0.1938724E+03  0.7546771E-02  0.1155014E+00
         21   -1    0    0  505  501  0.00000000000E+00  0.00000000000E+00  0.15391198845E+04  0.15391198845E+04  0.00000000000E+00 0.  1.
         21   -1    0    0  503  502 -0.00000000000E+00 -0.00000000000E+00 -0.23766362570E+03  0.23766362570E+03  0.00000000000E+00 0.  1.
         21    1    1    2  503  506  0.93807485877E+00  0.44793610940E+02 -0.44688540831E+02  0.63280433367E+02  0.00000000000E+00 0.  1.
         21    1    1    2  504  502  0.17786891225E+03 -0.12329003551E+03 -0.10625548159E+03  0.24109751175E+03  0.00000000000E+00 0.  1.
         21    1    1    2  505  504 -0.16372755734E+03  0.40614863333E+02  0.74622716136E+03  0.76505637473E+03  0.00000000000E+00 0.  1.
         21    1    1    2  506  501 -0.15079429770E+02  0.37881561235E+02  0.70617311991E+03  0.70734919041E+03  0.00000000000E+00 0.  1.
<scales pt_clust_3="45.22323" pt_clust_4="193.87239" pt_clust_5="14000.00000" pt_clust_6="40.77256"></scales>
<clustering>
<clus scale="   40.773">  1  6  2 -1</clus>
<clus scale="   45.223">  2  3  1 -1</clus>
<clus scale="  193.872">  2  4  1 -1</clus>
<clus scale="   40.773">  1  3  2 -1</clus>
</clustering>
</event>
<event>
 6    0  0.4227619E+002  0.2117682E+03  0.7546771E-02  0.1140173E+00
         21   -1    0    0  506  501  0.00000000000E+00  0.00000000000E+00  0.65037544684E+02  0.65037544684E+02  0.00000000000E+00 0. -1.
         21   -1    0    0  504  502 -0.00000000000E+00 -0.00000000000E+00 -0.14450272611E+04  0.14450272611E+04  0.00000000000E+00 0. -1.
         21    1    1    2  503  502  0.69525866901E+02  0.15212327659E+02 -0.16671510158E+03  0.18127102961E+03  0.00000000000E+00 0. -1.
         21    1    1    2  504  505 -0.65440517504E+02 -0.21363492111E+03 -0.75695896555E+03  0.78924597964E+03  0.00000000000E+00 0. -1.
         21    1    1    2  505  501  0.59449542561E+02  0.18695934567E+03 -0.42435398930E+03  0.46750866653E+03  0.00000000000E+00 0. -1.
         21    1    1    2  506  503 -0.63534891958E+02  0.11463247775E+02 -0.31961660014E+02  0.72039130037E+02  0.00000000000E+00 0. -1.
<scales pt_clust_3="61.65886" pt_clust_4="211.76822" pt_clust_5="14000.00000" pt_clust_6="64.56074"></scales>
<clustering>
<clus scale="   64.561">  1  6  2 -1</clus>
<clus scale="   61.659">  1  3  2 -1</clus>
<clus scale="  211.768">  2  4  1 -1</clus>
<clus scale="   64.561">  1  3  2 -1</clus>
</clustering>
</event>
<event>
 6    0  0.4227619E+002  0.8383244E+02  0.7546771E-02  0.1318514E+00
         21   -1    0    0  505  501  0.00000000000E+00  0.00000000000E+00  0.18607394395E+03  0.18607394395E+03  0.00000000000E+00 0. -1.
         21   -1    0    0  504  502 -0.00000000000E+00 -0.00000000000E+00 -0.64794234890E+03  0.64794234890E+03  0.00000000000E+00 0.  1.
         21    1    1    2  503  501  0.68601050888E+02 -0.38262892363E+02  0.11190240308E+03  0.13671978983E+03  0.00000000000E+00 0. -1.
         21    1    1    2  504  506 -0.65506414330E+01 -0.46305645788E+02 -0.42012997057E+03  0.42272487022E+03  0.00000000000E+00 0.  1.
         21    1    1    2  505  502 -0.12805274222E+03  0.89874181048E+02 -0.13264122380E+03  0.20510623457E+03  0.00000000000E+00 0.  1.
         21    1    1    2  506  503  0.66002332764E+02 -0.53056428979E+01 -0.20999613667E+02  0.69465398229E+02  0.00000000000E+00 0. -1.
<scales pt_clust_3="83.83244" pt_clust_4="46.76669" pt_clust_5="14000.00000" pt_clust_6="66.31076"></scales>
<clustering>
<clus scale="   46.767">  2  4  1 -1</clus>
<clus scale="   66.311">  2  6  1 -1</clus>
<clus scale="   83.832">  1  3  2 -1</clus>
<clus scale="   83.832">  1  3  2 -1</clus>
</clustering>
</event>
<event>
 6    0  0.4227619E+002  0.1258653E+03  0.7546771E-02  0.1233723E+00
         21   -1    0    0  503  501  0.00000000000E+00  0.00000000000E+00  0.12334231805E+03  0.12334231805E+03  0.00000000000E+00 0. -1.
         21   -1    0    0  506  502 -0.00000000000E+00 -0.00000000000E+00 -0.86813575410E+03  0.86813575410E+03  0.00000000000E+00 0. -1.
         21    1    1    2  503  504 -0.14648640190E+03  0.97211623412E+02 -0.61656029289E+02  0.18630574767E+03  0.00000000000E+00 0. -1.
         21    1    1    2  504  502  0.13518999068E+03 -0.43922620425E+02 -0.56840834406E+03  0.58591260079E+03  0.00000000000E+00 0. -1.
         21    1    1    2  505  501  0.34247841285E+02 -0.74067286735E+02  0.17497688836E+02  0.83456855389E+02  0.00000000000E+00 0.  1.
         21    1    1    2  506  505 -0.22951430060E+02  0.20778283748E+02 -0.13222675153E+03  0.13580286830E+03  0.00000000000E+00 0. -1.
<scales pt_clust_3="14000.00000" pt_clust_4="125.86528" pt_clust_5="80.32380" pt_clust_6="30.95974"></scales>
<clustering>
<clus scale="   30.960">  2  6  1 -1</clus>
<clus scale="   80.324">  1  5  2 -1</clus>
<clus scale="  125.865">  2  4  1 -1</clus>
<clus scale="   80.324">  1  3  2 -1</clus>
</clustering>
</event>
<event>
 6    0  0.4227619E+002  0.9051882E+02  0.7546771E-02  0.1301600E+00
         21   -1    0    0  504  501  0.00000000000E+00  0.00000000000E+00  0.75062290840E+03  0.75062290840E+03  0.00000000000E+00 0. -1.
         21   -1    0    0  505  502 -0.00000000000E+00 -0.00000000000E+00 -0.52837078438E+03  0.52837078438E+03  0.00000000000E+00 0. -1.
         21    1    1    2  503  506  0.71628738382E+02  0.48304709261E+00  0.50852585748E+02  0.87845859173E+02  0.00000000000E+00 0. -1.
         21    1    1    2  504  503 -0.62475257520E+02  0.45970688173E+02  0.59290961172E+03  0.59796176269E+03  0.00000000000E+00 0. -1.
         21    1    1    2  505  501 -0.48649789062E+02 -0.38821357328E+02 -0.50059963566E+03  0.50445405637E+03  0.00000000000E+00 0. -1.
         21    1    1    2  506  502  0.39496308200E+02 -0.76323779369E+01  0.79089562219E+02  0.88732014551E+02  0.00000000000E+00 0. -1.
<scales pt_clust_3="32.62141" pt_clust_4="79.36474" pt_clust_5="62.24066" pt_clust_6="32.62141"></scales>
<clustering>
<clus scale="   32.621">  3  6 -1 -1</clus>
<clus scale="   62.241">  2  5  1 -1</clus>
<clus scale="   79.365">  1  4  2 -1</clus>
<clus scale="   79.365">  1  3  2 -1</clus>
</clustering>
</event>
<event>
 6    0  0.4227619E+002  0.5399448E+03  0.7546771E-02  0.1003848E+00
         21   -1    0    0  503  501  0.00000000000E+00  0.00000000000E+00  0.13763702845E+04  0.13763702845E+04  0.00000000000E+00 0. -1.
         21   -1    0    0  501  502 -0.00000000000E+00 -0.00000000000E+00 -0.73360874451E+03  0.73360874451E+03  0.00000000000E+00 0. -1.
         21    1    1    2  503  505 -0.33218381114E+02  0.32773076147E+02  0.26636335006E+03  0.27041998746E+03  0.00000000000E+00 0. -1.
         21    1    1    2  504  506  0.39596428057E+03 -0.35724543113E+03 -0.30354150838E+03  0.61363625777E+03  0.00000000000E+00 0. -1.
         21    1    1    2  505  504 -0.41867822675E+03  0.28014322192E+03  0.87973789253E+03  0.10137605447E+04  0.00000000000E+00 0. -1.
         21    1    1    2  506  502  0.55932327298E+02  0.44329133054E+02 -0.19979819425E+03  0.21216223910E+03  0.00000000000E+00 0. -1.
<scales pt_clust_3="46.66407" pt_clust_4="539.94482" pt_clust_5="14000.00000" pt_clust_6="71.33753"></scales>
<clustering>
<clus scale="   46.664">  1  3  2 -1</clus>
<clus scale="   71.338">  2  6  1 -1</clus>
<clus scale="  539.945">  2  4  1 -1</clus>
<clus scale="   46.664">  1  3  2 -1</clus>
</clustering>
</event>
<event>
 6    0  0.4227619E+002  0.8368376E+02  0.7546771E-02  0.1318911E+00
         21   -1    0    0  504  501  0.00000000000E+00  0.00000000000E+00  0.34422176745E+03  0.34422176745E+03  0.00000000000E+00 0. -1.
         21   -1    0    0  503  502 -0.00000000000E+00 -0.00000000000E+00 -0.33183048824E+03  0.33183048824E+03  0.00000000000E+00 0. -1.
         21    1    1    2  503  506  0.14129090672E+02  0.85866518896E+02 -0.25248773136E+03  0.26706318495E+03  0.00000000000E+00 0. -1.
         21    1    1    2  504  502  0.65120895241E+02 -0.17585636787E+02  0.24542872600E+02  0.71779789729E+02  0.00000000000E+00 0. -1.
         21    1    1    2  505  501 -0.39202143937E+02 -0.49565445348E+01  0.25735878532E+03  0.26037457596E+03  0.00000000000E+00 0. -1.
         21    1    1    2  506  505 -0.40047841976E+02 -0.63324337574E+02 -0.17022647355E+02  0.76834705044E+02  0.00000000000E+00 0. -1.
<scales pt_clust_3="14000.00000" pt_clust_4="47.58723" pt_clust_5="39.51424" pt_clust_6="83.68376"></scales>
<clustering>
<clus scale="   39.514">  1  5  2 -1</clus>
<clus scale="   47.587">  1  4  2 -1</clus>
<clus scale="   83.684">  1  6  2 -1</clus>
<clus scale="   39.514">  1  3  2 -1</clus>
</clustering>
</event>
<event>
 6    0  0.4227619E+002  0.9543806E+02  0.7546771E-02  0.1290193E+00
         21   -1    0    0  506  501  0.00000000000E+00  0.00000000000E+00  0.88472994269E+02  0.88472994269E+02  0.00000000000E+00 0.  1.
         21   -1    0    0  505  502 -0.00000000000E+00 -0.00000000000E+00 -0.80590283685E+03  0.80590283685E+03  0.00000000000E+00 0.  1.
         21    1    1    2  503  504 -0.74130709328E+02  0.35722417063E+02 -0.51898464756E+02  0.97287737101E+02  0.00000000000E+00 0.  1.
         21    1    1    2  504  501 -0.23118006241E+02  0.29548907157E+02  0.12562573336E+02  0.39565115639E+02  0.00000000000E+00 0. -1.
         21    1    1    2  505  503 -0.13725738440E+02 -0.28810618695E+02 -0.63063091042E+03  0.63143787725E+03  0.00000000000E+00 0.  1.
         21    1    1    2  506  502  0.11097445401E+03 -0.36460705525E+02 -0.47463040734E+02  0.12608510113E+03  0.00000000000E+00 0.  1.
<scales pt_clust_3="14000.00000" pt_clust_4="36.48549" pt_clust_5="31.91313" pt_clust_6="95.43806"></scales>
<clustering>
<clus scale="   31.913">  2  5  1 -1</clus>
<clus scale="   36.485">  1  4  2 -1</clus>
<clus scale="   95.438">  1  6  2 -1</clus>
<clus scale="   36.485">  1  3  2 -1</clus>
</clustering>
</event>
<event>
 6    0  0.4227619E+002  0.1013454E+03  0.7546771E-02  0.1277492E+00
         21   -1    0    0  505  501  0.00000000000E+00  0.00000000000E+00  0.21083621865E+04  0.21083621865E+04  0.00000000000E+00 0. -1.
         21   -1    0    0  503  502 -0.00000000000E+00 -0.00000000000E+00 -0.15153794758E+03  0.15153794758E+03  0.00000000000E+00 0. -1.
         21    1    1    2  503  506  0.43678312026E+01 -0.61911141396E+02  0.21869323347E+01  0.62103542986E+02  0.00000000000E+00 0. -1.
         21    1    1    2  504  502  0.88186092066E+02  0.11430036729E+02 -0.83591294960E+02  0.12204481622E+03  0.00000000000E+00 0. -1.
         21    1    1    2  505  504 -0.81326795391E+02 -0.65179816002E+02  0.18604289215E+04  0.18633459765E+04  0.00000000000E+00 0. -1.
         21    1    1    2  506  501 -0.11227127877E+02  0.11566092067E+03  0.17779968003E+03  0.21240579838E+03  0.00000000000E+00 0.  1.
<scales pt_clust_3="62.06503" pt_clust_4="100.58309" pt_clust_5="14000.00000" pt_clust_6="101.34542"></scales>
<clustering>
<clus scale="   62.065">  2  3  1 -1</clus>
<clus scale="  100.583">  2  4  1 -1</clus>
<clus scale="  101.345">  2  6  1 -1</clus>
<clus scale="  101.345">  1  3  2 -1</clus>
</clustering>
</event>
<event>
 6    0  0.4227619E+002  0.9867046E+02  0.7546771E-02  0.1283117E+00
         21   -1    0    0  503  501  0.00000000000E+00  0.00000000000E+00  0.62122011693E+02  0.62122011693E+02  0.00000000000E+00 0.  1.
         21   -1    0    0  504  502 -0.00000000000E+00 -0.00000000000E+00 -0.11112266798E+04  0.11112266798E+04  0.00000000000E+00 0. -1.
         21    1    1    2  503  506  0.52307720064E+02 -0.50279416528E+02  0.20404142986E+01  0.72582922201E+02  0.00000000000E+00 0.  1.
         21    1    1    2  504  505 -0.19516704902E+02 -0.25130828987E+02 -0.79246748588E+03  0.79310603107E+03  0.00000000000E+00 0. -1.
         21    1    1    2  505  501  0.49021150100E+02  0.59870829374E+01 -0.38115818482E+02  0.62383763415E+02  0.00000000000E+00 0.  1.
         21    1    1    2  506  502 -0.81812165262E+02  0.69423162578E+02 -0.22056177808E+03  0.24527597484E+03  0.00000000000E+00 0. -1.
<scales pt_clust_3="98.67046" pt_clust_4="31.81918" pt_clust_5="45.98587" pt_clust_6="14000.00000"></scales>
<clustering>
<clus scale="   31.819">  2  4  1 -1</clus>
<clus scale="   45.986">  1  5  2 -1</clus>
<clus scale="   98.670">  1  3  2 -1</clus>
<clus scale="   45.986">  1  3  2 -1</clus>
</clustering>
</event>
<event>
 6    0  0.4227619E+002  0.1722259E+03  0.7546771E-02  0.1175546E+00
         21   -1    0    0  505  501  0.00000000000E+00  0.00000000000E+00  0.59460278458E+02  0.59460278458E+02  0.00000000000E+00 0. -1.
         21   -1    0    0  503  502 -0.00000000000E+00 -0.00000000000E+00 -0.11332056134E+04  0.11332056134E+04  0.00000000000E+00 0. -1.
         21    1    1    2  503  504 -0.77529167794E+02  0.87354064361E+02 -0.47769343669E+03  0.49176470377E+03  0.00000000000E+00 0. -1.
         21    1    1    2  504  501  0.19734137434E+03  0.13485257019E+01 -0.39487205338E+03  0.44144011495E+03  0.00000000000E+00 0. -1.
         21    1    1    2  505  506 -0.71560879837E+02 -0.86525195489E+02 -0.11536096747E+03  0.16098360722E+03  0.00000000000E+00 0. -1.
         21    1    1    2  506  502 -0.48251326705E+02 -0.21773945730E+01 -0.85818877434E+02  0.98477465950E+02  0.00000000000E+00 0. -1.
<scales pt_clust_3="116.79685" pt_clust_4="158.23453" pt_clust_5="44.59724" pt_clust_6="44.59724"></scales>
<clustering>
<clus scale="   44.597">  5  6 -1 -1</clus>
<clus scale="  116.797">  2  3  1 -1</clus>
<clus scale="  158.235">  2  4  1 -1</clus>
<clus scale="  172.226">  1  3  2 -1</clus>
</clustering>
</event>
<event>
 6    0  0.4227619E+002  0.7674618E+02  0.7546771E-02  0.1338547E+00
         21   -1    0    0  505  501  0.00000000000E+00  0.00000000000E+00  0.15448711049E+04  0.15448711049E+04  0.00000000000E+00 0. -1.
         21   -1    0    0  504  502 -0.00000000000E+00 -0.00000000000E+00 -0.27354970513E+03  0.27354970513E+03  0.00000000000E+00 0. -1.
         21    1    1    2  503  501 -0.42280412845E+02  0.18542626753E+02  0.45143504233E+03  0.45378966467E+03  0.00000000000E+00 0. -1.
         21    1    1    2  504  503 -0.91645203210E+02  0.69771589493E+02 -0.23923179829E+03  0.26551604713E+03  0.00000000000E+00 0. -1.
         21    1    1    2  505  506  0.11333155820E+03 -0.39341986703E+02  0.10329513046E+04  0.10398943368E+04  0.00000000000E+00 0. -1.
         21    1    1    2  506  502  0.20594057858E+02 -0.48972229542E+02  0.26166851086E+02  0.59220761403E+02  0.00000000000E+00 0. -1.
<scales pt_clust_3="46.16776" pt_clust_4="76.74618" pt_clust_5="14000.00000" pt_clust_6="51.83235"></scales>
<clustering>
<clus scale="   46.168">  1  3  2 -1</clus>
<clus scale="   51.832">  2  6  1 -1</clus>
<clus scale="   76.746">  2  4  1 -1</clus>
<clus scale="   46.168">  1  3  2 -1</clus>
</clustering>
</event>
<event>
 6    0  0.4227619E+002  0.2661139E+03  0.7546771E-02  0.1103525E+00
         21   -1    0    0  506  501  0.00000000000E+00  0.00000000000E+00  0.81642080504E+03  0.81642080504E+03  0.00000000000E+00 0.  1.
         21   -1    0    0  505  502 -0.00000000000E+00 -0.00000000000E+00 -0.68477307598E+03  0.68477307598E+03  0.00000000000E+00 0.  1.
         21    1    1    2  503  502 -0.29614791434E+03  0.14534547435E+03 -0.23678711609E+03  0.40607515613E+03  0.00000000000E+00 0.  1.
         21    1    1    2  504  501  0.26030923387E+03 -0.46486056405E+02  0.63092745263E+03  0.68409889721E+03  0.00000000000E+00 0.  1.
         21    1    1    2  505  504  0.53922493858E+02 -0.52632482238E+02 -0.32361995961E+03  0.33227652910E+03  0.00000000000E+00 0.  1.
         21    1    1    2  506  503 -0.18083813393E+02 -0.46226935710E+02  0.61127352131E+02  0.78743298575E+02  0.00000000000E+00 0. -1.
<scales pt_clust_3="14000.00000" pt_clust_4="266.11386" pt_clust_5="75.46392" pt_clust_6="49.63823"></scales>
<clustering>
<clus scale="   49.638">  1  6  2 -1</clus>
<clus scale="   75.464">  2  5  1 -1</clus>
<clus scale="  266.114">  1  4  2 -1</clus>
<clus scale="   49.638">  1  3  2 -1</clus>
</clustering>
</event>
<event>
 6    0  0.4227619E+002  0.6439144E+02  0.7546771E-02  0.1380275E+00
         21   -1    0    0  503  501  0.00000000000E+00  0.00000000000E+00  0.17902690625E+03  0.17902690625E+03  0.00000000000E+00 0. -1.
         21   -1    0    0  504  502 -0.00000000000E+00 -0.00000000000E+00 -0.14357356030E+04  0.14357356030E+04  0.00000000000E+00 0.  1.
         21    1    1    2  503  505 -0.71607412966E+02  0.20841815169E+02  0.89935452022E+02  0.11683487656E+03  0.00000000000E+00 0. -1.
         21    1    1    2  504  506 -0.72810033148E+01 -0.29631674786E+02 -0.65082862110E+03  0.65154350830E+03  0.00000000000E+00 0.  1.
         21    1    1    2  505  502  0.50288164897E+02  0.68036929294E+02 -0.75389438304E+03  0.75862682794E+03  0.00000000000E+00 0.  1.
         21    1    1    2  506  501  0.28600251383E+02 -0.59247069676E+02  0.58078855360E+02  0.87757296474E+02  0.00000000000E+00 0. -1.
<scales pt_clust_3="14000.00000" pt_clust_4="30.51310" pt_clust_5="58.56996" pt_clust_6="64.39144"></scales>
<clustering>
<clus scale="   30.513">  2  4  1 -1</clus>
<clus scale="   58.570">  2  5  1 -1</clus>
<clus scale="   64.391">  2  6  1 -1</clus>
<clus scale="   64.391">  1  3  2 -1</clus>
</clustering>
</event>
<event>
 6    0  0.4227619E+002  0.1414397E+03  0.7546771E-02  0.1211405E+00
         21   -1    0    0  506  501  0.00000000000E+00  0.00000000000E+00  0.63829648339E+03  0.63829648339E+03  0.00000000000E+00 0.  1.
         21   -1    0    0  505  502 -0.00000000000E+00 -0.00000000000E+00 -0.34192044643E+04  0.34192044643E+04  0.00000000000E+00 0. -1.
         21    1    1    2  503  501 -0.12041846259E+03 -0.37575341558E+02  0.34073957691E+03  0.36334002215E+03  0.00000000000E+00 0.  1.
         21    1    1    2  504  502 -0.18176651484E+02  0.32131168796E+02 -0.95483872744E+00  0.36928503685E+02  0.00000000000E+00 0. -1.
         21    1    1    2  505  503  0.13813544356E+03 -0.31015890821E+02 -0.33862375772E+04  0.33891958214E+04  0.00000000000E+00 0. -1.
         21    1    1    2  506  504  0.45967051460E+00  0.36460063583E+02  0.26554485812E+03  0.26803660050E+03  0.00000000000E+00 0.  1.
<scales pt_clust_3="14000.00000" pt_clust_4="38.45191" pt_clust_5="141.43971" pt_clust_6="36.46296"></scales>
<clustering>
<clus scale="   36.463">  1  6  2 -1</clus>
<clus scale="   38.452">  1  4  2 -1</clus>
<clus scale="  141.440">  2  5  1 -1</clus>
<clus scale="   36.463">  1  3  2 -1</clus>
</clustering>
</event>
<event>
 6    0  0.4227619E+002  0.1546170E+03  0.7546771E-02  0.1194912E+00
         21   -1    0    0  504  501  0.00000000000E+00  0.00000000000E+00  0.28000652743E+03  0.28000652743E+03  0.00000000000E+00 0. -1.
         21   -1    0    0  501  502 -0.00000000000E+00 -0.00000000000E+00 -0.22309736979E+03  0.22309736979E+03  0.00000000000E+00 0. -1.
         21    1    1    2  503  505  0.89183162528E+02 -0.43876798819E+01  0.75155104299E+02  0.11670980214E+03  0.00000000000E+00 0. -1.
         21    1    1    2  504  503  0.63650396258E+02  0.17851781790E+02  0.13383394478E+03  0.14927017061E+03  0.00000000000E+00 0. -1.
         21    1    1    2  505  506 -0.10565995941E+03  0.35394934012E+02 -0.74627973628E+02  0.13411250062E+03  0.00000000000E+00 0. -1.
         21    1    1    2  506  502 -0.47173599378E+02 -0.48859035921E+02 -0.77451917819E+02  0.10301142385E+03  0.00000000000E+00 0. -1.
<scales pt_clust_3="51.11840" pt_clust_4="51.11840" pt_clust_5="142.74755" pt_clust_6="67.91579"></scales>
<clustering>
<clus scale="   51.118">  3  4 -1 -1</clus>
<clus scale="   67.916">  2  6  1 -1</clus>
<clus scale="  142.748">  2  5  1 -1</clus>
<clus scale="  154.617">  1  3  2 -1</clus>
</clustering>
</event>
<event>
 6    0  0.4227619E+002  0.1092105E+03  0.7546771E-02  0.1262039E+00
         21   -1    0    0  503  501  0.00000000000E+00  0.00000000000E+00  0.69238705563E+03  0.69238705563E+03  0.00000000000E+00 0.  1.
         21   -1    0    0  506  502 -0.00000000000E+00 -0.00000000000E+00 -0.88868771374E+02  0.88868771374E+02  0.00000000000E+00 0.  1.
         21    1    1    2  503  505 -0.12771287128E+03 -0.87808121906E+02  0.13582949157E+03  0.20608370761E+03  0.00000000000E+00 0.  1.
         21    1    1    2  504  501  0.10229602184E+03  0.15991975085E+02  0.44487800281E+03  0.45676761787E+03  0.00000000000E+00 0.  1.
         21    1    1    2  505  502 -0.26572491195E+02  0.26462075046E+02 -0.14215242037E+02  0.40105009790E+02  0.00000000000E+00 0.  1.
         21    1    1    2  506  504  0.51989340636E+02  0.45354071775E+02  0.37026031906E+02  0.78299491729E+02  0.00000000000E+00 0.  1.
<scales pt_clust_3="109.21052" pt_clust_4="14000.00000" pt_clust_5="37.50118" pt_clust_6="69.25235"></scales>
<clustering>
<clus scale="   37.501">  2  5  1 -1</clus>
<clus scale="   69.252">  2  6  1 -1</clus>
<clus scale="  109.211">  2  3  1 -1</clus>
<clus scale="  109.211">  1  3  2 -1</clus>
</clustering>
</event>
<event>
 6    0  0.4227619E+002  0.1237567E+03  0.7546771E-02  0.1237025E+00
         21   -1    0    0  505  501  0.00000000000E+00  0.00000000000E+00  0.13022745587E+03  0.13022745587E+03  0.00000000000E+00 0.  1.
         21   -1    0    0  504  502 -0.00000000000E+00 -0.00000000000E+00 -0.19558585849E+04  0.19558585849E+04  0.00000000000E+00 0. -1.
         21    1    1    2  503  506  0.62355347763E+02  0.13966743511E+03 -0.17402969759E+02  0.15394169410E+03  0.00000000000E+00 0.  1.
         21    1    1    2  504  503  0.64157270435E+02 -0.39498743507E+02 -0.49308471057E+03  0.49880741563E+03  0.00000000000E+00 0.  1.
         21    1    1    2  505  502 -0.77374965920E+02 -0.83539320782E+02 -0.13599993338E+04  0.13647578142E+04  0.00000000000E+00 0. -1.
         21    1    1    2  506  501 -0.49137652277E+02 -0.16629370825E+02  0.44855885075E+02  0.68579116874E+02  0.00000000000E+00 0.  1.
<scales pt_clust_3="123.75667" pt_clust_4="74.06818" pt_clust_5="14000.00000" pt_clust_6="51.87528"></scales>
<clustering>
<clus scale="   51.875">  1  6  2 -1</clus>
<clus scale="   74.068">  2  4  1 -1</clus>
<clus scale="  123.757">  1  3  2 -1</clus>
<clus scale="   51.875">  1  3  2 -1</clus>
</clustering>
</event>
<event>
 6    0  0.4227619E+002  0.1016594E+03  0.7546771E-02  0.1276845E+00
         21   -1    0    0  505  501  0.00000000000E+00  0.00000000000E+00  0.10242219710E+04  0.10242219710E+04  0.00000000000E+00 0.  1.
         21   -1    0    0  506  502 -0.00000000000E+00 -0.00000000000E+00 -0.38658702152E+02  0.38658702152E+02  0.00000000000E+00 0.  1.
         21    1    1    2  503  502  0.15562399774E+03  0.47100299460E+02  0.42664486457E+03  0.45657760276E+03  0.00000000000E+00 0.  1.
         21    1    1    2  504  501 -0.72575679396E+02  0.31015640499E+02  0.94195237932E+02  0.12288995909E+03  0.00000000000E+00 0.  1.
         21    1    1    2  505  503 -0.70633946394E+02 -0.48038809310E+02  0.41695742425E+03  0.42561763970E+03  0.00000000000E+00 0.  1.
         21    1    1    2  506  504 -0.12414371954E+02 -0.30077130649E+02  0.47765742056E+02  0.57795471564E+02  0.00000000000E+00 0.  1.
<scales pt_clust_3="14000.00000" pt_clust_4="79.96594" pt_clust_5="101.65941" pt_clust_6="32.53845"></scales>
<clustering>
<clus scale="   32.538">  2  6  1 -1</clus>
<clus scale="   79.966">  2  4  1 -1</clus>
<clus scale="  101.659">  1  5  2 -1</clus>
<clus scale="  101.659">  1  3  2 -1</clus>
</clustering>
</event>
<event>
 6    0  0.4227619E+002  0.9672897E+02  0.7546771E-02  0.1287329E+00
         21   -1    0    0  506  501  0.00000000000E+00  0.00000000000E+00  0.50309143204E+03  0.50309143204E+03  0.00000000000E+00 0. -1.
         21   -1    0    0  505  502 -0.00000000000E+00 -0.00000000000E+00 -0.74563638302E+03  0.74563638302E+03  0.00000000000E+00 0.  1.
         21    1    1    2  503  501 -0.42528738181E+02 -0.24756144901E+02  0.32169559390E+03  0.32543757530E+03  0.00000000000E+00 0. -1.
         21    1    1    2  504  503 -0.54053148623E+02  0.83839685688E+01  0.16663267403E+03  0.17538096208E+03  0.00000000000E+00 0. -1.
         21    1    1    2  505  504  0.12179615487E+03  0.32831486102E+02 -0.53080825101E+03  0.54559106404E+03  0.00000000000E+00 0.  1.
         21    1    1    2  506  502 -0.25214268063E+02 -0.16459309769E+02 -0.20006496790E+03  0.20231821365E+03  0.00000000000E+00 0.  1.
<scales pt_clust_3="49.31269" pt_clust_4="96.72897" pt_clust_5="14000.00000" pt_clust_6="30.11093"></scales>
<clustering>
<clus scale="   30.111">  2  6  1 -1</clus>
<clus scale="   49.313">  1  3  2 -1</clus>
<clus scale="   96.729">  1  4  2 -1</clus>
<clus scale="   49.313">  1  3  2 -1</clus>
</clustering>
</event>
<event>
 6    0  0.4227619E+002  0.8431567E+02  0.7546771E-02  0.1317232E+00
         21   -1    0    0  506  501  0.00000000000E+00  0.00000000000E+00  0.13780216676E+04  0.13780216676E+04  0.00000000000E+00 0. -1.
         21   -1    0    0  505  502 -0.00000000000E+00 -0.00000000000E+00 -0.71516866875E+03  0.71516866875E+03  0.00000000000E+00 0.  1.
         21    1    1    2  503  501  0.10301459104E+03  0.17030601320E+02  0.14912814199E+03  0.18204738417E+03  0.00000000000E+00 0. -1.
         21    1    1    2  504  502 -0.10881405872E+03 -0.43569112884E+02  0.44544771574E+03  0.46061093607E+03  0.00000000000E+00 0. -1.
         21    1    1    2  505  503 -0.59792660656E+02  0.33611740014E+02 -0.68798595249E+03  0.69139683406E+03  0.00000000000E+00 0.  1.
         21    1    1    2  506  504  0.65592128332E+02 -0.70732284506E+01  0.75626309360E+03  0.75913518203E+03  0.00000000000E+00 0. -1.
<scales pt_clust_3="84.31567" pt_clust_4="14000.00000" pt_clust_5="68.42567" pt_clust_6="65.97240"></scales>
<clustering>
<clus scale="   65.972">  1  6  2 -1</clus>
<clus scale="   68.426">  2  5  1 -1</clus>
<clus scale="   84.316">  2  3  1 -1</clus>
<clus scale="   65.972">  1  3  2 -1</clus>
</clustering>
</event>
<event>
 6    0  0.4227619E+002  0.9059172E+02  0.7546771E-02  0.1301425E+00
         21   -1    0    0  506  501  0.00000000000E+00  0.00000000000E+00  0.38956092731E+03  0.38956092731E+03  0.00000000000E+00 0.  1.
         21   -1    0    0  505  502 -0.00000000000E+00 -0.00000000000E+00 -0.26309873338E+04  0.26309873338E+04  0.00000000000E+00 0.  1.
         21    1    1    2  503  501  0.18906164256E+00  0.74072441084E+02  0.37498391441E+03  0.38222990247E+03  0.00000000000E+00 0.  1.
         21    1    1    2  504  502 -0.39190370537E+01 -0.44425771374E+02 -0.90168119833E+03  0.90278346874E+03  0.00000000000E+00 0.  1.
         21    1    1    2  505  503  0.86733077306E+02 -0.10174895856E+02 -0.15253730114E+04  0.15278707338E+04  0.00000000000E+00 0.  1.
         21    1    1    2  506  504 -0.83003101895E+02 -0.19471773854E+02 -0.18935611111E+03  0.20766415607E+03  0.00000000000E+00 0. -1.
<scales pt_clust_3="73.97956" pt_clust_4="44.59830" pt_clust_5="14000.00000" pt_clust_6="90.59172"></scales>
<clustering>
<clus scale="   44.598">  2  4  1 -1</clus>
<clus scale="   73.980">  1  3  2 -1</clus>
<clus scale="   90.592">  1  6  2 -1</clus>
<clus scale="   73.980">  1  3  2 -1</clus>
</clustering>
</event>
<event>
 6    0  0.4227619E+002  0.1178972E+03  0.7546771E-02  0.1246607E+00
         21   -1    0    0  506  501  0.00000000000E+00  0.00000000000E+00  0.26785008474E+03  0.26785008474E+03  0.00000000000E+00 0. -1.
         21   -1    0    0  505  502 -0.00000000000E+00 -0.00000000000E+00 -0.24781018496E+03  0.24781018496E+03  0.00000000000E+00 0. -1.
         21    1    1    2  503  502 -0.16689284596E+02 -0.28364016606E+02 -0.12395867241E+03  0.12825288349E+03  0.00000000000E+00 0. -1.
         21    1    1    2  504  503 -0.86876906362E+02 -0.42406734687E+02 -0.55990545824E+02  0.11171781070E+03  0.00000000000E+00 0. -1.
         21    1    1    2  505  501  0.88852092756E+02  0.10146334799E+03  0.94066269093E+02  0.16443226069E+03  0.00000000000E+00 0. -1.
         21    1    1    2  506  504  0.14714098202E+02 -0.30692596701E+02  0.10592284892E+03  0.11125731482E+03  0.00000000000E+00 0. -1.
<scales pt_clust_3="32.90972" pt_clust_4="14000.00000" pt_clust_5="117.89719" pt_clust_6="34.44495"></scales>
<clustering>
<clus scale="   32.910">  2  3  1 -1</clus>
<clus scale="   34.445">  1  6  2 -1</clus>
<clus scale="  117.897">  1  5  2 -1</clus>
<clus scale="   34.445">  1  3  2 -1</clus>
</clustering>
</event>
<event>
 6    0  0.4227619E+002  0.8233406E+02  0.7546771E-02  0.1322555E+00
         21   -1    0    0  504  501  0.00000000000E+00  0.00000000000E+00  0.30300823680E+03  0.30300823680E+03  0.00000000000E+00 0.  1.
         21   -1    0    0  503  502 -0.00000000000E+00 -0.00000000000E+00 -0.33078273811E+03  0.33078273811E+03  0.00000000000E+00 0. -1.
         21    1    1    2  503  501  0.36582604534E+02  0.56472744563E+02  0.97995250150E+02  0.11887189275E+03  0.00000000000E+00 0. -1.
         21    1    1    2  504  506 -0.13952335618E+02 -0.11653947272E+03  0.15307665072E+03  0.19289524972E+03  0.00000000000E+00 0.  1.
         21    1    1    2  505  502  0.28067767112E+02  0.18598258937E+02 -0.24683731281E+03  0.24912316990E+03  0.00000000000E+00 0. -1.
         21    1    1    2  506  505 -0.50698036028E+02  0.41468469219E+02 -0.32009089367E+02  0.72900662539E+02  0.00000000000E+00 0. -1.
<scales pt_clust_3="14000.00000" pt_clust_4="82.33406" pt_clust_5="33.67038" pt_clust_6="62.60309"></scales>
<clustering>
<clus scale="   33.670">  2  5  1 -1</clus>
<clus scale="   62.603">  2  6  1 -1</clus>
<clus scale="   82.334">  2  4  1 -1</clus>
<clus scale="   82.334">  1  3  2 -1</clus>
</clustering>
</event>
<event>
 6    0  0.4227619E+002  0.1549179E+03  0.7546771E-02  0.1194557E+00
         21   -1    0    0  505  501  0.00000000000E+00  0.00000000000E+00  0.43971548400E+02  0.43971548400E+02  0.00000000000E+00 0.  1.
         21   -1    0    0  504  502 -0.00000000000E+00 -0.00000000000E+00 -0.12419722633E+04  0.12419722633E+04  0.00000000000E+00 0.  1.
         21    1    1    2  503  501  0.89169034033E+02 -0.11471133465E+03 -0.24368413748E+03  0.28371070791E+03  0.00000000000E+00 0.  1.
         21    1    1    2  504  503 -0.16943188102E+03  0.47365335462E+02 -0.52050858846E+03  0.54943591798E+03  0.00000000000E+00 0.  1.
         21    1    1    2  505  506  0.60450520112E+02  0.38184497229E+02 -0.14319459809E+03  0.16005316033E+03  0.00000000000E+00 0.  1.
         21    1    1    2  506  502  0.19812326871E+02  0.29161501963E+02 -0.29061339083E+03  0.29274402543E+03  0.00000000000E+00 0.  1.
<scales pt_clust_3="154.91789" pt_clust_4="14000.00000" pt_clust_5="76.69083" pt_clust_6="35.25509"></scales>
<clustering>
<clus scale="   35.255">  2  6  1 -1</clus>
<clus scale="   76.691">  1  5  2 -1</clus>
<clus scale="  154.918">  1  3  2 -1</clus>
<clus scale="   76.691">  1  3  2 -1</clus>
</clustering>
</event>
<event>
 6    0  0.4227619E+002  0.9712046E+02  0.7546771E-02  0.1286470E+00
         21   -1    0    0  504  501  0.00000000000E+00  0.00000000000E+00  0.10764284455E+03  0.10764284455E+03  0.00000000000E+00 0.  1.
         21   -1    0    0  505  502 -0.00000000000E+00 -0.00000000000E+00 -0.46655275516E+03  0.46655275516E+03  0.00000000000E+00 0.  1.
         21    1    1    2  503  501 -0.96863372748E+01 -0.38940973188E+02 -0.76714170569E+02  0.86575334182E+02  0.00000000000E+00 0.  1.
         21    1    1    2  504  506 -0.44737236659E+02  0.11025492438E+03  0.38576497101E+02  0.12508283185E+03  0.00000000000E+00 0.  1.
         21    1    1    2  505  503 -0.80723658030E+01 -0.32962939684E+02 -0.27282497976E+03  0.27492760513E+03  0.00000000000E+00 0.  1.
         21    1    1    2  506  502  0.62495939737E+02 -0.38351011511E+02 -0.47947257382E+02  0.87609828547E+02  0.00000000000E+00 0.  1.
<scales pt_clust_3="54.50799" pt_clust_4="14000.00000" pt_clust_5="33.93698" pt_clust_6="97.12046"></scales>
<clustering>
<clus scale="   33.937">  2  5  1 -1</clus>
<clus scale="   54.508">  2  3  1 -1</clus>
<clus scale="   97.120">  2  6  1 -1</clus>
<clus scale="   97.120">  1  3  2 -1</clus>
</clustering>
</event>
<event>
 6    0  0.4227619E+002  0.1144981E+03  0.7546771E-02  0.1252460E+00
         21   -1    0    0  503  501  0.00000000000E+00  0.00000000000E+00  0.10544669346E+03  0.10544669346E+03  0.00000000000E+00 0. -1.
         21   -1    0    0  504  502 -0.00000000000E+00 -0.00000000000E+00 -0.14722070281E+04  0.14722070281E+04  0.00000000000E+00 0.  1.
         21    1    1    2  503  506  0.29379886413E+02 -0.63992992959E+02  0.77987398121E+02  0.10507290392E+03  0.00000000000E+00 0. -1.
         21    1    1    2  504  501  0.75058432929E+01 -0.83894164506E+02 -0.22494922192E+03  0.24020141749E+03  0.00000000000E+00 0. -1.
         21    1    1    2  505  502 -0.33081810605E+02  0.13672996715E+02 -0.40641025710E+03  0.40798364442E+03  0.00000000000E+00 0. -1.
         21    1    1    2  506  505 -0.38039191004E+01  0.13421416075E+03 -0.81338825374E+03  0.82439575573E+03  0.00000000000E+00 0.  1.
<scales pt_clust_3="70.08222" pt_clust_4="114.49811" pt_clust_5="35.79605" pt_clust_6="14000.00000"></scales>
<clustering>
<clus scale="   35.796">  2  5  1 -1</clus>
<clus scale="   70.082">  1  3  2 -1</clus>
<clus scale="  114.498">  1  4  2 -1</clus>
<clus scale="   70.082">  1  3  2 -1</clus>
</clustering>
</event>
<event>
 6    0  0.4227619E+002  0.1538263E+03  0.7546771E-02  0.1195849E+00
         21   -1    0    0  504  501  0.00000000000E+00  0.00000000000E+00  0.66872517576E+03  0.66872517576E+03  0.00000000000E+00 0. -1.
         21   -1    0    0  503  502 -0.00000000000E+00 -0.00000000000E+00 -0.27336543318E+03  0.27336543318E+03  0.00000000000E+00 0. -1.
         21    1    1    2  503  501  0.42071789511E+02 -0.14948718845E+03  0.60292907185E+03  0.62260735674E+03  0.00000000000E+00 0. -1.
         21    1    1    2  504  505 -0.10929158441E+03  0.10474069024E+03 -0.11025833263E+03  0.18727563250E+03  0.00000000000E+00 0. -1.
         21    1    1    2  505  506  0.17240767032E+02  0.29874802801E+02 -0.23118784482E+02  0.41523801442E+02  0.00000000000E+00 0. -1.
         21    1    1    2  506  502  0.49979027868E+02  0.14871695415E+02 -0.74192212153E+02  0.90683818266E+02  0.00000000000E+00 0. -1.
<scales pt_clust_3="14000.00000" pt_clust_4="153.82626" pt_clust_5="31.38040" pt_clust_6="89.49539"></scales>
<clustering>
<clus scale="   31.380">  5  6 -1 -1</clus>
<clus scale="   89.495">  2  5  1 -1</clus>
<clus scale="  153.826">  2  4  1 -1</clus>
<clus scale="  153.826">  1  3  2 -1</clus>
</clustering>
</event>
<event>
 6    0  0.4227619E+002  0.9155602E+02  0.7546771E-02  0.1299127E+00
         21   -1    0    0  504  501  0.00000000000E+00  0.00000000000E+00  0.55301303322E+03  0.55301303322E+03  0.00000000000E+00 0. -1.
         21   -1    0    0  505  502 -0.00000000000E+00 -0.00000000000E+00 -0.78278735303E+02  0.78278735303E+02  0.00000000000E+00 0. -1.
         21    1    1    2  503  506  0.10828801377E+03  0.26288731291E+01  0.12281390043E+03  0.16375731751E+03  0.00000000000E+00 0. -1.
         21    1    1    2  504  503 -0.34273911586E+02 -0.19514019335E+02  0.32788260315E+03  0.33024611945E+03  0.00000000000E+00 0. -1.
         21    1    1    2  505  501 -0.98965028239E+02 -0.87488469283E+01  0.19222445041E+02  0.10119348561E+03  0.00000000000E+00 0. -1.
         21    1    1    2  506  502  0.24950926056E+02  0.25633993134E+02  0.48153492966E+01  0.36094845947E+02  0.00000000000E+00 0. -1.
<scales pt_clust_3="91.55602" pt_clust_4="38.79190" pt_clust_5="14000.00000" pt_clust_6="35.77220"></scales>
<clustering>
<clus scale="   35.772">  2  6  1 -1</clus>
<clus scale="   38.792">  1  4  2 -1</clus>
<clus scale="   91.556">  1  3  2 -1</clus>
<clus scale="   38.792">  1  3  2 -1</clus>
</clustering>
</event>
<event>
 6    0  0.4227619E+002  0.1741468E+03  0.7546771E-02  0.1173591E+00
         21   -1    0    0  504  501  0.00000000000E+00  0.00000000000E+00  0.54862548065E+03  0.54862548065E+03  0.00000000000E+00 0. -1.
         21   -1    0    0  505  502 -0.00000000000E+00 -0.00000000000E+00 -0.14490532024E+04  0.14490532024E+04  0.00000000000E+00 0.  1.
         21    1    1    2  503  502 -0.45724678974E+01 -0.61990561877E+02 -0.41223099140E+03  0.41689102593E+03  0.00000000000E+00 0.  1.
         21    1    1    2  504  506 -0.32675675406E+02  0.13840826642E+02  0.28393891574E+02  0.45447566756E+02  0.00000000000E+00 0. -1.
         21    1    1    2  505  501 -0.77478585762E+02 -0.14757018802E+03  0.48267659913E+03  0.51064331093E+03  0.00000000000E+00 0. -1.
         21    1    1    2  506  503  0.11472672907E+03  0.19571992325E+03 -0.99926722101E+03  0.10246967794E+04  0.00000000000E+00 0.  1.
<scales pt_clust_3="62.10725" pt_clust_4="35.48617" pt_clust_5="14000.00000" pt_clust_6="174.14676"></scales>
<clustering>
<clus scale="   35.486">  1  4  2 -1</clus>
<clus scale="   62.107">  2  3  1 -1</clus>
<clus scale="  174.147">  2  6  1 -1</clus>
<clus scale="   35.486">  1  3  2 -1</clus>
</clustering>
</event>
<event>
 6    0  0.4227619E+002  0.6276787E+02  0.7546771E-02  0.1386570E+00
         21   -1    0    0  505  501  0.00000000000E+00  0.00000000000E+00  0.53683605953E+02  0.53683605953E+02  0.00000000000E+00 0.  1.
         21   -1    0    0  503  502 -0.00000000000E+00 -0.00000000000E+00 -0.44531617726E+03  0.44531617726E+03  0.00000000000E+00 0. -1.
         21    1    1    2  503  504 -0.18526800798E+02 -0.55674986618E+02 -0.24059744108E+03  0.24764909678E+03  0.00000000000E+00 0. -1.
         21    1    1    2  504  506  0.39337619861E+01 -0.55454838054E+02 -0.80185068092E+02  0.97572325440E+02  0.00000000000E+00 0.  1.
         21    1    1    2  505  502  0.44018465688E+02  0.89635067072E+02 -0.48326928497E+02  0.11093945461E+03  0.00000000000E+00 0.  1.
         21    1    1    2  506  501 -0.29425426876E+02  0.21494757600E+02 -0.22523133636E+02  0.42838906381E+02  0.00000000000E+00 0.  1.
<scales pt_clust_3="62.76787" pt_clust_4="51.19848" pt_clust_5="14000.00000" pt_clust_6="36.44009"></scales>
<clustering>
<clus scale="   36.440">  1  6  2 -1</clus>
<clus scale="   51.198">  1  4  2 -1</clus>
<clus scale="   62.768">  2  3  1 -1</clus>
<clus scale="   36.440">  1  3  2 -1</clus>
</clustering>
</event>
<event>
 6    0  0.4227619E+002  0.2038837E+03  0.7546771E-02  0.1146503E+00
         21   -1    0    0  503  501  0.00000000000E+00  0.00000000000E+00  0.30462696338E+03  0.30462696338E+03  0.00000000000E+00 0.  1.
         21   -1    0    0  506  502 -0.00000000000E+00 -0.00000000000E+00 -0.93566786096E+03  0.93566786096E+03  0.00000000000E+00 0.  1.
         21    1    1    2  503  505 -0.74107007123E+02 -0.76459782231E+01  0.12113121523E+03  0.14220787879E+03  0.00000000000E+00 0.  1.
         21    1    1    2  504  502 -0.64132524539E+02 -0.20788279219E+02 -0.64454045492E+02  0.93270880969E+02  0.00000000000E+00 0.  1.
         21    1    1    2  505  504  0.16621457648E+03 -0.17083419468E+03  0.47085904727E+02  0.24295820614E+03  0.00000000000E+00 0.  1.
         21    1    1    2  506  501 -0.27975044821E+02  0.19926845212E+03 -0.73480397205E+03  0.76185785845E+03  0.00000000000E+00 0.  1.
<scales pt_clust_3="75.31148" pt_clust_4="67.41760" pt_clust_5="203.88371" pt_clust_6="14000.00000"></scales>
<clustering>
<clus scale="   67.418">  2  4  1 -1</clus>
<clus scale="   75.311">  1  3  2 -1</clus>
<clus scale="  203.884">  1  5  2 -1</clus>
<clus scale="   75.311">  1  3  2 -1</clus>
</clustering>
</event>
<event>
 6    0  0.4227619E+002  0.8858771E+02  0.7546771E-02  0.1306308E+00
         21   -1    0    0  505  501  0.00000000000E+00  0.00000000000E+00  0.86019562935E+02  0.86019562935E+02  0.00000000000E+00 0.  1.
         21   -1    0    0  504  502 -0.00000000000E+00 -0.00000000000E+00 -0.37548684828E+03  0.37548684828E+03  0.00000000000E+00 0. -1.
         21    1    1    2  503  506  0.30180473507E+02 -0.68554976408E+02 -0.34728660385E+02  0.82563464217E+02  0.00000000000E+00 0.  1.
         21    1    1    2  504  503 -0.14440489282E+02  0.69340612300E+02 -0.25503176028E+03  0.26468442908E+03  0.00000000000E+00 0. -1.
         21    1    1    2  505  502 -0.11887616400E+02  0.55910365269E+02 -0.37871745504E+01  0.57285487336E+02  0.00000000000E+00 0.  1.
         21    1    1    2  506  501 -0.38523678262E+01 -0.56696001161E+02  0.40803098685E+01  0.56973030586E+02  0.00000000000E+00 0.  1.
<scales pt_clust_3="40.38834" pt_clust_4="75.48276" pt_clust_5="57.16016" pt_clust_6="40.38834"></scales>
<clustering>
<clus scale="   40.388">  3  6 -1 -1</clus>
<clus scale="   57.160">  1  5  2 -1</clus>
<clus scale="   75.483">  2  4  1 -1</clus>
<clus scale="   57.160">  1  3  2 -1</clus>
</clustering>
</event>
<event>
 6    0  0.4227619E+002  0.1630138E+03  0.7546771E-02  0.1185336E+00
         21   -1    0    0  502  501  0.00000000000E+00  0.00000000000E+00  0.18043767066E+02  0.18043767066E+02  0.00000000000E+00 0. -1.
         21   -1    0    0  506  502 -0.00000000000E+00 -0.00000000000E+00 -0.29572008669E+04  0.29572008669E+04  0.00000000000E+00 0.  1.
         21    1    1    2  503  504  0.33880450670E+02  0.15829709884E+03 -0.17773115060E+04  0.17846686095E+04  0.00000000000E+00 0.  1.
         21    1    1    2  504  505  0.25465289928E+02 -0.15144860552E+03 -0.77967078095E+03  0.79465192869E+03  0.00000000000E+00 0. -1.
         21    1    1    2  505  501 -0.31061458511E+02 -0.37938810875E+02 -0.10881515288E+03  0.11935202165E+03  0.00000000000E+00 0. -1.
         21    1    1    2  506  503 -0.28284282087E+02  0.31090317556E+02 -0.27335966004E+03  0.27657207414E+03  0.00000000000E+00 0.  1.
<scales pt_clust_3="163.01381" pt_clust_4="14000.00000" pt_clust_5="48.80328" pt_clust_6="42.03104"></scales>
<clustering>
<clus scale="   42.031">  2  6  1 -1</clus>
<clus scale="   48.803">  1  5  2 -1</clus>
<clus scale="  163.014">  2  3  1 -1</clus>
<clus scale="   48.803">  1  3  2 -1</clus>
</clustering>
</event>
<event>
 6    0  0.4227619E+002  0.8567183E+02  0.7546771E-02  0.1313685E+00
         21   -1    0    0  504  501  0.00000000000E+00  0.00000000000E+00  0.10915097424E+03  0.10915097424E+03  0.00000000000E+00 0.  1.
         21   -1    0    0  503  502 -0.00000000000E+00 -0.00000000000E+00 -0.33432975957E+03  0.33432975957E+03  0.00000000000E+00 0.  1.
         21    1    1    2  503  505 -0.51644134011E+02  0.11754707265E+02 -0.77061447246E+02  0.93508055120E+02  0.00000000000E+00 0.  1.
         21    1    1    2  504  506 -0.29281079464E+02 -0.37844433661E+02  0.41919365531E+02  0.63614589366E+02  0.00000000000E+00 0.  1.
         21    1    1    2  505  501  0.74706348551E+02  0.87684449920E+02 -0.19257456078E+03  0.22439822355E+03  0.00000000000E+00 0.  1.
         21    1    1    2  506  502  0.62188649241E+01 -0.61594723524E+02  0.25378571657E+01  0.61959865768E+02  0.00000000000E+00 0.  1.
<scales pt_clust_3="56.26121" pt_clust_4="47.84958" pt_clust_5="14000.00000" pt_clust_6="85.67183"></scales>
<clustering>
<clus scale="   47.850">  1  4  2 -1</clus>
<clus scale="   56.261">  2  3  1 -1</clus>
<clus scale="   85.672">  1  6  2 -1</clus>
<clus scale="   47.850">  1  3  2 -1</clus>
</clustering>
</event>
<event>
 6    0  0.4227619E+002  0.1186154E+03  0.7546771E-02  0.1245399E+00
         21   -1    0    0  503  501  0.00000000000E+00  0.00000000000E+00  0.12753471366E+04  0.12753471366E+04  0.00000000000E+00 0.  1.
         21   -1    0    0  504  502 -0.00000000000E+00 -0.00000000000E+00 -0.97352446010E+02  0.97352446010E+02  0.00000000000E+00 0.  1.
         21    1    1    2  503  506 -0.29516898704E+02  0.13598351424E+02  0.44501334204E+03  0.44619842790E+03  0.00000000000E+00 0. -1.
         21    1    1    2  504  501 -0.56983406165E+02 -0.84633413557E+02 -0.51924319394E+02  0.11448169379E+03  0.00000000000E+00 0.  1.
         21    1    1    2  505  502 -0.31916019161E+02  0.57468473170E+01  0.27152500457E+02  0.42295588591E+02  0.00000000000E+00 0. -1.
         21    1    1    2  506  505  0.11841632403E+03  0.65288214816E+02  0.75775316750E+03  0.76972387233E+03  0.00000000000E+00 0.  1.
<scales pt_clust_3="32.70588" pt_clust_4="14000.00000" pt_clust_5="32.42929" pt_clust_6="118.61543"></scales>
<clustering>
<clus scale="   32.429">  2  5  1 -1</clus>
<clus scale="   32.706">  1  3  2 -1</clus>
<clus scale="  118.615">  1  6  2 -1</clus>
<clus scale="   32.706">  1  3  2 -1</clus>
</clustering>
</event>
<event>
 6    0  0.4227619E+002  0.1134155E+03  0.7546771E-02  0.1254372E+00
         21   -1    0    0  506  501  0.00000000000E+00  0.00000000000E+00  0.82307058224E+02  0.82307058224E+02  0.00000000000E+00 0.  1.
         21   -1    0    0  503  502 -0.00000000000E+00 -0.00000000000E+00 -0.27268858966E+03  0.27268858966E+03  0.00000000000E+00 0.  1.
         21    1    1    2  503  501  0.66407661692E+02 -0.19623575564E+02 -0.59831588472E+02  0.91514377168E+02  0.00000000000E+00 0.  1.
         21    1    1    2  504  505  0.37520353521E+02  0.32242899436E+02 -0.28091527136E+02  0.56890380463E+02  0.00000000000E+00 0.  1.
         21    1    1    2  505  502  0.32018062132E+01  0.45462990802E+02 -0.64455314235E+02  0.78940627239E+02  0.00000000000E+00 0.  1.
         21    1    1    2  506  504 -0.10712982143E+03 -0.58082314674E+02 -0.38003101592E+02  0.12765026301E+03  0.00000000000E+00 0.  1.
<scales pt_clust_3="69.24639" pt_clust_4="44.90332" pt_clust_5="44.90332" pt_clust_6="103.31717"></scales>
<clustering>
<clus scale="   44.903">  4  5 -1 -1</clus>
<clus scale="   69.246">  2  3  1 -1</clus>
<clus scale="  103.317">  1  6  2 -1</clus>
<clus scale="  103.317">  1  3  2 -1</clus>
</clustering>
</event>
<event>
 6    0  0.4227619E+002  0.1147550E+03  0.7546771E-02  0.1252009E+00
         21   -1    0    0  503  501  0.00000000000E+00  0.00000000000E+00  0.22216527574E+03  0.22216527574E+03  0.00000000000E+00 0.  1.
         21   -1    0    0  506  502 -0.00000000000E+00 -0.00000000000E+00 -0.19473563282E+04  0.19473563282E+04  0.00000000000E+00 0. -1.
         21    1    1    2  503  502  0.72250613260E+02 -0.36162787699E+02 -0.62297781376E+03  0.62819523619E+03  0.00000000000E+00 0. -1.
         21    1    1    2  504  505 -0.11715129686E+03 -0.61749513975E+02  0.14975389730E+03  0.19990912582E+03  0.00000000000E+00 0.  1.
         21    1    1    2  505  501  0.41191547119E+01  0.32322437576E+02  0.37477524841E+02  0.49661577448E+02  0.00000000000E+00 0.  1.
         21    1    1    2  506  504  0.40781528887E+02  0.65589864097E+02 -0.12894446609E+04  0.12917556645E+04  0.00000000000E+00 0. -1.
<scales pt_clust_3="114.75503" pt_clust_4="14000.00000" pt_clust_5="32.58385" pt_clust_6="77.42619"></scales>
<clustering>
<clus scale="   32.584">  1  5  2 -1</clus>
<clus scale="   77.426">  2  6  1 -1</clus>
<clus scale="  114.755">  2  3  1 -1</clus>
<clus scale="   32.584">  1  3  2 -1</clus>
</clustering>
</event>
<event>
 6    0  0.4227619E+002  0.8957444E+02  0.7546771E-02  0.1303886E+00
         21   -1    0    0  504  501  0.00000000000E+00  0.00000000000E+00  0.23176141596E+03  0.23176141596E+03  0.00000000000E+00 0.  1.
         21   -1    0    0  505  502 -0.00000000000E+00 -0.00000000000E+00 -0.13249603516E+04  0.13249603516E+04  0.00000000000E+00 0.  1.
         21    1    1    2  503  501 -0.20168704366E+02 -0.63766466662E+02 -0.70199336596E+02  0.96958165024E+02  0.00000000000E+00 0. -1.
         21    1    1    2  504  506 -0.29986807232E+02  0.29336603641E+02  0.16798126679E+03  0.17314026370E+03  0.00000000000E+00 0.  1.
         21    1    1    2  505  503  0.15101804172E+02 -0.60464429828E+02 -0.11835493449E+04  0.11851890413E+04  0.00000000000E+00 0.  1.
         21    1    1    2  506  502  0.35053707426E+02  0.94894292849E+02 -0.74315209518E+01  0.10143429757E+03  0.00000000000E+00 0.  1.
<scales pt_clust_3="14000.00000" pt_clust_4="41.95051" pt_clust_5="61.84392" pt_clust_6="89.57444"></scales>
<clustering>
<clus scale="   41.951">  1  4  2 -1</clus>
<clus scale="   61.844">  2  5  1 -1</clus>
<clus scale="   89.574">  1  6  2 -1</clus>
<clus scale="   41.951">  1  3  2 -1</clus>
</clustering>
</event>
<event>
 6    0  0.4227619E+002  0.7935778E+02  0.7546771E-02  0.1330884E+00
         21   -1    0    0  504  501  0.00000000000E+00  0.00000000000E+00  0.65470208978E+03  0.65470208978E+03  0.00000000000E+00 0.  1.
         21   -1    0    0  505  502 -0.00000000000E+00 -0.00000000000E+00 -0.25050606401E+03  0.25050606401E+03  0.00000000000E+00 0.  1.
         21    1    1    2  503  506  0.82397982298E+02 -0.29458514884E+01 -0.91228208787E+01  0.82953790682E+02  0.00000000000E+00 0.  1.
         21    1    1    2  504  503 -0.14501281611E+02 -0.32901928711E+02  0.58630193667E+03  0.58740342612E+03  0.00000000000E+00 0.  1.
         21    1    1    2  505  501  0.19362994262E+02  0.61854295619E+02 -0.94794163099E+02  0.11483384863E+03  0.00000000000E+00 0.  1.
         21    1    1    2  506  502 -0.87259694948E+02 -0.26006515420E+02 -0.78188926908E+02  0.12001708836E+03  0.00000000000E+00 0.  1.
<scales pt_clust_3="14000.00000" pt_clust_4="35.95586" pt_clust_5="59.54038" pt_clust_6="79.35778"></scales>
<clustering>
<clus scale="   35.956">  1  4  2 -1</clus>
<clus scale="   59.540">  2  5  1 -1</clus>
<clus scale="   79.358">  2  6  1 -1</clus>
<clus scale="   35.956">  1  3  2 -1</clus>
</clustering>
</event>
<event>
 6    0  0.4227619E+002  0.9381642E+02  0.7546771E-02  0.1293864E+00
         21   -1    0    0  503  501  0.00000000000E+00  0.00000000000E+00  0.29992229611E+03  0.29992229611E+03  0.00000000000E+00 0. -1.
         21   -1    0    0  501  502 -0.00000000000E+00 -0.00000000000E+00 -0.72659014126E+03  0.72659014126E+03  0.00000000000E+00 0. -1.
         21    1    1    2  503  506 -0.90115200497E+02 -0.30728457830E+02  0.25161151403E+03  0.26902293857E+03  0.00000000000E+00 0. -1.
         21    1    1    2  504  505 -0.21571100493E+02  0.46655041530E+02  0.77564120128E+01  0.51982373973E+02  0.00000000000E+00 0. -1.
         21    1    1    2  505  502  0.35795795081E+02 -0.20338526814E+01 -0.53222409327E+03  0.53343037123E+03  0.00000000000E+00 0. -1.
         21    1    1    2  506  504  0.75890505909E+02 -0.13892731018E+02 -0.15381167793E+03  0.17207675360E+03  0.00000000000E+00 0. -1.
<scales pt_clust_3="93.81642" pt_clust_4="49.60692" pt_clust_5="35.85353" pt_clust_6="14000.00000"></scales>
<clustering>
<clus scale="   35.854">  2  5  1 -1</clus>
<clus scale="   49.607">  2  4  1 -1</clus>
<clus scale="   93.816">  1  3  2 -1</clus>
<clus scale="   93.816">  1  3  2 -1</clus>
</clustering>
</event>
<event>
 6    0  0.4227619E+002  0.9559063E+02  0.7546771E-02  0.1289851E+00
         21   -1    0    0  506  501  0.00000000000E+00  0.00000000000E+00  0.39462267550E+03  0.39462267550E+03  0.00000000000E+00 0.  1.
         21   -1    0    0  504  502 -0.00000000000E+00 -0.00000000000E+00 -0.11688630677E+03  0.11688630677E+03  0.00000000000E+00 0.  1.
         21    1    1    2  503  505  0.93197465611E+02 -0.50672908843E+02  0.21285975325E+03  0.23782932082E+03  0.00000000000E+00 0. -1.
         21    1    1    2  504  503  0.20300024562E+02  0.32365614235E+02 -0.65622494204E+02  0.75933758813E+02  0.00000000000E+00 0.  1.
         21    1    1    2  505  501 -0.28106694566E+02 -0.18637787890E+02  0.90300830941E+02  0.96392912009E+02  0.00000000000E+00 0.  1.
         21    1    1    2  506  502 -0.85390795606E+02  0.36945082498E+02  0.40198278742E+02  0.10135299063E+03  0.00000000000E+00 0. -1.
<scales pt_clust_3="95.59063" pt_clust_4="37.68002" pt_clust_5="33.72467" pt_clust_6="14000.00000"></scales>
<clustering>
<clus scale="   33.725">  1  5  2 -1</clus>
<clus scale="   37.680">  2  4  1 -1</clus>
<clus scale="   95.591">  1  3  2 -1</clus>
<clus scale="   33.725">  1  3  2 -1</clus>
</clustering>
</event>
<event>
 6    0  0.4227619E+002  0.8843632E+02  0.7546771E-02  0.1306683E+00
         21   -1    0    0  504  501  0.00000000000E+00  0.00000000000E+00  0.84949737480E+03  0.84949737480E+03  0.00000000000E+00 0. -1.
         21   -1    0    0  503  502 -0.00000000000E+00 -0.00000000000E+00 -0.71330954889E+03  0.71330954889E+03  0.00000000000E+00 0. -1.
         21    1    1    2  503  501 -0.68182970415E+02 -0.15415106620E+02 -0.42307135899E+03  0.42880755330E+03  0.00000000000E+00 0. -1.
         21    1    1    2  504  505 -0.84352830886E+02 -0.30468175828E+02  0.78094797109E+03  0.78608106666E+03  0.00000000000E+00 0. -1.
         21    1    1    2  505  506  0.60143647740E+02  0.51605395672E+02  0.26073512434E+02  0.83427832745E+02  0.00000000000E+00 0. -1.
         21    1    1    2  506  502  0.92392153562E+02 -0.57221132240E+01 -0.24776229863E+03  0.26449047099E+03  0.00000000000E+00 0. -1.
<scales pt_clust_3="69.90381" pt_clust_4="14000.00000" pt_clust_5="88.43632" pt_clust_6="37.13093"></scales>
<clustering>
<clus scale="   69.904">  2  3  1 -1</clus>
<clus scale="   37.131">  2  6  1 -1</clus>
<clus scale="   88.436">  2  5  1 -1</clus>
<clus scale="   88.436">  1  3  2 -1</clus>
</clustering>
</event>
<event>
 6    0  0.4227619E+002  0.1223726E+03  0.7546771E-02  0.1239234E+00
         21   -1    0    0  504  501  0.00000000000E+00  0.00000000000E+00  0.17845344380E+04  0.17845344380E+04  0.00000000000E+00 0.  1.
         21   -1    0    0  506  502 -0.00000000000E+00 -0.00000000000E+00 -0.90374171029E+02  0.90374171029E+02  0.00000000000E+00 0. -1.
         21    1    1    2  503  501 -0.81914174025E+02  0.25784988357E+02  0.74865634489E+03  0.75356560450E+03  0.00000000000E+00 0.  1.
         21    1    1    2  504  505 -0.40710847556E+02  0.50206030833E+01  0.94278975743E+03  0.94368167635E+03  0.00000000000E+00 0.  1.
         21    1    1    2  505  502  0.11661780738E+03 -0.63406799161E+02 -0.24240070626E+02  0.13493597075E+03  0.00000000000E+00 0. -1.
         21    1    1    2  506  503  0.60072141991E+01  0.32601207721E+02  0.26954235233E+02  0.42725357392E+02  0.00000000000E+00 0.  1.
<scales pt_clust_3="122.37258" pt_clust_4="41.00899" pt_clust_5="14000.00000" pt_clust_6="33.15004"></scales>
<clustering>
<clus scale="   33.150">  2  6  1 -1</clus>
<clus scale="   41.009">  1  4  2 -1</clus>
<clus scale="  122.373">  1  3  2 -1</clus>
<clus scale="   41.009">  1  3  2 -1</clus>
</clustering>
</event>
<event>
 6    0  0.4227619E+002  0.8760729E+02  0.7546771E-02  0.1308752E+00
         21   -1    0    0  504  501  0.00000000000E+00  0.00000000000E+00  0.30710943638E+03  0.30710943638E+03  0.00000000000E+00 0. -1.
         21   -1    0    0  503  502 -0.00000000000E+00 -0.00000000000E+00 -0.12618471025E+04  0.12618471025E+04  0.00000000000E+00 0.  1.
         21    1    1    2  503  501  0.41227305659E+02  0.50124900160E+01 -0.11512508549E+04  0.11519997164E+04  0.00000000000E+00 0.  1.
         21    1    1    2  504  506  0.39573329571E+02 -0.98997280043E+01  0.21388753020E+03  0.21774280379E+03  0.00000000000E+00 0. -1.
         21    1    1    2  505  502 -0.13606095460E+03 -0.53779936927E+01 -0.34476547898E+02  0.14046401154E+03  0.00000000000E+00 0.  1.
         21    1    1    2  506  505  0.55260319370E+02  0.10265231681E+02  0.17102206407E+02  0.58750007169E+02  0.00000000000E+00 0. -1.
<scales pt_clust_3="41.68716" pt_clust_4="40.79281" pt_clust_5="87.60729" pt_clust_6="14000.00000"></scales>
<clustering>
<clus scale="   40.793">  1  4  2 -1</clus>
<clus scale="   41.687">  2  3  1 -1</clus>
<clus scale="   87.607">  2  5  1 -1</clus>
<clus scale="   40.793">  1  3  2 -1</clus>
</clustering>
</event>
<event>
 6    0  0.4227619E+002  0.8860327E+02  0.7546771E-02  0.1306270E+00
         21   -1    0    0  506  501  0.00000000000E+00  0.00000000000E+00  0.31796170758E+03  0.31796170758E+03  0.00000000000E+00 0.  1.
         21   -1    0    0  504  502 -0.00000000000E+00 -0.00000000000E+00 -0.83432369772E+03  0.83432369772E+03  0.00000000000E+00 0. -1.
         21    1    1    2  503  501  0.11814051503E+03 -0.33020640457E+02  0.25768359503E+03  0.28539162415E+03  0.00000000000E+00 0.  1.
         21    1    1    2  504  503 -0.55972337612E+02 -0.22223311380E+02 -0.73029425728E+03  0.73277314386E+03  0.00000000000E+00 0. -1.
         21    1    1    2  505  502 -0.30028131229E+02 -0.37338553985E+01 -0.58036864265E+02  0.65451569538E+02  0.00000000000E+00 0.  1.
         21    1    1    2  506  505 -0.32140046189E+02  0.58977807236E+02  0.14285536381E+02  0.68669067746E+02  0.00000000000E+00 0.  1.
<scales pt_clust_3="14000.00000" pt_clust_4="88.60327" pt_clust_5="30.25938" pt_clust_6="67.56429"></scales>
<clustering>
<clus scale="   30.259">  2  5  1 -1</clus>
<clus scale="   67.564">  1  6  2 -1</clus>
<clus scale="   88.603">  2  4  1 -1</clus>
<clus scale="   67.564">  1  3  2 -1</clus>
</clustering>
</event>
<event>
 6    0  0.4227619E+002  0.1902979E+03  0.7546771E-02  0.1158193E+00
         21   -1    0    0  505  501  0.00000000000E+00  0.00000000000E+00  0.19370068758E+03  0.19370068758E+03  0.00000000000E+00 0. -1.
         21   -1    0    0  504  502 -0.00000000000E+00 -0.00000000000E+00 -0.65046943288E+03  0.65046943288E+03  0.00000000000E+00 0. -1.
         21    1    1    2  503  501 -0.28931935690E+02 -0.16048848855E+02  0.51319717742E+01  0.33480734559E+02  0.00000000000E+00 0. -1.
         21    1    1    2  504  503  0.88642170671E+02 -0.18501113407E+03 -0.46998303005E+03  0.51280659384E+03  0.00000000000E+00 0. -1.
         21    1    1    2  505  506 -0.80275336973E+01  0.19942847300E+03  0.75086240152E+02  0.21324657231E+03  0.00000000000E+00 0. -1.
         21    1    1    2  506  502 -0.51682701284E+02  0.16315099250E+01 -0.67003927183E+02  0.84636219756E+02  0.00000000000E+00 0. -1.
<scales pt_clust_3="33.08508" pt_clust_4="190.29788" pt_clust_5="14000.00000" pt_clust_6="53.15162"></scales>
<clustering>
<clus scale="   33.085">  1  3  2 -1</clus>
<clus scale="   53.152">  2  6  1 -1</clus>
<clus scale="  190.298">  2  4  1 -1</clus>
<clus scale="   33.085">  1  3  2 -1</clus>
</clustering>
</event>
<event>
 6    0  0.4227619E+002  0.1340765E+03  0.7546771E-02  0.1221529E+00
         21   -1    0    0  504  501  0.00000000000E+00  0.00000000000E+00  0.14306860555E+04  0.14306860555E+04  0.00000000000E+00 0.  1.
         21   -1    0    0  503  502 -0.00000000000E+00 -0.00000000000E+00 -0.55075871423E+02  0.55075871423E+02  0.00000000000E+00 0.  1.
         21    1    1    2  503  501 -0.84449858320E+02  0.83481857796E+02  0.35823678562E+03  0.37740507909E+03  0.00000000000E+00 0.  1.
         21    1    1    2  504  506 -0.29199241224E+02 -0.31093416017E+02  0.95892802957E+03  0.95987622229E+03  0.00000000000E+00 0.  1.
         21    1    1    2  505  502  0.90998802474E+02 -0.27520240486E+02  0.19551329397E+02  0.97058745970E+02  0.00000000000E+00 0.  1.
         21    1    1    2  506  505  0.22650297070E+02 -0.24868201294E+02  0.38894039537E+02  0.51421879628E+02  0.00000000000E+00 0.  1.
<scales pt_clust_3="122.50115" pt_clust_4="42.65438" pt_clust_5="32.41651" pt_clust_6="32.41651"></scales>
<clustering>
<clus scale="   32.417">  5  6 -1 -1</clus>
<clus scale="   42.654">  1  4  2 -1</clus>
<clus scale="  122.501">  1  3  2 -1</clus>
<clus scale="   42.654">  1  3  2 -1</clus>
</clustering>
</event>
<event>
 6    0  0.4227619E+002  0.1402755E+03  0.7546771E-02  0.1212959E+00
         21   -1    0    0  505  501  0.00000000000E+00  0.00000000000E+00  0.87916356555E+02  0.87916356555E+02  0.00000000000E+00 0.  1.
         21   -1    0    0  506  502 -0.00000000000E+00 -0.00000000000E+00 -0.29052001597E+03  0.29052001597E+03  0.00000000000E+00 0.  1.
         21    1    1    2  503  501  0.47843760226E+02  0.65688380073E+02  0.22189031559E+02  0.84239787456E+02  0.00000000000E+00 0.  1.
         21    1    1    2  504  502 -0.37314283014E+02 -0.53991551066E+02 -0.13027400770E+03  0.14587241133E+03  0.00000000000E+00 0.  1.
         21    1    1    2  505  504 -0.55137811227E+02 -0.31542910893E+02 -0.66797600362E+02  0.92179460123E+02  0.00000000000E+00 0. -1.
         21    1    1    2  506  503  0.44608334015E+02  0.19846081886E+02 -0.27721082912E+02  0.56144713621E+02  0.00000000000E+00 0. -1.
<scales pt_clust_3="47.86699" pt_clust_4="133.53455" pt_clust_5="43.64310" pt_clust_6="47.86699"></scales>
<clustering>
<clus scale="   43.643">  4  5 -1 -1</clus>
<clus scale="   47.867">  3  6 -1 -1</clus>
<clus scale="  133.535">  2  4  1 -1</clus>
<clus scale="  140.275">  1  3  2 -1</clus>
</clustering>
</event>
<event>
 6    0  0.4227619E+002  0.1179060E+03  0.7546771E-02  0.1246592E+00
         21   -1    0    0  505  501  0.00000000000E+00  0.00000000000E+00  0.16745066460E+03  0.16745066460E+03  0.00000000000E+00 0.  1.
         21   -1    0    0  503  502 -0.00000000000E+00 -0.00000000000E+00 -0.35386649726E+04  0.35386649726E+04  0.00000000000E+00 0.  1.
         21    1    1    2  503  504 -0.20502777795E+02 -0.33238115663E+02 -0.23770611019E+04  0.23773818832E+04  0.00000000000E+00 0.  1.
         21    1    1    2  504  506  0.30700037352E+02 -0.41594473435E+02 -0.10687013947E+04  0.10699510566E+04  0.00000000000E+00 0.  1.
         21    1    1    2  505  502 -0.10204749090E+02 -0.81953805091E+02 -0.54504233223E+01  0.82766359031E+02  0.00000000000E+00 0.  1.
         21    1    1    2  506  501  0.74895327113E-02  0.15678639419E+03  0.79998611943E+02  0.17601633837E+03  0.00000000000E+00 0.  1.
<scales pt_clust_3="39.05299" pt_clust_4="73.15812" pt_clust_5="14000.00000" pt_clust_6="117.90597"></scales>
<clustering>
<clus scale="   39.053">  2  3  1 -1</clus>
<clus scale="   73.158">  2  4  1 -1</clus>
<clus scale="  117.906">  2  6  1 -1</clus>
<clus scale="  117.906">  1  3  2 -1</clus>
</clustering>
</event>
<event>
 6    0  0.4227619E+002  0.7513943E+02  0.7546771E-02  0.1343440E+00
         21   -1    0    0  506  501  0.00000000000E+00  0.00000000000E+00  0.34687330449E+03  0.34687330449E+03  0.00000000000E+00 0.  1.
         21   -1    0    0  505  502 -0.00000000000E+00 -0.00000000000E+00 -0.74712077630E+03  0.74712077630E+03  0.00000000000E+00 0. -1.
         21    1    1    2  503  504  0.75371149594E+02  0.38746811114E+02 -0.38886952962E+02  0.93243341174E+02  0.00000000000E+00 0.  1.
         21    1    1    2  504  501  0.33073902748E+02  0.19943453889E+02  0.87290761175E+02  0.95453137101E+02  0.00000000000E+00 0.  1.
         21    1    1    2  505  503 -0.49364910870E+01 -0.37345300172E+02 -0.66418201822E+03  0.66524942218E+03  0.00000000000E+00 0. -1.
         21    1    1    2  506  502 -0.10350856126E+03 -0.21344964831E+02  0.21553073819E+03  0.24004818034E+03  0.00000000000E+00 0.  1.
<scales pt_clust_3="14000.00000" pt_clust_4="37.48546" pt_clust_5="37.67015" pt_clust_6="75.13943"></scales>
<clustering>
<clus scale="   37.670">  2  5  1 -1</clus>
<clus scale="   37.485">  1  4  2 -1</clus>
<clus scale="   75.139">  1  6  2 -1</clus>
<clus scale="   37.485">  1  3  2 -1</clus>
</clustering>
</event>
<event>
 6    0  0.4227619E+002  0.2863551E+03  0.7546771E-02  0.1092268E+00
         21   -1    0    0  506  501  0.00000000000E+00  0.00000000000E+00  0.10519365397E+04  0.10519365397E+04  0.00000000000E+00 0. -1.
         21   -1    0    0  504  502 -0.00000000000E+00 -0.00000000000E+00 -0.10731672773E+03  0.10731672773E+03  0.00000000000E+00 0. -1.
         21    1    1    2  503  501 -0.52272580560E+02 -0.27876578385E+03  0.63440059217E+03  0.69491502809E+03  0.00000000000E+00 0. -1.
         21    1    1    2  504  503  0.46090725267E+02  0.13995713971E+02 -0.14887709301E+01  0.48191818850E+02  0.00000000000E+00 0. -1.
         21    1    1    2  505  502  0.26415743982E+02  0.29868023486E+02  0.41971992456E+02  0.57892473672E+02  0.00000000000E+00 0. -1.
         21    1    1    2  506  505 -0.20233888689E+02  0.23490204640E+03  0.26973599832E+03  0.35825394686E+03  0.00000000000E+00 0. -1.
<scales pt_clust_3="275.90705" pt_clust_4="48.16882" pt_clust_5="31.51982" pt_clust_6="31.51982"></scales>
<clustering>
<clus scale="   31.520">  5  6 -1 -1</clus>
<clus scale="   48.169">  2  4  1 -1</clus>
<clus scale="  275.907">  1  3  2 -1</clus>
<clus scale="  275.907">  1  3  2 -1</clus>
</clustering>
</event>
<event>
 6    0  0.4227619E+002  0.1096003E+03  0.7546771E-02  0.1261312E+00
         21   -1    0    0  504  501  0.00000000000E+00  0.00000000000E+00  0.96474567294E+03  0.96474567294E+03  0.00000000000E+00 0. -1.
         21   -1    0    0  503  502 -0.00000000000E+00 -0.00000000000E+00 -0.11500171347E+03  0.11500171347E+03  0.00000000000E+00 0.  1.
         21    1    1    2  503  505 -0.61231749614E+02  0.10716023007E+03  0.16750458182E+03  0.20806351674E+03  0.00000000000E+00 0. -1.
         21    1    1    2  504  506  0.82073452179E+02 -0.50404407021E+02  0.34864492990E+03  0.36170422025E+03  0.00000000000E+00 0. -1.
         21    1    1    2  505  501 -0.11559776947E+01 -0.33774806920E+02  0.41849008419E+03  0.41985238410E+03  0.00000000000E+00 0.  1.
         21    1    1    2  506  502 -0.19685724869E+02 -0.22981016130E+02 -0.84895636439E+02  0.90127265311E+02  0.00000000000E+00 0.  1.
<scales pt_clust_3="109.60032" pt_clust_4="14000.00000" pt_clust_5="34.38354" pt_clust_6="30.25979"></scales>
<clustering>
<clus scale="   30.260">  2  6  1 -1</clus>
<clus scale="   34.384">  1  5  2 -1</clus>
<clus scale="  109.600">  2  3  1 -1</clus>
<clus scale="   34.384">  1  3  2 -1</clus>
</clustering>
</event>
<event>
 6    0  0.4227619E+002  0.1027778E+03  0.7546771E-02  0.1274561E+00
         21   -1    0    0  503  501  0.00000000000E+00  0.00000000000E+00  0.12281277021E+04  0.12281277021E+04  0.00000000000E+00 0.  1.
         21   -1    0    0  506  502 -0.00000000000E+00 -0.00000000000E+00 -0.30661666084E+02  0.30661666084E+02  0.00000000000E+00 0.  1.
         21    1    1    2  503  504 -0.10962818858E+03  0.28553415055E+02  0.44562631163E+03  0.45980044243E+03  0.00000000000E+00 0.  1.
         21    1    1    2  504  502 -0.72762588077E+01  0.77025768705E+02  0.26637633305E+03  0.27738468558E+03  0.00000000000E+00 0.  1.
         21    1    1    2  505  501  0.59633119513E+02 -0.88419513356E+02  0.41831751542E+03  0.43169857886E+03  0.00000000000E+00 0.  1.
         21    1    1    2  506  505  0.57271327870E+02 -0.17159670405E+02  0.67145875949E+02  0.89905661342E+02  0.00000000000E+00 0.  1.
<scales pt_clust_3="102.77777" pt_clust_4="72.69571" pt_clust_5="14000.00000" pt_clust_6="59.78678"></scales>
<clustering>
<clus scale="   59.787">  2  6  1 -1</clus>
<clus scale="   72.696">  2  4  1 -1</clus>
<clus scale="  102.778">  2  3  1 -1</clus>
<clus scale="  102.778">  1  3  2 -1</clus>
</clustering>
</event>
<event>
 6    0  0.4227619E+002  0.1323379E+03  0.7546771E-02  0.1224027E+00
         21   -1    0    0  504  501  0.00000000000E+00  0.00000000000E+00  0.69327307871E+02  0.69327307871E+02  0.00000000000E+00 0. -1.
         21   -1    0    0  506  502 -0.00000000000E+00 -0.00000000000E+00 -0.99234183363E+03  0.99234183363E+03  0.00000000000E+00 0.  1.
         21    1    1    2  503  501 -0.30995491974E+02 -0.30907409252E+01  0.22682648121E+02  0.38532787700E+02  0.00000000000E+00 0.  1.
         21    1    1    2  504  505 -0.49795011636E+02  0.28911482349E+02 -0.25513891105E+03  0.26155550257E+03  0.00000000000E+00 0. -1.
         21    1    1    2  505  502 -0.49306710347E+02  0.42513877547E+02 -0.56369976287E+03  0.56744691746E+03  0.00000000000E+00 0.  1.
         21    1    1    2  506  503  0.13009721396E+03 -0.68334618971E+02 -0.12685849996E+03  0.19413393377E+03  0.00000000000E+00 0. -1.
<scales pt_clust_3="31.14921" pt_clust_4="40.58603" pt_clust_5="40.58603" pt_clust_6="125.25099"></scales>
<clustering>
<clus scale="   31.149">  1  3  2 -1</clus>
<clus scale="   40.586">  4  5 -1 -1</clus>
<clus scale="  125.251">  1  6  2 -1</clus>
<clus scale="   31.149">  1  3  2 -1</clus>
</clustering>
</event>
<event>
 6    0  0.4227619E+002  0.2063832E+03  0.7546771E-02  0.1144463E+00
         21   -1    0    0  503  501  0.00000000000E+00  0.00000000000E+00  0.13603987361E+04  0.13603987361E+04  0.00000000000E+00 0. -1.
         21   -1    0    0  504  502 -0.00000000000E+00 -0.00000000000E+00 -0.63857333472E+02  0.63857333472E+02  0.00000000000E+00 0.  1.
         21    1    1    2  503  502 -0.37865019994E+02  0.28929043740E+02  0.23101678939E+03  0.23588006760E+03  0.00000000000E+00 0. -1.
         21    1    1    2  504  505  0.48324909736E+02  0.18104246630E+02  0.13933010973E+02  0.53452684141E+02  0.00000000000E+00 0.  1.
         21    1    1    2  505  506  0.60009225085E+02  0.13481694444E+03  0.14247797197E+03  0.20512602980E+03  0.00000000000E+00 0.  1.
         21    1    1    2  506  501 -0.70469114827E+02 -0.18185023481E+03  0.90911363026E+03  0.92979728800E+03  0.00000000000E+00 0. -1.
<scales pt_clust_3="47.65133" pt_clust_4="49.76802" pt_clust_5="49.76802" pt_clust_6="187.92724"></scales>
<clustering>
<clus scale="   47.651">  1  3  2 -1</clus>
<clus scale="   49.768">  4  5 -1 -1</clus>
<clus scale="  187.927">  1  6  2 -1</clus>
<clus scale="   47.651">  1  3  2 -1</clus>
</clustering>
</event>
<event>
 6    0  0.4227619E+002  0.1609884E+03  0.7546771E-02  0.1187585E+00
         21   -1    0    0  506  501  0.00000000000E+00  0.00000000000E+00  0.14774404057E+04  0.14774404057E+04  0.00000000000E+00 0.  1.
         21   -1    0    0  503  502 -0.00000000000E+00 -0.00000000000E+00 -0.16364363790E+04  0.16364363790E+04  0.00000000000E+00 0.  1.
         21    1    1    2  503  501 -0.30353042600E+02 -0.47651894780E+02  0.43519966198E+02  0.71316181397E+02  0.00000000000E+00 0.  1.
         21    1    1    2  504  502 -0.14412066516E+03  0.70549511830E+02 -0.15920722364E+04  0.16001381208E+04  0.00000000000E+00 0.  1.
         21    1    1    2  505  504  0.25574563877E+03 -0.69670989131E+02  0.73810063220E+03  0.78425277923E+03  0.00000000000E+00 0.  1.
         21    1    1    2  506  505 -0.81271931008E+02  0.46773372081E+02  0.65145566475E+03  0.65816970322E+03  0.00000000000E+00 0.  1.
<scales pt_clust_3="56.49788" pt_clust_4="160.98840" pt_clust_5="14000.00000" pt_clust_6="98.44353"></scales>
<clustering>
<clus scale="   56.498">  1  3  2 -1</clus>
<clus scale="   98.444">  1  6  2 -1</clus>
<clus scale="  160.988">  2  4  1 -1</clus>
<clus scale="   56.498">  1  3  2 -1</clus>
</clustering>
</event>
<event>
 6    0  0.4227619E+002  0.1120439E+03  0.7546771E-02  0.1256831E+00
         21   -1    0    0  503  501  0.00000000000E+00  0.00000000000E+00  0.24786261421E+02  0.24786261421E+02  0.00000000000E+00 0.  1.
         21   -1    0    0  506  502 -0.00000000000E+00 -0.00000000000E+00 -0.13834195729E+04  0.13834195729E+04  0.00000000000E+00 0.  1.
         21    1    1    2  503  504 -0.39684360234E+00 -0.66651554295E+02 -0.13314769713E+03  0.14889894703E+03  0.00000000000E+00 0.  1.
         21    1    1    2  504  502  0.54706438243E+02 -0.69654910755E+02 -0.81191944385E+03  0.81673605545E+03  0.00000000000E+00 0.  1.
         21    1    1    2  505  501 -0.30047449982E+02  0.26278138614E+02 -0.65319127895E+02  0.76550495024E+02  0.00000000000E+00 0.  1.
         21    1    1    2  506  505 -0.24262144659E+02  0.11002832644E+03 -0.34824704264E+03  0.36602033686E+03  0.00000000000E+00 0.  1.
<scales pt_clust_3="66.65274" pt_clust_4="96.18140" pt_clust_5="34.20789" pt_clust_6="34.20789"></scales>
<clustering>
<clus scale="   34.208">  5  6 -1 -1</clus>
<clus scale="   66.653">  1  3  2 -1</clus>
<clus scale="   96.181">  2  4  1 -1</clus>
<clus scale="   66.653">  1  3  2 -1</clus>
</clustering>
</event>
<event>
 6    0  0.4227619E+002  0.8247055E+02  0.7546771E-02  0.1322183E+00
         21   -1    0    0  506  501  0.00000000000E+00  0.00000000000E+00  0.49025482793E+03  0.49025482793E+03  0.00000000000E+00 0.  1.
         21   -1    0    0  503  502 -0.00000000000E+00 -0.00000000000E+00 -0.22462061359E+03  0.22462061359E+03  0.00000000000E+00 0.  1.
         21    1    1    2  503  505 -0.32155206879E+02 -0.52912980215E+02 -0.15742589016E+03  0.16916456987E+03  0.00000000000E+00 0.  1.
         21    1    1    2  504  502 -0.95247994364E+01  0.11112897027E+03  0.19526717841E+02  0.11323278036E+03  0.00000000000E+00 0.  1.
         21    1    1    2  505  501  0.50328127879E+02 -0.96269965484E+02  0.34831454377E+03  0.36486140946E+03  0.00000000000E+00 0.  1.
         21    1    1    2  506  504 -0.86481215633E+01  0.38053975427E+02  0.55218842889E+02  0.67616681835E+02  0.00000000000E+00 0.  1.
<scales pt_clust_3="61.53471" pt_clust_4="82.47055" pt_clust_5="14000.00000" pt_clust_6="39.02429"></scales>
<clustering>
<clus scale="   39.024">  1  6  2 -1</clus>
<clus scale="   61.535">  2  3  1 -1</clus>
<clus scale="   82.471">  2  4  1 -1</clus>
<clus scale="   39.024">  1  3  2 -1</clus>
</clustering>
</event>
<event>
 6    0  0.4227619E+002  0.9649904E+02  0.7546771E-02  0.1287835E+00
         21   -1    0    0  504  501  0.00000000000E+00  0.00000000000E+00  0.41890643371E+03  0.41890643371E+03  0.00000000000E+00 0. -1.
         21   -1    0    0  505  502 -0.00000000000E+00 -0.00000000000E+00 -0.15064789230E+03  0.15064789230E+03  0.00000000000E+00 0.  1.
         21    1    1    2  503  502  0.27168803047E+02 -0.13266791127E+03 -0.47522975911E+02  0.14351777513E+03  0.00000000000E+00 0.  1.
         21    1    1    2  504  503 -0.38072185154E+01  0.33180211242E+02  0.32812906718E+02  0.46819954914E+02  0.00000000000E+00 0.  1.
         21    1    1    2  505  506 -0.16843112262E-01  0.40230555057E+02 -0.35979023754E+02  0.53972103851E+02  0.00000000000E+00 0.  1.
         21    1    1    2  506  501 -0.23344741419E+02  0.59257144970E+02  0.31894763436E+03  0.32524449211E+03  0.00000000000E+00 0. -1.
<scales pt_clust_3="14000.00000" pt_clust_4="33.39792" pt_clust_5="41.01813" pt_clust_6="96.49904"></scales>
<clustering>
<clus scale="   33.398">  1  4  2 -1</clus>
<clus scale="   41.018">  2  5  1 -1</clus>
<clus scale="   96.499">  1  6  2 -1</clus>
<clus scale="   33.398">  1  3  2 -1</clus>
</clustering>
</event>
<event>
 6    0  0.4227619E+002  0.7775532E+02  0.7546771E-02  0.1335545E+00
         21   -1    0    0  503  501  0.00000000000E+00  0.00000000000E+00  0.34210602163E+02  0.34210602163E+02  0.00000000000E+00 0. -1.
         21   -1    0    0  505  502 -0.00000000000E+00 -0.00000000000E+00 -0.70547224769E+03  0.70547224769E+03  0.00000000000E+00 0. -1.
         21    1    1    2  503  502  0.11563713737E+03  0.16375324774E+02 -0.17885639558E+03  0.21361111638E+03  0.00000000000E+00 0. -1.
         21    1    1    2  504  506 -0.36840015313E+02  0.45788689589E+02 -0.11216165720E+03  0.12662554311E+03  0.00000000000E+00 0. -1.
         21    1    1    2  505  504 -0.61248958041E+02 -0.35893916796E+02 -0.34451600635E+03  0.35175429885E+03  0.00000000000E+00 0. -1.
         21    1    1    2  506  501 -0.17548164017E+02 -0.26270097567E+02 -0.35727586389E+02  0.47691891510E+02  0.00000000000E+00 0.  1.
<scales pt_clust_3="14000.00000" pt_clust_4="56.87009" pt_clust_5="77.75532" pt_clust_6="31.59203"></scales>
<clustering>
<clus scale="   31.592">  1  6  2 -1</clus>
<clus scale="   56.870">  1  4  2 -1</clus>
<clus scale="   77.755">  2  5  1 -1</clus>
<clus scale="   31.592">  1  3  2 -1</clus>
</clustering>
</event>
<event>
 6    0  0.4227619E+002  0.9224524E+02  0.7546771E-02  0.1297504E+00
         21   -1    0    0  505  501  0.00000000000E+00  0.00000000000E+00  0.17590526499E+03  0.17590526499E+03  0.00000000000E+00 0.  1.
         21   -1    0    0  504  502 -0.00000000000E+00 -0.00000000000E+00 -0.24478094324E+03  0.24478094324E+03  0.00000000000E+00 0. -1.
         21    1    1    2  503  501  0.47879254706E+02  0.78084063168E+02  0.11663727784E+03  0.14830306313E+03  0.00000000000E+00 0.  1.
         21    1    1    2  504  503 -0.33733227587E+02 -0.91951327582E+02 -0.74372405620E+02  0.12298061638E+03  0.00000000000E+00 0. -1.
         21    1    1    2  505  506 -0.53594573761E+02 -0.43412653147E-01 -0.40000484692E+02  0.66876146696E+02  0.00000000000E+00 0. -1.
         21    1    1    2  506  502  0.39448546642E+02  0.13910677067E+02 -0.71140065784E+02  0.82526382014E+02  0.00000000000E+00 0. -1.
<scales pt_clust_3="14000.00000" pt_clust_4="92.24524" pt_clust_5="41.27601" pt_clust_6="41.82935"></scales>
<clustering>
<clus scale="   41.829">  2  6  1 -1</clus>
<clus scale="   41.276">  2  5  1 -1</clus>
<clus scale="   92.245">  2  4  1 -1</clus>
<clus scale="   92.245">  1  3  2 -1</clus>
</clustering>
</event>
<event>
 6    0  0.4227619E+002  0.8093304E+02  0.7546771E-02  0.1326424E+00
         21   -1    0    0  505  501  0.00000000000E+00  0.00000000000E+00  0.47408767672E+03  0.47408767672E+03  0.00000000000E+00 0.  1.
         21   -1    0    0  503  502 -0.00000000000E+00 -0.00000000000E+00 -0.38851448474E+03  0.38851448474E+03  0.00000000000E+00 0.  1.
         21    1    1    2  503  506 -0.80698234036E+02  0.44898026064E+01 -0.36096764622E+03  0.36990539996E+03  0.00000000000E+00 0.  1.
         21    1    1    2  504  501  0.45746922908E+02  0.20413541256E+02  0.74369648343E+02  0.89667933046E+02  0.00000000000E+00 0.  1.
         21    1    1    2  505  502 -0.52131347897E+02  0.28906535428E+01  0.69957085471E+02  0.87292766705E+02  0.00000000000E+00 0.  1.
         21    1    1    2  506  504  0.87082659025E+02 -0.27793997405E+02  0.30221410439E+03  0.31573606175E+03  0.00000000000E+00 0.  1.
<scales pt_clust_3="80.93304" pt_clust_4="50.09485" pt_clust_5="43.52141" pt_clust_6="14000.00000"></scales>
<clustering>
<clus scale="   50.095">  1  4  2 -1</clus>
<clus scale="   43.521">  1  5  2 -1</clus>
<clus scale="   80.933">  2  3  1 -1</clus>
<clus scale="   50.095">  1  3  2 -1</clus>
</clustering>
</event>
<event>
 6    0  0.4227619E+002  0.9694353E+02  0.7546771E-02  0.1286858E+00
         21   -1    0    0  503  501  0.00000000000E+00  0.00000000000E+00  0.33699176637E+03  0.33699176637E+03  0.00000000000E+00 0. -1.
         21   -1    0    0  505  502 -0.00000000000E+00 -0.00000000000E+00 -0.13393579079E+03  0.13393579079E+03  0.00000000000E+00 0. -1.
         21    1    1    2  503  506 -0.66791923032E+02  0.71958681376E+01  0.19501703660E+03  0.20626339003E+03  0.00000000000E+00 0. -1.
         21    1    1    2  504  501 -0.33966102493E+02  0.55585779146E+02  0.65127089603E+02  0.92114129003E+02  0.00000000000E+00 0. -1.
         21    1    1    2  505  504  0.60411259941E+02  0.24840608035E+02 -0.13525213166E+02  0.66704628973E+02  0.00000000000E+00 0. -1.
         21    1    1    2  506  502  0.40346765584E+02 -0.87622255318E+02 -0.43562937464E+02  0.10584540916E+03  0.00000000000E+00 0. -1.
<scales pt_clust_3="14000.00000" pt_clust_4="65.14196" pt_clust_5="64.60170" pt_clust_6="96.94353"></scales>
<clustering>
<clus scale="   65.142">  1  4  2 -1</clus>
<clus scale="   64.602">  2  5  1 -1</clus>
<clus scale="   96.944">  2  6  1 -1</clus>
<clus scale="   65.142">  1  3  2 -1</clus>
</clustering>
</event>
<event>
 6    0  0.4227619E+002  0.1511228E+03  0.7546771E-02  0.1199100E+00
         21   -1    0    0  504  501  0.00000000000E+00  0.00000000000E+00  0.20971755604E+04  0.20971755604E+04  0.00000000000E+00 0. -1.
         21   -1    0    0  503  502 -0.00000000000E+00 -0.00000000000E+00 -0.13016501681E+03  0.13016501681E+03  0.00000000000E+00 0.  1.
         21    1    1    2  503  501 -0.23865827149E+02  0.19299701554E+03 -0.12855080838E+02  0.19489145393E+03  0.00000000000E+00 0.  1.
         21    1    1    2  504  505  0.52560492074E+02  0.29748833391E+02  0.84998161283E+03  0.85212460390E+03  0.00000000000E+00 0. -1.
         21    1    1    2  505  506 -0.11835382927E+02 -0.17080595525E+03  0.11085552947E+04  0.11216994215E+04  0.00000000000E+00 0. -1.
         21    1    1    2  506  502 -0.16859281999E+02 -0.51939893677E+02  0.21328716891E+02  0.58625097944E+02  0.00000000000E+00 0.  1.
<scales pt_clust_3="14000.00000" pt_clust_4="60.00960" pt_clust_5="151.12276" pt_clust_6="54.60758"></scales>
<clustering>
<clus scale="   54.608">  2  6  1 -1</clus>
<clus scale="   60.010">  1  4  2 -1</clus>
<clus scale="  151.123">  1  5  2 -1</clus>
<clus scale="   60.010">  1  3  2 -1</clus>
</clustering>
</event>
<event>
 6    0  0.4227619E+002  0.9893121E+02  0.7546771E-02  0.1282560E+00
         21   -1    0    0  505  501  0.00000000000E+00  0.00000000000E+00  0.20859610876E+04  0.20859610876E+04  0.00000000000E+00 0. -1.
         21   -1    0    0  504  502 -0.00000000000E+00 -0.00000000000E+00 -0.37682472145E+03  0.37682472145E+03  0.00000000000E+00 0.  1.
         21    1    1    2  503  501 -0.85726861193E+01 -0.75314947244E+02  0.18594732900E+04  0.18610176648E+04  0.00000000000E+00 0. -1.
         21    1    1    2  504  503 -0.11356602353E+03 -0.18306769413E+01 -0.27243222966E+03  0.29516082537E+03  0.00000000000E+00 0.  1.
         21    1    1    2  505  506  0.48872035590E+02  0.46563090751E+02  0.19031430902E+03  0.20193101174E+03  0.00000000000E+00 0.  1.
         21    1    1    2  506  502  0.73266674059E+02  0.30582533434E+02 -0.68219003244E+02  0.10467630717E+03  0.00000000000E+00 0. -1.
<scales pt_clust_3="49.31603" pt_clust_4="14000.00000" pt_clust_5="67.50257" pt_clust_6="98.93121"></scales>
<clustering>
<clus scale="   67.503">  1  5  2 -1</clus>
<clus scale="   49.316">  1  3  2 -1</clus>
<clus scale="   98.931">  1  6  2 -1</clus>
<clus scale="   67.503">  1  3  2 -1</clus>
</clustering>
</event>
<event>
 6    0  0.4227619E+002  0.1121268E+03  0.7546771E-02  0.1256681E+00
         21   -1    0    0  506  501  0.00000000000E+00  0.00000000000E+00  0.21560714151E+03  0.21560714151E+03  0.00000000000E+00 0. -1.
         21   -1    0    0  503  502 -0.00000000000E+00 -0.00000000000E+00 -0.32388322293E+03  0.32388322293E+03  0.00000000000E+00 0.  1.
         21    1    1    2  503  505 -0.33761272565E+02  0.12404137518E+02 -0.24521310757E+02  0.43531377580E+02  0.00000000000E+00 0.  1.
         21    1    1    2  504  502  0.19948774798E+02 -0.24353992613E+02 -0.69184094984E+02  0.76009930739E+02  0.00000000000E+00 0.  1.
         21    1    1    2  505  501  0.51957984349E+02  0.11606872517E+03 -0.18024550361E+03  0.22059016903E+03  0.00000000000E+00 0.  1.
         21    1    1    2  506  504 -0.38145486582E+02 -0.10411887008E+03  0.16567482794E+03  0.19935888710E+03  0.00000000000E+00 0. -1.
<scales pt_clust_3="32.36746" pt_clust_4="31.48127" pt_clust_5="112.12677" pt_clust_6="14000.00000"></scales>
<clustering>
<clus scale="   31.481">  2  4  1 -1</clus>
<clus scale="   32.367">  2  3  1 -1</clus>
<clus scale="  112.127">  2  5  1 -1</clus>
<clus scale="  112.127">  1  3  2 -1</clus>
</clustering>
</event>
<event>
 6    0  0.4227619E+002  0.1187183E+03  0.7546771E-02  0.1245227E+00
         21   -1    0    0  502  501  0.00000000000E+00  0.00000000000E+00  0.90111415606E+03  0.90111415606E+03  0.00000000000E+00 0. -1.
         21   -1    0    0  505  502 -0.00000000000E+00 -0.00000000000E+00 -0.43738731188E+03  0.43738731188E+03  0.00000000000E+00 0.  1.
         21    1    1    2  503  501 -0.11809093828E+03  0.91890360880E+01  0.85078229469E+03  0.85898802147E+03  0.00000000000E+00 0. -1.
         21    1    1    2  504  506  0.15120301352E+02 -0.32676360480E+02 -0.12873460130E+02  0.38237338073E+02  0.00000000000E+00 0. -1.
         21    1    1    2  505  504 -0.24397276846E+02  0.22486521106E+02 -0.28224902209E+03  0.28419250733E+03  0.00000000000E+00 0.  1.
         21    1    1    2  506  503  0.12736791377E+03  0.10008032860E+01 -0.91932968288E+02  0.15708360106E+03  0.00000000000E+00 0. -1.
<scales pt_clust_3="14000.00000" pt_clust_4="30.99545" pt_clust_5="33.17937" pt_clust_6="118.71826"></scales>
<clustering>
<clus scale="   33.179">  2  5  1 -1</clus>
<clus scale="   30.995">  2  4  1 -1</clus>
<clus scale="  118.718">  2  6  1 -1</clus>
<clus scale="  118.718">  1  3  2 -1</clus>
</clustering>
</event>
<event>
 6    0  0.4227619E+002  0.9214812E+02  0.7546771E-02  0.1297732E+00
         21   -1    0    0  505  501  0.00000000000E+00  0.00000000000E+00  0.18168508468E+03  0.18168508468E+03  0.00000000000E+00 0. -1.
         21   -1    0    0  506  502 -0.00000000000E+00 -0.00000000000E+00 -0.31348156276E+03  0.31348156276E+03  0.00000000000E+00 0.  1.
         21    1    1    2  503  502 -0.31905652704E+02 -0.61471829629E+01 -0.49241737889E+02  0.58995824286E+02  0.00000000000E+00 0.  1.
         21    1    1    2  504  501  0.13883557167E+02 -0.33464298665E+02 -0.21759179567E+01  0.36295276052E+02  0.00000000000E+00 0.  1.
         21    1    1    2  505  503 -0.43842986675E+02 -0.54413732095E+02  0.13772735499E+03  0.15444055825E+03  0.00000000000E+00 0. -1.
         21    1    1    2  506  504  0.61865082212E+02  0.94025213723E+02 -0.21810617722E+03  0.24543498886E+03  0.00000000000E+00 0.  1.
<scales pt_clust_3="32.49244" pt_clust_4="35.82217" pt_clust_5="92.14812" pt_clust_6="14000.00000"></scales>
<clustering>
<clus scale="   32.492">  2  3  1 -1</clus>
<clus scale="   35.822">  1  4  2 -1</clus>
<clus scale="   92.148">  1  5  2 -1</clus>
<clus scale="   35.822">  1  3  2 -1</clus>
</clustering>
</event>
<event>
 6    0  0.4227619E+002  0.1524473E+03  0.7546771E-02  0.1197498E+00
         21   -1    0    0  506  501  0.00000000000E+00  0.00000000000E+00  0.47896492387E+03  0.47896492387E+03  0.00000000000E+00 0.  1.
         21   -1    0    0  504  502 -0.00000000000E+00 -0.00000000000E+00 -0.18113938387E+04  0.18113938387E+04  0.00000000000E+00 0.  1.
         21    1    1    2  503  501 -0.10555819916E+03 -0.70519444306E+02 -0.40824066824E+02  0.13334965267E+03  0.00000000000E+00 0.  1.
         21    1    1    2  504  503 -0.34442781760E+02 -0.27942413749E+02 -0.17005264851E+04  0.17011047617E+04  0.00000000000E+00 0.  1.
         21    1    1    2  505  502  0.12051168178E+03  0.68695818847E+02  0.19653384514E+03  0.24055713097E+03  0.00000000000E+00 0.  1.
         21    1    1    2  506  505  0.19489299144E+02  0.29766039207E+02  0.21238779187E+03  0.21534721732E+03  0.00000000000E+00 0. -1.
<scales pt_clust_3="14000.00000" pt_clust_4="44.31486" pt_clust_5="152.44733" pt_clust_6="35.57878"></scales>
<clustering>
<clus scale="   35.579">  1  6  2 -1</clus>
<clus scale="   44.315">  2  4  1 -1</clus>
<clus scale="  152.447">  1  5  2 -1</clus>
<clus scale="   35.579">  1  3  2 -1</clus>
</clustering>
</event>
<event>
 6    0  0.4227619E+002  0.7607824E+02  0.7546771E-02  0.1340564E+00
         21   -1    0    0  503  501  0.00000000000E+00  0.00000000000E+00  0.16053831387E+03  0.16053831387E+03  0.00000000000E+00 0. -1.
         21   -1    0    0  506  502 -0.00000000000E+00 -0.00000000000E+00 -0.14167136830E+04  0.14167136830E+04  0.00000000000E+00 0.  1.
         21    1    1    2  503  502  0.28988942222E+02  0.11418243612E+02 -0.11607410710E+03  0.12018291641E+03  0.00000000000E+00 0.  1.
         21    1    1    2  504  505 -0.73960553786E+01  0.10645058101E+03 -0.35229011378E+03  0.36809611802E+03  0.00000000000E+00 0.  1.
         21    1    1    2  505  501 -0.44467807239E+02 -0.61509934940E+02  0.13995700807E+03  0.15921313415E+03  0.00000000000E+00 0. -1.
         21    1    1    2  506  504  0.22874920395E+02 -0.56358889679E+02 -0.92776815637E+03  0.92975982834E+03  0.00000000000E+00 0.  1.
<scales pt_clust_3="31.15662" pt_clust_4="76.07824" pt_clust_5="14000.00000" pt_clust_6="64.99371"></scales>
<clustering>
<clus scale="   31.157">  2  3  1 -1</clus>
<clus scale="   64.994">  2  6  1 -1</clus>
<clus scale="   76.078">  2  4  1 -1</clus>
<clus scale="   76.078">  1  3  2 -1</clus>
</clustering>
</event>
<event>
 6    0  0.4227619E+002  0.7435772E+02  0.7546771E-02  0.1345872E+00
         21   -1    0    0  503  501  0.00000000000E+00  0.00000000000E+00  0.44201121600E+03  0.44201121600E+03  0.00000000000E+00 0.  1.
         21   -1    0    0  506  502 -0.00000000000E+00 -0.00000000000E+00 -0.17842708123E+03  0.17842708123E+03  0.00000000000E+00 0.  1.
         21    1    1    2  503  502 -0.65782189628E+02  0.75918057546E+02 -0.32569305148E+02  0.10560117221E+03  0.00000000000E+00 0.  1.
         21    1    1    2  504  501 -0.32334846461E+02 -0.12813086844E+02  0.35198394621E+03  0.35369819886E+03  0.00000000000E+00 0.  1.
         21    1    1    2  505  504  0.65199134789E+02 -0.35697267845E+02  0.17363107046E+02  0.76332821218E+02  0.00000000000E+00 0.  1.
         21    1    1    2  506  505  0.32917901300E+02 -0.27407702857E+02 -0.73193613342E+02  0.84806104945E+02  0.00000000000E+00 0.  1.
<scales pt_clust_3="74.35772" pt_clust_4="34.78099" pt_clust_5="14000.00000" pt_clust_6="41.79735"></scales>
<clustering>
<clus scale="   34.781">  1  4  2 -1</clus>
<clus scale="   41.797">  2  6  1 -1</clus>
<clus scale="   74.358">  2  3  1 -1</clus>
<clus scale="   34.781">  1  3  2 -1</clus>
</clustering>
</event>
<event>
 6    0  0.4227619E+002  0.1569325E+03  0.7546771E-02  0.1192204E+00
         21   -1    0    0  505  501  0.00000000000E+00  0.00000000000E+00  0.13173128842E+04  0.13173128842E+04  0.00000000000E+00 0.  1.
         21   -1    0    0  506  502 -0.00000000000E+00 -0.00000000000E+00 -0.44873573775E+03  0.44873573775E+03  0.00000000000E+00 0. -1.
         21    1    1    2  503  501 -0.10779007938E+03  0.58518016522E+02  0.12070101210E+04  0.12132256557E+04  0.00000000000E+00 0.  1.
         21    1    1    2  504  502 -0.68675098022E+02 -0.10754215583E+03 -0.13300090100E+03  0.18431175772E+03  0.00000000000E+00 0. -1.
         21    1    1    2  505  504  0.18670372258E+03  0.92177588965E+02 -0.60330437128E+02  0.21678272435E+03  0.00000000000E+00 0. -1.
         21    1    1    2  506  503 -0.10238545175E+02 -0.43153449658E+02 -0.14510163641E+03  0.15172848419E+03  0.00000000000E+00 0. -1.
<scales pt_clust_3="122.53101" pt_clust_4="14000.00000" pt_clust_5="156.93254" pt_clust_6="44.35142"></scales>
<clustering>
<clus scale="   44.351">  2  6  1 -1</clus>
<clus scale="  122.531">  1  3  2 -1</clus>
<clus scale="  156.933">  1  5  2 -1</clus>
<clus scale="  122.531">  1  3  2 -1</clus>
</clustering>
</event>
<event>
 6    0  0.4227619E+002  0.1014050E+03  0.7546771E-02  0.1277369E+00
         21   -1    0    0  505  501  0.00000000000E+00  0.00000000000E+00  0.34608233473E+02  0.34608233473E+02  0.00000000000E+00 0.  1.
         21   -1    0    0  506  502 -0.00000000000E+00 -0.00000000000E+00 -0.11650111057E+04  0.11650111057E+04  0.00000000000E+00 0.  1.
         21    1    1    2  503  501  0.70719376772E+02 -0.23452758334E+02 -0.93741269571E+02  0.11974425976E+03  0.00000000000E+00 0.  1.
         21    1    1    2  504  503  0.38013552472E+02 -0.27478598852E+02 -0.14196674013E+03  0.14951474466E+03  0.00000000000E+00 0. -1.
         21    1    1    2  505  502 -0.24350235204E+02  0.42057311977E+02 -0.21650120170E+02  0.53202247589E+02  0.00000000000E+00 0.  1.
         21    1    1    2  506  504 -0.84382694040E+02  0.88740452089E+01 -0.87304474239E+03  0.87715808721E+03  0.00000000000E+00 0.  1.
<scales pt_clust_3="39.87206" pt_clust_4="39.87206" pt_clust_5="48.59785" pt_clust_6="88.07766"></scales>
<clustering>
<clus scale="   39.872">  3  4 -1 -1</clus>
<clus scale="   48.598">  1  5  2 -1</clus>
<clus scale="   88.078">  2  6  1 -1</clus>
<clus scale="   48.598">  1  3  2 -1</clus>
</clustering>
</event>
<event>
 6    0  0.4227619E+002  0.6000369E+02  0.7546771E-02  0.1397816E+00
         21   -1    0    0  503  501  0.00000000000E+00  0.00000000000E+00  0.65515085265E+02  0.65515085265E+02  0.00000000000E+00 0. -1.
         21   -1    0    0  505  502 -0.00000000000E+00 -0.00000000000E+00 -0.10429137913E+04  0.10429137913E+04  0.00000000000E+00 0. -1.
         21    1    1    2  503  504  0.47815714934E+02  0.45853786782E+02 -0.49661180323E+02  0.82795804169E+02  0.00000000000E+00 0. -1.
         21    1    1    2  504  502 -0.58480934384E+02 -0.48216507836E+01 -0.70625533576E+03  0.70868883672E+03  0.00000000000E+00 0. -1.
         21    1    1    2  505  506  0.66849762687E+02 -0.34258557301E+02 -0.24455404333E+03  0.25583045094E+03  0.00000000000E+00 0. -1.
         21    1    1    2  506  501 -0.56184543237E+02 -0.67735786968E+01  0.23071853374E+02  0.61113784740E+02  0.00000000000E+00 0. -1.
<scales pt_clust_3="41.84899" pt_clust_4="14000.00000" pt_clust_5="60.00369" pt_clust_6="56.59138"></scales>
<clustering>
<clus scale="   56.591">  1  6  2 -1</clus>
<clus scale="   41.849">  1  3  2 -1</clus>
<clus scale="   60.004">  1  5  2 -1</clus>
<clus scale="   56.591">  1  3  2 -1</clus>
</clustering>
</event>
<event>
 6    0  0.4227619E+002  0.9204783E+02  0.7546771E-02  0.1297967E+00
         21   -1    0    0  506  501  0.00000000000E+00  0.00000000000E+00  0.12821132976E+04  0.12821132976E+04  0.00000000000E+00 0.  1.
         21   -1    0    0  503  502 -0.00000000000E+00 -0.00000000000E+00 -0.16985312216E+03  0.16985312216E+03  0.00000000000E+00 0.  1.
         21    1    1    2  503  505 -0.57954176152E+02 -0.67611839046E+02 -0.46064989525E+02  0.10025981534E+03  0.00000000000E+00 0.  1.
         21    1    1    2  504  502  0.61031745152E+02 -0.27124817010E+02 -0.79347814705E+02  0.10371453761E+03  0.00000000000E+00 0.  1.
         21    1    1    2  505  501 -0.34119638945E+02  0.21844466246E+02  0.10489409640E+03  0.11244599560E+03  0.00000000000E+00 0. -1.
         21    1    1    2  506  504  0.31042069945E+02  0.72892189810E+02  0.11327788832E+04  0.11355460712E+04  0.00000000000E+00 0.  1.
<scales pt_clust_3="92.04783" pt_clust_4="66.37215" pt_clust_5="40.51334" pt_clust_6="14000.00000"></scales>
<clustering>
<clus scale="   40.513">  1  5  2 -1</clus>
<clus scale="   66.372">  2  4  1 -1</clus>
<clus scale="   92.048">  2  3  1 -1</clus>
<clus scale="   40.513">  1  3  2 -1</clus>
</clustering>
</event>
<event>
 6    0  0.4227619E+002  0.8865346E+02  0.7546771E-02  0.1306146E+00
         21   -1    0    0  504  501  0.00000000000E+00  0.00000000000E+00  0.31248489421E+03  0.31248489421E+03  0.00000000000E+00 0. -1.
         21   -1    0    0  503  502 -0.00000000000E+00 -0.00000000000E+00 -0.84827709117E+02  0.84827709117E+02  0.00000000000E+00 0. -1.
         21    1    1    2  503  505 -0.82867332894E+02 -0.96926251684E+02  0.46287038940E+02  0.13566201790E+03  0.00000000000E+00 0. -1.
         21    1    1    2  504  506  0.31815766089E+01  0.44241796925E+02  0.34297517660E+02  0.56069410043E+02  0.00000000000E+00 0. -1.
         21    1    1    2  505  501  0.23744890097E+02  0.51247238515E+02  0.13771176152E+03  0.14884430968E+03  0.00000000000E+00 0. -1.
         21    1    1    2  506  502  0.55940866188E+02  0.14372162439E+01  0.93608669719E+01  0.56736865713E+02  0.00000000000E+00 0. -1.
<scales pt_clust_3="88.65346" pt_clust_4="44.35605" pt_clust_5="14000.00000" pt_clust_6="56.75611"></scales>
<clustering>
<clus scale="   44.356">  1  4  2 -1</clus>
<clus scale="   56.756">  2  6  1 -1</clus>
<clus scale="   88.653">  2  3  1 -1</clus>
<clus scale="   44.356">  1  3  2 -1</clus>
</clustering>
</event>
<event>
 6    0  0.4227619E+002  0.8053166E+02  0.7546771E-02  0.1327549E+00
         21   -1    0    0  503  501  0.00000000000E+00  0.00000000000E+00  0.72865166939E+02  0.72865166939E+02  0.00000000000E+00 0. -1.
         21   -1    0    0  505  502 -0.00000000000E+00 -0.00000000000E+00 -0.55461572731E+03  0.55461572731E+03  0.00000000000E+00 0. -1.
         21    1    1    2  503  504 -0.40098153408E+02 -0.21454056679E+02  0.62210415470E+01  0.45900324755E+02  0.00000000000E+00 0. -1.
         21    1    1    2  504  502  0.14095546225E+02  0.12229073774E+03 -0.19759782054E+03  0.23280594418E+03  0.00000000000E+00 0. -1.
         21    1    1    2  505  506 -0.82705993993E+01 -0.69982249913E+02 -0.29417968636E+03  0.30250224129E+03  0.00000000000E+00 0. -1.
         21    1    1    2  506  501  0.34273206582E+02 -0.30854431152E+02  0.38059049821E+01  0.46272384030E+02  0.00000000000E+00 0. -1.
<scales pt_clust_3="45.47679" pt_clust_4="80.53166" pt_clust_5="14000.00000" pt_clust_6="44.23095"></scales>
<clustering>
<clus scale="   45.477">  1  3  2 -1</clus>
<clus scale="   44.231">  1  6  2 -1</clus>
<clus scale="   80.532">  1  4  2 -1</clus>
<clus scale="   45.477">  1  3  2 -1</clus>
</clustering>
</event>
<event>
 6    0  0.4227619E+002  0.1042640E+03  0.7546771E-02  0.1271577E+00
         21   -1    0    0  506  501  0.00000000000E+00  0.00000000000E+00  0.15755239134E+04  0.15755239134E+04  0.00000000000E+00 0.  1.
         21   -1    0    0  503  502 -0.00000000000E+00 -0.00000000000E+00 -0.54906474609E+03  0.54906474609E+03  0.00000000000E+00 0. -1.
         21    1    1    2  503  505 -0.66676226118E+02  0.41326922416E+02 -0.44341156039E+03  0.45029706365E+03  0.00000000000E+00 0. -1.
         21    1    1    2  504  502  0.21510747815E+02 -0.62482416808E+02 -0.41063923419E+02  0.77801095675E+02  0.00000000000E+00 0. -1.
         21    1    1    2  505  501 -0.17623862563E+02  0.82271132543E+02  0.15064035247E+04  0.15087513774E+04  0.00000000000E+00 0.  1.
         21    1    1    2  506  504  0.62789340866E+02 -0.61115638152E+02  0.45311264603E+01  0.87739122745E+02  0.00000000000E+00 0. -1.
<scales pt_clust_3="78.44510" pt_clust_4="52.72384" pt_clust_5="84.76465" pt_clust_6="52.72384"></scales>
<clustering>
<clus scale="   52.724">  4  6 -1 -1</clus>
<clus scale="   78.445">  2  3  1 -1</clus>
<clus scale="   84.765">  1  5  2 -1</clus>
<clus scale="   84.765">  1  3  2 -1</clus>
</clustering>
</event>
<event>
 6    0  0.4227619E+002  0.1553056E+03  0.7546771E-02  0.1194101E+00
         21   -1    0    0  505  501  0.00000000000E+00  0.00000000000E+00  0.61987733944E+03  0.61987733944E+03  0.00000000000E+00 0.  1.
         21   -1    0    0  506  502 -0.00000000000E+00 -0.00000000000E+00 -0.24110051778E+03  0.24110051778E+03  0.00000000000E+00 0. -1.
         21    1    1    2  503  501  0.35207121315E+02 -0.56154047787E+02  0.26810561563E+03  0.27617646461E+03  0.00000000000E+00 0.  1.
         21    1    1    2  504  503 -0.68476492278E+02 -0.25275940279E+01  0.13089815822E+03  0.14774893080E+03  0.00000000000E+00 0.  1.
         21    1    1    2  505  502  0.99621765632E+02  0.11099167239E+03 -0.19348204270E+03  0.24429275138E+03  0.00000000000E+00 0. -1.
         21    1    1    2  506  504 -0.66352394669E+02 -0.52310030572E+02  0.17325509051E+03  0.19275971043E+03  0.00000000000E+00 0.  1.
<scales pt_clust_3="66.27834" pt_clust_4="42.72595" pt_clust_5="147.88133" pt_clust_6="42.72595"></scales>
<clustering>
<clus scale="   42.726">  4  6 -1 -1</clus>
<clus scale="   66.278">  1  3  2 -1</clus>
<clus scale="  147.881">  2  5  1 -1</clus>
<clus scale="   66.278">  1  3  2 -1</clus>
</clustering>
</event>
<event>
 6    0  0.4227619E+002  0.8801511E+02  0.7546771E-02  0.1307731E+00
         21   -1    0    0  503  501  0.00000000000E+00  0.00000000000E+00  0.15035554693E+03  0.15035554693E+03  0.00000000000E+00 0.  1.
         21   -1    0    0  506  502 -0.00000000000E+00 -0.00000000000E+00 -0.21429917318E+03  0.21429917318E+03  0.00000000000E+00 0.  1.
         21    1    1    2  503  502 -0.57270237446E+02 -0.15394532598E+02  0.16618884993E+02  0.61587815917E+02  0.00000000000E+00 0.  1.
         21    1    1    2  504  501  0.26737429152E+02 -0.20199840956E+02  0.57967623796E+02  0.66956471687E+02  0.00000000000E+00 0.  1.
         21    1    1    2  505  504  0.10801468795E+03  0.20429616431E+02 -0.62263952692E+02  0.12633820422E+03  0.00000000000E+00 0.  1.
         21    1    1    2  506  505 -0.77481879651E+02  0.15164757123E+02 -0.76266182346E+02  0.10977222828E+03  0.00000000000E+00 0.  1.
<scales pt_clust_3="51.51049" pt_clust_4="33.51005" pt_clust_5="88.01511" pt_clust_6="14000.00000"></scales>
<clustering>
<clus scale="   33.510">  1  4  2 -1</clus>
<clus scale="   51.510">  1  3  2 -1</clus>
<clus scale="   88.015">  1  5  2 -1</clus>
<clus scale="   33.510">  1  3  2 -1</clus>
</clustering>
</event>
<event>
 6    0  0.4227619E+002  0.6715041E+02  0.7546771E-02  0.1370060E+00
         21   -1    0    0  504  501  0.00000000000E+00  0.00000000000E+00  0.42492079007E+03  0.42492079007E+03  0.00000000000E+00 0.  1.
         21   -1    0    0  501  502 -0.00000000000E+00 -0.00000000000E+00 -0.12799950779E+04  0.12799950779E+04  0.00000000000E+00 0. -1.
         21    1    1    2  503  506  0.21286895283E+02  0.63922595347E+02  0.11104457077E+03  0.12988505227E+03  0.00000000000E+00 0.  1.
         21    1    1    2  504  503  0.31624188947E+02 -0.33739693700E+02  0.12830050969E+03  0.13637989971E+03  0.00000000000E+00 0.  1.
         21    1    1    2  505  502  0.41710988123E+02 -0.20561648515E+02 -0.12529314988E+04  0.12537942130E+04  0.00000000000E+00 0. -1.
         21    1    1    2  506  505 -0.94622072353E+02 -0.96212531329E+01  0.15851213054E+03  0.18485670293E+03  0.00000000000E+00 0.  1.
<scales pt_clust_3="14000.00000" pt_clust_4="46.24345" pt_clust_5="46.56745" pt_clust_6="67.15041"></scales>
<clustering>
<clus scale="   46.243">  1  4  2 -1</clus>
<clus scale="   46.567">  2  5  1 -1</clus>
<clus scale="   67.150">  2  6  1 -1</clus>
<clus scale="   46.243">  1  3  2 -1</clus>
</clustering>
</event>
<event>
 6    0  0.4227619E+002  0.1124880E+03  0.7546771E-02  0.1256031E+00
         21   -1    0    0  505  501  0.00000000000E+00  0.00000000000E+00  0.17634282293E+03  0.17634282293E+03  0.00000000000E+00 0.  1.
         21   -1    0    0  506  502 -0.00000000000E+00 -0.00000000000E+00 -0.15236344519E+04  0.15236344519E+04  0.00000000000E+00 0.  1.
         21    1    1    2  503  502  0.19700558127E+02 -0.23404508020E+02 -0.43813058688E+03  0.43919732940E+03  0.00000000000E+00 0. -1.
         21    1    1    2  504  503 -0.11591647770E+03 -0.39121465460E+02 -0.10398190410E+04  0.10469912879E+04  0.00000000000E+00 0.  1.
         21    1    1    2  505  504  0.33551647398E+02  0.52288039700E+01  0.12405893223E+03  0.12862220687E+03  0.00000000000E+00 0.  1.
         21    1    1    2  506  501  0.62664272174E+02  0.57297169510E+02  0.65990666820E+01  0.85166450683E+02  0.00000000000E+00 0. -1.
<scales pt_clust_3="30.59220" pt_clust_4="14000.00000" pt_clust_5="33.99004" pt_clust_6="112.48798"></scales>
<clustering>
<clus scale="   30.592">  2  3  1 -1</clus>
<clus scale="   33.990">  1  5  2 -1</clus>
<clus scale="  112.488">  1  6  2 -1</clus>
<clus scale="   33.990">  1  3  2 -1</clus>
</clustering>
</event>
<event>
 6    0  0.4227619E+002  0.1182514E+03  0.7546771E-02  0.1246010E+00
         21   -1    0    0  504  501  0.00000000000E+00  0.00000000000E+00  0.14261716185E+04  0.14261716185E+04  0.00000000000E+00 0. -1.
         21   -1    0    0  505  502 -0.00000000000E+00 -0.00000000000E+00 -0.95660307267E+03  0.95660307267E+03  0.00000000000E+00 0.  1.
         21    1    1    2  503  501 -0.78596440487E+02 -0.54717709081E+02  0.79361606294E+03  0.79937343182E+03  0.00000000000E+00 0. -1.
         21    1    1    2  504  506 -0.29489170744E+02  0.65870279707E+01  0.61830703546E+03  0.61904490162E+03  0.00000000000E+00 0. -1.
         21    1    1    2  505  503 -0.35075757683E+02 -0.24438730321E+02 -0.15367157138E+03  0.15950709128E+03  0.00000000000E+00 0.  1.
         21    1    1    2  506  502  0.14316136891E+03  0.72569411431E+02 -0.78868298114E+03  0.80484926648E+03  0.00000000000E+00 0.  1.
<scales pt_clust_3="14000.00000" pt_clust_4="30.21589" pt_clust_5="42.82387" pt_clust_6="118.25140"></scales>
<clustering>
<clus scale="   30.216">  1  4  2 -1</clus>
<clus scale="   42.824">  2  5  1 -1</clus>
<clus scale="  118.251">  2  6  1 -1</clus>
<clus scale="   30.216">  1  3  2 -1</clus>
</clustering>
</event>
<event>
 6    0  0.4227619E+002  0.1527942E+03  0.7546771E-02  0.1197081E+00
         21   -1    0    0  506  501  0.00000000000E+00  0.00000000000E+00  0.57273400204E+03  0.57273400204E+03  0.00000000000E+00 0.  1.
         21   -1    0    0  504  502 -0.00000000000E+00 -0.00000000000E+00 -0.53847061637E+02  0.53847061637E+02  0.00000000000E+00 0.  1.
         21    1    1    2  503  505  0.76218996338E+02 -0.12139343514E+01  0.69478836577E+02  0.10314125155E+03  0.00000000000E+00 0.  1.
         21    1    1    2  504  503  0.11094245054E+02 -0.39454024724E+02  0.23416547951E+02  0.47202087435E+02  0.00000000000E+00 0.  1.
         21    1    1    2  505  501  0.59890898191E+02  0.24759739750E+02  0.13440402155E+03  0.14921261813E+03  0.00000000000E+00 0.  1.
         21    1    1    2  506  502 -0.14720413958E+03  0.15908219326E+02  0.29158753432E+03  0.32702510657E+03  0.00000000000E+00 0.  1.
<scales pt_clust_3="48.66432" pt_clust_4="40.98417" pt_clust_5="48.66432" pt_clust_6="142.52064"></scales>
<clustering>
<clus scale="   40.984">  2  4  1 -1</clus>
<clus scale="   48.664">  3  5 -1 -1</clus>
<clus scale="  142.521">  1  6  2 -1</clus>
<clus scale="  142.521">  1  3  2 -1</clus>
</clustering>
</event>
<event>
 6    0  0.4227619E+002  0.1667752E+03  0.7546771E-02  0.1181253E+00
         21   -1    0    0  503  501  0.00000000000E+00  0.00000000000E+00  0.17132161202E+03  0.17132161202E+03  0.00000000000E+00 0. -1.
         21   -1    0    0  505  502 -0.00000000000E+00 -0.00000000000E+00 -0.54792522284E+03  0.54792522284E+03  0.00000000000E+00 0. -1.
         21    1    1    2  503  504 -0.52491492331E+02 -0.29288699805E+01  0.69456107113E+02  0.87109619800E+02  0.00000000000E+00 0. -1.
         21    1    1    2  504  506  0.40984399883E+02 -0.31364562852E+02  0.96528436744E+01  0.52503659184E+02  0.00000000000E+00 0. -1.
         21    1    1    2  505  501  0.79989285991E+00  0.15198837971E+03 -0.43351374956E+03  0.45938576213E+03  0.00000000000E+00 0. -1.
         21    1    1    2  506  502  0.10707199588E+02 -0.11769494687E+03 -0.22198812053E+02  0.12024779374E+03  0.00000000000E+00 0. -1.
<scales pt_clust_3="52.57314" pt_clust_4="45.75911" pt_clust_5="151.72039" pt_clust_6="45.75911"></scales>
<clustering>
<clus scale="   45.759">  4  6 -1 -1</clus>
<clus scale="   52.573">  1  3  2 -1</clus>
<clus scale="  151.720">  2  5  1 -1</clus>
<clus scale="   52.573">  1  3  2 -1</clus>
</clustering>
</event>
<event>
 6    0  0.4227619E+002  0.8414825E+02  0.7546771E-02  0.1317675E+00
         21   -1    0    0  504  501  0.00000000000E+00  0.00000000000E+00  0.17630864513E+04  0.17630864513E+04  0.00000000000E+00 0. -1.
         21   -1    0    0  506  502 -0.00000000000E+00 -0.00000000000E+00 -0.23682479754E+02  0.23682479754E+02  0.00000000000E+00 0. -1.
         21    1    1    2  503  502 -0.41160447925E+02  0.10975911358E+02  0.26006116453E+02  0.49909630298E+02  0.00000000000E+00 0. -1.
         21    1    1    2  504  503  0.76249533828E+02  0.10170997835E+03  0.82002733833E+03  0.82982151498E+03  0.00000000000E+00 0. -1.
         21    1    1    2  505  501 -0.40904803991E+02 -0.36782390706E+02  0.64302585527E+03  0.64537461819E+03  0.00000000000E+00 0. -1.
         21    1    1    2  506  505  0.58157180880E+01 -0.75903498997E+02  0.25034466144E+03  0.26166316755E+03  0.00000000000E+00 0. -1.
<scales pt_clust_3="42.59875" pt_clust_4="84.14825" pt_clust_5="57.45092" pt_clust_6="14000.00000"></scales>
<clustering>
<clus scale="   42.599">  2  3  1 -1</clus>
<clus scale="   57.451">  1  5  2 -1</clus>
<clus scale="   84.148">  1  4  2 -1</clus>
<clus scale="   57.451">  1  3  2 -1</clus>
</clustering>
</event>
<event>
 6    0  0.4227619E+002  0.4210646E+03  0.7546771E-02  0.1036720E+00
         21   -1    0    0  506  501  0.00000000000E+00  0.00000000000E+00  0.69074870152E+03  0.69074870152E+03  0.00000000000E+00 0.  1.
         21   -1    0    0  504  502 -0.00000000000E+00 -0.00000000000E+00 -0.13294707480E+04  0.13294707480E+04  0.00000000000E+00 0. -1.
         21    1    1    2  503  501  0.21468784717E+03  0.19113770058E+03  0.37181528004E+03  0.46996924876E+03  0.00000000000E+00 0.  1.
         21    1    1    2  504  503  0.15340221995E+02  0.13081258248E+03  0.21856151130E+03  0.25517912996E+03  0.00000000000E+00 0.  1.
         21    1    1    2  505  502 -0.22476362821E+03 -0.28711650289E+03 -0.10243158113E+04  0.10872798426E+04  0.00000000000E+00 0. -1.
         21    1    1    2  506  505 -0.52644409552E+01 -0.34833780179E+02 -0.20478302649E+03  0.20779122821E+03  0.00000000000E+00 0. -1.
<scales pt_clust_3="97.46205" pt_clust_4="97.46205" pt_clust_5="408.07490" pt_clust_6="31.02138"></scales>
<clustering>
<clus scale="   31.021">  5  6 -1 -1</clus>
<clus scale="   97.462">  3  4 -1 -1</clus>
<clus scale="  408.075">  2  5  1 -1</clus>
<clus scale="  421.065">  1  3  2 -1</clus>
</clustering>
</event>
<event>
 6    0  0.4227619E+002  0.1029501E+03  0.7546771E-02  0.1274212E+00
         21   -1    0    0  506  501  0.00000000000E+00  0.00000000000E+00  0.31417301549E+03  0.31417301549E+03  0.00000000000E+00 0.  1.
         21   -1    0    0  504  502 -0.00000000000E+00 -0.00000000000E+00 -0.12573420582E+04  0.12573420582E+04  0.00000000000E+00 0.  1.
         21    1    1    2  503  505 -0.39943849312E+02  0.14879676792E+02 -0.53652346615E+03  0.53821403327E+03  0.00000000000E+00 0.  1.
         21    1    1    2  504  501  0.33517194876E+02 -0.95192921226E+02  0.21305381931E+03  0.23574779857E+03  0.00000000000E+00 0.  1.
         21    1    1    2  505  502 -0.54747015598E+01 -0.37645945473E+02 -0.66832795199E+03  0.66940977060E+03  0.00000000000E+00 0. -1.
         21    1    1    2  506  503  0.11901355996E+02  0.11795918991E+03  0.48628556108E+02  0.12814347126E+03  0.00000000000E+00 0.  1.
<scales pt_clust_3="48.98996" pt_clust_4="102.95008" pt_clust_5="38.04194" pt_clust_6="14000.00000"></scales>
<clustering>
<clus scale="   38.042">  2  5  1 -1</clus>
<clus scale="   48.990">  2  3  1 -1</clus>
<clus scale="  102.950">  1  4  2 -1</clus>
<clus scale="  102.950">  1  3  2 -1</clus>
</clustering>
</event>
<event>
 6    0  0.4227619E+002  0.9139180E+02  0.7546771E-02  0.1299516E+00
         21   -1    0    0  506  501  0.00000000000E+00  0.00000000000E+00  0.27843500560E+03  0.27843500560E+03  0.00000000000E+00 0. -1.
         21   -1    0    0  503  502 -0.00000000000E+00 -0.00000000000E+00 -0.18300200422E+03  0.18300200422E+03  0.00000000000E+00 0. -1.
         21    1    1    2  503  504 -0.21563151521E+02  0.31371307783E+02 -0.80087229978E+02  0.88674082240E+02  0.00000000000E+00 0. -1.
         21    1    1    2  504  505 -0.33493215969E+01  0.76597773227E+02 -0.46202084287E+02  0.89515749514E+02  0.00000000000E+00 0. -1.
         21    1    1    2  505  501  0.77415297149E+02 -0.31798619419E+02  0.10894398442E+03  0.13737930037E+03  0.00000000000E+00 0. -1.
         21    1    1    2  506  502 -0.52502824031E+02 -0.76170461591E+02  0.11277833123E+03  0.14586787770E+03  0.00000000000E+00 0. -1.
<scales pt_clust_3="38.06742" pt_clust_4="91.39180" pt_clust_5="79.15466" pt_clust_6="14000.00000"></scales>
<clustering>
<clus scale="   38.067">  2  3  1 -1</clus>
<clus scale="   79.155">  1  5  2 -1</clus>
<clus scale="   91.392">  2  4  1 -1</clus>
<clus scale="   79.155">  1  3  2 -1</clus>
</clustering>
</event>
<event>
 6    0  0.4227619E+002  0.8379670E+02  0.7546771E-02  0.1318610E+00
         21   -1    0    0  506  501  0.00000000000E+00  0.00000000000E+00  0.57754595965E+03  0.57754595965E+03  0.00000000000E+00 0.  1.
         21   -1    0    0  504  502 -0.00000000000E+00 -0.00000000000E+00 -0.10139622368E+04  0.10139622368E+04  0.00000000000E+00 0.  1.
         21    1    1    2  503  501 -0.35566836519E+02  0.75576716977E+02  0.54838954405E+03  0.55471427964E+03  0.00000000000E+00 0.  1.
         21    1    1    2  504  503  0.74702280025E+02 -0.11500006470E+03 -0.60402543235E+03  0.61939661643E+03  0.00000000000E+00 0.  1.
         21    1    1    2  505  502  0.23806163251E+02  0.60827023453E+02 -0.32230825183E+03  0.32886056222E+03  0.00000000000E+00 0.  1.
         21    1    1    2  506  505 -0.62941606758E+02 -0.21403675730E+02 -0.58472137040E+02  0.88536738171E+02  0.00000000000E+00 0.  1.
<scales pt_clust_3="14000.00000" pt_clust_4="83.79670" pt_clust_5="65.31968" pt_clust_6="62.21237"></scales>
<clustering>
<clus scale="   65.320">  2  5  1 -1</clus>
<clus scale="   62.212">  2  6  1 -1</clus>
<clus scale="   83.797">  2  4  1 -1</clus>
<clus scale="   83.797">  1  3  2 -1</clus>
</clustering>
</event>
<event>
 6    0  0.4227619E+002  0.7091190E+02  0.7546771E-02  0.1357019E+00
         21   -1    0    0  503  501  0.00000000000E+00  0.00000000000E+00  0.37313284663E+03  0.37313284663E+03  0.00000000000E+00 0.  1.
         21   -1    0    0  504  502 -0.00000000000E+00 -0.00000000000E+00 -0.14450595638E+04  0.14450595638E+04  0.00000000000E+00 0. -1.
         21    1    1    2  503  502 -0.23341048391E+02 -0.98511051452E+02  0.15685293031E+03  0.18668710064E+03  0.00000000000E+00 0.  1.
         21    1    1    2  504  506 -0.58461253205E+02  0.16935829158E+02 -0.39774637970E+03  0.40237634498E+03  0.00000000000E+00 0. -1.
         21    1    1    2  505  501  0.24083276043E+02  0.28029639514E+02  0.19581258867E+03  0.19926925191E+03  0.00000000000E+00 0.  1.
         21    1    1    2  506  505  0.57719025553E+02  0.53545582780E+02 -0.10268458565E+04  0.10298597129E+04  0.00000000000E+00 0. -1.
<scales pt_clust_3="70.91190" pt_clust_4="60.66441" pt_clust_5="36.95490" pt_clust_6="14000.00000"></scales>
<clustering>
<clus scale="   36.955">  1  5  2 -1</clus>
<clus scale="   60.664">  2  4  1 -1</clus>
<clus scale="   70.912">  1  3  2 -1</clus>
<clus scale="   36.955">  1  3  2 -1</clus>
</clustering>
</event>
<event>
 6    0  0.4227619E+002  0.1123713E+03  0.7546771E-02  0.1256241E+00
         21   -1    0    0  505  501  0.00000000000E+00  0.00000000000E+00  0.64964310580E+02  0.64964310580E+02  0.00000000000E+00 0.  1.
         21   -1    0    0  503  502 -0.00000000000E+00 -0.00000000000E+00 -0.15723278345E+04  0.15723278345E+04  0.00000000000E+00 0.  1.
         21    1    1    2  503  504  0.22958849940E+02  0.20728345368E+02 -0.68973587864E+03  0.69042910959E+03  0.00000000000E+00 0.  1.
         21    1    1    2  504  506  0.19642651195E+02  0.84262678674E+02 -0.33583069547E+03  0.34679718681E+03  0.00000000000E+00 0.  1.
         21    1    1    2  505  502 -0.14822788163E+03 -0.74130146500E+02 -0.45856922779E+03  0.48759872866E+03  0.00000000000E+00 0.  1.
         21    1    1    2  506  501  0.10562638050E+03 -0.30860877541E+02 -0.23227722058E+02  0.11246712005E+03  0.00000000000E+00 0.  1.
<scales pt_clust_3="30.93175" pt_clust_4="96.58985" pt_clust_5="112.37126" pt_clust_6="14000.00000"></scales>
<clustering>
<clus scale="   30.932">  2  3  1 -1</clus>
<clus scale="   96.590">  2  4  1 -1</clus>
<clus scale="  112.371">  2  5  1 -1</clus>
<clus scale="  112.371">  1  3  2 -1</clus>
</clustering>
</event>
<event>
 6    0  0.4227619E+002  0.1501778E+03  0.7546771E-02  0.1200255E+00
         21   -1    0    0  504  501  0.00000000000E+00  0.00000000000E+00  0.95693967916E+03  0.95693967916E+03  0.00000000000E+00 0.  1.
         21   -1    0    0  505  502 -0.00000000000E+00 -0.00000000000E+00 -0.79725030793E+02  0.79725030793E+02  0.00000000000E+00 0.  1.
         21    1    1    2  503  502  0.13559264721E+03  0.74094397201E+02  0.29970844973E+03  0.33719504818E+03  0.00000000000E+00 0.  1.
         21    1    1    2  504  503 -0.11795019356E+00 -0.12657633386E+03  0.51374068205E+03  0.52910402626E+03  0.00000000000E+00 0.  1.
         21    1    1    2  505  506 -0.88986762899E+02  0.13156338494E+02  0.12599719548E+02  0.90832186732E+02  0.00000000000E+00 0.  1.
         21    1    1    2  506  501 -0.46487934121E+02  0.39325598163E+02  0.51165797033E+02  0.79533448785E+02  0.00000000000E+00 0.  1.
<scales pt_clust_3="136.75784" pt_clust_4="126.57639" pt_clust_5="51.05419" pt_clust_6="51.05419"></scales>
<clustering>
<clus scale="   51.054">  5  6 -1 -1</clus>
<clus scale="  126.576">  1  4  2 -1</clus>
<clus scale="  136.758">  1  3  2 -1</clus>
<clus scale="  126.576">  1  3  2 -1</clus>
</clustering>
</event>
<event>
 6    0  0.4227619E+002  0.1608663E+03  0.7546771E-02  0.1187722E+00
         21   -1    0    0  505  501  0.00000000000E+00  0.00000000000E+00  0.27740516949E+04  0.27740516949E+04  0.00000000000E+00 0. -1.
         21   -1    0    0  506  502 -0.00000000000E+00 -0.00000000000E+00 -0.18949835466E+03  0.18949835466E+03  0.00000000000E+00 0.  1.
         21    1    1    2  503  501 -0.25184239704E+02 -0.12051967846E+03  0.17514614748E+04  0.17557837386E+04  0.00000000000E+00 0. -1.
         21    1    1    2  504  502  0.10330880146E+03 -0.70451809568E+01 -0.15022004805E+03  0.18245110542E+03  0.00000000000E+00 0.  1.
         21    1    1    2  505  504 -0.87204821975E+02 -0.48179130391E+02  0.21286940745E+03  0.23503041124E+03  0.00000000000E+00 0. -1.
         21    1    1    2  506  503  0.90802602228E+01  0.17574398980E+03  0.77044250597E+03  0.79028479429E+03  0.00000000000E+00 0. -1.
<scales pt_clust_3="160.86627" pt_clust_4="103.02021" pt_clust_5="99.62886" pt_clust_6="14000.00000"></scales>
<clustering>
<clus scale="   99.629">  1  5  2 -1</clus>
<clus scale="  103.020">  2  4  1 -1</clus>
<clus scale="  160.866">  1  3  2 -1</clus>
<clus scale="   99.629">  1  3  2 -1</clus>
</clustering>
</event>
<event>
 6    0  0.4227619E+002  0.8495897E+02  0.7546771E-02  0.1315540E+00
         21   -1    0    0  503  501  0.00000000000E+00  0.00000000000E+00  0.15853859111E+04  0.15853859111E+04  0.00000000000E+00 0.  1.
         21   -1    0    0  506  502 -0.00000000000E+00 -0.00000000000E+00 -0.13176960199E+03  0.13176960199E+03  0.00000000000E+00 0.  1.
         21    1    1    2  503  502 -0.50261062647E+02  0.71341606604E+02  0.43502885201E+03  0.44369573058E+03  0.00000000000E+00 0.  1.
         21    1    1    2  504  505 -0.18858960080E+02 -0.94271735715E+02  0.21018706974E+03  0.23113075264E+03  0.00000000000E+00 0.  1.
         21    1    1    2  505  501  0.32473420667E+02  0.13211284476E+02  0.92195040817E+03  0.92261672227E+03  0.00000000000E+00 0.  1.
         21    1    1    2  506  504  0.36646602059E+02  0.97188446356E+01 -0.11355002078E+03  0.11971230765E+03  0.00000000000E+00 0.  1.
<scales pt_clust_3="14000.00000" pt_clust_4="84.95897" pt_clust_5="35.05797" pt_clust_6="38.07504"></scales>
<clustering>
<clus scale="   35.058">  1  5  2 -1</clus>
<clus scale="   38.075">  2  6  1 -1</clus>
<clus scale="   84.959">  2  4  1 -1</clus>
<clus scale="   35.058">  1  3  2 -1</clus>
</clustering>
</event>
<event>
 6    0  0.4227619E+002  0.1054632E+03  0.7546771E-02  0.1269210E+00
         21   -1    0    0  503  501  0.00000000000E+00  0.00000000000E+00  0.18503602611E+03  0.18503602611E+03  0.00000000000E+00 0. -1.
         21   -1    0    0  504  502 -0.00000000000E+00 -0.00000000000E+00 -0.51429715583E+03  0.51429715583E+03  0.00000000000E+00 0. -1.
         21    1    1    2  503  506 -0.51163500988E+02 -0.58974043767E+02  0.29334371332E+02  0.83403519188E+02  0.00000000000E+00 0. -1.
         21    1    1    2  504  505  0.60369874189E+02 -0.81172608989E+02 -0.37407880163E+03  0.38751575966E+03  0.00000000000E+00 0. -1.
         21    1    1    2  505  501  0.24514222058E+02 -0.38381415596E+02  0.10104451071E+02  0.46649545310E+02  0.00000000000E+00 0. -1.
         21    1    1    2  506  502 -0.33720595259E+02  0.17852806835E+03  0.53788495061E+01  0.18176435777E+03  0.00000000000E+00 0. -1.
<scales pt_clust_3="84.20502" pt_clust_4="105.46318" pt_clust_5="45.54207" pt_clust_6="14000.00000"></scales>
<clustering>
<clus scale="   45.542">  1  5  2 -1</clus>
<clus scale="   84.205">  1  3  2 -1</clus>
<clus scale="  105.463">  2  4  1 -1</clus>
<clus scale="   45.542">  1  3  2 -1</clus>
</clustering>
</event>
<event>
 6    0  0.4227619E+002  0.1606201E+03  0.7546771E-02  0.1187998E+00
         21   -1    0    0  503  501  0.00000000000E+00  0.00000000000E+00  0.49240328723E+03  0.49240328723E+03  0.00000000000E+00 0. -1.
         21   -1    0    0  501  502 -0.00000000000E+00 -0.00000000000E+00 -0.15039580213E+03  0.15039580213E+03  0.00000000000E+00 0. -1.
         21    1    1    2  503  505  0.23487953452E+01  0.31722791675E+02  0.48434321832E+02  0.57945973826E+02  0.00000000000E+00 0. -1.
         21    1    1    2  504  502  0.15490830948E+03 -0.77622427294E+02 -0.46451273366E+02  0.17938658356E+03  0.00000000000E+00 0. -1.
         21    1    1    2  505  506 -0.18811156462E+02  0.35885526565E+02  0.21458513602E+03  0.21837676439E+03  0.00000000000E+00 0. -1.
         21    1    1    2  506  504 -0.13844594836E+03  0.10014109054E+02  0.12543930062E+03  0.18708976759E+03  0.00000000000E+00 0. -1.
<scales pt_clust_3="31.80963" pt_clust_4="14000.00000" pt_clust_5="54.46169" pt_clust_6="160.62010"></scales>
<clustering>
<clus scale="   31.810">  1  3  2 -1</clus>
<clus scale="   54.462">  1  5  2 -1</clus>
<clus scale="  160.620">  1  6  2 -1</clus>
<clus scale="   31.810">  1  3  2 -1</clus>
</clustering>
</event>
<event>
 6    0  0.4227619E+002  0.8674522E+02  0.7546771E-02  0.1310931E+00
         21   -1    0    0  503  501  0.00000000000E+00  0.00000000000E+00  0.26851412622E+03  0.26851412622E+03  0.00000000000E+00 0.  1.
         21   -1    0    0  504  502 -0.00000000000E+00 -0.00000000000E+00 -0.38716023322E+03  0.38716023322E+03  0.00000000000E+00 0. -1.
         21    1    1    2  503  506 -0.26877358900E+02 -0.27528193639E+02  0.79397839091E+00  0.38481479548E+02  0.00000000000E+00 0.  1.
         21    1    1    2  504  505  0.19281520095E+02  0.84889628077E+02 -0.33605503260E+03  0.34714695867E+03  0.00000000000E+00 0. -1.
         21    1    1    2  505  501 -0.43467631213E+02 -0.67184962834E+02  0.20006734503E+03  0.21547667331E+03  0.00000000000E+00 0.  1.
         21    1    1    2  506  502  0.51063470018E+02  0.98235283970E+01  0.16547602182E+02  0.54569247919E+02  0.00000000000E+00 0.  1.
<scales pt_clust_3="38.47329" pt_clust_4="14000.00000" pt_clust_5="86.74522" pt_clust_6="47.58930"></scales>
<clustering>
<clus scale="   38.473">  1  3  2 -1</clus>
<clus scale="   47.589">  1  6  2 -1</clus>
<clus scale="   86.745">  1  5  2 -1</clus>
<clus scale="   38.473">  1  3  2 -1</clus>
</clustering>
</event>
<event>
 6    0  0.4227619E+002  0.1016474E+03  0.7546771E-02  0.1276869E+00
         21   -1    0    0  505  501  0.00000000000E+00  0.00000000000E+00  0.98780215931E+02  0.98780215931E+02  0.00000000000E+00 0.  1.
         21   -1    0    0  504  502 -0.00000000000E+00 -0.00000000000E+00 -0.63034921399E+03  0.63034921399E+03  0.00000000000E+00 0.  1.
         21    1    1    2  503  501 -0.94052860502E+02  0.13951005311E+03 -0.15462449139E+03  0.22851198836E+03  0.00000000000E+00 0.  1.
         21    1    1    2  504  503  0.88915665981E+02  0.20147693870E+02 -0.14420491239E+03  0.17060768441E+03  0.00000000000E+00 0.  1.
         21    1    1    2  505  506 -0.11376956943E+02 -0.91354676593E+02 -0.55799394438E+01  0.92229321850E+02  0.00000000000E+00 0.  1.
         21    1    1    2  506  502  0.16514151463E+02 -0.68303070385E+02 -0.22715965484E+03  0.23778043530E+03  0.00000000000E+00 0.  1.
<scales pt_clust_3="101.64742" pt_clust_4="95.69608" pt_clust_5="14000.00000" pt_clust_6="70.27109"></scales>
<clustering>
<clus scale="   70.271">  2  6  1 -1</clus>
<clus scale="   95.696">  2  4  1 -1</clus>
<clus scale="  101.647">  2  3  1 -1</clus>
<clus scale="  101.647">  1  3  2 -1</clus>
</clustering>
</event>
<event>
 6    0  0.4227619E+002  0.1118502E+03  0.7546771E-02  0.1257182E+00
         21   -1    0    0  503  501  0.00000000000E+00  0.00000000000E+00  0.83253861199E+03  0.83253861199E+03  0.00000000000E+00 0. -1.
         21   -1    0    0  505  502 -0.00000000000E+00 -0.00000000000E+00 -0.22705832167E+03  0.22705832167E+03  0.00000000000E+00 0. -1.
         21    1    1    2  503  502 -0.14987537907E+03  0.59192983805E+01  0.23012009458E+03  0.27468695869E+03  0.00000000000E+00 0. -1.
         21    1    1    2  504  501  0.36062614990E+02 -0.18570373837E+02  0.53143548616E+03  0.53298128197E+03  0.00000000000E+00 0. -1.
         21    1    1    2  505  506  0.42601188772E+02 -0.47748612443E+02 -0.14424974013E+03  0.15780614311E+03  0.00000000000E+00 0. -1.
         21    1    1    2  506  504  0.71211575308E+02  0.60399687900E+02 -0.11825550287E+02  0.94122549880E+02  0.00000000000E+00 0. -1.
<scales pt_clust_3="111.85016" pt_clust_4="40.56317" pt_clust_5="64.84597" pt_clust_6="14000.00000"></scales>
<clustering>
<clus scale="   40.563">  1  4  2 -1</clus>
<clus scale="   64.846">  2  5  1 -1</clus>
<clus scale="  111.850">  1  3  2 -1</clus>
<clus scale="   40.563">  1  3  2 -1</clus>
</clustering>
</event>
<event>
 6    0  0.4227619E+002  0.9207416E+02  0.7546771E-02  0.1297905E+00
         21   -1    0    0  503  501  0.00000000000E+00  0.00000000000E+00  0.83123225120E+03  0.83123225120E+03  0.00000000000E+00 0.  1.
         21   -1    0    0  505  502 -0.00000000000E+00 -0.00000000000E+00 -0.72741062612E+02  0.72741062612E+02  0.00000000000E+00 0. -1.
         21    1    1    2  503  504  0.89472801956E+02  0.56034401346E+02  0.17762057547E+03  0.20662600334E+03  0.00000000000E+00 0. -1.
         21    1    1    2  504  502  0.11797449319E+02  0.48354865452E+02 -0.17357027551E+02  0.52712799477E+02  0.00000000000E+00 0. -1.
         21    1    1    2  505  506 -0.65214022699E+02 -0.85673889282E+02  0.10722513966E+03  0.15195431760E+03  0.00000000000E+00 0.  1.
         21    1    1    2  506  501 -0.36056228576E+02 -0.18715377516E+02  0.49100250101E+03  0.49268019340E+03  0.00000000000E+00 0.  1.
<scales pt_clust_3="92.07416" pt_clust_4="48.40725" pt_clust_5="14000.00000" pt_clust_6="40.62409"></scales>
<clustering>
<clus scale="   40.624">  1  6  2 -1</clus>
<clus scale="   48.407">  2  4  1 -1</clus>
<clus scale="   92.074">  1  3  2 -1</clus>
<clus scale="   40.624">  1  3  2 -1</clus>
</clustering>
</event>
<event>
 6    0  0.4227619E+002  0.1361799E+03  0.7546771E-02  0.1218564E+00
         21   -1    0    0  505  501  0.00000000000E+00  0.00000000000E+00  0.67724981874E+03  0.67724981874E+03  0.00000000000E+00 0. -1.
         21   -1    0    0  506  502 -0.00000000000E+00 -0.00000000000E+00 -0.23637112647E+03  0.23637112647E+03  0.00000000000E+00 0. -1.
         21    1    1    2  503  501 -0.70604573543E+02 -0.91940528413E+02  0.34082128412E+03  0.35999613092E+03  0.00000000000E+00 0. -1.
         21    1    1    2  504  503 -0.40556064085E+02 -0.91786291711E+02 -0.81366515277E+02  0.12918988927E+03  0.00000000000E+00 0. -1.
         21    1    1    2  505  502  0.15125885451E+03  0.17596391263E+03  0.25220855417E+03  0.34271226183E+03  0.00000000000E+00 0. -1.
         21    1    1    2  506  504 -0.40098216881E+02  0.77629074918E+01 -0.70784630743E+02  0.81722663192E+02  0.00000000000E+00 0. -1.
<scales pt_clust_3="136.17986" pt_clust_4="109.50889" pt_clust_5="14000.00000" pt_clust_6="40.84274"></scales>
<clustering>
<clus scale="   40.843">  2  6  1 -1</clus>
<clus scale="  109.509">  2  4  1 -1</clus>
<clus scale="  136.180">  1  3  2 -1</clus>
<clus scale="  136.180">  1  3  2 -1</clus>
</clustering>
</event>
<event>
 6    0  0.4227619E+002  0.8660883E+02  0.7546771E-02  0.1311278E+00
         21   -1    0    0  503  501  0.00000000000E+00  0.00000000000E+00  0.36884229703E+03  0.36884229703E+03  0.00000000000E+00 0.  1.
         21   -1    0    0  506  502 -0.00000000000E+00 -0.00000000000E+00 -0.63619393263E+02  0.63619393263E+02  0.00000000000E+00 0.  1.
         21    1    1    2  503  502 -0.74897723045E+02  0.72292687352E+02  0.11552042027E+03  0.15550199054E+03  0.00000000000E+00 0.  1.
         21    1    1    2  504  501  0.63694110821E+02 -0.47157440516E+02  0.17197943112E+03  0.18936126499E+03  0.00000000000E+00 0.  1.
         21    1    1    2  505  504 -0.86853360148E+01 -0.51797691635E+02  0.10520118076E+02  0.53564062623E+02  0.00000000000E+00 0.  1.
         21    1    1    2  506  505  0.19888948240E+02  0.26662444798E+02  0.72029342997E+01  0.34034372144E+02  0.00000000000E+00 0.  1.
<scales pt_clust_3="14000.00000" pt_clust_4="86.60883" pt_clust_5="40.36800" pt_clust_6="33.26344"></scales>
<clustering>
<clus scale="   33.263">  2  6  1 -1</clus>
<clus scale="   40.368">  2  5  1 -1</clus>
<clus scale="   86.609">  1  4  2 -1</clus>
<clus scale="   86.609">  1  3  2 -1</clus>
</clustering>
</event>
<event>
 6    0  0.4227619E+002  0.7999422E+02  0.7546771E-02  0.1329068E+00
         21   -1    0    0  506  501  0.00000000000E+00  0.00000000000E+00  0.70372671131E+03  0.70372671131E+03  0.00000000000E+00 0. -1.
         21   -1    0    0  505  502 -0.00000000000E+00 -0.00000000000E+00 -0.10208509880E+03  0.10208509880E+03  0.00000000000E+00 0.  1.
         21    1    1    2  503  501 -0.37206677675E+02  0.43757720568E+02  0.54480131127E+03  0.54782072226E+03  0.00000000000E+00 0. -1.
         21    1    1    2  504  502  0.86501688827E+02 -0.69181183823E+02 -0.44105453761E+02  0.11922193345E+03  0.00000000000E+00 0.  1.
         21    1    1    2  505  503 -0.82904454154E+01  0.46377323621E+02  0.36674049664E+02  0.59704049697E+02  0.00000000000E+00 0. -1.
         21    1    1    2  506  504 -0.41004565737E+02 -0.20953860366E+02  0.64271705326E+02  0.79065104699E+02  0.00000000000E+00 0.  1.
<scales pt_clust_3="79.99422" pt_clust_4="14000.00000" pt_clust_5="46.21221" pt_clust_6="46.04822"></scales>
<clustering>
<clus scale="   46.048">  1  6  2 -1</clus>
<clus scale="   46.212">  2  5  1 -1</clus>
<clus scale="   79.994">  1  3  2 -1</clus>
<clus scale="   46.048">  1  3  2 -1</clus>
</clustering>
</event>
<event>
 6    0  0.4227619E+002  0.1381964E+03  0.7546771E-02  0.1215777E+00
         21   -1    0    0  504  501  0.00000000000E+00  0.00000000000E+00  0.41609255606E+03  0.41609255606E+03  0.00000000000E+00 0.  1.
         21   -1    0    0  506  502 -0.00000000000E+00 -0.00000000000E+00 -0.30369521397E+03  0.30369521397E+03  0.00000000000E+00 0. -1.
         21    1    1    2  503  502 -0.72272141398E+01 -0.51676145222E+02 -0.21601127835E+03  0.22222405132E+03  0.00000000000E+00 0. -1.
         21    1    1    2  504  503 -0.85517157511E+02  0.12582641040E+03  0.10513788643E+02  0.15249921159E+03  0.00000000000E+00 0.  1.
         21    1    1    2  505  501  0.59125709135E+02 -0.27775103672E+02  0.23771158622E+03  0.24652404363E+03  0.00000000000E+00 0.  1.
         21    1    1    2  506  505  0.33618662516E+02 -0.46375161505E+02  0.80183245584E+02  0.98540463498E+02  0.00000000000E+00 0.  1.
<scales pt_clust_3="52.17908" pt_clust_4="123.22997" pt_clust_5="60.29129" pt_clust_6="60.29129"></scales>
<clustering>
<clus scale="   52.179">  2  3  1 -1</clus>
<clus scale="   60.291">  5  6 -1 -1</clus>
<clus scale="  123.230">  2  4  1 -1</clus>
<clus scale="  138.196">  1  3  2 -1</clus>
</clustering>
</event>
<event>
 6    0  0.4227619E+002  0.1329786E+03  0.7546771E-02  0.1223102E+00
         21   -1    0    0  503  501  0.00000000000E+00  0.00000000000E+00  0.10694489665E+04  0.10694489665E+04  0.00000000000E+00 0. -1.
         21   -1    0    0  505  502 -0.00000000000E+00 -0.00000000000E+00 -0.15403720626E+03  0.15403720626E+03  0.00000000000E+00 0. -1.
         21    1    1    2  503  504 -0.10507438903E+03  0.17103955277E+03  0.42071417380E+03  0.46614973118E+03  0.00000000000E+00 0. -1.
         21    1    1    2  504  502  0.13814336239E+02 -0.28636641142E+02 -0.11093949813E+03  0.11540565561E+03  0.00000000000E+00 0. -1.
         21    1    1    2  505  506  0.18020515970E+02 -0.53065321096E+02  0.52270832891E+02  0.76634895903E+02  0.00000000000E+00 0. -1.
         21    1    1    2  506  501  0.73239536823E+02 -0.89337590534E+02  0.55336625170E+03  0.56529589009E+03  0.00000000000E+00 0. -1.
<scales pt_clust_3="132.97860" pt_clust_4="31.79455" pt_clust_5="65.45945" pt_clust_6="14000.00000"></scales>
<clustering>
<clus scale="   31.795">  2  4  1 -1</clus>
<clus scale="   65.459">  2  5  1 -1</clus>
<clus scale="  132.979">  2  3  1 -1</clus>
<clus scale="  132.979">  1  3  2 -1</clus>
</clustering>
</event>
<event>
 6    0  0.4227619E+002  0.1012436E+03  0.7546771E-02  0.1277702E+00
         21   -1    0    0  502  501  0.00000000000E+00  0.00000000000E+00  0.34206913823E+03  0.34206913823E+03  0.00000000000E+00 0. -1.
         21   -1    0    0  504  502 -0.00000000000E+00 -0.00000000000E+00 -0.11848237238E+03  0.11848237238E+03  0.00000000000E+00 0. -1.
         21    1    1    2  503  501  0.32711725195E+02 -0.44912435732E+02  0.17533609995E+03  0.18392914884E+03  0.00000000000E+00 0. -1.
         21    1    1    2  504  506  0.80505622032E+01 -0.40248953212E+02 -0.14774669757E+02  0.43624312635E+02  0.00000000000E+00 0. -1.
         21    1    1    2  505  503 -0.12219330197E+03  0.71962614587E+02  0.40863440920E+02  0.14757927276E+03  0.00000000000E+00 0. -1.
         21    1    1    2  506  505  0.81431014574E+02  0.13198774358E+02  0.22161894736E+02  0.85418776375E+02  0.00000000000E+00 0. -1.
<scales pt_clust_3="57.36211" pt_clust_4="41.04619" pt_clust_5="101.24360" pt_clust_6="14000.00000"></scales>
<clustering>
<clus scale="   41.046">  2  4  1 -1</clus>
<clus scale="   57.362">  1  3  2 -1</clus>
<clus scale="  101.244">  1  5  2 -1</clus>
<clus scale="   57.362">  1  3  2 -1</clus>
</clustering>
</event>
<event>
 6    0  0.4227619E+002  0.1028012E+03  0.7546771E-02  0.1274513E+00
         21   -1    0    0  505  501  0.00000000000E+00  0.00000000000E+00  0.11726938757E+03  0.11726938757E+03  0.00000000000E+00 0. -1.
         21   -1    0    0  503  502 -0.00000000000E+00 -0.00000000000E+00 -0.44141755978E+03  0.44141755978E+03  0.00000000000E+00 0.  1.
         21    1    1    2  503  504  0.58023449507E+02 -0.75493601399E+02 -0.22488714854E+03  0.24421350111E+03  0.00000000000E+00 0.  1.
         21    1    1    2  504  501  0.36857691802E+01 -0.75256284596E+02  0.21633481640E+00  0.75346798647E+02  0.00000000000E+00 0. -1.
         21    1    1    2  505  506 -0.21967008360E+02  0.29893123130E+02  0.37106439985E+02  0.52469383026E+02  0.00000000000E+00 0. -1.
         21    1    1    2  506  502 -0.39742210327E+02  0.12085676286E+03 -0.13658379847E+03  0.18665726457E+03  0.00000000000E+00 0. -1.
<scales pt_clust_3="102.80122" pt_clust_4="60.17729" pt_clust_5="37.09647" pt_clust_6="14000.00000"></scales>
<clustering>
<clus scale="   37.096">  1  5  2 -1</clus>
<clus scale="   60.177">  1  4  2 -1</clus>
<clus scale="  102.801">  2  3  1 -1</clus>
<clus scale="   37.096">  1  3  2 -1</clus>
</clustering>
</event>
<event>
 6    0  0.4227619E+002  0.8067628E+02  0.7546771E-02  0.1327143E+00
         21   -1    0    0  506  501  0.00000000000E+00  0.00000000000E+00  0.57831387454E+03  0.57831387454E+03  0.00000000000E+00 0.  1.
         21   -1    0    0  505  502 -0.00000000000E+00 -0.00000000000E+00 -0.56637208263E+03  0.56637208263E+03  0.00000000000E+00 0.  1.
         21    1    1    2  503  502  0.40929384499E+01  0.36703083366E+02 -0.26131653729E+03  0.26391324547E+03  0.00000000000E+00 0.  1.
         21    1    1    2  504  501 -0.51301086595E+02 -0.61712834188E+02  0.53324899972E+03  0.53925390225E+03  0.00000000000E+00 0.  1.
         21    1    1    2  505  504  0.95550160288E+02  0.72818965886E+02 -0.24355200116E+03  0.27156953473E+03  0.00000000000E+00 0.  1.
         21    1    1    2  506  503 -0.48342012143E+02 -0.47809215064E+02 -0.16438669365E+02  0.69949274718E+02  0.00000000000E+00 0.  1.
<scales pt_clust_3="36.93059" pt_clust_4="80.67628" pt_clust_5="14000.00000" pt_clust_6="63.99166"></scales>
<clustering>
<clus scale="   36.931">  2  3  1 -1</clus>
<clus scale="   63.992">  2  6  1 -1</clus>
<clus scale="   80.676">  1  4  2 -1</clus>
<clus scale="   80.676">  1  3  2 -1</clus>
</clustering>
</event>
<event>
 6    0  0.4227619E+002  0.7532240E+02  0.7546771E-02  0.1342876E+00
         21   -1    0    0  505  501  0.00000000000E+00  0.00000000000E+00  0.82046370478E+02  0.82046370478E+02  0.00000000000E+00 0.  1.
         21   -1    0    0  504  502 -0.00000000000E+00 -0.00000000000E+00 -0.22602078289E+04  0.22602078289E+04  0.00000000000E+00 0.  1.
         21    1    1    2  503  502 -0.10763936264E+03 -0.26549921219E+02 -0.34744880045E+03  0.36470782778E+03  0.00000000000E+00 0.  1.
         21    1    1    2  504  501  0.36890041019E+02  0.46682926769E+02 -0.17990405709E+04  0.18000242073E+04  0.00000000000E+00 0.  1.
         21    1    1    2  505  506  0.12181733903E+02 -0.41224415674E+02  0.55627780363E+02  0.70301472508E+02  0.00000000000E+00 0.  1.
         21    1    1    2  506  503  0.58567587717E+02  0.21091410124E+02 -0.87299867347E+02  0.10722069180E+03  0.00000000000E+00 0.  1.
<scales pt_clust_3="75.32240" pt_clust_4="58.86730" pt_clust_5="42.98659" pt_clust_6="14000.00000"></scales>
<clustering>
<clus scale="   42.987">  1  5  2 -1</clus>
<clus scale="   58.867">  2  4  1 -1</clus>
<clus scale="   75.322">  2  3  1 -1</clus>
<clus scale="   42.987">  1  3  2 -1</clus>
</clustering>
</event>
<event>
 6    0  0.4227619E+002  0.8902182E+02  0.7546771E-02  0.1305238E+00
         21   -1    0    0  503  501  0.00000000000E+00  0.00000000000E+00  0.57658260732E+03  0.57658260732E+03  0.00000000000E+00 0. -1.
         21   -1    0    0  505  502 -0.00000000000E+00 -0.00000000000E+00 -0.23116432994E+03  0.23116432994E+03  0.00000000000E+00 0. -1.
         21    1    1    2  503  504  0.57124613755E+02 -0.33324651529E+01  0.29215918082E+02  0.64248709637E+02  0.00000000000E+00 0. -1.
         21    1    1    2  504  502  0.48129434824E+01 -0.42265371963E+02  0.19581280912E+02  0.46828972381E+02  0.00000000000E+00 0. -1.
         21    1    1    2  505  506 -0.69484565012E+01 -0.50819301014E+02 -0.19038560432E+03  0.19717393523E+03  0.00000000000E+00 0. -1.
         21    1    1    2  506  501 -0.54989100736E+02  0.96417138130E+02  0.48700668270E+03  0.49949532002E+03  0.00000000000E+00 0. -1.
<scales pt_clust_3="57.90524" pt_clust_4="42.53852" pt_clust_5="14000.00000" pt_clust_6="89.02182"></scales>
<clustering>
<clus scale="   42.539">  2  4  1 -1</clus>
<clus scale="   57.905">  1  3  2 -1</clus>
<clus scale="   89.022">  1  6  2 -1</clus>
<clus scale="   57.905">  1  3  2 -1</clus>
</clustering>
</event>
<event>
 6    0  0.4227619E+002  0.1241150E+03  0.7546771E-02  0.1236459E+00
         21   -1    0    0  505  501  0.00000000000E+00  0.00000000000E+00  0.24081755971E+03  0.24081755971E+03  0.00000000000E+00 0. -1.
         21   -1    0    0  503  502 -0.00000000000E+00 -0.00000000000E+00 -0.23076470106E+04  0.23076470106E+04  0.00000000000E+00 0. -1.
         21    1    1    2  503  506  0.82393283406E+02  0.38408163427E+02 -0.95414988625E+03  0.95847057628E+03  0.00000000000E+00 0. -1.
         21    1    1    2  504  502 -0.17919625839E+02 -0.26282850126E+02 -0.52876088635E+03  0.52971688300E+03  0.00000000000E+00 0. -1.
         21    1    1    2  505  504 -0.84576762487E+02 -0.91806990544E+02 -0.81008376403E+03  0.81964471389E+03  0.00000000000E+00 0. -1.
         21    1    1    2  506  501  0.20103104921E+02  0.79681677243E+02  0.22616508577E+03  0.24063239711E+03  0.00000000000E+00 0. -1.
<scales pt_clust_3="107.62683" pt_clust_4="31.20463" pt_clust_5="31.20463" pt_clust_6="82.17849"></scales>
<clustering>
<clus scale="   31.205">  4  5 -1 -1</clus>
<clus scale="   82.178">  1  6  2 -1</clus>
<clus scale="  107.627">  2  3  1 -1</clus>
<clus scale="   82.178">  1  3  2 -1</clus>
</clustering>
</event>
<event>
 6    0  0.4227619E+002  0.1114686E+03  0.7546771E-02  0.1257874E+00
         21   -1    0    0  503  501  0.00000000000E+00  0.00000000000E+00  0.79219117336E+02  0.79219117336E+02  0.00000000000E+00 0.  1.
         21   -1    0    0  506  502 -0.00000000000E+00 -0.00000000000E+00 -0.59018856615E+03  0.59018856615E+03  0.00000000000E+00 0.  1.
         21    1    1    2  503  504  0.34304141885E+02 -0.60120989866E+01  0.32281626212E+02  0.47487081145E+02  0.00000000000E+00 0.  1.
         21    1    1    2  504  505 -0.10347950247E+03 -0.69116958387E+02 -0.15758763398E+03  0.20079597543E+03  0.00000000000E+00 0.  1.
         21    1    1    2  505  502  0.41237119509E+02  0.10484310215E+03 -0.18698026001E+03  0.21829840523E+03  0.00000000000E+00 0.  1.
         21    1    1    2  506  501  0.27938241074E+02 -0.29714044776E+02 -0.19868318104E+03  0.20282622168E+03  0.00000000000E+00 0.  1.
<scales pt_clust_3="34.82699" pt_clust_4="111.46862" pt_clust_5="14000.00000" pt_clust_6="42.26814"></scales>
<clustering>
<clus scale="   34.827">  1  3  2 -1</clus>
<clus scale="   42.268">  2  6  1 -1</clus>
<clus scale="  111.469">  1  4  2 -1</clus>
<clus scale="   34.827">  1  3  2 -1</clus>
</clustering>
</event>
<event>
 6    0  0.4227619E+002  0.1214996E+03  0.7546771E-02  0.1240643E+00
         21   -1    0    0  504  501  0.00000000000E+00  0.00000000000E+00  0.44159493000E+03  0.44159493000E+03  0.00000000000E+00 0. -1.
         21   -1    0    0  506  502 -0.00000000000E+00 -0.00000000000E+00 -0.73160056800E+03  0.73160056800E+03  0.00000000000E+00 0. -1.
         21    1    1    2  503  502 -0.28692385974E+02  0.34421358244E+02 -0.44440016854E+03  0.44665377275E+03  0.00000000000E+00 0. -1.
         21    1    1    2  504  503 -0.68218230504E+02  0.43566763732E+02 -0.26042035615E+03  0.27270964738E+03  0.00000000000E+00 0. -1.
         21    1    1    2  505  501 -0.31333648817E+02 -0.38264516587E+02  0.99037715074E+02  0.11069977319E+03  0.00000000000E+00 0.  1.
         21    1    1    2  506  505  0.12824426530E+03 -0.39723605389E+02  0.31577717161E+03  0.34313230468E+03  0.00000000000E+00 0. -1.
<scales pt_clust_3="44.81164" pt_clust_4="14000.00000" pt_clust_5="49.29261" pt_clust_6="121.49960"></scales>
<clustering>
<clus scale="   44.812">  2  3  1 -1</clus>
<clus scale="   49.293">  1  5  2 -1</clus>
<clus scale="  121.500">  1  6  2 -1</clus>
<clus scale="   49.293">  1  3  2 -1</clus>
</clustering>
</event>
<event>
 6    0  0.4227619E+002  0.1052359E+03  0.7546771E-02  0.1269655E+00
         21   -1    0    0  503  501  0.00000000000E+00  0.00000000000E+00  0.27140305547E+03  0.27140305547E+03  0.00000000000E+00 0. -1.
         21   -1    0    0  506  502 -0.00000000000E+00 -0.00000000000E+00 -0.59305430202E+03  0.59305430202E+03  0.00000000000E+00 0. -1.
         21    1    1    2  503  505  0.66234434353E+02  0.42496121724E+02  0.19189819523E+03  0.20740742028E+03  0.00000000000E+00 0. -1.
         21    1    1    2  504  501 -0.97655922311E+02  0.74123671705E+02 -0.28817401993E+01  0.12263483313E+03  0.00000000000E+00 0. -1.
         21    1    1    2  505  502 -0.32296383763E+01 -0.87538424557E+02 -0.17486540087E+03  0.19557943338E+03  0.00000000000E+00 0. -1.
         21    1    1    2  506  504  0.34651126335E+02 -0.29081368871E+02 -0.33580230071E+03  0.33883567069E+03  0.00000000000E+00 0. -1.
<scales pt_clust_3="79.11410" pt_clust_4="105.23593" pt_clust_5="14000.00000" pt_clust_6="45.23745"></scales>
<clustering>
<clus scale="   45.237">  2  6  1 -1</clus>
<clus scale="   79.114">  1  3  2 -1</clus>
<clus scale="  105.236">  1  4  2 -1</clus>
<clus scale="   79.114">  1  3  2 -1</clus>
</clustering>
</event>
<event>
 6    0  0.4227619E+002  0.1183486E+03  0.7546771E-02  0.1245846E+00
         21   -1    0    0  504  501  0.00000000000E+00  0.00000000000E+00  0.49213735716E+03  0.49213735716E+03  0.00000000000E+00 0.  1.
         21   -1    0    0  505  502 -0.00000000000E+00 -0.00000000000E+00 -0.66808902843E+03  0.66808902843E+03  0.00000000000E+00 0. -1.
         21    1    1    2  503  506 -0.21753097499E+02  0.37303200291E+02  0.83648885315E+02  0.94137463410E+02  0.00000000000E+00 0.  1.
         21    1    1    2  504  503  0.31069742399E+02  0.96916095019E+02  0.32145349812E+03  0.33718008515E+03  0.00000000000E+00 0.  1.
         21    1    1    2  505  501  0.24926887594E+02 -0.39589993042E+02  0.62200061921E+02  0.77830360254E+02  0.00000000000E+00 0.  1.
         21    1    1    2  506  502 -0.34243532494E+02 -0.94629302268E+02 -0.64325411663E+03  0.65107847678E+03  0.00000000000E+00 0. -1.
<scales pt_clust_3="40.28701" pt_clust_4="40.28701" pt_clust_5="46.78373" pt_clust_6="100.90160"></scales>
<clustering>
<clus scale="   40.287">  3  4 -1 -1</clus>
<clus scale="   46.784">  1  5  2 -1</clus>
<clus scale="  100.902">  2  6  1 -1</clus>
<clus scale="   46.784">  1  3  2 -1</clus>
</clustering>
</event>
<event>
 6    0  0.4227619E+002  0.1049556E+03  0.7546771E-02  0.1270207E+00
         21   -1    0    0  504  501  0.00000000000E+00  0.00000000000E+00  0.13133349634E+03  0.13133349634E+03  0.00000000000E+00 0.  1.
         21   -1    0    0  505  502 -0.00000000000E+00 -0.00000000000E+00 -0.56023905500E+03  0.56023905500E+03  0.00000000000E+00 0.  1.
         21    1    1    2  503  506  0.55222297297E+02 -0.16045311547E+02  0.31687862032E+02  0.65658775054E+02  0.00000000000E+00 0.  1.
         21    1    1    2  504  502 -0.51711201978E+01 -0.51319231593E+02 -0.80469372021E+02  0.95580980581E+02  0.00000000000E+00 0.  1.
         21    1    1    2  505  503 -0.79418131871E+02  0.96870818349E+02 -0.43995707720E+03  0.45744226401E+03  0.00000000000E+00 0.  1.
         21    1    1    2  506  501  0.29366954772E+02 -0.29506275208E+02  0.59833028528E+02  0.72890531704E+02  0.00000000000E+00 0.  1.
<scales pt_clust_3="33.92203" pt_clust_4="51.57910" pt_clust_5="97.08828" pt_clust_6="33.92203"></scales>
<clustering>
<clus scale="   33.922">  3  6 -1 -1</clus>
<clus scale="   51.579">  2  4  1 -1</clus>
<clus scale="   97.088">  2  5  1 -1</clus>
<clus scale="  104.956">  1  3  2 -1</clus>
</clustering>
</event>
<event>
 6    0  0.4227619E+002  0.1026388E+03  0.7546771E-02  0.1274843E+00
         21   -1    0    0  503  501  0.00000000000E+00  0.00000000000E+00  0.12802304831E+04  0.12802304831E+04  0.00000000000E+00 0.  1.
         21   -1    0    0  506  502 -0.00000000000E+00 -0.00000000000E+00 -0.40810444819E+03  0.40810444819E+03  0.00000000000E+00 0.  1.
         21    1    1    2  503  504  0.50238464374E+02  0.90802418896E+01  0.69637746526E+03  0.69824632346E+03  0.00000000000E+00 0.  1.
         21    1    1    2  504  502  0.87451238677E+02  0.60700389777E+02 -0.33494710856E+03  0.35145671426E+03  0.00000000000E+00 0.  1.
         21    1    1    2  505  501 -0.38281787005E+02 -0.70612214939E+02  0.53110726339E+03  0.53714663300E+03  0.00000000000E+00 0.  1.
         21    1    1    2  506  505 -0.99407916046E+02  0.83158327176E+00 -0.20411585189E+02  0.10148526057E+03  0.00000000000E+00 0.  1.
<scales pt_clust_3="51.05246" pt_clust_4="102.63876" pt_clust_5="62.77246" pt_clust_6="14000.00000"></scales>
<clustering>
<clus scale="   51.052">  1  3  2 -1</clus>
<clus scale="   62.772">  1  5  2 -1</clus>
<clus scale="  102.639">  2  4  1 -1</clus>
<clus scale="   51.052">  1  3  2 -1</clus>
</clustering>
</event>
<event>
 6    0  0.4227619E+002  0.1027366E+03  0.7546771E-02  0.1274644E+00
         21   -1    0    0  506  501  0.00000000000E+00  0.00000000000E+00  0.11107923037E+03  0.11107923037E+03  0.00000000000E+00 0. -1.
         21   -1    0    0  505  502 -0.00000000000E+00 -0.00000000000E+00 -0.57775517622E+03  0.57775517622E+03  0.00000000000E+00 0. -1.
         21    1    1    2  503  502 -0.11096619898E+03  0.83061589601E+01 -0.41196382763E+03  0.42672788153E+03  0.00000000000E+00 0. -1.
         21    1    1    2  504  501 -0.24158264783E+02 -0.39689432307E+02  0.20362925264E+02  0.50729887832E+02  0.00000000000E+00 0.  1.
         21    1    1    2  505  504  0.80449336042E+02 -0.30244209800E+02 -0.93453948020E+02  0.12696632741E+03  0.00000000000E+00 0. -1.
         21    1    1    2  506  503  0.54675127723E+02  0.61627483147E+02  0.18378904543E+02  0.84410309813E+02  0.00000000000E+00 0. -1.
<scales pt_clust_3="102.73663" pt_clust_4="46.46367" pt_clust_5="14000.00000" pt_clust_6="51.58240"></scales>
<clustering>
<clus scale="   46.464">  1  4  2 -1</clus>
<clus scale="   51.582">  1  6  2 -1</clus>
<clus scale="  102.737">  2  3  1 -1</clus>
<clus scale="   46.464">  1  3  2 -1</clus>
</clustering>
</event>
<event>
 6    0  0.4227619E+002  0.9135847E+02  0.7546771E-02  0.1299595E+00
         21   -1    0    0  506  501  0.00000000000E+00  0.00000000000E+00  0.24317097061E+03  0.24317097061E+03  0.00000000000E+00 0.  1.
         21   -1    0    0  505  502 -0.00000000000E+00 -0.00000000000E+00 -0.83958222567E+03  0.83958222567E+03  0.00000000000E+00 0.  1.
         21    1    1    2  503  504 -0.21103086861E+01  0.13325082179E+03 -0.61955390293E+03  0.63372491946E+03  0.00000000000E+00 0.  1.
         21    1    1    2  504  501 -0.48453708437E+02 -0.64111560431E+02  0.12791372116E+03  0.15106281509E+03  0.00000000000E+00 0.  1.
         21    1    1    2  505  503  0.81920971813E+01 -0.42231418064E+02 -0.19230697829E+03  0.19705983108E+03  0.00000000000E+00 0.  1.
         21    1    1    2  506  502  0.42371919941E+02 -0.26907843297E+02  0.87535904996E+02  0.10090563064E+03  0.00000000000E+00 0.  1.
<scales pt_clust_3="91.35847" pt_clust_4="14000.00000" pt_clust_5="43.01864" pt_clust_6="50.50114"></scales>
<clustering>
<clus scale="   43.019">  2  5  1 -1</clus>
<clus scale="   50.501">  1  6  2 -1</clus>
<clus scale="   91.358">  2  3  1 -1</clus>
<clus scale="   50.501">  1  3  2 -1</clus>
</clustering>
</event>
<event>
 6    0  0.4227619E+002  0.9574708E+02  0.7546771E-02  0.1289502E+00
         21   -1    0    0  503  501  0.00000000000E+00  0.00000000000E+00  0.22129383011E+03  0.22129383011E+03  0.00000000000E+00 0. -1.
         21   -1    0    0  504  502 -0.00000000000E+00 -0.00000000000E+00 -0.12773960637E+03  0.12773960637E+03  0.00000000000E+00 0. -1.
         21    1    1    2  503  505  0.54028806973E+02 -0.69765037805E+02  0.88394064353E+02  0.12489909165E+03  0.00000000000E+00 0. -1.
         21    1    1    2  504  501 -0.28020476629E+02 -0.31836954242E+02  0.13465535925E+02  0.44497858641E+02  0.00000000000E+00 0. -1.
         21    1    1    2  505  506 -0.86109972513E+02  0.64432040686E+02  0.52747705709E+01  0.10767654544E+03  0.00000000000E+00 0. -1.
         21    1    1    2  506  502  0.60101642168E+02  0.37169951361E+02 -0.13580147108E+02  0.71959940738E+02  0.00000000000E+00 0. -1.
<scales pt_clust_3="14000.00000" pt_clust_4="42.41154" pt_clust_5="95.74708" pt_clust_6="64.53515"></scales>
<clustering>
<clus scale="   42.412">  1  4  2 -1</clus>
<clus scale="   64.535">  2  6  1 -1</clus>
<clus scale="   95.747">  2  5  1 -1</clus>
<clus scale="   42.412">  1  3  2 -1</clus>
</clustering>
</event>
<event>
 6    0  0.4227619E+002  0.7016544E+02  0.7546771E-02  0.1359531E+00
         21   -1    0    0  505  501  0.00000000000E+00  0.00000000000E+00  0.48300650067E+03  0.48300650067E+03  0.00000000000E+00 0.  1.
         21   -1    0    0  506  502 -0.00000000000E+00 -0.00000000000E+00 -0.27399567422E+03  0.27399567422E+03  0.00000000000E+00 0.  1.
         21    1    1    2  503  501 -0.64145093055E+02 -0.24413330536E+02  0.40389889165E+03  0.40968880672E+03  0.00000000000E+00 0.  1.
         21    1    1    2  504  502  0.72438639198E+00 -0.40042575550E+02 -0.15693794550E+03  0.16196743910E+03  0.00000000000E+00 0.  1.
         21    1    1    2  505  504 -0.48300586459E+02  0.27387964813E+02  0.13088525651E+02  0.57046969881E+02  0.00000000000E+00 0.  1.
         21    1    1    2  506  503  0.11172129312E+03  0.37067941273E+02 -0.51038645354E+02  0.12829895918E+03  0.00000000000E+00 0.  1.
<scales pt_clust_3="70.16544" pt_clust_4="40.04913" pt_clust_5="52.03652" pt_clust_6="14000.00000"></scales>
<clustering>
<clus scale="   40.049">  2  4  1 -1</clus>
<clus scale="   52.037">  2  5  1 -1</clus>
<clus scale="   70.165">  1  3  2 -1</clus>
<clus scale="   70.165">  1  3  2 -1</clus>
</clustering>
</event>
<event>
 6    0  0.4227619E+002  0.9022059E+02  0.7546771E-02  0.1302318E+00
         21   -1    0    0  503  501  0.00000000000E+00  0.00000000000E+00  0.61124609150E+02  0.61124609150E+02  0.00000000000E+00 0.  1.
         21   -1    0    0  504  502 -0.00000000000E+00 -0.00000000000E+00 -0.95433326397E+03  0.95433326397E+03  0.00000000000E+00 0.  1.
         21    1    1    2  503  506  0.46431083010E+02  0.85354520168E+02 -0.13627380908E+03  0.16736723283E+03  0.00000000000E+00 0.  1.
         21    1    1    2  504  501  0.10066574270E+02 -0.91822098535E+02 -0.18843172199E+02  0.94274592735E+02  0.00000000000E+00 0.  1.
         21    1    1    2  505  502 -0.25308265313E+02 -0.17682483236E+02 -0.69387440261E+03  0.69456091533E+03  0.00000000000E+00 0.  1.
         21    1    1    2  506  505 -0.31189391967E+02  0.24150061603E+02 -0.44217270921E+02  0.59255132220E+02  0.00000000000E+00 0.  1.
<scales pt_clust_3="14000.00000" pt_clust_4="90.22059" pt_clust_5="30.87359" pt_clust_6="41.68739"></scales>
<clustering>
<clus scale="   30.874">  2  5  1 -1</clus>
<clus scale="   41.687">  2  6  1 -1</clus>
<clus scale="   90.221">  1  4  2 -1</clus>
<clus scale="   90.221">  1  3  2 -1</clus>
</clustering>
</event>
<event>
 6    0  0.4227619E+002  0.1023435E+03  0.7546771E-02  0.1275444E+00
         21   -1    0    0  506  501  0.00000000000E+00  0.00000000000E+00  0.22657500803E+03  0.22657500803E+03  0.00000000000E+00 0.  1.
         21   -1    0    0  503  502 -0.00000000000E+00 -0.00000000000E+00 -0.97053376233E+03  0.97053376233E+03  0.00000000000E+00 0.  1.
         21    1    1    2  503  505 -0.79714765152E+02 -0.43605345239E+02 -0.64449939769E+03  0.65087275526E+03  0.00000000000E+00 0.  1.
         21    1    1    2  504  502  0.24423003582E+02 -0.39778337101E+02  0.58161281195E+02  0.74575691996E+02  0.00000000000E+00 0. -1.
         21    1    1    2  505  501  0.33255481483E+02  0.12773983960E+03 -0.29631622954E+03  0.32438665441E+03  0.00000000000E+00 0.  1.
         21    1    1    2  506  504  0.22036280088E+02 -0.44356157255E+02  0.13869559173E+03  0.14727366870E+03  0.00000000000E+00 0.  1.
<scales pt_clust_3="90.86182" pt_clust_4="34.01150" pt_clust_5="96.16005" pt_clust_6="34.01150"></scales>
<clustering>
<clus scale="   34.011">  4  6 -1 -1</clus>
<clus scale="   90.862">  2  3  1 -1</clus>
<clus scale="   96.160">  2  5  1 -1</clus>
<clus scale="  102.343">  1  3  2 -1</clus>
</clustering>
</event>
<event>
 6    0  0.4227619E+002  0.9889706E+02  0.7546771E-02  0.1282633E+00
         21   -1    0    0  502  501  0.00000000000E+00  0.00000000000E+00  0.12889935879E+04  0.12889935879E+04  0.00000000000E+00 0.  1.
         21   -1    0    0  503  502 -0.00000000000E+00 -0.00000000000E+00 -0.25955970535E+03  0.25955970535E+03  0.00000000000E+00 0. -1.
         21    1    1    2  503  506  0.29652317899E+01  0.31244840634E+02 -0.21684259871E+03  0.21910213436E+03  0.00000000000E+00 0. -1.
         21    1    1    2  504  501  0.38388816076E+02  0.18992226379E+02  0.48011570839E+03  0.48202230167E+03  0.00000000000E+00 0.  1.
         21    1    1    2  505  504  0.45448615371E+02 -0.77251098204E+02  0.74970351196E+03  0.75504216085E+03  0.00000000000E+00 0.  1.
         21    1    1    2  506  505 -0.86802663237E+02  0.27014031191E+02  0.16457260884E+02  0.92386696348E+02  0.00000000000E+00 0. -1.
<scales pt_clust_3="31.38523" pt_clust_4="43.21281" pt_clust_5="98.89706" pt_clust_6="14000.00000"></scales>
<clustering>
<clus scale="   31.385">  2  3  1 -1</clus>
<clus scale="   43.213">  1  4  2 -1</clus>
<clus scale="   98.897">  1  5  2 -1</clus>
<clus scale="   43.213">  1  3  2 -1</clus>
</clustering>
</event>
<event>
 6    0  0.4227619E+002  0.1035954E+03  0.7546771E-02  0.1272912E+00
         21   -1    0    0  506  501  0.00000000000E+00  0.00000000000E+00  0.42450354150E+02  0.42450354150E+02  0.00000000000E+00 0.  1.
         21   -1    0    0  504  502 -0.00000000000E+00 -0.00000000000E+00 -0.56286512765E+03  0.56286512765E+03  0.00000000000E+00 0. -1.
         21    1    1    2  503  501 -0.37299623081E+02  0.22740431421E+02 -0.56306464065E+02  0.71265749127E+02  0.00000000000E+00 0.  1.
         21    1    1    2  504  503 -0.83550897258E+02  0.61431701103E+01 -0.25551934112E+03  0.26890263044E+03  0.00000000000E+00 0. -1.
         21    1    1    2  505  502  0.40700671015E+02 -0.19976903535E+02 -0.16963325539E+03  0.17558776333E+03  0.00000000000E+00 0. -1.
         21    1    1    2  506  505  0.80149849324E+02 -0.89066979967E+01 -0.38955712928E+02  0.89559338907E+02  0.00000000000E+00 0.  1.
<scales pt_clust_3="39.81516" pt_clust_4="39.81516" pt_clust_5="45.33896" pt_clust_6="87.70356"></scales>
<clustering>
<clus scale="   39.815">  3  4 -1 -1</clus>
<clus scale="   45.339">  2  5  1 -1</clus>
<clus scale="   87.704">  1  6  2 -1</clus>
<clus scale="   87.704">  1  3  2 -1</clus>
</clustering>
</event>
<event>
 6    0  0.4227619E+002  0.6396211E+02  0.7546771E-02  0.1381919E+00
         21   -1    0    0  506  501  0.00000000000E+00  0.00000000000E+00  0.34510718094E+03  0.34510718094E+03  0.00000000000E+00 0.  1.
         21   -1    0    0  505  502 -0.00000000000E+00 -0.00000000000E+00 -0.31222842064E+03  0.31222842064E+03  0.00000000000E+00 0. -1.
         21    1    1    2  503  504  0.91353237218E+02  0.16264717193E+02 -0.11269484851E+03  0.14597973783E+03  0.00000000000E+00 0. -1.
         21    1    1    2  504  502 -0.56147081885E+02  0.55877847512E+01 -0.16299733304E+03  0.17248724220E+03  0.00000000000E+00 0. -1.
         21    1    1    2  505  501  0.42083442152E+02 -0.70725203755E+00  0.19735216796E+03  0.20179047180E+03  0.00000000000E+00 0.  1.
         21    1    1    2  506  503 -0.77289597485E+02 -0.21145249907E+02  0.11121877389E+03  0.13707814975E+03  0.00000000000E+00 0.  1.
<scales pt_clust_3="14000.00000" pt_clust_4="63.96211" pt_clust_5="42.08938" pt_clust_6="46.75661"></scales>
<clustering>
<clus scale="   42.089">  1  5  2 -1</clus>
<clus scale="   46.757">  1  6  2 -1</clus>
<clus scale="   63.962">  2  4  1 -1</clus>
<clus scale="   42.089">  1  3  2 -1</clus>
</clustering>
</event>
<event>
 6    0  0.4227619E+002  0.1287812E+03  0.7546771E-02  0.1229275E+00
         21   -1    0    0  502  501  0.00000000000E+00  0.00000000000E+00  0.27616814758E+03  0.27616814758E+03  0.00000000000E+00 0. -1.
         21   -1    0    0  506  502 -0.00000000000E+00 -0.00000000000E+00 -0.48088739386E+03  0.48088739386E+03  0.00000000000E+00 0.  1.
         21    1    1    2  503  504  0.70558903500E+02  0.67206352995E+02  0.65917593574E+02  0.11764515242E+03  0.00000000000E+00 0. -1.
         21    1    1    2  504  505  0.30831993749E+02 -0.65464314528E+01  0.12019698539E+02  0.33733377481E+02  0.00000000000E+00 0.  1.
         21    1    1    2  505  501  0.14560764741E+02 -0.41561775951E+02  0.15052702925E+03  0.15683680571E+03  0.00000000000E+00 0. -1.
         21    1    1    2  506  503 -0.11595166199E+03 -0.19098145591E+02 -0.43318356764E+03  0.44884020582E+03  0.00000000000E+00 0.  1.
<scales pt_clust_3="30.52959" pt_clust_4="30.52959" pt_clust_5="44.03859" pt_clust_6="117.06024"></scales>
<clustering>
<clus scale="   30.530">  3  4 -1 -1</clus>
<clus scale="   44.039">  1  5  2 -1</clus>
<clus scale="  117.060">  2  6  1 -1</clus>
<clus scale="   44.039">  1  3  2 -1</clus>
</clustering>
</event>
<event>
 6    0  0.4227619E+002  0.1067999E+03  0.7546771E-02  0.1266613E+00
         21   -1    0    0  505  501  0.00000000000E+00  0.00000000000E+00  0.38633403808E+03  0.38633403808E+03  0.00000000000E+00 0.  1.
         21   -1    0    0  504  502 -0.00000000000E+00 -0.00000000000E+00 -0.57942395622E+03  0.57942395622E+03  0.00000000000E+00 0.  1.
         21    1    1    2  503  502 -0.11742501746E+03 -0.30462590887E+02 -0.43209644699E+03  0.44880278929E+03  0.00000000000E+00 0.  1.
         21    1    1    2  504  501  0.80945880129E+02  0.17089172546E+02 -0.10929750560E+03  0.13707742360E+03  0.00000000000E+00 0. -1.
         21    1    1    2  505  506  0.27356028365E+02 -0.26289504643E+02  0.33487999303E+03  0.33702240293E+03  0.00000000000E+00 0.  1.
         21    1    1    2  506  503  0.91231089697E+01  0.39662922984E+02  0.13424041432E+02  0.42855378487E+02  0.00000000000E+00 0. -1.
<scales pt_clust_3="14000.00000" pt_clust_4="106.79993" pt_clust_5="37.94062" pt_clust_6="34.92053"></scales>
<clustering>
<clus scale="   37.941">  1  5  2 -1</clus>
<clus scale="   34.921">  1  6  2 -1</clus>
<clus scale="  106.800">  1  4  2 -1</clus>
<clus scale="   37.941">  1  3  2 -1</clus>
</clustering>
</event>
<event>
 6    0  0.4227619E+002  0.1008857E+03  0.7546771E-02  0.1278444E+00
         21   -1    0    0  504  501  0.00000000000E+00  0.00000000000E+00  0.78878748666E+02  0.78878748666E+02  0.00000000000E+00 0. -1.
         21   -1    0    0  506  502 -0.00000000000E+00 -0.00000000000E+00 -0.11238006751E+04  0.11238006751E+04  0.00000000000E+00 0. -1.
         21    1    1    2  503  501 -0.10108953027E+03  0.35702081358E+02  0.14885178434E+02  0.10823724073E+03  0.00000000000E+00 0. -1.
         21    1    1    2  504  502 -0.20959130030E+02 -0.25986835936E+02 -0.23032441048E+03  0.23273146507E+03  0.00000000000E+00 0. -1.
         21    1    1    2  505  503  0.91521265865E+02  0.32254927269E+02 -0.14037039985E+03  0.17064692085E+03  0.00000000000E+00 0. -1.
         21    1    1    2  506  505  0.30527394434E+02 -0.41970172692E+02 -0.68911229455E+03  0.69106379714E+03  0.00000000000E+00 0. -1.
<scales pt_clust_3="14000.00000" pt_clust_4="33.38564" pt_clust_5="100.88569" pt_clust_6="63.69844"></scales>
<clustering>
<clus scale="   33.386">  2  4  1 -1</clus>
<clus scale="   63.698">  2  6  1 -1</clus>
<clus scale="  100.886">  2  5  1 -1</clus>
<clus scale="  100.886">  1  3  2 -1</clus>
</clustering>
</event>
<event>
 6    0  0.4227619E+002  0.1570254E+03  0.7546771E-02  0.1192097E+00
         21   -1    0    0  503  501  0.00000000000E+00  0.00000000000E+00  0.63455760035E+03  0.63455760035E+03  0.00000000000E+00 0.  1.
         21   -1    0    0  501  502 -0.00000000000E+00 -0.00000000000E+00 -0.23615459556E+03  0.23615459556E+03  0.00000000000E+00 0. -1.
         21    1    1    2  503  504 -0.50371688797E+02 -0.28376980735E+02  0.27729287964E+03  0.28325589344E+03  0.00000000000E+00 0. -1.
         21    1    1    2  504  505 -0.68220182462E+02 -0.75006762275E+02  0.28571367536E+03  0.30317043386E+03  0.00000000000E+00 0.  1.
         21    1    1    2  505  506  0.73367864955E+02  0.88064897166E+02 -0.18123020237E+01  0.11463661788E+03  0.00000000000E+00 0. -1.
         21    1    1    2  506  502  0.45224006305E+02  0.15318845844E+02 -0.16279124819E+03  0.16964925073E+03  0.00000000000E+00 0. -1.
<scales pt_clust_3="35.15390" pt_clust_4="35.15390" pt_clust_5="149.96583" pt_clust_6="47.74807"></scales>
<clustering>
<clus scale="   35.154">  3  4 -1 -1</clus>
<clus scale="   47.748">  2  6  1 -1</clus>
<clus scale="  149.966">  2  5  1 -1</clus>
<clus scale="  157.025">  1  3  2 -1</clus>
</clustering>
</event>
<event>
 6    0  0.4227619E+002  0.8928477E+02  0.7546771E-02  0.1304593E+00
         21   -1    0    0  505  501  0.00000000000E+00  0.00000000000E+00  0.54309949099E+03  0.54309949099E+03  0.00000000000E+00 0. -1.
         21   -1    0    0  504  502 -0.00000000000E+00 -0.00000000000E+00 -0.11163002005E+03  0.11163002005E+03  0.00000000000E+00 0.  1.
         21    1    1    2  503  506 -0.51976790913E+02  0.33293229150E+01 -0.52014735839E+02  0.73608450120E+02  0.00000000000E+00 0.  1.
         21    1    1    2  504  503 -0.25043221348E+02 -0.25259214188E+02 -0.26303191385E+02  0.44238543307E+02  0.00000000000E+00 0.  1.
         21    1    1    2  505  502 -0.35027428810E+02  0.40491890541E+02  0.19569120753E+03  0.20288312565E+03  0.00000000000E+00 0. -1.
         21    1    1    2  506  501  0.11204744107E+03 -0.18561999268E+02  0.31409619063E+03  0.33399939197E+03  0.00000000000E+00 0. -1.
<scales pt_clust_3="30.26486" pt_clust_4="30.26486" pt_clust_5="53.53984" pt_clust_6="81.42823"></scales>
<clustering>
<clus scale="   30.265">  3  4 -1 -1</clus>
<clus scale="   53.540">  1  5  2 -1</clus>
<clus scale="   81.428">  1  6  2 -1</clus>
<clus scale="   53.540">  1  3  2 -1</clus>
</clustering>
</event>
<event>
 6    0  0.4227619E+002  0.1067757E+03  0.7546771E-02  0.1266660E+00
         21   -1    0    0  506  501  0.00000000000E+00  0.00000000000E+00  0.11666210182E+04  0.11666210182E+04  0.00000000000E+00 0. -1.
         21   -1    0    0  505  502 -0.00000000000E+00 -0.00000000000E+00 -0.45800259059E+02  0.45800259059E+02  0.00000000000E+00 0.  1.
         21    1    1    2  503  501  0.58967181294E+02  0.27106307246E+02  0.10217714134E+03  0.12104564666E+03  0.00000000000E+00 0.  1.
         21    1    1    2  504  502 -0.10498109845E+02  0.62657893466E+02  0.15014089409E+03  0.16302916918E+03  0.00000000000E+00 0. -1.
         21    1    1    2  505  503  0.71060844386E+02 -0.41126081713E+02  0.42741494187E+02  0.92562592483E+02  0.00000000000E+00 0.  1.
         21    1    1    2  506  504 -0.11952991583E+03 -0.48638118999E+02  0.82576122954E+03  0.83578386896E+03  0.00000000000E+00 0. -1.
<scales pt_clust_3="14000.00000" pt_clust_4="63.53127" pt_clust_5="64.43274" pt_clust_6="106.77570"></scales>
<clustering>
<clus scale="   63.531">  2  4  1 -1</clus>
<clus scale="   64.433">  2  5  1 -1</clus>
<clus scale="  106.776">  1  6  2 -1</clus>
<clus scale="  106.776">  1  3  2 -1</clus>
</clustering>
</event>
<event>
 6    0  0.4227619E+002  0.1152853E+03  0.7546771E-02  0.1251084E+00
         21   -1    0    0  504  501  0.00000000000E+00  0.00000000000E+00  0.10888619565E+04  0.10888619565E+04  0.00000000000E+00 0.  1.
         21   -1    0    0  503  502 -0.00000000000E+00 -0.00000000000E+00 -0.16323209375E+03  0.16323209375E+03  0.00000000000E+00 0. -1.
         21    1    1    2  503  506  0.44907286291E+02  0.11508535570E+03 -0.12264976312E+03  0.17408121051E+03  0.00000000000E+00 0. -1.
         21    1    1    2  504  502  0.30164370807E+02 -0.17678658239E+02  0.28884332147E+03  0.29095169459E+03  0.00000000000E+00 0. -1.
         21    1    1    2  505  501 -0.40089186348E+02 -0.27823900498E+02  0.65483309336E+03  0.65664883496E+03  0.00000000000E+00 0.  1.
         21    1    1    2  506  505 -0.34982470750E+02 -0.69582796958E+02  0.10460321107E+03  0.13041231023E+03  0.00000000000E+00 0. -1.
<scales pt_clust_3="14000.00000" pt_clust_4="34.96318" pt_clust_5="45.02439" pt_clust_6="115.28526"></scales>
<clustering>
<clus scale="   34.963">  1  4  2 -1</clus>
<clus scale="   45.024">  1  5  2 -1</clus>
<clus scale="  115.285">  1  6  2 -1</clus>
<clus scale="   34.963">  1  3  2 -1</clus>
</clustering>
</event>
<event>
 6    0  0.4227619E+002  0.1001364E+03  0.7546771E-02  0.1280009E+00
         21   -1    0    0  504  501  0.00000000000E+00  0.00000000000E+00  0.40706741579E+03  0.40706741579E+03  0.00000000000E+00 0. -1.
         21   -1    0    0  505  502 -0.00000000000E+00 -0.00000000000E+00 -0.71954664919E+03  0.71954664919E+03  0.00000000000E+00 0. -1.
         21    1    1    2  503  502 -0.70668653271E+02  0.44675102622E+00 -0.60223403799E+03  0.60636630402E+03  0.00000000000E+00 0. -1.
         21    1    1    2  504  503 -0.24530400722E+02 -0.22197388581E+02  0.13473360193E+03  0.13873574921E+03  0.00000000000E+00 0. -1.
         21    1    1    2  505  506 -0.29158310629E+02  0.10057497358E+02 -0.96161492478E+02  0.10098709307E+03  0.00000000000E+00 0. -1.
         21    1    1    2  506  501  0.12435736462E+03  0.11693140197E+02  0.25118269513E+03  0.28052491868E+03  0.00000000000E+00 0. -1.
<scales pt_clust_3="14000.00000" pt_clust_4="33.13073" pt_clust_5="30.84413" pt_clust_6="100.13643"></scales>
<clustering>
<clus scale="   30.844">  2  5  1 -1</clus>
<clus scale="   33.131">  1  4  2 -1</clus>
<clus scale="  100.136">  1  6  2 -1</clus>
<clus scale="   33.131">  1  3  2 -1</clus>
</clustering>
</event>
<event>
 6    0  0.4227619E+002  0.9929934E+02  0.7546771E-02  0.1281776E+00
         21   -1    0    0  503  501  0.00000000000E+00  0.00000000000E+00  0.67077213180E+03  0.67077213180E+03  0.00000000000E+00 0.  1.
         21   -1    0    0  506  502 -0.00000000000E+00 -0.00000000000E+00 -0.13614226420E+04  0.13614226420E+04  0.00000000000E+00 0.  1.
         21    1    1    2  503  502 -0.31347703823E+02  0.55142932727E+02 -0.36194345446E+02  0.73030488202E+02  0.00000000000E+00 0. -1.
         21    1    1    2  504  505  0.36580362948E+01 -0.17931843426E+03 -0.82179062831E+03  0.84113513710E+03  0.00000000000E+00 0.  1.
         21    1    1    2  505  501  0.51226124277E+01  0.49475887887E+02  0.63850547700E+03  0.64043996503E+03  0.00000000000E+00 0.  1.
         21    1    1    2  506  504  0.22567055101E+02  0.74699613648E+02 -0.47117101346E+03  0.47758918348E+03  0.00000000000E+00 0.  1.
<scales pt_clust_3="14000.00000" pt_clust_4="99.29934" pt_clust_5="49.74037" pt_clust_6="83.04742"></scales>
<clustering>
<clus scale="   49.740">  1  5  2 -1</clus>
<clus scale="   83.047">  2  6  1 -1</clus>
<clus scale="   99.299">  2  4  1 -1</clus>
<clus scale="   49.740">  1  3  2 -1</clus>
</clustering>
</event>
<event>
 6    0  0.4227619E+002  0.9082669E+02  0.7546771E-02  0.1300862E+00
         21   -1    0    0  503  501  0.00000000000E+00  0.00000000000E+00  0.56622554159E+03  0.56622554159E+03  0.00000000000E+00 0.  1.
         21   -1    0    0  501  502 -0.00000000000E+00 -0.00000000000E+00 -0.20988473409E+04  0.20988473409E+04  0.00000000000E+00 0.  1.
         21    1    1    2  503  506 -0.33797804401E+02 -0.13579528729E+02  0.50265605632E+03  0.50397401335E+03  0.00000000000E+00 0.  1.
         21    1    1    2  504  505  0.45909127466E+02  0.70957960885E+02 -0.17927754267E+03  0.19819969098E+03  0.00000000000E+00 0. -1.
         21    1    1    2  505  502 -0.33906167175E+02  0.26648952521E+02 -0.18737908007E+04  0.18742870003E+04  0.00000000000E+00 0.  1.
         21    1    1    2  506  504  0.21794844111E+02 -0.84027384678E+02  0.17790487738E+02  0.88612177828E+02  0.00000000000E+00 0. -1.
<scales pt_clust_3="36.42383" pt_clust_4="90.82669" pt_clust_5="43.19722" pt_clust_6="14000.00000"></scales>
<clustering>
<clus scale="   36.424">  1  3  2 -1</clus>
<clus scale="   43.197">  2  5  1 -1</clus>
<clus scale="   90.827">  2  4  1 -1</clus>
<clus scale="   36.424">  1  3  2 -1</clus>
</clustering>
</event>
<event>
 6    0  0.4227619E+002  0.1145452E+03  0.7546771E-02  0.1252377E+00
         21   -1    0    0  504  501  0.00000000000E+00  0.00000000000E+00  0.22925457625E+04  0.22925457625E+04  0.00000000000E+00 0. -1.
         21   -1    0    0  506  502 -0.00000000000E+00 -0.00000000000E+00 -0.55930289659E+03  0.55930289659E+03  0.00000000000E+00 0. -1.
         21    1    1    2  503  501  0.18574413564E+02  0.41370444547E+02  0.21525074137E+04  0.21529850646E+04  0.00000000000E+00 0. -1.
         21    1    1    2  504  502  0.17017320181E+02  0.42540948498E+02 -0.38890944303E+02  0.60098477801E+02  0.00000000000E+00 0.  1.
         21    1    1    2  505  503 -0.15520641601E+02 -0.15467541407E+03  0.78420250148E+02  0.17411234783E+03  0.00000000000E+00 0. -1.
         21    1    1    2  506  505 -0.20071092143E+02  0.70764021028E+02 -0.45879385365E+03  0.46465276880E+03  0.00000000000E+00 0. -1.
<scales pt_clust_3="45.34890" pt_clust_4="49.25531" pt_clust_5="114.54519" pt_clust_6="14000.00000"></scales>
<clustering>
<clus scale="   45.349">  1  3  2 -1</clus>
<clus scale="   49.255">  2  4  1 -1</clus>
<clus scale="  114.545">  1  5  2 -1</clus>
<clus scale="   45.349">  1  3  2 -1</clus>
</clustering>
</event>
<event>
 6    0  0.4227619E+002  0.7503784E+02  0.7546771E-02  0.1343754E+00
         21   -1    0    0  505  501  0.00000000000E+00  0.00000000000E+00  0.71230290586E+03  0.71230290586E+03  0.00000000000E+00 0. -1.
         21   -1    0    0  503  502 -0.00000000000E+00 -0.00000000000E+00 -0.12219833105E+03  0.12219833105E+03  0.00000000000E+00 0.  1.
         21    1    1    2  503  504 -0.59852588845E+02  0.73305997503E+02  0.40530578613E+02  0.10295061663E+03  0.00000000000E+00 0.  1.
         21    1    1    2  504  501  0.49273315913E+01  0.50628026091E+02  0.44428306342E+03  0.44718554993E+03  0.00000000000E+00 0. -1.
         21    1    1    2  505  506  0.66499143093E+02 -0.48526139181E+02  0.16703488666E+03  0.18621916007E+03  0.00000000000E+00 0. -1.
         21    1    1    2  506  502 -0.11573885839E+02 -0.75407884413E+02 -0.61743953879E+02  0.98145910285E+02  0.00000000000E+00 0.  1.
<scales pt_clust_3="14000.00000" pt_clust_4="50.86724" pt_clust_5="71.35418" pt_clust_6="75.03784"></scales>
<clustering>
<clus scale="   50.867">  1  4  2 -1</clus>
<clus scale="   71.354">  1  5  2 -1</clus>
<clus scale="   75.038">  2  6  1 -1</clus>
<clus scale="   50.867">  1  3  2 -1</clus>
</clustering>
</event>
<event>
 6    0  0.4227619E+002  0.7898617E+02  0.7546771E-02  0.1331953E+00
         21   -1    0    0  504  501  0.00000000000E+00  0.00000000000E+00  0.48114905948E+03  0.48114905948E+03  0.00000000000E+00 0. -1.
         21   -1    0    0  506  502 -0.00000000000E+00 -0.00000000000E+00 -0.31265599962E+03  0.31265599962E+03  0.00000000000E+00 0. -1.
         21    1    1    2  503  502  0.24054781039E+02 -0.41103813264E+02 -0.17396685112E+03  0.18036801613E+03  0.00000000000E+00 0. -1.
         21    1    1    2  504  505 -0.87862223019E+02  0.29938386327E+02  0.23639671483E+03  0.25396748609E+03  0.00000000000E+00 0. -1.
         21    1    1    2  505  503  0.25829520043E+02  0.79415870901E+02 -0.10514974339E+03  0.13427774645E+03  0.00000000000E+00 0. -1.
         21    1    1    2  506  501  0.37977921936E+02 -0.68250443964E+02  0.21121293955E+03  0.22519181044E+03  0.00000000000E+00 0. -1.
<scales pt_clust_3="47.62516" pt_clust_4="14000.00000" pt_clust_5="63.83011" pt_clust_6="78.98617"></scales>
<clustering>
<clus scale="   47.625">  2  3  1 -1</clus>
<clus scale="   63.830">  2  5  1 -1</clus>
<clus scale="   78.986">  1  6  2 -1</clus>
<clus scale="   78.986">  1  3  2 -1</clus>
</clustering>
</event>
<event>
 6    0  0.4227619E+002  0.8660105E+02  0.7546771E-02  0.1311298E+00
         21   -1    0    0  504  501  0.00000000000E+00  0.00000000000E+00  0.35431305161E+04  0.35431305161E+04  0.00000000000E+00 0.  1.
         21   -1    0    0  505  502 -0.00000000000E+00 -0.00000000000E+00 -0.14239798283E+03  0.14239798283E+03  0.00000000000E+00 0.  1.
         21    1    1    2  503  502 -0.67599703598E+02 -0.54025697175E+02 -0.10850841037E+03  0.13878966461E+03  0.00000000000E+00 0.  1.
         21    1    1    2  504  503  0.11622404395E+01  0.13513458235E+03  0.31982399551E+03  0.34720324632E+03  0.00000000000E+00 0.  1.
         21    1    1    2  505  506  0.35362731147E+02 -0.41393580478E+02  0.14792080574E+03  0.15762143264E+03  0.00000000000E+00 0.  1.
         21    1    1    2  506  501  0.31074732012E+02 -0.39715304696E+02  0.30414961424E+04  0.30419141554E+04  0.00000000000E+00 0.  1.
<scales pt_clust_3="14000.00000" pt_clust_4="86.60105" pt_clust_5="69.79505" pt_clust_6="50.42762"></scales>
<clustering>
<clus scale="   50.428">  1  6  2 -1</clus>
<clus scale="   69.795">  1  5  2 -1</clus>
<clus scale="   86.601">  1  4  2 -1</clus>
<clus scale="   50.428">  1  3  2 -1</clus>
</clustering>
</event>
<event>
 6    0  0.4227619E+002  0.1681880E+03  0.7546771E-02  0.1179751E+00
         21   -1    0    0  504  501  0.00000000000E+00  0.00000000000E+00  0.15364381829E+04  0.15364381829E+04  0.00000000000E+00 0.  1.
         21   -1    0    0  506  502 -0.00000000000E+00 -0.00000000000E+00 -0.10970330565E+03  0.10970330565E+03  0.00000000000E+00 0.  1.
         21    1    1    2  503  501  0.17488736416E+03  0.96132749849E+02  0.11777419753E+04  0.11945305589E+04  0.00000000000E+00 0.  1.
         21    1    1    2  504  505 -0.92134539917E+01 -0.50447686566E+02  0.20784710592E+03  0.21408006973E+03  0.00000000000E+00 0.  1.
         21    1    1    2  505  502 -0.13032726386E+03 -0.54165696497E+02  0.96740282025E+02  0.17110757011E+03  0.00000000000E+00 0.  1.
         21    1    1    2  506  503 -0.35346646312E+02  0.84806332142E+01 -0.55594486053E+02  0.66423289776E+02  0.00000000000E+00 0.  1.
<scales pt_clust_3="14000.00000" pt_clust_4="51.20734" pt_clust_5="168.18797" pt_clust_6="36.34978"></scales>
<clustering>
<clus scale="   36.350">  2  6  1 -1</clus>
<clus scale="   51.207">  1  4  2 -1</clus>
<clus scale="  168.188">  2  5  1 -1</clus>
<clus scale="   51.207">  1  3  2 -1</clus>
</clustering>
</event>
<event>
 6    0  0.4227619E+002  0.9724440E+02  0.7546771E-02  0.1286200E+00
         21   -1    0    0  503  501  0.00000000000E+00  0.00000000000E+00  0.56756380985E+02  0.56756380985E+02  0.00000000000E+00 0.  1.
         21   -1    0    0  506  502 -0.00000000000E+00 -0.00000000000E+00 -0.38492799334E+03  0.38492799334E+03  0.00000000000E+00 0.  1.
         21    1    1    2  503  502  0.29032066922E+02 -0.20471842465E+02 -0.57902515637E+02  0.67931278221E+02  0.00000000000E+00 0.  1.
         21    1    1    2  504  505 -0.59431557675E+02 -0.97897370753E+02 -0.15439317905E+03  0.19223230474E+03  0.00000000000E+00 0.  1.
         21    1    1    2  505  501  0.78752395191E+00  0.94072422173E+02 -0.53225956173E+02  0.10808905226E+03  0.00000000000E+00 0.  1.
         21    1    1    2  506  504  0.29611966802E+02  0.24296791044E+02 -0.62649961493E+02  0.73431739105E+02  0.00000000000E+00 0.  1.
<scales pt_clust_3="35.52404" pt_clust_4="97.24440" pt_clust_5="14000.00000" pt_clust_6="40.94694"></scales>
<clustering>
<clus scale="   35.524">  2  3  1 -1</clus>
<clus scale="   40.947">  2  6  1 -1</clus>
<clus scale="   97.244">  2  4  1 -1</clus>
<clus scale="   97.244">  1  3  2 -1</clus>
</clustering>
</event>
<event>
 6    0  0.4227619E+002  0.9719623E+02  0.7546771E-02  0.1286305E+00
         21   -1    0    0  504  501  0.00000000000E+00  0.00000000000E+00  0.33122754582E+03  0.33122754582E+03  0.00000000000E+00 0. -1.
         21   -1    0    0  506  502 -0.00000000000E+00 -0.00000000000E+00 -0.17381045291E+04  0.17381045291E+04  0.00000000000E+00 0.  1.
         21    1    1    2  503  505  0.89797539789E+02 -0.65978778582E+02 -0.45201362164E+03  0.46554603588E+03  0.00000000000E+00 0.  1.
         21    1    1    2  504  502 -0.66458917157E+02  0.26583018795E+02  0.31215096869E+03  0.32025251258E+03  0.00000000000E+00 0. -1.
         21    1    1    2  505  501 -0.30263548130E+02 -0.13013490199E+02 -0.27556247588E+02  0.42948574525E+02  0.00000000000E+00 0. -1.
         21    1    1    2  506  503  0.69249254970E+01  0.52409249986E+02 -0.12394580827E+04  0.12405849519E+04  0.00000000000E+00 0.  1.
<scales pt_clust_3="14000.00000" pt_clust_4="97.19623" pt_clust_5="32.94288" pt_clust_6="52.83542"></scales>
<clustering>
<clus scale="   32.943">  1  5  2 -1</clus>
<clus scale="   52.835">  2  6  1 -1</clus>
<clus scale="   97.196">  1  4  2 -1</clus>
<clus scale="   32.943">  1  3  2 -1</clus>
</clustering>
</event>
<event>
 6    0  0.4227619E+002  0.8566505E+02  0.7546771E-02  0.1313702E+00
         21   -1    0    0  503  501  0.00000000000E+00  0.00000000000E+00  0.36989665614E+03  0.36989665614E+03  0.00000000000E+00 0.  1.
         21   -1    0    0  505  502 -0.00000000000E+00 -0.00000000000E+00 -0.19391451133E+04  0.19391451133E+04  0.00000000000E+00 0.  1.
         21    1    1    2  503  504  0.43142346979E+02  0.48865315499E+02  0.27939112201E+03  0.28689454547E+03  0.00000000000E+00 0.  1.
         21    1    1    2  504  502  0.18919105369E+02  0.79048827821E+02 -0.13954891819E+04  0.13978543224E+04  0.00000000000E+00 0.  1.
         21    1    1    2  505  506 -0.50291611328E+02 -0.96330292655E+02 -0.52965754567E+03  0.54069019516E+03  0.00000000000E+00 0.  1.
         21    1    1    2  506  501 -0.11769841021E+02 -0.31583850664E+02  0.76507148376E+02  0.83602706494E+02  0.00000000000E+00 0.  1.
<scales pt_clust_3="36.41138" pt_clust_4="85.66505" pt_clust_5="14000.00000" pt_clust_6="33.70562"></scales>
<clustering>
<clus scale="   33.706">  1  6  2 -1</clus>
<clus scale="   36.411">  1  3  2 -1</clus>
<clus scale="   85.665">  2  4  1 -1</clus>
<clus scale="   33.706">  1  3  2 -1</clus>
</clustering>
</event>
<event>
 6    0  0.4227619E+002  0.1892113E+03  0.7546771E-02  0.1159175E+00
         21   -1    0    0  506  501  0.00000000000E+00  0.00000000000E+00  0.19048868113E+04  0.19048868113E+04  0.00000000000E+00 0. -1.
         21   -1    0    0  504  502 -0.00000000000E+00 -0.00000000000E+00 -0.22889623499E+03  0.22889623499E+03  0.00000000000E+00 0. -1.
         21    1    1    2  503  501  0.18167982204E+03  0.10821098720E+02  0.18008459913E+04  0.18100195961E+04  0.00000000000E+00 0. -1.
         21    1    1    2  504  503 -0.44774160400E+02  0.59142920408E+02  0.46150261898E+02  0.87363935049E+02  0.00000000000E+00 0. -1.
         21    1    1    2  505  502 -0.73363618395E+02 -0.48922023652E+02 -0.13255682147E+03  0.15920708470E+03  0.00000000000E+00 0. -1.
         21    1    1    2  506  505 -0.63542043246E+02 -0.21041995476E+02 -0.38448855413E+02  0.77192430433E+02  0.00000000000E+00 0. -1.
<scales pt_clust_3="181.10009" pt_clust_4="74.17958" pt_clust_5="47.74970" pt_clust_6="47.74970"></scales>
<clustering>
<clus scale="   47.750">  5  6 -1 -1</clus>
<clus scale="   74.180">  2  4  1 -1</clus>
<clus scale="  181.100">  1  3  2 -1</clus>
<clus scale="  181.100">  1  3  2 -1</clus>
</clustering>
</event>
<event>
 6    0  0.4227619E+002  0.1338447E+03  0.7546771E-02  0.1221860E+00
         21   -1    0    0  504  501  0.00000000000E+00  0.00000000000E+00  0.88986110048E+03  0.88986110048E+03  0.00000000000E+00 0.  1.
         21   -1    0    0  506  502 -0.00000000000E+00 -0.00000000000E+00 -0.73832576721E+03  0.73832576721E+03  0.00000000000E+00 0. -1.
         21    1    1    2  503  501  0.99731203665E+01 -0.31501800951E+02  0.24512558126E+03  0.24734263115E+03  0.00000000000E+00 0.  1.
         21    1    1    2  504  505  0.12237896629E+03  0.26077128672E+02  0.13909840797E+02  0.12589722674E+03  0.00000000000E+00 0. -1.
         21    1    1    2  505  502  0.43324903766E+00  0.32799434359E+02 -0.67280872979E+03  0.67360788110E+03  0.00000000000E+00 0. -1.
         21    1    1    2  506  503 -0.13278533569E+03 -0.27374762080E+02  0.56530864100E+03  0.58133912870E+03  0.00000000000E+00 0.  1.
<scales pt_clust_3="32.51318" pt_clust_4="14000.00000" pt_clust_5="32.80230" pt_clust_6="133.84471"></scales>
<clustering>
<clus scale="   32.802">  2  5  1 -1</clus>
<clus scale="   32.513">  1  3  2 -1</clus>
<clus scale="  133.845">  1  6  2 -1</clus>
<clus scale="   32.513">  1  3  2 -1</clus>
</clustering>
</event>
<event>
 6    0  0.4227619E+002  0.1813621E+03  0.7546771E-02  0.1166491E+00
         21   -1    0    0  505  501  0.00000000000E+00  0.00000000000E+00  0.71229567706E+03  0.71229567706E+03  0.00000000000E+00 0. -1.
         21   -1    0    0  506  502 -0.00000000000E+00 -0.00000000000E+00 -0.22280821680E+03  0.22280821680E+03  0.00000000000E+00 0. -1.
         21    1    1    2  503  502  0.13052763042E+01  0.38204212422E+02 -0.11851349202E+02  0.40021495111E+02  0.00000000000E+00 0.  1.
         21    1    1    2  504  501  0.39650183514E+02  0.16729348961E+03  0.25722985510E+03  0.30939690864E+03  0.00000000000E+00 0. -1.
         21    1    1    2  505  503 -0.43438044226E+02  0.10555931623E+02  0.34453254217E+03  0.34742044268E+03  0.00000000000E+00 0. -1.
         21    1    1    2  506  504  0.24825844081E+01 -0.21605363366E+03 -0.10042358780E+03  0.23826504743E+03  0.00000000000E+00 0. -1.
<scales pt_clust_3="38.22650" pt_clust_4="181.36211" pt_clust_5="44.75996" pt_clust_6="14000.00000"></scales>
<clustering>
<clus scale="   38.227">  2  3  1 -1</clus>
<clus scale="   44.760">  1  5  2 -1</clus>
<clus scale="  181.362">  1  4  2 -1</clus>
<clus scale="   44.760">  1  3  2 -1</clus>
</clustering>
</event>
<event>
 6    0  0.4227619E+002  0.9400013E+02  0.7546771E-02  0.1293444E+00
         21   -1    0    0  504  501  0.00000000000E+00  0.00000000000E+00  0.24045779427E+03  0.24045779427E+03  0.00000000000E+00 0.  1.
         21   -1    0    0  505  502 -0.00000000000E+00 -0.00000000000E+00 -0.10799608086E+03  0.10799608086E+03  0.00000000000E+00 0.  1.
         21    1    1    2  503  506  0.51967264776E+02  0.42966571758E+02 -0.28745392838E+02  0.73300890216E+02  0.00000000000E+00 0.  1.
         21    1    1    2  504  503  0.32870177064E+02  0.74511961750E+01  0.46264354110E+02  0.57239490964E+02  0.00000000000E+00 0.  1.
         21    1    1    2  505  501 -0.12588967516E+03 -0.35294892462E+02  0.11506183597E+03  0.17416419219E+03  0.00000000000E+00 0.  1.
         21    1    1    2  506  502  0.41052233318E+02 -0.15122875471E+02 -0.11908383160E+00  0.43749301753E+02  0.00000000000E+00 0.  1.
<scales pt_clust_3="94.00013" pt_clust_4="33.70414" pt_clust_5="14000.00000" pt_clust_6="47.06491"></scales>
<clustering>
<clus scale="   33.704">  1  4  2 -1</clus>
<clus scale="   47.065">  2  6  1 -1</clus>
<clus scale="   94.000">  2  3  1 -1</clus>
<clus scale="   33.704">  1  3  2 -1</clus>
</clustering>
</event>
<event>
 6    0  0.4227619E+002  0.1023063E+03  0.7546771E-02  0.1275520E+00
         21   -1    0    0  503  501  0.00000000000E+00  0.00000000000E+00  0.19376972562E+03  0.19376972562E+03  0.00000000000E+00 0. -1.
         21   -1    0    0  505  502 -0.00000000000E+00 -0.00000000000E+00 -0.38784631824E+04  0.38784631824E+04  0.00000000000E+00 0. -1.
         21    1    1    2  503  502  0.20715934203E+02 -0.77137566164E+02 -0.20848916462E+04  0.20864209859E+04  0.00000000000E+00 0. -1.
         21    1    1    2  504  501  0.65079240741E+02 -0.46146046051E+02  0.84576416746E+02  0.11626665649E+03  0.00000000000E+00 0. -1.
         21    1    1    2  505  506 -0.67691476366E+02 -0.14898923664E+02 -0.17234225883E+04  0.17248157965E+04  0.00000000000E+00 0. -1.
         21    1    1    2  506  504 -0.18103698577E+02  0.13818253588E+03  0.39044360955E+02  0.14472946917E+03  0.00000000000E+00 0. -1.
<scales pt_clust_3="14000.00000" pt_clust_4="79.43763" pt_clust_5="69.31172" pt_clust_6="102.30627"></scales>
<clustering>
<clus scale="   69.312">  2  5  1 -1</clus>
<clus scale="   79.438">  1  4  2 -1</clus>
<clus scale="  102.306">  1  6  2 -1</clus>
<clus scale="   79.438">  1  3  2 -1</clus>
</clustering>
</event>
<event>
 6    0  0.4227619E+002  0.1309713E+03  0.7546771E-02  0.1226022E+00
         21   -1    0    0  505  501  0.00000000000E+00  0.00000000000E+00  0.11194999922E+04  0.11194999922E+04  0.00000000000E+00 0. -1.
         21   -1    0    0  506  502 -0.00000000000E+00 -0.00000000000E+00 -0.42246814991E+02  0.42246814991E+02  0.00000000000E+00 0. -1.
         21    1    1    2  503  501 -0.31135800995E+02  0.10322516880E+03  0.39853437966E+03  0.41286138757E+03  0.00000000000E+00 0. -1.
         21    1    1    2  504  502  0.37659269993E+02  0.40693521026E+02  0.47754124181E+02  0.73175403286E+02  0.00000000000E+00 0. -1.
         21    1    1    2  505  504  0.42555908478E+02 -0.16857005663E+03  0.55752790319E+03  0.58400704805E+03  0.00000000000E+00 0. -1.
         21    1    1    2  506  503 -0.49079377476E+02  0.24651366802E+02  0.73436770211E+02  0.91702968314E+02  0.00000000000E+00 0. -1.
<scales pt_clust_3="130.97133" pt_clust_4="53.57066" pt_clust_5="14000.00000" pt_clust_6="54.92245"></scales>
<clustering>
<clus scale="   54.922">  2  6  1 -1</clus>
<clus scale="   53.571">  2  4  1 -1</clus>
<clus scale="  130.971">  1  3  2 -1</clus>
<clus scale="  130.971">  1  3  2 -1</clus>
</clustering>
</event>
<event>
 6    0  0.4227619E+002  0.7866310E+02  0.7546771E-02  0.1332889E+00
         21   -1    0    0  506  501  0.00000000000E+00  0.00000000000E+00  0.12556520883E+04  0.12556520883E+04  0.00000000000E+00 0.  1.
         21   -1    0    0  503  502 -0.00000000000E+00 -0.00000000000E+00 -0.49740801272E+03  0.49740801272E+03  0.00000000000E+00 0. -1.
         21    1    1    2  503  504 -0.67853464892E+02  0.87805018858E+02  0.95918069437E+03  0.96557828190E+03  0.00000000000E+00 0.  1.
         21    1    1    2  504  501  0.34482716458E+02 -0.53840765875E+02  0.24355589245E+03  0.25180817809E+03  0.00000000000E+00 0. -1.
         21    1    1    2  505  502  0.37689757994E+02 -0.68929036446E+02 -0.47956775397E+03  0.48595983431E+03  0.00000000000E+00 0. -1.
         21    1    1    2  506  505 -0.43190095598E+01  0.34964783464E+02  0.35075242767E+02  0.49713806749E+02  0.00000000000E+00 0.  1.
<scales pt_clust_3="14000.00000" pt_clust_4="57.53418" pt_clust_5="78.66310" pt_clust_6="35.23053"></scales>
<clustering>
<clus scale="   35.231">  1  6  2 -1</clus>
<clus scale="   57.534">  1  4  2 -1</clus>
<clus scale="   78.663">  2  5  1 -1</clus>
<clus scale="   35.231">  1  3  2 -1</clus>
</clustering>
</event>
<event>
 6    0  0.4227619E+002  0.1269268E+03  0.7546771E-02  0.1232088E+00
         21   -1    0    0  506  501  0.00000000000E+00  0.00000000000E+00  0.71530976976E+03  0.71530976976E+03  0.00000000000E+00 0.  1.
         21   -1    0    0  503  502 -0.00000000000E+00 -0.00000000000E+00 -0.13830147508E+03  0.13830147508E+03  0.00000000000E+00 0. -1.
         21    1    1    2  503  505 -0.10363326417E+03 -0.34277757187E+02  0.19462433411E+02  0.11087652770E+03  0.00000000000E+00 0. -1.
         21    1    1    2  504  502  0.12834464900E+03 -0.10896786962E+03  0.10336287619E+02  0.16868071727E+03  0.00000000000E+00 0. -1.
         21    1    1    2  505  501  0.11415544341E+02  0.10426517584E+03  0.23489078764E+03  0.25724545412E+03  0.00000000000E+00 0.  1.
         21    1    1    2  506  504 -0.36126929168E+02  0.38980450967E+02  0.31231878600E+03  0.31680854575E+03  0.00000000000E+00 0.  1.
<scales pt_clust_3="113.01605" pt_clust_4="126.92683" pt_clust_5="14000.00000" pt_clust_6="53.14725"></scales>
<clustering>
<clus scale="   53.147">  1  6  2 -1</clus>
<clus scale="  113.016">  2  3  1 -1</clus>
<clus scale="  126.927">  2  4  1 -1</clus>
<clus scale="   53.147">  1  3  2 -1</clus>
</clustering>
</event>
<event>
 6    0  0.4227619E+002  0.6645731E+02  0.7546771E-02  0.1372572E+00
         21   -1    0    0  506  501  0.00000000000E+00  0.00000000000E+00  0.74528267766E+02  0.74528267766E+02  0.00000000000E+00 0.  1.
         21   -1    0    0  503  502 -0.00000000000E+00 -0.00000000000E+00 -0.24045217473E+04  0.24045217473E+04  0.00000000000E+00 0.  1.
         21    1    1    2  503  505 -0.35040513149E+02 -0.10459239409E+03 -0.87320315308E+03  0.88014268901E+03  0.00000000000E+00 0.  1.
         21    1    1    2  504  502  0.31816481976E+02  0.49925670754E+02 -0.14395305919E+04  0.14407474401E+04  0.00000000000E+00 0.  1.
         21    1    1    2  505  501  0.35684856553E+01 -0.38910273033E+02 -0.45917625606E+02  0.60292385743E+02  0.00000000000E+00 0.  1.
         21    1    1    2  506  504 -0.34445448146E+00  0.93576996367E+02  0.28657890980E+02  0.97867500292E+02  0.00000000000E+00 0.  1.
<scales pt_clust_3="66.45731" pt_clust_4="14000.00000" pt_clust_5="39.07356" pt_clust_6="57.10242"></scales>
<clustering>
<clus scale="   39.074">  1  5  2 -1</clus>
<clus scale="   57.102">  1  6  2 -1</clus>
<clus scale="   66.457">  1  3  2 -1</clus>
<clus scale="   39.074">  1  3  2 -1</clus>
</clustering>
</event>
<event>
 6    0  0.4227619E+002  0.1568223E+03  0.7546771E-02  0.1192332E+00
         21   -1    0    0  503  501  0.00000000000E+00  0.00000000000E+00  0.26693981177E+03  0.26693981177E+03  0.00000000000E+00 0.  1.
         21   -1    0    0  505  502 -0.00000000000E+00 -0.00000000000E+00 -0.96199542328E+03  0.96199542328E+03  0.00000000000E+00 0. -1.
         21    1    1    2  503  504 -0.52734069298E+02  0.10397616733E+03  0.19530445662E+03  0.22745495425E+03  0.00000000000E+00 0.  1.
         21    1    1    2  504  502  0.79905125387E+02 -0.13465083268E+03 -0.85520046442E+03  0.86941561416E+03  0.00000000000E+00 0. -1.
         21    1    1    2  505  506 -0.36887152144E+02 -0.19352599784E+02 -0.61824380288E+02  0.74548233445E+02  0.00000000000E+00 0.  1.
         21    1    1    2  506  501  0.97160960549E+01  0.50027265128E+02  0.26664776572E+02  0.57516433203E+02  0.00000000000E+00 0.  1.
<scales pt_clust_3="156.82234" pt_clust_4="14000.00000" pt_clust_5="41.65555" pt_clust_6="50.51592"></scales>
<clustering>
<clus scale="   41.656">  2  5  1 -1</clus>
<clus scale="   50.516">  1  6  2 -1</clus>
<clus scale="  156.822">  1  3  2 -1</clus>
<clus scale="   50.516">  1  3  2 -1</clus>
</clustering>
</event>
<event>
 6    0  0.4227619E+002  0.8168500E+02  0.7546771E-02  0.1324337E+00
         21   -1    0    0  504  501  0.00000000000E+00  0.00000000000E+00  0.18479923449E+03  0.18479923449E+03  0.00000000000E+00 0. -1.
         21   -1    0    0  505  502 -0.00000000000E+00 -0.00000000000E+00 -0.68765260729E+03  0.68765260729E+03  0.00000000000E+00 0. -1.
         21    1    1    2  503  501  0.96620004550E+02  0.10205085735E+03  0.99516358760E+02  0.17220136012E+03  0.00000000000E+00 0. -1.
         21    1    1    2  504  506 -0.59749384912E+02 -0.34935430692E+02  0.61246744102E+01  0.69483702777E+02  0.00000000000E+00 0. -1.
         21    1    1    2  505  503 -0.59129927139E+01 -0.96052187592E+02 -0.55101443133E+03  0.55935488713E+03  0.00000000000E+00 0. -1.
         21    1    1    2  506  502 -0.30957626924E+02  0.28936760931E+02 -0.57479974646E+02  0.71411891749E+02  0.00000000000E+00 0. -1.
<scales pt_clust_3="81.68500" pt_clust_4="69.85978" pt_clust_5="14000.00000" pt_clust_6="42.37583"></scales>
<clustering>
<clus scale="   42.376">  2  6  1 -1</clus>
<clus scale="   69.860">  1  4  2 -1</clus>
<clus scale="   81.685">  1  3  2 -1</clus>
<clus scale="   69.860">  1  3  2 -1</clus>
</clustering>
</event>
<event>
 6    0  0.4227619E+002  0.9060600E+02  0.7546771E-02  0.1301391E+00
         21   -1    0    0  504  501  0.00000000000E+00  0.00000000000E+00  0.12467459938E+03  0.12467459938E+03  0.00000000000E+00 0. -1.
         21   -1    0    0  506  502 -0.00000000000E+00 -0.00000000000E+00 -0.15726847281E+04  0.15726847281E+04  0.00000000000E+00 0. -1.
         21    1    1    2  503  502  0.74371037165E+02  0.46385906328E+02 -0.49612109995E+03  0.50380437601E+03  0.00000000000E+00 0. -1.
         21    1    1    2  504  503  0.15261922877E+02 -0.49318012827E+02 -0.21844105832E+02  0.56056735891E+02  0.00000000000E+00 0. -1.
         21    1    1    2  505  501  0.13599882095E+02 -0.38696833215E+02  0.96542173600E+02  0.10489419897E+03  0.00000000000E+00 0. -1.
         21    1    1    2  506  505 -0.10323284214E+03  0.41628939714E+02 -0.10265870965E+04  0.10326040166E+04  0.00000000000E+00 0. -1.
<scales pt_clust_3="90.60600" pt_clust_4="80.90078" pt_clust_5="41.01709" pt_clust_6="14000.00000"></scales>
<clustering>
<clus scale="   41.017">  1  5  2 -1</clus>
<clus scale="   80.901">  1  4  2 -1</clus>
<clus scale="   90.606">  1  3  2 -1</clus>
<clus scale="   41.017">  1  3  2 -1</clus>
</clustering>
</event>
<event>
 6    0  0.4227619E+002  0.1109711E+03  0.7546771E-02  0.1258782E+00
         21   -1    0    0  503  501  0.00000000000E+00  0.00000000000E+00  0.16529119951E+02  0.16529119951E+02  0.00000000000E+00 0. -1.
         21   -1    0    0  504  502 -0.00000000000E+00 -0.00000000000E+00 -0.39997463124E+04  0.39997463124E+04  0.00000000000E+00 0.  1.
         21    1    1    2  503  506 -0.37123420701E+02 -0.10469511139E+03 -0.20987497763E+03  0.23745888265E+03  0.00000000000E+00 0. -1.
         21    1    1    2  504  501  0.23604084708E+02  0.10780106938E+03 -0.28589462231E+04  0.28610752751E+04  0.00000000000E+00 0.  1.
         21    1    1    2  505  502 -0.94668723826E+01 -0.32369059729E+02 -0.63269150432E+03  0.63358970741E+03  0.00000000000E+00 0. -1.
         21    1    1    2  506  505  0.22986208376E+02  0.29263101739E+02 -0.28170448736E+03  0.28415156712E+03  0.00000000000E+00 0. -1.
<scales pt_clust_3="110.97114" pt_clust_4="14000.00000" pt_clust_5="33.72503" pt_clust_6="34.59689"></scales>
<clustering>
<clus scale="   33.725">  2  5  1 -1</clus>
<clus scale="   34.597">  2  6  1 -1</clus>
<clus scale="  110.971">  1  3  2 -1</clus>
<clus scale="  110.971">  1  3  2 -1</clus>
</clustering>
</event>
<event>
 6    0  0.4227619E+002  0.2378998E+03  0.7546771E-02  0.1121200E+00
         21   -1    0    0  503  501  0.00000000000E+00  0.00000000000E+00  0.37920789443E+03  0.37920789443E+03  0.00000000000E+00 0.  1.
         21   -1    0    0  501  502 -0.00000000000E+00 -0.00000000000E+00 -0.83524815491E+03  0.83524815491E+03  0.00000000000E+00 0.  1.
         21    1    1    2  503  506  0.74002636001E+01  0.45830262473E+02  0.20925516507E+03  0.21434295176E+03  0.00000000000E+00 0.  1.
         21    1    1    2  504  505 -0.13192210941E+03 -0.71924141179E+02 -0.38412812782E+03  0.41246932446E+03  0.00000000000E+00 0.  1.
         21    1    1    2  505  502 -0.22475650380E+02 -0.80530588414E+02 -0.37432403758E+03  0.38354767063E+03  0.00000000000E+00 0.  1.
         21    1    1    2  506  504  0.14699749619E+03  0.10662446712E+03  0.93156739852E+02  0.20409610250E+03  0.00000000000E+00 0.  1.
<scales pt_clust_3="46.42388" pt_clust_4="79.36295" pt_clust_5="79.36295" pt_clust_6="212.80046"></scales>
<clustering>
<clus scale="   46.424">  1  3  2 -1</clus>
<clus scale="   79.363">  4  5 -1 -1</clus>
<clus scale="  212.800">  1  6  2 -1</clus>
<clus scale="   46.424">  1  3  2 -1</clus>
</clustering>
</event>
<event>
 6    0  0.4227619E+002  0.1845199E+03  0.7546771E-02  0.1163499E+00
         21   -1    0    0  503  501  0.00000000000E+00  0.00000000000E+00  0.22962569460E+03  0.22962569460E+03  0.00000000000E+00 0.  1.
         21   -1    0    0  505  502 -0.00000000000E+00 -0.00000000000E+00 -0.33196970917E+03  0.33196970917E+03  0.00000000000E+00 0.  1.
         21    1    1    2  503  506 -0.53765615342E+02 -0.39602004655E+01  0.63795161071E+02  0.83523931642E+02  0.00000000000E+00 0.  1.
         21    1    1    2  504  502  0.23564173643E+02  0.33309423375E+02 -0.83729300858E+02  0.93141740306E+02  0.00000000000E+00 0.  1.
         21    1    1    2  505  501 -0.36631923488E+02 -0.19442645646E+03 -0.46920387877E+02  0.20333486565E+03  0.00000000000E+00 0.  1.
         21    1    1    2  506  504  0.66833365187E+02  0.16507723355E+03 -0.35489486914E+02  0.18159486617E+03  0.00000000000E+00 0.  1.
<scales pt_clust_3="52.87565" pt_clust_4="40.80181" pt_clust_5="14000.00000" pt_clust_6="184.51989"></scales>
<clustering>
<clus scale="   40.802">  2  4  1 -1</clus>
<clus scale="   52.876">  1  3  2 -1</clus>
<clus scale="  184.520">  1  6  2 -1</clus>
<clus scale="   52.876">  1  3  2 -1</clus>
</clustering>
</event>
<event>
 6    0  0.4227619E+002  0.1136060E+03  0.7546771E-02  0.1254034E+00
         21   -1    0    0  506  501  0.00000000000E+00  0.00000000000E+00  0.14368534129E+03  0.14368534129E+03  0.00000000000E+00 0.  1.
         21   -1    0    0  503  502 -0.00000000000E+00 -0.00000000000E+00 -0.21549926065E+04  0.21549926065E+04  0.00000000000E+00 0. -1.
         21    1    1    2  503  505  0.21141420279E+02 -0.33623597350E+02 -0.59747674518E+03  0.59879543000E+03  0.00000000000E+00 0.  1.
         21    1    1    2  504  502 -0.28610065465E+02 -0.14326368559E+02 -0.12287073067E+04  0.12291238449E+04  0.00000000000E+00 0. -1.
         21    1    1    2  505  501 -0.68181830295E+02  0.94063944427E+02  0.11159796062E+03  0.16109280691E+03  0.00000000000E+00 0.  1.
         21    1    1    2  506  504  0.75650475480E+02 -0.46113978517E+02 -0.29672117393E+03  0.30966586592E+03  0.00000000000E+00 0.  1.
<scales pt_clust_3="42.95933" pt_clust_4="31.99657" pt_clust_5="14000.00000" pt_clust_6="113.60600"></scales>
<clustering>
<clus scale="   31.997">  2  4  1 -1</clus>
<clus scale="   42.959">  2  3  1 -1</clus>
<clus scale="  113.606">  2  6  1 -1</clus>
<clus scale="  113.606">  1  3  2 -1</clus>
</clustering>
</event>
<event>
 6    0  0.4227619E+002  0.1127002E+03  0.7546771E-02  0.1255650E+00
         21   -1    0    0  506  501  0.00000000000E+00  0.00000000000E+00  0.92277436859E+02  0.92277436859E+02  0.00000000000E+00 0.  1.
         21   -1    0    0  503  502 -0.00000000000E+00 -0.00000000000E+00 -0.17787438955E+04  0.17787438955E+04  0.00000000000E+00 0.  1.
         21    1    1    2  503  505  0.93523432214E+01 -0.12154353313E+03 -0.13303623613E+04  0.13359357428E+04  0.00000000000E+00 0.  1.
         21    1    1    2  504  502  0.82447989683E+01 -0.46017738329E+02 -0.11540043134E+03  0.12451051564E+03  0.00000000000E+00 0.  1.
         21    1    1    2  505  501  0.22040463241E+02  0.11038004930E+03  0.41466059706E+02  0.11995403874E+03  0.00000000000E+00 0.  1.
         21    1    1    2  506  504 -0.39637605431E+02  0.57181222160E+02 -0.28216972578E+03  0.29062103516E+03  0.00000000000E+00 0.  1.
<scales pt_clust_3="14000.00000" pt_clust_4="46.75050" pt_clust_5="112.70025" pt_clust_6="62.32586"></scales>
<clustering>
<clus scale="   46.750">  2  4  1 -1</clus>
<clus scale="   62.326">  2  6  1 -1</clus>
<clus scale="  112.700">  1  5  2 -1</clus>
<clus scale="  112.700">  1  3  2 -1</clus>
</clustering>
</event>
<event>
 6    0  0.4227619E+002  0.9523362E+02  0.7546771E-02  0.1290651E+00
         21   -1    0    0  505  501  0.00000000000E+00  0.00000000000E+00  0.35825741290E+03  0.35825741290E+03  0.00000000000E+00 0.  1.
         21   -1    0    0  503  502 -0.00000000000E+00 -0.00000000000E+00 -0.17970358689E+03  0.17970358689E+03  0.00000000000E+00 0.  1.
         21    1    1    2  503  506 -0.61587858517E+02  0.72386739666E+02 -0.69654262195E+02  0.11783302015E+03  0.00000000000E+00 0.  1.
         21    1    1    2  504  502 -0.55974409690E+02 -0.69074641455E+02 -0.41665751077E+02  0.98185922846E+02  0.00000000000E+00 0.  1.
         21    1    1    2  505  504  0.39069027588E+02  0.81736949182E-01  0.19445044707E+03  0.19833651192E+03  0.00000000000E+00 0.  1.
         21    1    1    2  506  501  0.78493240620E+02 -0.33938351606E+01  0.95423392218E+02  0.12360554487E+03  0.00000000000E+00 0.  1.
<scales pt_clust_3="95.23362" pt_clust_4="84.76662" pt_clust_5="39.06911" pt_clust_6="14000.00000"></scales>
<clustering>
<clus scale="   39.069">  1  5  2 -1</clus>
<clus scale="   84.767">  2  4  1 -1</clus>
<clus scale="   95.234">  2  3  1 -1</clus>
<clus scale="   39.069">  1  3  2 -1</clus>
</clustering>
</event>
<event>
 6    0  0.4227619E+002  0.1936167E+03  0.7546771E-02  0.1155239E+00
         21   -1    0    0  504  501  0.00000000000E+00  0.00000000000E+00  0.94983684489E+03  0.94983684489E+03  0.00000000000E+00 0.  1.
         21   -1    0    0  505  502 -0.00000000000E+00 -0.00000000000E+00 -0.12139409318E+03  0.12139409318E+03  0.00000000000E+00 0.  1.
         21    1    1    2  503  501  0.66894645572E+02  0.40519371816E+02  0.80508368017E+02  0.11224219536E+03  0.00000000000E+00 0.  1.
         21    1    1    2  504  506  0.13477361566E+03 -0.92644825881E+02  0.27883252456E+03  0.32325619560E+03  0.00000000000E+00 0.  1.
         21    1    1    2  505  503  0.11751651514E+01 -0.48956319975E+02 -0.49587436327E+02  0.69692295988E+02  0.00000000000E+00 0.  1.
         21    1    1    2  506  502 -0.20284342639E+03  0.10108177404E+03  0.51868929546E+03  0.56604025113E+03  0.00000000000E+00 0.  1.
<scales pt_clust_3="72.77407" pt_clust_4="14000.00000" pt_clust_5="48.97042" pt_clust_6="193.61671"></scales>
<clustering>
<clus scale="   48.970">  2  5  1 -1</clus>
<clus scale="   72.774">  2  3  1 -1</clus>
<clus scale="  193.617">  2  6  1 -1</clus>
<clus scale="  193.617">  1  3  2 -1</clus>
</clustering>
</event>
<event>
 6    0  0.4227619E+002  0.9864751E+02  0.7546771E-02  0.1283166E+00
         21   -1    0    0  504  501  0.00000000000E+00  0.00000000000E+00  0.14341256595E+03  0.14341256595E+03  0.00000000000E+00 0. -1.
         21   -1    0    0  505  502 -0.00000000000E+00 -0.00000000000E+00 -0.20056486702E+03  0.20056486702E+03  0.00000000000E+00 0. -1.
         21    1    1    2  503  502  0.15737531528E+02  0.40891597816E+02 -0.18753027345E+02  0.47659927666E+02  0.00000000000E+00 0. -1.
         21    1    1    2  504  503 -0.19239923049E+02  0.92866483539E+02  0.39933540095E+02  0.10290309047E+03  0.00000000000E+00 0. -1.
         21    1    1    2  505  506 -0.47191118842E+02 -0.31438362526E+02 -0.33420397809E+01  0.56802654566E+02  0.00000000000E+00 0. -1.
         21    1    1    2  506  501  0.50693510362E+02 -0.10231971883E+03 -0.74990774034E+02  0.13661176027E+03  0.00000000000E+00 0. -1.
<scales pt_clust_3="43.81544" pt_clust_4="14000.00000" pt_clust_5="50.48225" pt_clust_6="98.64751"></scales>
<clustering>
<clus scale="   43.815">  2  3  1 -1</clus>
<clus scale="   50.482">  2  5  1 -1</clus>
<clus scale="   98.648">  2  6  1 -1</clus>
<clus scale="   98.648">  1  3  2 -1</clus>
</clustering>
</event>
<event>
 6    0  0.4227619E+002  0.1160603E+03  0.7546771E-02  0.1249742E+00
         21   -1    0    0  506  501  0.00000000000E+00  0.00000000000E+00  0.47748973837E+03  0.47748973837E+03  0.00000000000E+00 0. -1.
         21   -1    0    0  503  502 -0.00000000000E+00 -0.00000000000E+00 -0.29308870573E+03  0.29308870573E+03  0.00000000000E+00 0.  1.
         21    1    1    2  503  505  0.42600328856E+02  0.50601846407E+01 -0.21062105259E+03  0.21494562401E+03  0.00000000000E+00 0.  1.
         21    1    1    2  504  502 -0.59529671798E+02 -0.87052580204E+02  0.19176113422E+03  0.21884758656E+03  0.00000000000E+00 0. -1.
         21    1    1    2  505  501  0.53186501832E+01  0.11066095784E+03 -0.18979554661E+02  0.11240266511E+03  0.00000000000E+00 0. -1.
         21    1    1    2  506  504  0.11610692759E+02 -0.28668562275E+02  0.22224050567E+03  0.22438256842E+03  0.00000000000E+00 0. -1.
<scales pt_clust_3="42.96987" pt_clust_4="116.06025" pt_clust_5="14000.00000" pt_clust_6="30.93048"></scales>
<clustering>
<clus scale="   30.930">  1  6  2 -1</clus>
<clus scale="   42.970">  2  3  1 -1</clus>
<clus scale="  116.060">  1  4  2 -1</clus>
<clus scale="   30.930">  1  3  2 -1</clus>
</clustering>
</event>
<event>
 6    0  0.4227619E+002  0.9558833E+02  0.7546771E-02  0.1289856E+00
         21   -1    0    0  504  501  0.00000000000E+00  0.00000000000E+00  0.14101074203E+04  0.14101074203E+04  0.00000000000E+00 0.  1.
         21   -1    0    0  503  502 -0.00000000000E+00 -0.00000000000E+00 -0.24256354200E+03  0.24256354200E+03  0.00000000000E+00 0. -1.
         21    1    1    2  503  501  0.21842808660E+02  0.37657015865E+02 -0.19977140849E+03  0.20445971433E+03  0.00000000000E+00 0. -1.
         21    1    1    2  504  506 -0.45982892873E+02 -0.11416618815E+02  0.10731962430E+04  0.10742415658E+04  0.00000000000E+00 0.  1.
         21    1    1    2  505  502  0.14062003459E+01 -0.11966032037E+03  0.94782966476E+02  0.15265772304E+03  0.00000000000E+00 0.  1.
         21    1    1    2  506  505  0.22733883867E+02  0.93419923323E+02  0.19933607728E+03  0.22131195913E+03  0.00000000000E+00 0.  1.
<scales pt_clust_3="43.53343" pt_clust_4="46.98951" pt_clust_5="14000.00000" pt_clust_6="95.58833"></scales>
<clustering>
<clus scale="   43.533">  2  3  1 -1</clus>
<clus scale="   46.990">  1  4  2 -1</clus>
<clus scale="   95.588">  1  6  2 -1</clus>
<clus scale="   46.990">  1  3  2 -1</clus>
</clustering>
</event>
<event>
 6    0  0.4227619E+002  0.1099119E+03  0.7546771E-02  0.1260733E+00
         21   -1    0    0  503  501  0.00000000000E+00  0.00000000000E+00  0.14067720695E+04  0.14067720695E+04  0.00000000000E+00 0.  1.
         21   -1    0    0  506  502 -0.00000000000E+00 -0.00000000000E+00 -0.13638550083E+03  0.13638550083E+03  0.00000000000E+00 0. -1.
         21    1    1    2  503  505 -0.25135325029E+01 -0.54596339703E+02  0.33722012847E+03  0.34162039342E+03  0.00000000000E+00 0.  1.
         21    1    1    2  504  501 -0.30354096092E+02  0.37959382212E+01  0.93115319657E+03  0.93165554567E+03  0.00000000000E+00 0.  1.
         21    1    1    2  505  502  0.11350119641E+03  0.40188963717E+02 -0.87573454561E+02  0.14888513806E+03  0.00000000000E+00 0. -1.
         21    1    1    2  506  504 -0.80633567820E+02  0.10611437765E+02  0.89586698216E+02  0.12099649321E+03  0.00000000000E+00 0.  1.
<scales pt_clust_3="57.24647" pt_clust_4="30.59053" pt_clust_5="109.91190" pt_clust_6="14000.00000"></scales>
<clustering>
<clus scale="   30.591">  1  4  2 -1</clus>
<clus scale="   57.246">  1  3  2 -1</clus>
<clus scale="  109.912">  2  5  1 -1</clus>
<clus scale="   30.591">  1  3  2 -1</clus>
</clustering>
</event>
<event>
 6    0  0.4227619E+002  0.6331600E+02  0.7546771E-02  0.1384420E+00
         21   -1    0    0  506  501  0.00000000000E+00  0.00000000000E+00  0.83027694284E+03  0.83027694284E+03  0.00000000000E+00 0.  1.
         21   -1    0    0  503  502 -0.00000000000E+00 -0.00000000000E+00 -0.70101466649E+03  0.70101466649E+03  0.00000000000E+00 0. -1.
         21    1    1    2  503  501 -0.93024127368E+02 -0.84590801941E+01  0.91034032311E+01  0.93850499523E+02  0.00000000000E+00 0. -1.
         21    1    1    2  504  502  0.61357790612E+02 -0.12089592349E+02 -0.64437393831E+03  0.64740150532E+03  0.00000000000E+00 0. -1.
         21    1    1    2  505  504  0.69415948514E+02 -0.16586081324E+01  0.88021386710E+02  0.11211195033E+03  0.00000000000E+00 0. -1.
         21    1    1    2  506  505 -0.37749611758E+02  0.22207280675E+02  0.67651142471E+03  0.67792765416E+03  0.00000000000E+00 0.  1.
<scales pt_clust_3="14000.00000" pt_clust_4="63.31600" pt_clust_5="46.54758" pt_clust_6="43.79722"></scales>
<clustering>
<clus scale="   43.797">  1  6  2 -1</clus>
<clus scale="   46.548">  1  5  2 -1</clus>
<clus scale="   63.316">  2  4  1 -1</clus>
<clus scale="   43.797">  1  3  2 -1</clus>
</clustering>
</event>
<event>
 6    0  0.4227619E+002  0.9130927E+02  0.7546771E-02  0.1299712E+00
         21   -1    0    0  505  501  0.00000000000E+00  0.00000000000E+00  0.15783846806E+03  0.15783846806E+03  0.00000000000E+00 0. -1.
         21   -1    0    0  504  502 -0.00000000000E+00 -0.00000000000E+00 -0.63180896232E+03  0.63180896232E+03  0.00000000000E+00 0. -1.
         21    1    1    2  503  502  0.51256583570E+02 -0.96516754447E+02 -0.47002540673E+03  0.48256253918E+03  0.00000000000E+00 0. -1.
         21    1    1    2  504  501 -0.52452833840E+01 -0.31530089917E+02 -0.21588384401E+02  0.38570946436E+02  0.00000000000E+00 0. -1.
         21    1    1    2  505  506  0.13925172723E+02  0.94916874459E+02  0.11482529909E+03  0.14962611003E+03  0.00000000000E+00 0. -1.
         21    1    1    2  506  503 -0.59936472909E+02  0.33129969905E+02 -0.97182002222E+02  0.11888783473E+03  0.00000000000E+00 0. -1.
<scales pt_clust_3="14000.00000" pt_clust_4="31.96341" pt_clust_5="67.64124" pt_clust_6="91.30927"></scales>
<clustering>
<clus scale="   31.963">  1  4  2 -1</clus>
<clus scale="   67.641">  1  5  2 -1</clus>
<clus scale="   91.309">  1  6  2 -1</clus>
<clus scale="   31.963">  1  3  2 -1</clus>
</clustering>
</event>
<event>
 6    0  0.4227619E+002  0.7041193E+02  0.7546771E-02  0.1358698E+00
         21   -1    0    0  505  501  0.00000000000E+00  0.00000000000E+00  0.15522694388E+04  0.15522694388E+04  0.00000000000E+00 0. -1.
         21   -1    0    0  503  502 -0.00000000000E+00 -0.00000000000E+00 -0.32293197012E+02  0.32293197012E+02  0.00000000000E+00 0. -1.
         21    1    1    2  503  504  0.55617528462E+02  0.31971643753E+02  0.20046103698E+02  0.67211172806E+02  0.00000000000E+00 0. -1.
         21    1    1    2  504  506 -0.16272880058E+02 -0.88745740619E+02  0.37370853026E+03  0.38444593728E+03  0.00000000000E+00 0. -1.
         21    1    1    2  505  502  0.71991784077E+01  0.66958633412E+02  0.84472982098E+03  0.84741002898E+03  0.00000000000E+00 0. -1.
         21    1    1    2  506  501 -0.46543826812E+02 -0.10184536547E+02  0.28149178688E+03  0.28549549678E+03  0.00000000000E+00 0. -1.
<scales pt_clust_3="62.59199" pt_clust_4="14000.00000" pt_clust_5="70.41193" pt_clust_6="47.64507"></scales>
<clustering>
<clus scale="   47.645">  1  6  2 -1</clus>
<clus scale="   62.592">  2  3  1 -1</clus>
<clus scale="   70.412">  1  5  2 -1</clus>
<clus scale="   47.645">  1  3  2 -1</clus>
</clustering>
</event>
<event>
 6    0  0.4227619E+002  0.1491423E+03  0.7546771E-02  0.1201531E+00
         21   -1    0    0  505  501  0.00000000000E+00  0.00000000000E+00  0.17182460378E+03  0.17182460378E+03  0.00000000000E+00 0.  1.
         21   -1    0    0  501  502 -0.00000000000E+00 -0.00000000000E+00 -0.28626798410E+03  0.28626798410E+03  0.00000000000E+00 0.  1.
         21    1    1    2  503  504 -0.73457479182E+02 -0.33301085564E+01 -0.81155832911E+02  0.10951420039E+03  0.00000000000E+00 0.  1.
         21    1    1    2  504  502 -0.54525280521E+02  0.61938757960E+02 -0.10373203255E+03  0.13255093561E+03  0.00000000000E+00 0.  1.
         21    1    1    2  505  506  0.32527874327E+01 -0.65100326121E+02  0.63400864584E+02  0.90930207946E+02  0.00000000000E+00 0.  1.
         21    1    1    2  506  503  0.12472997227E+03  0.64916767171E+01  0.70436205588E+01  0.12509724393E+03  0.00000000000E+00 0.  1.
<scales pt_clust_3="64.00616" pt_clust_4="64.00616" pt_clust_5="65.18154" pt_clust_6="132.83817"></scales>
<clustering>
<clus scale="   64.006">  3  4 -1 -1</clus>
<clus scale="   65.182">  1  5  2 -1</clus>
<clus scale="  132.838">  1  6  2 -1</clus>
<clus scale="   65.182">  1  3  2 -1</clus>
</clustering>
</event>
<event>
 6    0  0.4227619E+002  0.1219345E+03  0.7546771E-02  0.1239939E+00
         21   -1    0    0  505  501  0.00000000000E+00  0.00000000000E+00  0.13674036781E+03  0.13674036781E+03  0.00000000000E+00 0.  1.
         21   -1    0    0  503  502 -0.00000000000E+00 -0.00000000000E+00 -0.80458018110E+03  0.80458018110E+03  0.00000000000E+00 0. -1.
         21    1    1    2  503  501  0.86509143149E+02 -0.13478623760E+03 -0.10042307184E+03  0.18903955949E+03  0.00000000000E+00 0. -1.
         21    1    1    2  504  502  0.11104911141E+02  0.94339137792E+02 -0.61862090723E+03  0.62587140758E+03  0.00000000000E+00 0. -1.
         21    1    1    2  505  506 -0.48269250993E+02  0.45005414792E+02  0.30526284531E+02  0.72713561316E+02  0.00000000000E+00 0.  1.
         21    1    1    2  506  504 -0.49344803297E+02 -0.45583149875E+01  0.20677881240E+02  0.53696020528E+02  0.00000000000E+00 0.  1.
<scales pt_clust_3="112.58317" pt_clust_4="94.99048" pt_clust_5="40.57979" pt_clust_6="40.57979"></scales>
<clustering>
<clus scale="   40.580">  5  6 -1 -1</clus>
<clus scale="   94.990">  2  4  1 -1</clus>
<clus scale="  112.583">  2  3  1 -1</clus>
<clus scale="  121.934">  1  3  2 -1</clus>
</clustering>
</event>
<event>
 6    0  0.4227619E+002  0.8652125E+02  0.7546771E-02  0.1311502E+00
         21   -1    0    0  503  501  0.00000000000E+00  0.00000000000E+00  0.30745336252E+03  0.30745336252E+03  0.00000000000E+00 0.  1.
         21   -1    0    0  505  502 -0.00000000000E+00 -0.00000000000E+00 -0.11499009579E+03  0.11499009579E+03  0.00000000000E+00 0.  1.
         21    1    1    2  503  506  0.83295129558E+01  0.37622521047E+02  0.13702684124E+03  0.14234180726E+03  0.00000000000E+00 0.  1.
         21    1    1    2  504  501 -0.34099147890E+02 -0.41436445396E+02  0.24161916056E+02  0.58851755126E+02  0.00000000000E+00 0.  1.
         21    1    1    2  505  504 -0.76407008794E+02 -0.28329226219E+02 -0.41799422459E+02  0.91584757296E+02  0.00000000000E+00 0.  1.
         21    1    1    2  506  502  0.10217664373E+03  0.32143150568E+02  0.73073931900E+02  0.12966513863E+03  0.00000000000E+00 0.  1.
<scales pt_clust_3="38.53356" pt_clust_4="45.37286" pt_clust_5="86.52125" pt_clust_6="14000.00000"></scales>
<clustering>
<clus scale="   38.534">  1  3  2 -1</clus>
<clus scale="   45.373">  1  4  2 -1</clus>
<clus scale="   86.521">  2  5  1 -1</clus>
<clus scale="   38.534">  1  3  2 -1</clus>
</clustering>
</event>
<event>
 6    0  0.4227619E+002  0.8471953E+02  0.7546771E-02  0.1316168E+00
         21   -1    0    0  503  501  0.00000000000E+00  0.00000000000E+00  0.33475370990E+03  0.33475370990E+03  0.00000000000E+00 0.  1.
         21   -1    0    0  505  502 -0.00000000000E+00 -0.00000000000E+00 -0.70759719801E+02  0.70759719801E+02  0.00000000000E+00 0.  1.
         21    1    1    2  503  502 -0.18642115943E+02 -0.63278774206E+02  0.17295266262E+02  0.68197199260E+02  0.00000000000E+00 0.  1.
         21    1    1    2  504  506  0.92645648318E+02  0.79908647041E+02  0.17349730750E+03  0.21229678221E+03  0.00000000000E+00 0.  1.
         21    1    1    2  505  504 -0.44948970336E+02  0.63700792239E+01  0.28282281139E+01  0.45486115661E+02  0.00000000000E+00 0. -1.
         21    1    1    2  506  501 -0.29054562039E+02 -0.22999952058E+02  0.70373188221E+02  0.79533332574E+02  0.00000000000E+00 0.  1.
<scales pt_clust_3="14000.00000" pt_clust_4="84.71953" pt_clust_5="47.83808" pt_clust_6="37.05625"></scales>
<clustering>
<clus scale="   37.056">  1  6  2 -1</clus>
<clus scale="   47.838">  2  5  1 -1</clus>
<clus scale="   84.720">  1  4  2 -1</clus>
<clus scale="   37.056">  1  3  2 -1</clus>
</clustering>
</event>
<event>
 6    0  0.4227619E+002  0.8552431E+02  0.7546771E-02  0.1314067E+00
         21   -1    0    0  505  501  0.00000000000E+00  0.00000000000E+00  0.34925893495E+04  0.34925893495E+04  0.00000000000E+00 0. -1.
         21   -1    0    0  504  502 -0.00000000000E+00 -0.00000000000E+00 -0.41936378439E+02  0.41936378439E+02  0.00000000000E+00 0. -1.
         21    1    1    2  503  501 -0.66404006620E+01  0.31796252994E+02  0.22401648921E+04  0.22404003750E+04  0.00000000000E+00 0. -1.
         21    1    1    2  504  503 -0.37641728320E+02  0.21726775641E+02  0.64150849101E+03  0.64297907939E+03  0.00000000000E+00 0.  1.
         21    1    1    2  505  506  0.10868931136E+03 -0.10076919541E+03  0.54921032143E+03  0.56885830776E+03  0.00000000000E+00 0. -1.
         21    1    1    2  506  502 -0.64407182376E+02  0.47246166773E+02  0.19769266569E+02  0.82287965809E+02  0.00000000000E+00 0. -1.
<scales pt_clust_3="32.48225" pt_clust_4="55.95909" pt_clust_5="85.52431" pt_clust_6="14000.00000"></scales>
<clustering>
<clus scale="   32.482">  1  3  2 -1</clus>
<clus scale="   55.959">  1  4  2 -1</clus>
<clus scale="   85.524">  1  5  2 -1</clus>
<clus scale="   32.482">  1  3  2 -1</clus>
</clustering>
</event>
<event>
 6    0  0.4227619E+002  0.6610430E+02  0.7546771E-02  0.1373865E+00
         21   -1    0    0  504  501  0.00000000000E+00  0.00000000000E+00  0.17443692644E+04  0.17443692644E+04  0.00000000000E+00 0.  1.
         21   -1    0    0  506  502 -0.00000000000E+00 -0.00000000000E+00 -0.54393899236E+03  0.54393899236E+03  0.00000000000E+00 0.  1.
         21    1    1    2  503  501  0.39287830343E+02  0.50126327215E+02  0.10221595377E+04  0.10241417396E+04  0.00000000000E+00 0.  1.
         21    1    1    2  504  502  0.83040949324E+02  0.17041646227E+02 -0.33101153917E+03  0.34169409716E+03  0.00000000000E+00 0.  1.
         21    1    1    2  505  503 -0.73893523287E+02 -0.27772386942E+02  0.70891906490E+03  0.71330063707E+03  0.00000000000E+00 0.  1.
         21    1    1    2  506  505 -0.48435256380E+02 -0.39395586499E+02 -0.19963679139E+03  0.20917178293E+03  0.00000000000E+00 0.  1.
<scales pt_clust_3="66.10430" pt_clust_4="41.38242" pt_clust_5="14000.00000" pt_clust_6="62.43386"></scales>
<clustering>
<clus scale="   62.434">  2  6  1 -1</clus>
<clus scale="   41.382">  2  4  1 -1</clus>
<clus scale="   66.104">  1  3  2 -1</clus>
<clus scale="   66.104">  1  3  2 -1</clus>
</clustering>
</event>
<event>
 6    0  0.4227619E+002  0.1232269E+03  0.7546771E-02  0.1237867E+00
         21   -1    0    0  506  501  0.00000000000E+00  0.00000000000E+00  0.47518902622E+03  0.47518902622E+03  0.00000000000E+00 0. -1.
         21   -1    0    0  504  502 -0.00000000000E+00 -0.00000000000E+00 -0.13336149053E+03  0.13336149053E+03  0.00000000000E+00 0. -1.
         21    1    1    2  503  501  0.16702877061E+02  0.40368889910E+02  0.21453569420E+03  0.21893879844E+03  0.00000000000E+00 0. -1.
         21    1    1    2  504  503  0.74614585397E+02 -0.16272059097E+03  0.94467337882E+02  0.20240900426E+03  0.00000000000E+00 0. -1.
         21    1    1    2  505  502 -0.60432477473E+02  0.89484937898E+02 -0.27933843222E+02  0.11153447019E+03  0.00000000000E+00 0. -1.
         21    1    1    2  506  505 -0.30884984985E+02  0.32866763164E+02  0.60758346825E+02  0.75668243850E+02  0.00000000000E+00 0. -1.
<scales pt_clust_3="43.68791" pt_clust_4="123.22691" pt_clust_5="14000.00000" pt_clust_6="50.94229"></scales>
<clustering>
<clus scale="   43.688">  1  3  2 -1</clus>
<clus scale="   50.942">  1  6  2 -1</clus>
<clus scale="  123.227">  1  4  2 -1</clus>
<clus scale="   43.688">  1  3  2 -1</clus>
</clustering>
</event>
<event>
 6    0  0.4227619E+002  0.1492966E+03  0.7546771E-02  0.1201340E+00
         21   -1    0    0  505  501  0.00000000000E+00  0.00000000000E+00  0.97962735779E+02  0.97962735779E+02  0.00000000000E+00 0. -1.
         21   -1    0    0  504  502 -0.00000000000E+00 -0.00000000000E+00 -0.25116863347E+04  0.25116863347E+04  0.00000000000E+00 0.  1.
         21    1    1    2  503  501 -0.57519721781E+02 -0.37859366197E+02 -0.68470004046E+02  0.97108143102E+02  0.00000000000E+00 0. -1.
         21    1    1    2  504  506  0.13379731204E+03  0.48934572838E+02 -0.11207040895E+04  0.11297229613E+04  0.00000000000E+00 0.  1.
         21    1    1    2  505  502  0.92979724632E+02 -0.53679932088E+02  0.33694711484E+02  0.11252598759E+03  0.00000000000E+00 0. -1.
         21    1    1    2  506  503 -0.16925731489E+03  0.42604725447E+02 -0.12582442168E+04  0.12702919784E+04  0.00000000000E+00 0. -1.
<scales pt_clust_3="68.86109" pt_clust_4="149.29657" pt_clust_5="96.71043" pt_clust_6="14000.00000"></scales>
<clustering>
<clus scale="   68.861">  1  3  2 -1</clus>
<clus scale="   96.710">  1  5  2 -1</clus>
<clus scale="  149.297">  2  4  1 -1</clus>
<clus scale="   68.861">  1  3  2 -1</clus>
</clustering>
</event>
<event>
 6    0  0.4227619E+002  0.7946709E+02  0.7546771E-02  0.1330571E+00
         21   -1    0    0  506  501  0.00000000000E+00  0.00000000000E+00  0.43007999725E+03  0.43007999725E+03  0.00000000000E+00 0. -1.
         21   -1    0    0  503  502 -0.00000000000E+00 -0.00000000000E+00 -0.75308164033E+03  0.75308164033E+03  0.00000000000E+00 0.  1.
         21    1    1    2  503  504  0.73230604784E+02  0.12119267954E+02 -0.31862800843E+03  0.32715960308E+03  0.00000000000E+00 0.  1.
         21    1    1    2  504  501 -0.70793353333E+02 -0.41973602334E+02  0.37903439228E+02  0.90609893910E+02  0.00000000000E+00 0. -1.
         21    1    1    2  505  502 -0.25643797198E+02  0.54967555088E+02 -0.40073885123E+03  0.40530317459E+03  0.00000000000E+00 0.  1.
         21    1    1    2  506  505  0.23206545746E+02 -0.25113220707E+02  0.35846177734E+03  0.36008896600E+03  0.00000000000E+00 0. -1.
<scales pt_clust_3="14000.00000" pt_clust_4="79.46709" pt_clust_5="59.60623" pt_clust_6="34.19382"></scales>
<clustering>
<clus scale="   34.194">  1  6  2 -1</clus>
<clus scale="   59.606">  2  5  1 -1</clus>
<clus scale="   79.467">  1  4  2 -1</clus>
<clus scale="   34.194">  1  3  2 -1</clus>
</clustering>
</event>
<event>
 6    0  0.4227619E+002  0.8463399E+02  0.7546771E-02  0.1316392E+00
         21   -1    0    0  506  501  0.00000000000E+00  0.00000000000E+00  0.66629505440E+03  0.66629505440E+03  0.00000000000E+00 0.  1.
         21   -1    0    0  504  502 -0.00000000000E+00 -0.00000000000E+00 -0.29333019437E+02  0.29333019437E+02  0.00000000000E+00 0.  1.
         21    1    1    2  503  502  0.22968614465E+02 -0.41944457119E+02  0.72217226681E+02  0.86615371401E+02  0.00000000000E+00 0. -1.
         21    1    1    2  504  501 -0.30720673213E+02  0.22671165756E+01  0.19236311337E+03  0.19481392908E+03  0.00000000000E+00 0.  1.
         21    1    1    2  505  503 -0.52409968910E+02 -0.44503280368E+02  0.88639722347E+02  0.11217997674E+03  0.00000000000E+00 0.  1.
         21    1    1    2  506  505  0.60162027659E+02  0.84180620911E+02  0.28374197257E+03  0.30201879661E+03  0.00000000000E+00 0.  1.
<scales pt_clust_3="45.21765" pt_clust_4="30.80421" pt_clust_5="14000.00000" pt_clust_6="84.63399"></scales>
<clustering>
<clus scale="   30.804">  1  4  2 -1</clus>
<clus scale="   45.218">  2  3  1 -1</clus>
<clus scale="   84.634">  1  6  2 -1</clus>
<clus scale="   30.804">  1  3  2 -1</clus>
</clustering>
</event>
<event>
 6    0  0.4227619E+002  0.1041504E+03  0.7546771E-02  0.1271803E+00
         21   -1    0    0  503  501  0.00000000000E+00  0.00000000000E+00  0.82537878053E+03  0.82537878053E+03  0.00000000000E+00 0. -1.
         21   -1    0    0  505  502 -0.00000000000E+00 -0.00000000000E+00 -0.41892206790E+03  0.41892206790E+03  0.00000000000E+00 0.  1.
         21    1    1    2  503  506 -0.96765519688E+02 -0.21387298075E+02  0.70083177020E+03  0.70780375278E+03  0.00000000000E+00 0. -1.
         21    1    1    2  504  502 -0.28343570271E+02  0.19731116405E+02 -0.26426283301E+03  0.26650988695E+03  0.00000000000E+00 0.  1.
         21    1    1    2  505  501 -0.55620168622E+01  0.33967919456E+02  0.85739424114E+02  0.92390499680E+02  0.00000000000E+00 0.  1.
         21    1    1    2  506  504  0.13067110682E+03 -0.32311737786E+02 -0.11585164867E+03  0.17759670903E+03  0.00000000000E+00 0.  1.
<scales pt_clust_3="14000.00000" pt_clust_4="34.57172" pt_clust_5="34.42028" pt_clust_6="104.15042"></scales>
<clustering>
<clus scale="   34.420">  1  5  2 -1</clus>
<clus scale="   34.572">  2  4  1 -1</clus>
<clus scale="  104.150">  2  6  1 -1</clus>
<clus scale="   34.420">  1  3  2 -1</clus>
</clustering>
</event>
<event>
 6    0  0.4227619E+002  0.1563632E+03  0.7546771E-02  0.1192865E+00
         21   -1    0    0  506  501  0.00000000000E+00  0.00000000000E+00  0.18634406598E+03  0.18634406598E+03  0.00000000000E+00 0.  1.
         21   -1    0    0  504  502 -0.00000000000E+00 -0.00000000000E+00 -0.25044051135E+03  0.25044051135E+03  0.00000000000E+00 0.  1.
         21    1    1    2  503  501 -0.61161398830E+02 -0.44537119262E+01  0.35172410082E+02  0.70694064021E+02  0.00000000000E+00 0.  1.
         21    1    1    2  504  503 -0.64405365596E+02 -0.94103478254E+02  0.41501540293E+02  0.12135029289E+03  0.00000000000E+00 0.  1.
         21    1    1    2  505  502  0.84273193109E+02 -0.63854709508E+01 -0.81189210610E+02  0.11719399829E+03  0.00000000000E+00 0.  1.
         21    1    1    2  506  505  0.41293571317E+02  0.10494266113E+03 -0.59581185141E+02  0.12754622213E+03  0.00000000000E+00 0. -1.
<scales pt_clust_3="54.49172" pt_clust_4="54.49172" pt_clust_5="84.51476" pt_clust_6="137.57849"></scales>
<clustering>
<clus scale="   54.492">  3  4 -1 -1</clus>
<clus scale="   84.515">  2  5  1 -1</clus>
<clus scale="  137.578">  2  6  1 -1</clus>
<clus scale="  156.363">  1  3  2 -1</clus>
</clustering>
</event>
<event>
 6    0  0.4227619E+002  0.1603228E+03  0.7546771E-02  0.1188333E+00
         21   -1    0    0  505  501  0.00000000000E+00  0.00000000000E+00  0.22823141322E+04  0.22823141322E+04  0.00000000000E+00 0.  1.
         21   -1    0    0  506  502 -0.00000000000E+00 -0.00000000000E+00 -0.74841716793E+03  0.74841716793E+03  0.00000000000E+00 0.  1.
         21    1    1    2  503  501  0.12432946149E+03 -0.76230107520E+02  0.19646368992E+04  0.19700423828E+04  0.00000000000E+00 0.  1.
         21    1    1    2  504  503  0.54133696321E+02  0.21974419284E+03 -0.29022150811E+03  0.36803055734E+03  0.00000000000E+00 0.  1.
         21    1    1    2  505  502 -0.13350265947E+03 -0.84798709037E+02  0.24965644344E+03  0.29553700426E+03  0.00000000000E+00 0. -1.
         21    1    1    2  506  504 -0.44960498348E+02 -0.58715376285E+02 -0.39017487024E+03  0.39712135575E+03  0.00000000000E+00 0.  1.
<scales pt_clust_3="145.78130" pt_clust_4="160.32277" pt_clust_5="14000.00000" pt_clust_6="73.95229"></scales>
<clustering>
<clus scale="   73.952">  2  6  1 -1</clus>
<clus scale="  145.781">  1  3  2 -1</clus>
<clus scale="  160.323">  2  4  1 -1</clus>
<clus scale="  145.781">  1  3  2 -1</clus>
</clustering>
</event>
<event>
 6    0  0.4227619E+002  0.1010841E+03  0.7546771E-02  0.1278033E+00
         21   -1    0    0  505  501  0.00000000000E+00  0.00000000000E+00  0.17163357661E+03  0.17163357661E+03  0.00000000000E+00 0. -1.
         21   -1    0    0  504  502 -0.00000000000E+00 -0.00000000000E+00 -0.35809288609E+03  0.35809288609E+03  0.00000000000E+00 0.  1.
         21    1    1    2  503  502 -0.31464565974E+01  0.10069125138E+03 -0.20317545771E+03  0.22677939701E+03  0.00000000000E+00 0.  1.
         21    1    1    2  504  506  0.44475629083E+02  0.28826761600E+02 -0.15538746638E+02  0.55231480279E+02  0.00000000000E+00 0. -1.
         21    1    1    2  505  503 -0.58361773805E+02 -0.98730173900E+02 -0.73527363374E+02  0.13623515348E+03  0.00000000000E+00 0.  1.
         21    1    1    2  506  501  0.17032601319E+02 -0.30787839077E+02  0.10578225825E+03  0.11148043193E+03  0.00000000000E+00 0. -1.
<scales pt_clust_3="101.08414" pt_clust_4="53.38561" pt_clust_5="14000.00000" pt_clust_6="35.18523"></scales>
<clustering>
<clus scale="   35.185">  1  6  2 -1</clus>
<clus scale="   53.386">  1  4  2 -1</clus>
<clus scale="  101.084">  2  3  1 -1</clus>
<clus scale="   35.185">  1  3  2 -1</clus>
</clustering>
</event>
<event>
 6    0  0.4227619E+002  0.1075515E+03  0.7546771E-02  0.1265172E+00
         21   -1    0    0  505  501  0.00000000000E+00  0.00000000000E+00  0.12958663277E+04  0.12958663277E+04  0.00000000000E+00 0.  1.
         21   -1    0    0  506  502 -0.00000000000E+00 -0.00000000000E+00 -0.81728680543E+02  0.81728680543E+02  0.00000000000E+00 0.  1.
         21    1    1    2  503  501 -0.71425806345E+02 -0.15317017673E+02  0.32245007079E+03  0.33062108976E+03  0.00000000000E+00 0.  1.
         21    1    1    2  504  502 -0.48947343032E+02  0.58210880904E+02  0.10898998836E+03  0.13290284650E+03  0.00000000000E+00 0.  1.
         21    1    1    2  505  504  0.24311254604E+02 -0.93305159296E+02  0.79862300178E+03  0.80442251885E+03  0.00000000000E+00 0.  1.
         21    1    1    2  506  503  0.96061894773E+02  0.50411296065E+02 -0.15925413784E+02  0.10964855313E+03  0.00000000000E+00 0.  1.
<scales pt_clust_3="73.04969" pt_clust_4="80.73020" pt_clust_5="14000.00000" pt_clust_6="107.55152"></scales>
<clustering>
<clus scale="   73.050">  1  3  2 -1</clus>
<clus scale="   80.730">  2  4  1 -1</clus>
<clus scale="  107.552">  2  6  1 -1</clus>
<clus scale="   73.050">  1  3  2 -1</clus>
</clustering>
</event>
<event>
 6    0  0.4227619E+002  0.8090061E+02  0.7546771E-02  0.1326515E+00
         21   -1    0    0  503  501  0.00000000000E+00  0.00000000000E+00  0.10088119876E+04  0.10088119876E+04  0.00000000000E+00 0. -1.
         21   -1    0    0  506  502 -0.00000000000E+00 -0.00000000000E+00 -0.69069899049E+02  0.69069899049E+02  0.00000000000E+00 0. -1.
         21    1    1    2  503  504 -0.11353049482E+03 -0.10100548002E+02  0.18761608665E+03  0.21952446400E+03  0.00000000000E+00 0. -1.
         21    1    1    2  504  502  0.12936386914E+02  0.42136513614E+02 -0.35913736967E+02  0.56856243183E+02  0.00000000000E+00 0. -1.
         21    1    1    2  505  501  0.47465025874E+02 -0.32197862810E+01  0.63762478414E+03  0.63939710748E+03  0.00000000000E+00 0. -1.
         21    1    1    2  506  505  0.53129082035E+02 -0.28816179330E+02  0.15041495475E+03  0.16210407201E+03  0.00000000000E+00 0. -1.
<scales pt_clust_3="80.90061" pt_clust_4="44.07761" pt_clust_5="47.99618" pt_clust_6="14000.00000"></scales>
<clustering>
<clus scale="   44.078">  2  4  1 -1</clus>
<clus scale="   47.996">  1  5  2 -1</clus>
<clus scale="   80.901">  1  3  2 -1</clus>
<clus scale="   47.996">  1  3  2 -1</clus>
</clustering>
</event>
<event>
 6    0  0.4227619E+002  0.1317884E+03  0.7546771E-02  0.1224826E+00
         21   -1    0    0  503  501  0.00000000000E+00  0.00000000000E+00  0.32578079651E+03  0.32578079651E+03  0.00000000000E+00 0. -1.
         21   -1    0    0  505  502 -0.00000000000E+00 -0.00000000000E+00 -0.17967623767E+03  0.17967623767E+03  0.00000000000E+00 0. -1.
         21    1    1    2  503  506 -0.21040320471E+01  0.62166933363E+02  0.83171747302E+02  0.10385901070E+03  0.00000000000E+00 0. -1.
         21    1    1    2  504  502 -0.15791087134E+03  0.38836855268E+02  0.10925168189E+02  0.16298313997E+03  0.00000000000E+00 0. -1.
         21    1    1    2  505  501  0.49768921417E+02 -0.26010782407E+02 -0.46442388947E+02  0.72872503947E+02  0.00000000000E+00 0. -1.
         21    1    1    2  506  504  0.11024598197E+03 -0.74993006224E+02  0.98450032291E+02  0.16574237956E+03  0.00000000000E+00 0. -1.
<scales pt_clust_3="59.96506" pt_clust_4="131.78843" pt_clust_5="56.15609" pt_clust_6="14000.00000"></scales>
<clustering>
<clus scale="   56.156">  2  5  1 -1</clus>
<clus scale="   59.965">  1  3  2 -1</clus>
<clus scale="  131.788">  2  4  1 -1</clus>
<clus scale="   59.965">  1  3  2 -1</clus>
</clustering>
</event>
<event>
 6    0  0.4227619E+002  0.8829064E+02  0.7546771E-02  0.1307045E+00
         21   -1    0    0  502  501  0.00000000000E+00  0.00000000000E+00  0.16232962399E+04  0.16232962399E+04  0.00000000000E+00 0.  1.
         21   -1    0    0  506  502 -0.00000000000E+00 -0.00000000000E+00 -0.99826922571E+02  0.99826922571E+02  0.00000000000E+00 0.  1.
         21    1    1    2  503  505 -0.50680197183E+02 -0.35651432747E+01  0.14337033363E+02  0.52789612224E+02  0.00000000000E+00 0.  1.
         21    1    1    2  504  501  0.25988554778E+02  0.86044244939E+02  0.15361616369E+04  0.15387890017E+04  0.00000000000E+00 0.  1.
         21    1    1    2  505  504  0.53840323389E+02 -0.60641135994E+02  0.73938284976E+01  0.81429702794E+02  0.00000000000E+00 0.  1.
         21    1    1    2  506  503 -0.29148680984E+02 -0.21837965671E+02 -0.34423181416E+02  0.50114845770E+02  0.00000000000E+00 0.  1.
<scales pt_clust_3="61.38509" pt_clust_4="88.29064" pt_clust_5="14000.00000" pt_clust_6="36.42173"></scales>
<clustering>
<clus scale="   36.422">  2  6  1 -1</clus>
<clus scale="   61.385">  2  3  1 -1</clus>
<clus scale="   88.291">  1  4  2 -1</clus>
<clus scale="   88.291">  1  3  2 -1</clus>
</clustering>
</event>
<event>
 6    0  0.4227619E+002  0.1251871E+03  0.7546771E-02  0.1234777E+00
         21   -1    0    0  505  501  0.00000000000E+00  0.00000000000E+00  0.18062043014E+04  0.18062043014E+04  0.00000000000E+00 0.  1.
         21   -1    0    0  506  502 -0.00000000000E+00 -0.00000000000E+00 -0.28663942120E+02  0.28663942120E+02  0.00000000000E+00 0.  1.
         21    1    1    2  503  502 -0.10475847625E+02 -0.85403960906E+02  0.34769089008E+03  0.35817947312E+03  0.00000000000E+00 0.  1.
         21    1    1    2  504  501 -0.56465034411E+02 -0.50251826285E+02  0.72846500266E+03  0.73237613714E+03  0.00000000000E+00 0.  1.
         21    1    1    2  505  503 -0.44291739454E+02  0.45299111070E+02  0.45414570430E+03  0.45854344220E+03  0.00000000000E+00 0.  1.
         21    1    1    2  506  504  0.11123262149E+03  0.90356676121E+02  0.24723876224E+03  0.28576919105E+03  0.00000000000E+00 0.  1.
<scales pt_clust_3="76.79559" pt_clust_4="14000.00000" pt_clust_5="63.35430" pt_clust_6="125.18709"></scales>
<clustering>
<clus scale="   63.354">  1  5  2 -1</clus>
<clus scale="   76.796">  1  3  2 -1</clus>
<clus scale="  125.187">  2  6  1 -1</clus>
<clus scale="   63.354">  1  3  2 -1</clus>
</clustering>
</event>
<event>
 6    0  0.4227619E+002  0.1003731E+03  0.7546771E-02  0.1279513E+00
         21   -1    0    0  503  501  0.00000000000E+00  0.00000000000E+00  0.14096540662E+03  0.14096540662E+03  0.00000000000E+00 0.  1.
         21   -1    0    0  506  502 -0.00000000000E+00 -0.00000000000E+00 -0.29576266441E+04  0.29576266441E+04  0.00000000000E+00 0.  1.
         21    1    1    2  503  502  0.10179317969E+03 -0.25012652987E+02 -0.23245416635E+04  0.23269038290E+04  0.00000000000E+00 0.  1.
         21    1    1    2  504  501 -0.43342679326E+02 -0.57428728248E+01  0.36429174455E+02  0.56909166141E+02  0.00000000000E+00 0.  1.
         21    1    1    2  505  504 -0.87427799912E+01  0.92947095881E+02  0.66377349614E+02  0.11454934036E+03  0.00000000000E+00 0.  1.
         21    1    1    2  506  505 -0.49707720377E+02 -0.62191570070E+02 -0.59492609807E+03  0.60022971520E+03  0.00000000000E+00 0.  1.
<scales pt_clust_3="14000.00000" pt_clust_4="43.72149" pt_clust_5="100.37310" pt_clust_6="80.50730"></scales>
<clustering>
<clus scale="   43.721">  1  4  2 -1</clus>
<clus scale="   80.507">  2  6  1 -1</clus>
<clus scale="  100.373">  1  5  2 -1</clus>
<clus scale="   43.721">  1  3  2 -1</clus>
</clustering>
</event>
<event>
 6    0  0.4227619E+002  0.1063666E+03  0.7546771E-02  0.1267450E+00
         21   -1    0    0  505  501  0.00000000000E+00  0.00000000000E+00  0.11622695670E+04  0.11622695670E+04  0.00000000000E+00 0. -1.
         21   -1    0    0  506  502 -0.00000000000E+00 -0.00000000000E+00 -0.63039288793E+02  0.63039288793E+02  0.00000000000E+00 0. -1.
         21    1    1    2  503  501 -0.63058862187E+02  0.79704179143E+02  0.82472974683E+03  0.83096830961E+03  0.00000000000E+00 0. -1.
         21    1    1    2  504  502 -0.29111253857E+01 -0.48566381864E+02  0.23971628913E+02  0.54238428177E+02  0.00000000000E+00 0. -1.
         21    1    1    2  505  504 -0.43164309686E+02 -0.45441197997E+02  0.21575242898E+03  0.22467125031E+03  0.00000000000E+00 0. -1.
         21    1    1    2  506  503  0.10913429726E+03  0.14303400718E+02  0.34776473495E+02  0.11543086770E+03  0.00000000000E+00 0. -1.
<scales pt_clust_3="106.36655" pt_clust_4="48.65355" pt_clust_5="66.20299" pt_clust_6="14000.00000"></scales>
<clustering>
<clus scale="   48.654">  2  4  1 -1</clus>
<clus scale="   66.203">  1  5  2 -1</clus>
<clus scale="  106.367">  1  3  2 -1</clus>
<clus scale="   66.203">  1  3  2 -1</clus>
</clustering>
</event>
<event>
 6    0  0.9861018E+002  0.1386393E+03  0.7546771E-02  0.1215172E+00
         21   -1    0    0  506  501  0.00000000000E+00  0.00000000000E+00  0.62940817184E+03  0.62940817184E+03  0.00000000000E+00 0.  1.
         21   -1    0    0  503  502 -0.00000000000E+00 -0.00000000000E+00 -0.91417698391E+03  0.91417698391E+03  0.00000000000E+00 0.  1.
         21    1    1    2  503  504  0.20717054374E+02  0.32194066486E+02 -0.44270278504E+02  0.58527872144E+02  0.00000000000E+00 0. -1.
         21    1    1    2  504  501 -0.10829177121E+03  0.72126102235E+02 -0.28979584204E+03  0.31766477992E+03  0.00000000000E+00 0.  1.
         21    1    1    2  505  502 -0.42992521855E+02 -0.56767430821E+02 -0.54878196917E+03  0.55338282213E+03  0.00000000000E+00 0.  1.
         21    1    1    2  506  505  0.13056723869E+03 -0.47552737900E+02  0.59807927764E+03  0.61400968156E+03  0.00000000000E+00 0.  1.
<scales pt_clust_3="38.28386" pt_clust_4="138.63932" pt_clust_5="46.86565" pt_clust_6="14000.00000"></scales>
<clustering>
<clus scale="   38.284">  2  3  1 -1</clus>
<clus scale="   46.866">  2  5  1 -1</clus>
<clus scale="  138.639">  2  4  1 -1</clus>
<clus scale="  138.639">  1  3  2 -1</clus>
</clustering>
</event>
<event>
 6    0  0.4227619E+002  0.2125366E+03  0.7546771E-02  0.1139573E+00
         21   -1    0    0  503  501  0.00000000000E+00  0.00000000000E+00  0.31395885848E+03  0.31395885848E+03  0.00000000000E+00 0. -1.
         21   -1    0    0  504  502 -0.00000000000E+00 -0.00000000000E+00 -0.73182953903E+03  0.73182953903E+03  0.00000000000E+00 0. -1.
         21    1    1    2  503  502 -0.95533234588E+02  0.11932354299E+03 -0.13325063390E+02  0.15343488566E+03  0.00000000000E+00 0. -1.
         21    1    1    2  504  505 -0.22361354221E+03  0.60481593179E+02 -0.25358648090E+03  0.34346345172E+03  0.00000000000E+00 0. -1.
         21    1    1    2  505  506  0.10423778022E+03 -0.21012585805E+03 -0.21954237793E+03  0.32127441036E+03  0.00000000000E+00 0. -1.
         21    1    1    2  506  501  0.21490899657E+03  0.30320721882E+02  0.68583241669E+02  0.22761564977E+03  0.00000000000E+00 0. -1.
<scales pt_clust_3="152.85518" pt_clust_4="212.53658" pt_clust_5="14000.00000" pt_clust_6="187.56455"></scales>
<clustering>
<clus scale="  152.855">  1  3  2 -1</clus>
<clus scale="  187.565">  1  6  2 -1</clus>
<clus scale="  212.537">  2  4  1 -1</clus>
<clus scale="  152.855">  1  3  2 -1</clus>
</clustering>
</event>
<event>
 6    0  0.4227619E+002  0.2143314E+03  0.7546771E-02  0.1138181E+00
         21   -1    0    0  505  501  0.00000000000E+00  0.00000000000E+00  0.42503145792E+03  0.42503145792E+03  0.00000000000E+00 0. -1.
         21   -1    0    0  503  502 -0.00000000000E+00 -0.00000000000E+00 -0.15922052313E+04  0.15922052313E+04  0.00000000000E+00 0. -1.
         21    1    1    2  503  504  0.31100379369E+02  0.11830580970E+02 -0.14247430604E+03  0.14630831872E+03  0.00000000000E+00 0. -1.
         21    1    1    2  504  501 -0.32327994594E+02 -0.64086830816E+02  0.49045137233E+02  0.86934726115E+02  0.00000000000E+00 0.  1.
         21    1    1    2  505  506  0.24187310512E+03  0.28857436505E+02  0.30152963590E+03  0.38762800718E+03  0.00000000000E+00 0. -1.
         21    1    1    2  506  502 -0.24064548989E+03  0.23398813341E+02 -0.13752742405E+04  0.13963656372E+04  0.00000000000E+00 0. -1.
<scales pt_clust_3="33.27456" pt_clust_4="71.45808" pt_clust_5="14000.00000" pt_clust_6="214.33141"></scales>
<clustering>
<clus scale="   33.275">  2  3  1 -1</clus>
<clus scale="   71.458">  1  4  2 -1</clus>
<clus scale="  214.331">  2  6  1 -1</clus>
<clus scale="   71.458">  1  3  2 -1</clus>
</clustering>
</event>
<event>
 6    0  0.4227619E+002  0.9578482E+02  0.7546771E-02  0.1289418E+00
         21   -1    0    0  504  501  0.00000000000E+00  0.00000000000E+00  0.23147392842E+03  0.23147392842E+03  0.00000000000E+00 0.  1.
         21   -1    0    0  505  502 -0.00000000000E+00 -0.00000000000E+00 -0.90107827828E+03  0.90107827828E+03  0.00000000000E+00 0.  1.
         21    1    1    2  503  506 -0.31796398874E+02 -0.12163253557E+03 -0.77854096282E+02  0.14787408495E+03  0.00000000000E+00 0.  1.
         21    1    1    2  504  502  0.11748361495E+03  0.39613369267E+02 -0.60390472128E+03  0.61650022805E+03  0.00000000000E+00 0.  1.
         21    1    1    2  505  503 -0.83525422461E+02 -0.10996898077E+02 -0.15526145138E+03  0.17664525538E+03  0.00000000000E+00 0.  1.
         21    1    1    2  506  501 -0.21617936122E+01  0.93016064382E+02  0.16741591907E+03  0.19153263833E+03  0.00000000000E+00 0.  1.
<scales pt_clust_3="14000.00000" pt_clust_4="56.99088" pt_clust_5="84.24623" pt_clust_6="95.78482"></scales>
<clustering>
<clus scale="   84.246">  2  5  1 -1</clus>
<clus scale="   56.991">  2  4  1 -1</clus>
<clus scale="   95.785">  1  6  2 -1</clus>
<clus scale="   95.785">  1  3  2 -1</clus>
</clustering>
</event>
<event>
 6    0  0.4227619E+002  0.1297050E+03  0.7546771E-02  0.1227894E+00
         21   -1    0    0  504  501  0.00000000000E+00  0.00000000000E+00  0.89491513594E+03  0.89491513594E+03  0.00000000000E+00 0.  1.
         21   -1    0    0  503  502 -0.00000000000E+00 -0.00000000000E+00 -0.23463090312E+03  0.23463090312E+03  0.00000000000E+00 0.  1.
         21    1    1    2  503  505 -0.63316359597E+01 -0.34780446432E+02 -0.32495052662E+02  0.48017679197E+02  0.00000000000E+00 0.  1.
         21    1    1    2  504  502 -0.86207323428E+02  0.49733313844E+02 -0.15177692967E+03  0.18149749723E+03  0.00000000000E+00 0.  1.
         21    1    1    2  505  506 -0.25653242155E+02 -0.73987373794E+02  0.46418196257E+02  0.91032242957E+02  0.00000000000E+00 0.  1.
         21    1    1    2  506  501  0.11819220154E+03  0.59034506382E+02  0.79813801890E+03  0.80899861969E+03  0.00000000000E+00 0.  1.
<scales pt_clust_3="35.35207" pt_clust_4="129.70496" pt_clust_5="82.32014" pt_clust_6="14000.00000"></scales>
<clustering>
<clus scale="   35.352">  2  3  1 -1</clus>
<clus scale="   82.320">  2  5  1 -1</clus>
<clus scale="  129.705">  2  4  1 -1</clus>
<clus scale="  129.705">  1  3  2 -1</clus>
</clustering>
</event>
<event>
 6    0  0.4227619E+002  0.1210834E+03  0.7546771E-02  0.1241320E+00
         21   -1    0    0  505  501  0.00000000000E+00  0.00000000000E+00  0.46437805386E+03  0.46437805386E+03  0.00000000000E+00 0.  1.
         21   -1    0    0  504  502 -0.00000000000E+00 -0.00000000000E+00 -0.14288835888E+04  0.14288835888E+04  0.00000000000E+00 0.  1.
         21    1    1    2  503  501  0.18017728531E+02  0.50382832079E+02 -0.20833202740E+02  0.57420298207E+02  0.00000000000E+00 0.  1.
         21    1    1    2  504  503 -0.39607812539E+02 -0.18062844499E+02 -0.95659168901E+03  0.95758169607E+03  0.00000000000E+00 0.  1.
         21    1    1    2  505  506 -0.11953598080E+03  0.15861653380E+02  0.42408048292E+03  0.44089080139E+03  0.00000000000E+00 0.  1.
         21    1    1    2  506  502  0.14112606481E+03 -0.48181640961E+02 -0.41116112613E+03  0.43736884701E+03  0.00000000000E+00 0.  1.
<scales pt_clust_3="51.05674" pt_clust_4="43.53212" pt_clust_5="121.08345" pt_clust_6="14000.00000"></scales>
<clustering>
<clus scale="   43.532">  2  4  1 -1</clus>
<clus scale="   51.057">  2  3  1 -1</clus>
<clus scale="  121.083">  1  5  2 -1</clus>
<clus scale="  121.083">  1  3  2 -1</clus>
</clustering>
</event>
<event>
 6    0  0.4227619E+002  0.7998615E+02  0.7546771E-02  0.1329091E+00
         21   -1    0    0  504  501  0.00000000000E+00  0.00000000000E+00  0.26101780832E+04  0.26101780832E+04  0.00000000000E+00 0. -1.
         21   -1    0    0  506  502 -0.00000000000E+00 -0.00000000000E+00 -0.17609290249E+03  0.17609290249E+03  0.00000000000E+00 0. -1.
         21    1    1    2  503  502 -0.42836240435E+02  0.47390878028E+02  0.21594412639E+03  0.22519481463E+03  0.00000000000E+00 0.  1.
         21    1    1    2  504  503  0.37899265127E+02 -0.23127879174E+02  0.38018149885E+03  0.38276523505E+03  0.00000000000E+00 0. -1.
         21    1    1    2  505  501 -0.60753472922E+02 -0.69817230789E+02  0.19976164065E+04  0.19997591700E+04  0.00000000000E+00 0. -1.
         21    1    1    2  506  505  0.65690448230E+02  0.45554231935E+02 -0.15965685111E+03  0.17855176600E+03  0.00000000000E+00 0. -1.
<scales pt_clust_3="59.68132" pt_clust_4="44.39880" pt_clust_5="79.98615" pt_clust_6="14000.00000"></scales>
<clustering>
<clus scale="   44.399">  1  4  2 -1</clus>
<clus scale="   59.681">  1  3  2 -1</clus>
<clus scale="   79.986">  1  5  2 -1</clus>
<clus scale="   44.399">  1  3  2 -1</clus>
</clustering>
</event>
<event>
 6    0  0.4227619E+002  0.1003496E+03  0.7546771E-02  0.1279562E+00
         21   -1    0    0  505  501  0.00000000000E+00  0.00000000000E+00  0.50794791553E+03  0.50794791553E+03  0.00000000000E+00 0. -1.
         21   -1    0    0  506  502 -0.00000000000E+00 -0.00000000000E+00 -0.11603774704E+04  0.11603774704E+04  0.00000000000E+00 0.  1.
         21    1    1    2  503  501  0.30208993364E+02  0.48630473356E+02  0.41564668048E+03  0.41957081549E+03  0.00000000000E+00 0. -1.
         21    1    1    2  504  502 -0.11323884367E+03 -0.81379305079E+02 -0.96816707109E+02  0.16976189733E+03  0.00000000000E+00 0.  1.
         21    1    1    2  505  504 -0.16358811581E+02  0.42683547773E+02  0.41248036651E+02  0.61570256572E+02  0.00000000000E+00 0.  1.
         21    1    1    2  506  503  0.99388661884E+02 -0.99347160500E+01 -0.10125075649E+04  0.10174224165E+04  0.00000000000E+00 0.  1.
<scales pt_clust_3="88.98987" pt_clust_4="100.34965" pt_clust_5="45.71100" pt_clust_6="14000.00000"></scales>
<clustering>
<clus scale="   45.711">  1  5  2 -1</clus>
<clus scale="   88.990">  1  3  2 -1</clus>
<clus scale="  100.350">  1  4  2 -1</clus>
<clus scale="   45.711">  1  3  2 -1</clus>
</clustering>
</event>
<event>
 6    0  0.4227619E+002  0.8811326E+02  0.7546771E-02  0.1307486E+00
         21   -1    0    0  506  501  0.00000000000E+00  0.00000000000E+00  0.22524010986E+03  0.22524010986E+03  0.00000000000E+00 0. -1.
         21   -1    0    0  504  502 -0.00000000000E+00 -0.00000000000E+00 -0.42719277131E+03  0.42719277131E+03  0.00000000000E+00 0.  1.
         21    1    1    2  503  501 -0.83436417559E+02 -0.15688852377E+02  0.15858084532E+03  0.17987679219E+03  0.00000000000E+00 0. -1.
         21    1    1    2  504  503 -0.78804100986E+02 -0.11495560039E+02 -0.51268358418E+02  0.94713667481E+02  0.00000000000E+00 0. -1.
         21    1    1    2  505  502  0.16090577125E+03 -0.28700343950E+01 -0.30826179185E+03  0.34774162339E+03  0.00000000000E+00 0.  1.
         21    1    1    2  506  505  0.13347472950E+01  0.30054446810E+02 -0.10033564979E+01  0.30100798124E+02  0.00000000000E+00 0.  1.
<scales pt_clust_3="88.11326" pt_clust_4="79.11336" pt_clust_5="14000.00000" pt_clust_6="30.08407"></scales>
<clustering>
<clus scale="   30.084">  1  6  2 -1</clus>
<clus scale="   79.113">  2  4  1 -1</clus>
<clus scale="   88.113">  1  3  2 -1</clus>
<clus scale="   30.084">  1  3  2 -1</clus>
</clustering>
</event>
<event>
 6    0  0.4227619E+002  0.7794520E+02  0.7546771E-02  0.1334986E+00
         21   -1    0    0  503  501  0.00000000000E+00  0.00000000000E+00  0.26196586629E+03  0.26196586629E+03  0.00000000000E+00 0.  1.
         21   -1    0    0  506  502 -0.00000000000E+00 -0.00000000000E+00 -0.33689523382E+03  0.33689523382E+03  0.00000000000E+00 0. -1.
         21    1    1    2  503  502  0.54235582040E+02  0.71616960061E+01 -0.15628246512E+02  0.56894906081E+02  0.00000000000E+00 0. -1.
         21    1    1    2  504  501 -0.35602882612E+02 -0.69754377180E+02  0.21261399868E+03  0.22657879605E+03  0.00000000000E+00 0.  1.
         21    1    1    2  505  504 -0.29814281549E+02  0.93703328335E+02 -0.99719536605E+02  0.14004710317E+03  0.00000000000E+00 0. -1.
         21    1    1    2  506  505  0.11181582121E+02 -0.31110647161E+02 -0.17219558309E+03  0.17534029481E+03  0.00000000000E+00 0. -1.
<scales pt_clust_3="56.72167" pt_clust_4="14000.00000" pt_clust_5="77.94520" pt_clust_6="33.05904"></scales>
<clustering>
<clus scale="   33.059">  2  6  1 -1</clus>
<clus scale="   56.722">  2  3  1 -1</clus>
<clus scale="   77.945">  2  5  1 -1</clus>
<clus scale="   77.945">  1  3  2 -1</clus>
</clustering>
</event>
<event>
 6    0  0.4227619E+002  0.7787182E+02  0.7546771E-02  0.1335202E+00
         21   -1    0    0  505  501  0.00000000000E+00  0.00000000000E+00  0.38783612058E+03  0.38783612058E+03  0.00000000000E+00 0.  1.
         21   -1    0    0  506  502 -0.00000000000E+00 -0.00000000000E+00 -0.11478376374E+03  0.11478376374E+03  0.00000000000E+00 0.  1.
         21    1    1    2  503  502  0.90503104024E+02 -0.20914145053E+02 -0.52178706744E+02  0.10654027754E+03  0.00000000000E+00 0.  1.
         21    1    1    2  504  501 -0.44786376184E+02 -0.57163025404E+02  0.64357507493E+02  0.97032570489E+02  0.00000000000E+00 0.  1.
         21    1    1    2  505  503 -0.45856409007E+02  0.45377946543E+02  0.25831323444E+03  0.26624743260E+03  0.00000000000E+00 0.  1.
         21    1    1    2  506  504  0.13968116767E+00  0.32699223913E+02  0.25603216439E+01  0.32799603691E+02  0.00000000000E+00 0.  1.
<scales pt_clust_3="14000.00000" pt_clust_4="77.87182" pt_clust_5="65.43148" pt_clust_6="32.69952"></scales>
<clustering>
<clus scale="   32.700">  2  6  1 -1</clus>
<clus scale="   65.431">  1  5  2 -1</clus>
<clus scale="   77.872">  1  4  2 -1</clus>
<clus scale="   65.431">  1  3  2 -1</clus>
</clustering>
</event>
<event>
 6    0  0.4227619E+002  0.7068044E+02  0.7546771E-02  0.1357794E+00
         21   -1    0    0  506  501  0.00000000000E+00  0.00000000000E+00  0.36128708631E+03  0.36128708631E+03  0.00000000000E+00 0. -1.
         21   -1    0    0  503  502 -0.00000000000E+00 -0.00000000000E+00 -0.61466894536E+02  0.61466894536E+02  0.00000000000E+00 0. -1.
         21    1    1    2  503  505 -0.35226423352E+01 -0.10243426494E+03  0.80209003392E+02  0.13014865296E+03  0.00000000000E+00 0. -1.
         21    1    1    2  504  502  0.11780510788E+02  0.51484537169E+02  0.14714706270E+02  0.54826641175E+02  0.00000000000E+00 0. -1.
         21    1    1    2  505  501  0.34497908099E+02  0.49685360844E+01  0.15118793997E+03  0.15515342473E+03  0.00000000000E+00 0. -1.
         21    1    1    2  506  504 -0.42755776552E+02  0.45981191685E+02  0.53708542138E+02  0.82625261972E+02  0.00000000000E+00 0. -1.
<scales pt_clust_3="70.68044" pt_clust_4="55.17808" pt_clust_5="34.85387" pt_clust_6="14000.00000"></scales>
<clustering>
<clus scale="   34.854">  1  5  2 -1</clus>
<clus scale="   55.178">  2  4  1 -1</clus>
<clus scale="   70.680">  2  3  1 -1</clus>
<clus scale="   34.854">  1  3  2 -1</clus>
</clustering>
</event>
<event>
 6    0  0.4227619E+002  0.9674127E+02  0.7546771E-02  0.1287302E+00
         21   -1    0    0  504  501  0.00000000000E+00  0.00000000000E+00  0.87753735750E+03  0.87753735750E+03  0.00000000000E+00 0.  1.
         21   -1    0    0  505  502 -0.00000000000E+00 -0.00000000000E+00 -0.59318392348E+02  0.59318392348E+02  0.00000000000E+00 0.  1.
         21    1    1    2  503  506  0.12830743794E+03  0.36676791803E+02  0.26031530345E+03  0.29252699516E+03  0.00000000000E+00 0.  1.
         21    1    1    2  504  502 -0.34996708922E+02 -0.93077602336E+02  0.11931996770E+03  0.15532374057E+03  0.00000000000E+00 0.  1.
         21    1    1    2  505  503 -0.39224879759E+02  0.68778147959E+02  0.44083498519E+02  0.90622180896E+02  0.00000000000E+00 0.  1.
         21    1    1    2  506  501 -0.54085849257E+02 -0.12377337425E+02  0.39450019548E+03  0.39838283322E+03  0.00000000000E+00 0.  1.
<scales pt_clust_3="96.74127" pt_clust_4="14000.00000" pt_clust_5="81.76198" pt_clust_6="55.48403"></scales>
<clustering>
<clus scale="   55.484">  1  6  2 -1</clus>
<clus scale="   81.762">  2  5  1 -1</clus>
<clus scale="   96.741">  1  3  2 -1</clus>
<clus scale="   55.484">  1  3  2 -1</clus>
</clustering>
</event>
<event>
 6    0  0.4227619E+002  0.9379248E+02  0.7546771E-02  0.1293919E+00
         21   -1    0    0  505  501  0.00000000000E+00  0.00000000000E+00  0.56233583276E+02  0.56233583276E+02  0.00000000000E+00 0. -1.
         21   -1    0    0  503  502 -0.00000000000E+00 -0.00000000000E+00 -0.71003477757E+03  0.71003477757E+03  0.00000000000E+00 0.  1.
         21    1    1    2  503  501 -0.73160215260E+02 -0.23565634822E+02 -0.16385783107E+03  0.18098935064E+03  0.00000000000E+00 0.  1.
         21    1    1    2  504  506  0.12350893284E+03  0.44164719340E+02 -0.25403766871E+03  0.28590228409E+03  0.00000000000E+00 0.  1.
         21    1    1    2  505  504 -0.70085157780E+02  0.27571479403E+01 -0.93419504536E+01  0.70758767966E+02  0.00000000000E+00 0. -1.
         21    1    1    2  506  502  0.19736440203E+02 -0.23356232458E+02 -0.22656374406E+03  0.22861795815E+03  0.00000000000E+00 0.  1.
<scales pt_clust_3="93.79248" pt_clust_4="14000.00000" pt_clust_5="68.45162" pt_clust_6="30.57843"></scales>
<clustering>
<clus scale="   30.578">  2  6  1 -1</clus>
<clus scale="   68.452">  1  5  2 -1</clus>
<clus scale="   93.792">  2  3  1 -1</clus>
<clus scale="   68.452">  1  3  2 -1</clus>
</clustering>
</event>
<event>
 6    0  0.4227619E+002  0.8137692E+02  0.7546771E-02  0.1325189E+00
         21   -1    0    0  503  501  0.00000000000E+00  0.00000000000E+00  0.75197529165E+03  0.75197529165E+03  0.00000000000E+00 0.  1.
         21   -1    0    0  506  502 -0.00000000000E+00 -0.00000000000E+00 -0.10799550401E+04  0.10799550401E+04  0.00000000000E+00 0. -1.
         21    1    1    2  503  504 -0.80603209615E+02  0.14564019500E+01  0.10970099884E+03  0.13613709140E+03  0.00000000000E+00 0.  1.
         21    1    1    2  504  502  0.47287035857E+02 -0.92137685572E+01 -0.10197565790E+04  0.10208939404E+04  0.00000000000E+00 0. -1.
         21    1    1    2  505  501 -0.21114673803E+01 -0.63206577040E+02  0.59163864141E+03  0.59500908538E+03  0.00000000000E+00 0.  1.
         21    1    1    2  506  505  0.35427641138E+02  0.70963943647E+02 -0.95628097865E+01  0.79890214579E+02  0.00000000000E+00 0.  1.
<scales pt_clust_3="14000.00000" pt_clust_4="48.17631" pt_clust_5="63.47170" pt_clust_6="81.37692"></scales>
<clustering>
<clus scale="   48.176">  2  4  1 -1</clus>
<clus scale="   63.472">  1  5  2 -1</clus>
<clus scale="   81.377">  2  6  1 -1</clus>
<clus scale="   63.472">  1  3  2 -1</clus>
</clustering>
</event>
<event>
 6    0  0.4227619E+002  0.1231616E+03  0.7546771E-02  0.1237971E+00
         21   -1    0    0  505  501  0.00000000000E+00  0.00000000000E+00  0.21949089353E+03  0.21949089353E+03  0.00000000000E+00 0.  1.
         21   -1    0    0  503  502 -0.00000000000E+00 -0.00000000000E+00 -0.10328075162E+04  0.10328075162E+04  0.00000000000E+00 0.  1.
         21    1    1    2  503  504  0.10110685249E+03 -0.57150813077E+02 -0.39084092295E+02  0.12254132905E+03  0.00000000000E+00 0.  1.
         21    1    1    2  504  501  0.49204903797E+02 -0.38119533472E+02  0.13911990193E+03  0.15240921397E+03  0.00000000000E+00 0.  1.
         21    1    1    2  505  506 -0.11501327637E+03  0.61237612277E+02 -0.10454665654E+03  0.16705718270E+03  0.00000000000E+00 0.  1.
         21    1    1    2  506  502 -0.35298479916E+02  0.34032734272E+02 -0.80880577574E+03  0.81029068399E+03  0.00000000000E+00 0.  1.
<scales pt_clust_3="123.16164" pt_clust_4="60.79264" pt_clust_5="14000.00000" pt_clust_6="49.03274"></scales>
<clustering>
<clus scale="   49.033">  2  6  1 -1</clus>
<clus scale="   60.793">  1  4  2 -1</clus>
<clus scale="  123.162">  2  3  1 -1</clus>
<clus scale="   60.793">  1  3  2 -1</clus>
</clustering>
</event>
<event>
 6    0  0.4227619E+002  0.9306182E+02  0.7546771E-02  0.1295602E+00
         21   -1    0    0  506  501  0.00000000000E+00  0.00000000000E+00  0.26039172007E+03  0.26039172007E+03  0.00000000000E+00 0. -1.
         21   -1    0    0  504  502 -0.00000000000E+00 -0.00000000000E+00 -0.13541880084E+03  0.13541880084E+03  0.00000000000E+00 0. -1.
         21    1    1    2  503  501  0.17489180716E+02 -0.47551415997E+02  0.38409184766E+02  0.63578880769E+02  0.00000000000E+00 0. -1.
         21    1    1    2  504  503  0.42280800729E+02 -0.65824223653E+02 -0.46769701169E+02  0.91147679495E+02  0.00000000000E+00 0. -1.
         21    1    1    2  505  502  0.42902704478E+02  0.32969576985E+02 -0.65115196407E+00  0.54111542733E+02  0.00000000000E+00 0. -1.
         21    1    1    2  506  505 -0.10267268592E+03  0.80406062665E+02  0.13398458760E+03  0.18697241792E+03  0.00000000000E+00 0. -1.
<scales pt_clust_3="50.66566" pt_clust_4="14000.00000" pt_clust_5="52.54307" pt_clust_6="93.06182"></scales>
<clustering>
<clus scale="   50.666">  1  3  2 -1</clus>
<clus scale="   52.543">  2  5  1 -1</clus>
<clus scale="   93.062">  1  6  2 -1</clus>
<clus scale="   50.666">  1  3  2 -1</clus>
</clustering>
</event>
<event>
 6    0  0.4227619E+002  0.1168054E+03  0.7546771E-02  0.1248462E+00
         21   -1    0    0  503  501  0.00000000000E+00  0.00000000000E+00  0.68434962117E+02  0.68434962117E+02  0.00000000000E+00 0.  1.
         21   -1    0    0  506  502 -0.00000000000E+00 -0.00000000000E+00 -0.10175913783E+04  0.10175913783E+04  0.00000000000E+00 0.  1.
         21    1    1    2  503  505 -0.63258978926E+02 -0.15548028236E+03 -0.27327607578E+03  0.32071113203E+03  0.00000000000E+00 0.  1.
         21    1    1    2  504  502  0.82411696883E+01 -0.33720042025E+02 -0.25812112061E+03  0.26044475618E+03  0.00000000000E+00 0.  1.
         21    1    1    2  505  504  0.45172798151E+02  0.10595040782E+03 -0.40377589798E+03  0.41988218157E+03  0.00000000000E+00 0.  1.
         21    1    1    2  506  501  0.98450110858E+01  0.83249916563E+02 -0.13983321766E+02  0.84988270594E+02  0.00000000000E+00 0.  1.
<scales pt_clust_3="14000.00000" pt_clust_4="34.71251" pt_clust_5="116.80545" pt_clust_6="81.71175"></scales>
<clustering>
<clus scale="   34.713">  2  4  1 -1</clus>
<clus scale="   81.712">  1  6  2 -1</clus>
<clus scale="  116.805">  2  5  1 -1</clus>
<clus scale="   81.712">  1  3  2 -1</clus>
</clustering>
</event>
<event>
 6    0  0.4227619E+002  0.1028413E+03  0.7546771E-02  0.1274432E+00
         21   -1    0    0  505  501  0.00000000000E+00  0.00000000000E+00  0.50188371985E+03  0.50188371985E+03  0.00000000000E+00 0.  1.
         21   -1    0    0  504  502 -0.00000000000E+00 -0.00000000000E+00 -0.65715707120E+03  0.65715707120E+03  0.00000000000E+00 0.  1.
         21    1    1    2  503  502 -0.60661823169E+02 -0.32247073258E+02 -0.20376480338E+03  0.21503447543E+03  0.00000000000E+00 0.  1.
         21    1    1    2  504  506 -0.17539109726E+02 -0.44470431551E+02 -0.43478731257E+03  0.43740741514E+03  0.00000000000E+00 0.  1.
         21    1    1    2  505  503  0.39431026034E+01  0.71042587694E+02  0.30878745627E+03  0.31687898396E+03  0.00000000000E+00 0.  1.
         21    1    1    2  506  501  0.74257830292E+02  0.56749171153E+01  0.17449130833E+03  0.18971991652E+03  0.00000000000E+00 0.  1.
<scales pt_clust_3="102.84133" pt_clust_4="47.80418" pt_clust_5="70.32205" pt_clust_6="14000.00000"></scales>
<clustering>
<clus scale="   47.804">  2  4  1 -1</clus>
<clus scale="   70.322">  1  5  2 -1</clus>
<clus scale="  102.841">  2  3  1 -1</clus>
<clus scale="   70.322">  1  3  2 -1</clus>
</clustering>
</event>
<event>
 6    0  0.5419498E+002  0.1188724E+03  0.7546771E-02  0.1244969E+00
         21   -1    0    0  504  501  0.00000000000E+00  0.00000000000E+00  0.19308174151E+04  0.19308174151E+04  0.00000000000E+00 0.  1.
         21   -1    0    0  505  502 -0.00000000000E+00 -0.00000000000E+00 -0.38548397822E+03  0.38548397822E+03  0.00000000000E+00 0.  1.
         21    1    1    2  503  501  0.16832970711E+02  0.30449586392E+02  0.13676912107E+04  0.13681336828E+04  0.00000000000E+00 0.  1.
         21    1    1    2  504  506  0.10871948064E+03 -0.14656880258E+02  0.52896862434E+03  0.54022454142E+03  0.00000000000E+00 0.  1.
         21    1    1    2  505  503 -0.50168522063E+02 -0.26395080231E+02 -0.32105188985E+03  0.32601824618E+03  0.00000000000E+00 0.  1.
         21    1    1    2  506  502 -0.75383929286E+02  0.10602374097E+02 -0.30274508363E+02  0.81924922873E+02  0.00000000000E+00 0.  1.
<scales pt_clust_3="34.79262" pt_clust_4="14000.00000" pt_clust_5="56.56026" pt_clust_6="118.87238"></scales>
<clustering>
<clus scale="   34.793">  1  3  2 -1</clus>
<clus scale="   56.560">  2  5  1 -1</clus>
<clus scale="  118.872">  2  6  1 -1</clus>
<clus scale="   34.793">  1  3  2 -1</clus>
</clustering>
</event>
<event>
 6    0  0.4227619E+002  0.8142295E+02  0.7546771E-02  0.1325061E+00
         21   -1    0    0  505  501  0.00000000000E+00  0.00000000000E+00  0.16402103324E+03  0.16402103324E+03  0.00000000000E+00 0.  1.
         21   -1    0    0  503  502 -0.00000000000E+00 -0.00000000000E+00 -0.93004020918E+03  0.93004020918E+03  0.00000000000E+00 0.  1.
         21    1    1    2  503  504  0.54153726249E+02  0.51812916820E+01 -0.20603660318E+03  0.21309752157E+03  0.00000000000E+00 0.  1.
         21    1    1    2  504  501 -0.12982557424E+02  0.63884065897E+02  0.13115369393E+03  0.14646164038E+03  0.00000000000E+00 0.  1.
         21    1    1    2  505  506  0.41076903671E+02  0.12649236914E+02 -0.10744756552E+02  0.44303103764E+02  0.00000000000E+00 0.  1.
         21    1    1    2  506  502 -0.82248072496E+02 -0.81714594494E+02 -0.68039151014E+03  0.69019897671E+03  0.00000000000E+00 0.  1.
<scales pt_clust_3="55.41074" pt_clust_4="81.42295" pt_clust_5="42.98040" pt_clust_6="14000.00000"></scales>
<clustering>
<clus scale="   42.980">  1  5  2 -1</clus>
<clus scale="   55.411">  2  3  1 -1</clus>
<clus scale="   81.423">  1  4  2 -1</clus>
<clus scale="   42.980">  1  3  2 -1</clus>
</clustering>
</event>
<event>
 6    0  0.4227619E+002  0.8265199E+02  0.7546771E-02  0.1321690E+00
         21   -1    0    0  505  501  0.00000000000E+00  0.00000000000E+00  0.32406226061E+03  0.32406226061E+03  0.00000000000E+00 0. -1.
         21   -1    0    0  504  502 -0.00000000000E+00 -0.00000000000E+00 -0.37965717707E+03  0.37965717707E+03  0.00000000000E+00 0.  1.
         21    1    1    2  503  506  0.94299274330E+02 -0.19384367510E+02 -0.23321079296E+03  0.25230017993E+03  0.00000000000E+00 0.  1.
         21    1    1    2  504  503  0.19739313181E+02  0.75758996695E+02 -0.22119553066E+02  0.81353184897E+02  0.00000000000E+00 0. -1.
         21    1    1    2  505  502 -0.34975092589E+02 -0.79212491128E+02 -0.54856122815E+02  0.10250400023E+03  0.00000000000E+00 0.  1.
         21    1    1    2  506  501 -0.79063494922E+02  0.22837861942E+02  0.25459155237E+03  0.26756207262E+03  0.00000000000E+00 0. -1.
<scales pt_clust_3="82.65199" pt_clust_4="78.28835" pt_clust_5="68.11522" pt_clust_6="14000.00000"></scales>
<clustering>
<clus scale="   78.288">  2  4  1 -1</clus>
<clus scale="   68.115">  2  5  1 -1</clus>
<clus scale="   82.652">  2  3  1 -1</clus>
<clus scale="   82.652">  1  3  2 -1</clus>
</clustering>
</event>
<event>
 6    0  0.4227619E+002  0.1738491E+03  0.7546771E-02  0.1173892E+00
         21   -1    0    0  504  501  0.00000000000E+00  0.00000000000E+00  0.19901920365E+04  0.19901920365E+04  0.00000000000E+00 0. -1.
         21   -1    0    0  506  502 -0.00000000000E+00 -0.00000000000E+00 -0.55190966597E+03  0.55190966597E+03  0.00000000000E+00 0.  1.
         21    1    1    2  503  502 -0.88759861624E+01  0.43468831236E+02 -0.41784568392E+03  0.42019440500E+03  0.00000000000E+00 0.  1.
         21    1    1    2  504  505 -0.66018472148E+02 -0.12104209042E+03  0.18497183568E+04  0.18548497583E+04  0.00000000000E+00 0. -1.
         21    1    1    2  505  503  0.95774527422E+02  0.11051221961E+03 -0.83963511438E+02  0.16862853270E+03  0.00000000000E+00 0.  1.
         21    1    1    2  506  501 -0.20880069112E+02 -0.32938960424E+02  0.90373209107E+02  0.98429006519E+02  0.00000000000E+00 0.  1.
<scales pt_clust_3="44.34838" pt_clust_4="173.84906" pt_clust_5="14000.00000" pt_clust_6="38.99939"></scales>
<clustering>
<clus scale="   38.999">  1  6  2 -1</clus>
<clus scale="   44.348">  2  3  1 -1</clus>
<clus scale="  173.849">  1  4  2 -1</clus>
<clus scale="   38.999">  1  3  2 -1</clus>
</clustering>
</event>
<event>
 6    0  0.4227619E+002  0.1127561E+03  0.7546771E-02  0.1255550E+00
         21   -1    0    0  505  501  0.00000000000E+00  0.00000000000E+00  0.39327546483E+03  0.39327546483E+03  0.00000000000E+00 0. -1.
         21   -1    0    0  506  502 -0.00000000000E+00 -0.00000000000E+00 -0.33376580071E+03  0.33376580071E+03  0.00000000000E+00 0.  1.
         21    1    1    2  503  504  0.72549792655E+02 -0.10999415802E+03  0.28131913030E+02  0.13473526541E+03  0.00000000000E+00 0.  1.
         21    1    1    2  504  501 -0.10714572269E+03  0.37207827516E+02  0.27383942016E+03  0.29639948778E+03  0.00000000000E+00 0. -1.
         21    1    1    2  505  502  0.53596706194E+02  0.11267164519E+03 -0.19021227807E+03  0.22748234497E+03  0.00000000000E+00 0.  1.
         21    1    1    2  506  503 -0.19000776154E+02 -0.39885314682E+02 -0.52249391006E+02  0.68424167385E+02  0.00000000000E+00 0.  1.
<scales pt_clust_3="112.75608" pt_clust_4="14000.00000" pt_clust_5="91.02482" pt_clust_6="44.17995"></scales>
<clustering>
<clus scale="   44.180">  2  6  1 -1</clus>
<clus scale="   91.025">  2  5  1 -1</clus>
<clus scale="  112.756">  2  3  1 -1</clus>
<clus scale="  112.756">  1  3  2 -1</clus>
</clustering>
</event>
<event>
 6    0  0.4227619E+002  0.2382649E+03  0.7546771E-02  0.1120954E+00
         21   -1    0    0  506  501  0.00000000000E+00  0.00000000000E+00  0.64389946679E+02  0.64389946679E+02  0.00000000000E+00 0.  1.
         21   -1    0    0  503  502 -0.00000000000E+00 -0.00000000000E+00 -0.25987289499E+04  0.25987289499E+04  0.00000000000E+00 0. -1.
         21    1    1    2  503  504 -0.14826450275E+02  0.26511441045E+02 -0.40244798872E+03  0.40359269537E+03  0.00000000000E+00 0. -1.
         21    1    1    2  504  501  0.21193080621E+02 -0.25349776825E+03 -0.19380088329E+04  0.19546325746E+04  0.00000000000E+00 0. -1.
         21    1    1    2  505  502 -0.17445324194E+02  0.56013939196E+02 -0.23303706205E+02  0.63126566859E+02  0.00000000000E+00 0.  1.
         21    1    1    2  506  505  0.11078693847E+02  0.17097238801E+03 -0.17057847535E+03  0.24176705973E+03  0.00000000000E+00 0.  1.
<scales pt_clust_3="30.37565" pt_clust_4="230.13834" pt_clust_5="36.03108" pt_clust_6="36.03108"></scales>
<clustering>
<clus scale="   30.376">  2  3  1 -1</clus>
<clus scale="   36.031">  5  6 -1 -1</clus>
<clus scale="  230.138">  2  4  1 -1</clus>
<clus scale="  238.265">  1  3  2 -1</clus>
</clustering>
</event>
<event>
 6    0  0.4227619E+002  0.1230172E+03  0.7546771E-02  0.1238201E+00
         21   -1    0    0  506  501  0.00000000000E+00  0.00000000000E+00  0.86262590581E+03  0.86262590581E+03  0.00000000000E+00 0.  1.
         21   -1    0    0  504  502 -0.00000000000E+00 -0.00000000000E+00 -0.84674506874E+02  0.84674506874E+02  0.00000000000E+00 0. -1.
         21    1    1    2  503  501 -0.77766276610E+02 -0.63783975366E+01  0.66293970775E+02  0.10238734440E+03  0.00000000000E+00 0.  1.
         21    1    1    2  504  503 -0.31116659717E+02 -0.51080635131E+02 -0.45994851355E+02  0.75451998969E+02  0.00000000000E+00 0. -1.
         21    1    1    2  505  502  0.31798954707E+02  0.33649114721E+02  0.40818263901E+03  0.41079983353E+03  0.00000000000E+00 0.  1.
         21    1    1    2  506  505  0.77083981619E+02  0.23809917946E+02  0.34946964051E+03  0.35866123578E+03  0.00000000000E+00 0.  1.
<scales pt_clust_3="110.71092" pt_clust_4="59.81202" pt_clust_5="40.62755" pt_clust_6="40.62755"></scales>
<clustering>
<clus scale="   40.628">  5  6 -1 -1</clus>
<clus scale="   59.812">  2  4  1 -1</clus>
<clus scale="  110.711">  2  3  1 -1</clus>
<clus scale="  123.017">  1  3  2 -1</clus>
</clustering>
</event>
<event>
 6    0  0.4227619E+002  0.9473841E+02  0.7546771E-02  0.1291766E+00
         21   -1    0    0  504  501  0.00000000000E+00  0.00000000000E+00  0.16942856416E+04  0.16942856416E+04  0.00000000000E+00 0. -1.
         21   -1    0    0  506  502 -0.00000000000E+00 -0.00000000000E+00 -0.29747219275E+03  0.29747219275E+03  0.00000000000E+00 0. -1.
         21    1    1    2  503  501 -0.45946969768E+02  0.29696730905E+02  0.26843916402E+03  0.27395730441E+03  0.00000000000E+00 0.  1.
         21    1    1    2  504  505  0.10269252836E+03  0.46748259692E+02  0.13644422483E+04  0.13690996327E+04  0.00000000000E+00 0. -1.
         21    1    1    2  505  502  0.50028224910E+01 -0.78236041196E+02 -0.26795107995E+03  0.27918396734E+03  0.00000000000E+00 0. -1.
         21    1    1    2  506  503 -0.61748381079E+02  0.17910505987E+01  0.31883116408E+02  0.69516929881E+02  0.00000000000E+00 0. -1.
<scales pt_clust_3="54.70850" pt_clust_4="94.73841" pt_clust_5="14000.00000" pt_clust_6="63.44932"></scales>
<clustering>
<clus scale="   54.708">  1  3  2 -1</clus>
<clus scale="   63.449">  2  6  1 -1</clus>
<clus scale="   94.738">  1  4  2 -1</clus>
<clus scale="   54.708">  1  3  2 -1</clus>
</clustering>
</event>
<event>
 6    0  0.4227619E+002  0.1664429E+03  0.7546771E-02  0.1181609E+00
         21   -1    0    0  506  501  0.00000000000E+00  0.00000000000E+00  0.15350787458E+03  0.15350787458E+03  0.00000000000E+00 0.  1.
         21   -1    0    0  505  502 -0.00000000000E+00 -0.00000000000E+00 -0.55965016752E+03  0.55965016752E+03  0.00000000000E+00 0.  1.
         21    1    1    2  503  501 -0.99904783719E+02  0.31865679560E+02  0.58441895720E+02  0.12004933369E+03  0.00000000000E+00 0.  1.
         21    1    1    2  504  503 -0.53943556071E+02 -0.34548356768E+02  0.26249839200E+02  0.69228247522E+02  0.00000000000E+00 0.  1.
         21    1    1    2  505  504  0.12371115523E+03  0.35562609954E+02 -0.42720261867E+03  0.44617398686E+03  0.00000000000E+00 0.  1.
         21    1    1    2  506  502  0.30137184558E+02 -0.32879932745E+02 -0.63631409192E+02  0.77706474030E+02  0.00000000000E+00 0.  1.
<scales pt_clust_3="55.65411" pt_clust_4="55.65411" pt_clust_5="150.75289" pt_clust_6="44.60202"></scales>
<clustering>
<clus scale="   44.602">  2  6  1 -1</clus>
<clus scale="   55.654">  3  4 -1 -1</clus>
<clus scale="  150.753">  2  5  1 -1</clus>
<clus scale="  166.443">  1  3  2 -1</clus>
</clustering>
</event>
<event>
 6    0  0.4227619E+002  0.7373317E+02  0.7546771E-02  0.1347839E+00
         21   -1    0    0  506  501  0.00000000000E+00  0.00000000000E+00  0.24501308370E+03  0.24501308370E+03  0.00000000000E+00 0. -1.
         21   -1    0    0  501  502 -0.00000000000E+00 -0.00000000000E+00 -0.22276127701E+03  0.22276127701E+03  0.00000000000E+00 0. -1.
         21    1    1    2  503  502 -0.37597814192E+02  0.30914792815E+02 -0.17034946382E+03  0.17716732168E+03  0.00000000000E+00 0. -1.
         21    1    1    2  504  503  0.44359980829E+02 -0.49259974055E+02  0.40001742455E+02  0.77424106985E+02  0.00000000000E+00 0. -1.
         21    1    1    2  505  504 -0.97726758495E+01 -0.63943888633E+02  0.50802674052E+02  0.82251065510E+02  0.00000000000E+00 0. -1.
         21    1    1    2  506  505  0.30105092131E+01  0.82289069873E+02  0.10179685401E+03  0.13093186653E+03  0.00000000000E+00 0. -1.
<scales pt_clust_3="48.67566" pt_clust_4="47.99101" pt_clust_5="73.73317" pt_clust_6="14000.00000"></scales>
<clustering>
<clus scale="   48.676">  2  3  1 -1</clus>
<clus scale="   47.991">  2  4  1 -1</clus>
<clus scale="   73.733">  2  5  1 -1</clus>
<clus scale="   73.733">  1  3  2 -1</clus>
</clustering>
</event>
<event>
 6    0  0.4227619E+002  0.9518809E+02  0.7546771E-02  0.1290753E+00
         21   -1    0    0  503  501  0.00000000000E+00  0.00000000000E+00  0.14529537386E+03  0.14529537386E+03  0.00000000000E+00 0. -1.
         21   -1    0    0  506  502 -0.00000000000E+00 -0.00000000000E+00 -0.38519116923E+03  0.38519116923E+03  0.00000000000E+00 0. -1.
         21    1    1    2  503  504 -0.30029363193E+02  0.67629297917E+01  0.88925603286E+02  0.94102405882E+02  0.00000000000E+00 0. -1.
         21    1    1    2  504  502  0.29711872860E+02 -0.11109103596E+03 -0.13718178864E+03  0.17900518650E+03  0.00000000000E+00 0. -1.
         21    1    1    2  505  501 -0.39038292451E+02  0.69455106314E+02 -0.26337131929E+02  0.83914507619E+02  0.00000000000E+00 0. -1.
         21    1    1    2  506  505  0.39355782784E+02  0.34872999855E+02 -0.16530247808E+03  0.17346444309E+03  0.00000000000E+00 0. -1.
<scales pt_clust_3="30.78149" pt_clust_4="95.18809" pt_clust_5="14000.00000" pt_clust_6="51.25324"></scales>
<clustering>
<clus scale="   30.781">  1  3  2 -1</clus>
<clus scale="   51.253">  2  6  1 -1</clus>
<clus scale="   95.188">  2  4  1 -1</clus>
<clus scale="   30.781">  1  3  2 -1</clus>
</clustering>
</event>
<event>
 6    0  0.4227619E+002  0.1134942E+03  0.7546771E-02  0.1254233E+00
         21   -1    0    0  504  501  0.00000000000E+00  0.00000000000E+00  0.18113110233E+03  0.18113110233E+03  0.00000000000E+00 0.  1.
         21   -1    0    0  503  502 -0.00000000000E+00 -0.00000000000E+00 -0.38083752542E+03  0.38083752542E+03  0.00000000000E+00 0.  1.
         21    1    1    2  503  505  0.19341599329E+02 -0.27123151495E+02 -0.12542827318E+03  0.12977678731E+03  0.00000000000E+00 0.  1.
         21    1    1    2  504  502 -0.40682335195E+02  0.43224803986E+02 -0.88591056905E+02  0.10663869579E+03  0.00000000000E+00 0.  1.
         21    1    1    2  505  506 -0.64255754051E+02 -0.91692431220E+02 -0.10985431000E+03  0.15685749359E+03  0.00000000000E+00 0.  1.
         21    1    1    2  506  501  0.85596489916E+02  0.75590778730E+02  0.12416721698E+03  0.16869565106E+03  0.00000000000E+00 0.  1.
<scales pt_clust_3="33.31310" pt_clust_4="46.66755" pt_clust_5="14000.00000" pt_clust_6="113.49422"></scales>
<clustering>
<clus scale="   33.313">  2  3  1 -1</clus>
<clus scale="   46.668">  2  4  1 -1</clus>
<clus scale="  113.494">  1  6  2 -1</clus>
<clus scale="  113.494">  1  3  2 -1</clus>
</clustering>
</event>
<event>
 6    0  0.4772089E+002  0.1541911E+03  0.7546771E-02  0.1195416E+00
         21   -1    0    0  505  501  0.00000000000E+00  0.00000000000E+00  0.97506916703E+03  0.97506916703E+03  0.00000000000E+00 0. -1.
         21   -1    0    0  506  502 -0.00000000000E+00 -0.00000000000E+00 -0.81971272445E+03  0.81971272445E+03  0.00000000000E+00 0. -1.
         21    1    1    2  503  504  0.86688705878E+02  0.16360915042E+02  0.38949844646E+03  0.39936405830E+03  0.00000000000E+00 0. -1.
         21    1    1    2  504  501  0.52886461611E+02 -0.10922814032E+02  0.54720703319E+03  0.54986527701E+03  0.00000000000E+00 0. -1.
         21    1    1    2  505  502 -0.15715479959E+03 -0.36887723057E+02 -0.17480485770E+03  0.23793922212E+03  0.00000000000E+00 0. -1.
         21    1    1    2  506  503  0.17579632099E+02  0.31449622047E+02 -0.60654417937E+03  0.60761333405E+03  0.00000000000E+00 0. -1.
<scales pt_clust_3="50.02815" pt_clust_4="50.02815" pt_clust_5="140.23736" pt_clust_6="36.02946"></scales>
<clustering>
<clus scale="   36.029">  2  6  1 -1</clus>
<clus scale="   50.028">  3  4 -1 -1</clus>
<clus scale="  140.237">  2  5  1 -1</clus>
<clus scale="  154.191">  1  3  2 -1</clus>
</clustering>
</event>
<event>
 6    0  0.4227619E+002  0.1050774E+03  0.7546771E-02  0.1269967E+00
         21   -1    0    0  504  501  0.00000000000E+00  0.00000000000E+00  0.70667917015E+03  0.70667917015E+03  0.00000000000E+00 0. -1.
         21   -1    0    0  503  502 -0.00000000000E+00 -0.00000000000E+00 -0.85507881549E+02  0.85507881549E+02  0.00000000000E+00 0.  1.
         21    1    1    2  503  501  0.10976137549E+03  0.78829942977E+02  0.36808130261E+03  0.39210402292E+03  0.00000000000E+00 0. -1.
         21    1    1    2  504  505  0.19773022095E+02 -0.25874385732E+02  0.15441979177E+03  0.15781612190E+03  0.00000000000E+00 0. -1.
         21    1    1    2  505  506 -0.26338620211E+02 -0.43389237916E+02  0.12536098283E+03  0.13524690347E+03  0.00000000000E+00 0. -1.
         21    1    1    2  506  502 -0.10319577738E+03 -0.95663193294E+01 -0.26690788610E+02  0.10702000341E+03  0.00000000000E+00 0.  1.
<scales pt_clust_3="105.07737" pt_clust_4="32.56465" pt_clust_5="54.04302" pt_clust_6="14000.00000"></scales>
<clustering>
<clus scale="   32.565">  1  4  2 -1</clus>
<clus scale="   54.043">  1  5  2 -1</clus>
<clus scale="  105.077">  1  3  2 -1</clus>
<clus scale="   32.565">  1  3  2 -1</clus>
</clustering>
</event>
<event>
 6    0  0.4227619E+002  0.1254206E+03  0.7546771E-02  0.1234413E+00
         21   -1    0    0  506  501  0.00000000000E+00  0.00000000000E+00  0.21028220130E+03  0.21028220130E+03  0.00000000000E+00 0.  1.
         21   -1    0    0  503  502 -0.00000000000E+00 -0.00000000000E+00 -0.16807557956E+03  0.16807557956E+03  0.00000000000E+00 0.  1.
         21    1    1    2  503  504 -0.53648393130E+02 -0.35083970148E+02 -0.79518496905E+02  0.10213827097E+03  0.00000000000E+00 0.  1.
         21    1    1    2  504  501 -0.48620806808E+02 -0.40110594995E+02 -0.22282152205E+02  0.66853100096E+02  0.00000000000E+00 0.  1.
         21    1    1    2  505  502  0.60385785554E+02  0.73250394472E+02  0.51964814012E+02  0.10822386651E+03  0.00000000000E+00 0.  1.
         21    1    1    2  506  505  0.41883414384E+02  0.19441706708E+01  0.92042456839E+02  0.10114254328E+03  0.00000000000E+00 0.  1.
<scales pt_clust_3="44.13893" pt_clust_4="44.13893" pt_clust_5="116.82824" pt_clust_6="41.92851"></scales>
<clustering>
<clus scale="   41.929">  1  6  2 -1</clus>
<clus scale="   44.139">  3  4 -1 -1</clus>
<clus scale="  116.828">  1  5  2 -1</clus>
<clus scale="   41.929">  1  3  2 -1</clus>
</clustering>
</event>
<event>
 6    0  0.4227619E+002  0.8702417E+02  0.7546771E-02  0.1310222E+00
         21   -1    0    0  504  501  0.00000000000E+00  0.00000000000E+00  0.80104395350E+03  0.80104395350E+03  0.00000000000E+00 0. -1.
         21   -1    0    0  505  502 -0.00000000000E+00 -0.00000000000E+00 -0.70122942650E+02  0.70122942650E+02  0.00000000000E+00 0. -1.
         21    1    1    2  503  501  0.68291908893E+02 -0.27399722994E+02  0.31394118246E+03  0.32244936918E+03  0.00000000000E+00 0. -1.
         21    1    1    2  504  506  0.29775864522E+02  0.25620913599E+02  0.71226508604E+02  0.81340327327E+02  0.00000000000E+00 0. -1.
         21    1    1    2  505  503 -0.73118759550E+02  0.80403350159E+02  0.36653851120E+03  0.38231077922E+03  0.00000000000E+00 0. -1.
         21    1    1    2  506  502 -0.24949013865E+02 -0.78624540764E+02 -0.20785191407E+02  0.85066420431E+02  0.00000000000E+00 0. -1.
<scales pt_clust_3="87.02417" pt_clust_4="39.28146" pt_clust_5="14000.00000" pt_clust_6="81.01081"></scales>
<clustering>
<clus scale="   39.281">  1  4  2 -1</clus>
<clus scale="   81.011">  2  6  1 -1</clus>
<clus scale="   87.024">  1  3  2 -1</clus>
<clus scale="   39.281">  1  3  2 -1</clus>
</clustering>
</event>
<event>
 6    0  0.4227619E+002  0.2236516E+03  0.7546771E-02  0.1131190E+00
         21   -1    0    0  503  501  0.00000000000E+00  0.00000000000E+00  0.46201926561E+03  0.46201926561E+03  0.00000000000E+00 0.  1.
         21   -1    0    0  504  502 -0.00000000000E+00 -0.00000000000E+00 -0.23454390433E+03  0.23454390433E+03  0.00000000000E+00 0.  1.
         21    1    1    2  503  506  0.73069418380E+02 -0.17413670994E+03  0.19998028084E+03  0.27505426079E+03  0.00000000000E+00 0.  1.
         21    1    1    2  504  505  0.26449537688E+02  0.24584867815E+02  0.14243187890E+02  0.38818322616E+02  0.00000000000E+00 0.  1.
         21    1    1    2  505  501 -0.25667172270E+02  0.24996630343E+03  0.42009777677E+02  0.25476808670E+03  0.00000000000E+00 0.  1.
         21    1    1    2  506  502 -0.73851783798E+02 -0.10041446130E+03 -0.28757885131E+02  0.12792249984E+03  0.00000000000E+00 0.  1.
<scales pt_clust_3="205.84070" pt_clust_4="33.15580" pt_clust_5="33.15580" pt_clust_6="124.64810"></scales>
<clustering>
<clus scale="   33.156">  4  5 -1 -1</clus>
<clus scale="  124.648">  2  6  1 -1</clus>
<clus scale="  205.841">  1  3  2 -1</clus>
<clus scale="  205.841">  1  3  2 -1</clus>
</clustering>
</event>
<event>
 6    0  0.4227619E+002  0.7370423E+02  0.7546771E-02  0.1347931E+00
         21   -1    0    0  506  501  0.00000000000E+00  0.00000000000E+00  0.76141742917E+02  0.76141742917E+02  0.00000000000E+00 0.  1.
         21   -1    0    0  504  502 -0.00000000000E+00 -0.00000000000E+00 -0.43687997271E+03  0.43687997271E+03  0.00000000000E+00 0.  1.
         21    1    1    2  503  505 -0.85101970985E+02 -0.22484242630E+02 -0.55002339060E+02  0.10379375672E+03  0.00000000000E+00 0.  1.
         21    1    1    2  504  503  0.60869835847E+02 -0.25229256412E+02 -0.27297978448E+03  0.28081954175E+03  0.00000000000E+00 0.  1.
         21    1    1    2  505  501  0.22113882648E+02  0.78406721582E+02  0.26423458142E+01  0.81508403164E+02  0.00000000000E+00 0.  1.
         21    1    1    2  506  502  0.21182524901E+01 -0.30693222539E+02 -0.35398452068E+02  0.46900013990E+02  0.00000000000E+00 0. -1.
<scales pt_clust_3="73.70423" pt_clust_4="77.90513" pt_clust_5="14000.00000" pt_clust_6="30.76623"></scales>
<clustering>
<clus scale="   30.766">  2  6  1 -1</clus>
<clus scale="   77.905">  2  4  1 -1</clus>
<clus scale="   73.704">  2  3  1 -1</clus>
<clus scale="   73.704">  1  3  2 -1</clus>
</clustering>
</event>
<event>
 6    0  0.4227619E+002  0.8055011E+02  0.7546771E-02  0.1327498E+00
         21   -1    0    0  503  501  0.00000000000E+00  0.00000000000E+00  0.48790986816E+03  0.48790986816E+03  0.00000000000E+00 0. -1.
         21   -1    0    0  505  502 -0.00000000000E+00 -0.00000000000E+00 -0.13479014892E+03  0.13479014892E+03  0.00000000000E+00 0.  1.
         21    1    1    2  503  506  0.12047453297E+02  0.27510446511E+02  0.33541684698E+03  0.33675870744E+03  0.00000000000E+00 0. -1.
         21    1    1    2  504  502 -0.48829076951E+02 -0.51898821503E+02 -0.52729759701E+02  0.88646455019E+02  0.00000000000E+00 0.  1.
         21    1    1    2  505  501  0.75885880432E+02 -0.38937281786E+02 -0.12115684791E+02  0.86148526278E+02  0.00000000000E+00 0.  1.
         21    1    1    2  506  504 -0.39104256777E+02  0.63325656779E+02  0.82548316753E+02  0.11114632834E+03  0.00000000000E+00 0. -1.
<scales pt_clust_3="30.03275" pt_clust_4="67.92241" pt_clust_5="80.55011" pt_clust_6="14000.00000"></scales>
<clustering>
<clus scale="   30.033">  1  3  2 -1</clus>
<clus scale="   67.922">  2  4  1 -1</clus>
<clus scale="   80.550">  2  5  1 -1</clus>
<clus scale="   30.033">  1  3  2 -1</clus>
</clustering>
</event>
<event>
 6    0  0.4227619E+002  0.9052796E+02  0.7546771E-02  0.1301578E+00
         21   -1    0    0  505  501  0.00000000000E+00  0.00000000000E+00  0.35400218872E+03  0.35400218872E+03  0.00000000000E+00 0.  1.
         21   -1    0    0  504  502 -0.00000000000E+00 -0.00000000000E+00 -0.20438926337E+03  0.20438926337E+03  0.00000000000E+00 0.  1.
         21    1    1    2  503  501 -0.45119827451E+02  0.10525018732E+02  0.22477931601E+03  0.22950450051E+03  0.00000000000E+00 0.  1.
         21    1    1    2  504  503  0.69163793376E+02 -0.93201651076E+02 -0.11017506449E+03  0.16002725678E+03  0.00000000000E+00 0.  1.
         21    1    1    2  505  506  0.85121618312E+01  0.75435987719E+02  0.81670696479E+02  0.11150402596E+03  0.00000000000E+00 0.  1.
         21    1    1    2  506  502 -0.32556127757E+02  0.72406446261E+01 -0.46662022649E+02  0.57355668829E+02  0.00000000000E+00 0.  1.
<scales pt_clust_3="46.84822" pt_clust_4="14000.00000" pt_clust_5="90.52796" pt_clust_6="33.35159"></scales>
<clustering>
<clus scale="   33.352">  2  6  1 -1</clus>
<clus scale="   46.848">  1  3  2 -1</clus>
<clus scale="   90.528">  1  5  2 -1</clus>
<clus scale="   46.848">  1  3  2 -1</clus>
</clustering>
</event>
<event>
 6    0  0.4227619E+002  0.7369572E+02  0.7546771E-02  0.1347958E+00
         21   -1    0    0  505  501  0.00000000000E+00  0.00000000000E+00  0.93447125737E+03  0.93447125737E+03  0.00000000000E+00 0.  1.
         21   -1    0    0  503  502 -0.00000000000E+00 -0.00000000000E+00 -0.63637148392E+02  0.63637148392E+02  0.00000000000E+00 0.  1.
         21    1    1    2  503  504  0.14065451556E+02  0.32660717371E+02 -0.12501560238E+02  0.37694142715E+02  0.00000000000E+00 0.  1.
         21    1    1    2  504  506  0.33999797665E+02 -0.80596952577E+02  0.27475097572E+02  0.91688254388E+02  0.00000000000E+00 0.  1.
         21    1    1    2  505  502 -0.55670806281E+02  0.84034304253E+02  0.44799597066E+03  0.45919646415E+03  0.00000000000E+00 0.  1.
         21    1    1    2  506  501  0.76055570599E+01 -0.36098069047E+02  0.40786460098E+03  0.40952954450E+03  0.00000000000E+00 0.  1.
<scales pt_clust_3="35.56064" pt_clust_4="14000.00000" pt_clust_5="73.69572" pt_clust_6="36.26559"></scales>
<clustering>
<clus scale="   35.561">  2  3  1 -1</clus>
<clus scale="   36.266">  1  6  2 -1</clus>
<clus scale="   73.696">  1  5  2 -1</clus>
<clus scale="   36.266">  1  3  2 -1</clus>
</clustering>
</event>
<event>
 6    0  0.4227619E+002  0.1038090E+03  0.7546771E-02  0.1272484E+00
         21   -1    0    0  503  501  0.00000000000E+00  0.00000000000E+00  0.98648040467E+03  0.98648040467E+03  0.00000000000E+00 0.  1.
         21   -1    0    0  505  502 -0.00000000000E+00 -0.00000000000E+00 -0.34283043322E+03  0.34283043322E+03  0.00000000000E+00 0.  1.
         21    1    1    2  503  502  0.18880717847E+02 -0.56236007637E+02 -0.22183053438E+02  0.63332913412E+02  0.00000000000E+00 0.  1.
         21    1    1    2  504  506  0.77659024391E+02 -0.45431476367E+02  0.15036132216E+03  0.17522405747E+03  0.00000000000E+00 0. -1.
         21    1    1    2  505  504 -0.12254689888E+03  0.76370108907E+02 -0.26907373919E+03  0.30536996100E+03  0.00000000000E+00 0.  1.
         21    1    1    2  506  501  0.26007156641E+02  0.25297375097E+02  0.78454544192E+03  0.78538390601E+03  0.00000000000E+00 0.  1.
<scales pt_clust_3="57.81401" pt_clust_4="14000.00000" pt_clust_5="103.80905" pt_clust_6="36.28125"></scales>
<clustering>
<clus scale="   36.281">  1  6  2 -1</clus>
<clus scale="   57.814">  2  3  1 -1</clus>
<clus scale="  103.809">  2  5  1 -1</clus>
<clus scale="   36.281">  1  3  2 -1</clus>
</clustering>
</event>
<event>
 6    0  0.4227619E+002  0.1228184E+03  0.7546771E-02  0.1238519E+00
         21   -1    0    0  505  501  0.00000000000E+00  0.00000000000E+00  0.33968024438E+02  0.33968024438E+02  0.00000000000E+00 0.  1.
         21   -1    0    0  504  502 -0.00000000000E+00 -0.00000000000E+00 -0.19420175274E+04  0.19420175274E+04  0.00000000000E+00 0.  1.
         21    1    1    2  503  502 -0.15385073471E+02 -0.12075855425E+03 -0.14420034518E+04  0.14471327803E+04  0.00000000000E+00 0.  1.
         21    1    1    2  504  506 -0.37479202041E+02  0.13349018967E+03 -0.29437389224E+03  0.32539254718E+03  0.00000000000E+00 0.  1.
         21    1    1    2  505  503  0.27244071830E+01 -0.45071947590E+02 -0.10316152593E+03  0.11261084888E+03  0.00000000000E+00 0.  1.
         21    1    1    2  506  501  0.50139868329E+02  0.32340312161E+02 -0.68510633008E+02  0.90849375462E+02  0.00000000000E+00 0.  1.
<scales pt_clust_3="14000.00000" pt_clust_4="122.81844" pt_clust_5="45.15421" pt_clust_6="53.36864"></scales>
<clustering>
<clus scale="   45.154">  1  5  2 -1</clus>
<clus scale="   53.369">  1  6  2 -1</clus>
<clus scale="  122.818">  1  4  2 -1</clus>
<clus scale="   45.154">  1  3  2 -1</clus>
</clustering>
</event>
<event>
 6    0  0.4227619E+002  0.8897300E+02  0.7546771E-02  0.1305358E+00
         21   -1    0    0  506  501  0.00000000000E+00  0.00000000000E+00  0.39435681706E+03  0.39435681706E+03  0.00000000000E+00 0. -1.
         21   -1    0    0  505  502 -0.00000000000E+00 -0.00000000000E+00 -0.61758659315E+03  0.61758659315E+03  0.00000000000E+00 0. -1.
         21    1    1    2  503  502  0.11082123366E+03 -0.83058799834E+02 -0.11999162226E+03  0.18324327948E+03  0.00000000000E+00 0. -1.
         21    1    1    2  504  503 -0.83254364234E+02  0.31070099658E+02 -0.32139842107E+02  0.94496612148E+02  0.00000000000E+00 0. -1.
         21    1    1    2  505  501 -0.77045587470E+02  0.30368264099E+02 -0.39614184420E+03  0.40470559020E+03  0.00000000000E+00 0. -1.
         21    1    1    2  506  504  0.49478718042E+02  0.21620436077E+02  0.32504353249E+03  0.32949792838E+03  0.00000000000E+00 0. -1.
<scales pt_clust_3="88.97300" pt_clust_4="72.95109" pt_clust_5="14000.00000" pt_clust_6="53.99617"></scales>
<clustering>
<clus scale="   53.996">  1  6  2 -1</clus>
<clus scale="   72.951">  1  4  2 -1</clus>
<clus scale="   88.973">  1  3  2 -1</clus>
<clus scale="   53.996">  1  3  2 -1</clus>
</clustering>
</event>
<event>
 6    0  0.4227619E+002  0.7248385E+02  0.7546771E-02  0.1351845E+00
         21   -1    0    0  505  501  0.00000000000E+00  0.00000000000E+00  0.45331599739E+03  0.45331599739E+03  0.00000000000E+00 0.  1.
         21   -1    0    0  503  502 -0.00000000000E+00 -0.00000000000E+00 -0.28612208216E+04  0.28612208216E+04  0.00000000000E+00 0. -1.
         21    1    1    2  503  506 -0.31372714161E+02 -0.47744571512E+02 -0.23047845969E+04  0.23054925351E+04  0.00000000000E+00 0. -1.
         21    1    1    2  504  501  0.66565166100E+02  0.11689671025E+00  0.44021695284E+03  0.44522118163E+03  0.00000000000E+00 0.  1.
         21    1    1    2  505  502  0.25529550945E+02 -0.24596493826E+02 -0.48528895367E+02  0.60098245944E+02  0.00000000000E+00 0.  1.
         21    1    1    2  506  504 -0.60722002884E+02  0.72224168628E+02 -0.49480828482E+03  0.50372485634E+03  0.00000000000E+00 0.  1.
<scales pt_clust_3="72.48385" pt_clust_4="66.58799" pt_clust_5="35.45061" pt_clust_6="14000.00000"></scales>
<clustering>
<clus scale="   35.451">  2  5  1 -1</clus>
<clus scale="   66.588">  1  4  2 -1</clus>
<clus scale="   72.484">  2  3  1 -1</clus>
<clus scale="   66.588">  1  3  2 -1</clus>
</clustering>
</event>
<event>
 6    0  0.4227619E+002  0.2024651E+03  0.7546771E-02  0.1147676E+00
         21   -1    0    0  503  501  0.00000000000E+00  0.00000000000E+00  0.53066805562E+03  0.53066805562E+03  0.00000000000E+00 0. -1.
         21   -1    0    0  505  502 -0.00000000000E+00 -0.00000000000E+00 -0.13719182976E+04  0.13719182976E+04  0.00000000000E+00 0. -1.
         21    1    1    2  503  504 -0.14313932452E+03 -0.13663296400E+03  0.43950732304E+03  0.48200012456E+03  0.00000000000E+00 0. -1.
         21    1    1    2  504  506 -0.15639313080E+03 -0.39644600629E+01 -0.26972457745E+03  0.31181064123E+03  0.00000000000E+00 0. -1.
         21    1    1    2  505  501  0.31512929685E+03  0.16983470992E+03 -0.61683323092E+03  0.71318548583E+03  0.00000000000E+00 0. -1.
         21    1    1    2  506  502 -0.15596841529E+02 -0.29237285856E+02 -0.39419975664E+03  0.39559010160E+03  0.00000000000E+00 0. -1.
<scales pt_clust_3="14000.00000" pt_clust_4="161.53216" pt_clust_5="202.46509" pt_clust_6="33.13730"></scales>
<clustering>
<clus scale="   33.137">  2  6  1 -1</clus>
<clus scale="  161.532">  2  4  1 -1</clus>
<clus scale="  202.465">  2  5  1 -1</clus>
<clus scale="  202.465">  1  3  2 -1</clus>
</clustering>
</event>
<event>
 6    0  0.4227619E+002  0.7787939E+02  0.7546771E-02  0.1335179E+00
         21   -1    0    0  504  501  0.00000000000E+00  0.00000000000E+00  0.33661786022E+03  0.33661786022E+03  0.00000000000E+00 0.  1.
         21   -1    0    0  506  502 -0.00000000000E+00 -0.00000000000E+00 -0.27093388684E+03  0.27093388684E+03  0.00000000000E+00 0.  1.
         21    1    1    2  503  502 -0.73911423275E+01 -0.34292260323E+02 -0.79108738882E+02  0.86537741306E+02  0.00000000000E+00 0.  1.
         21    1    1    2  504  505 -0.41964399413E+02  0.29477058856E+02  0.20792207105E+03  0.21415297207E+03  0.00000000000E+00 0.  1.
         21    1    1    2  505  503 -0.25767142534E+02 -0.68227596854E+02  0.93398945091E+02  0.11850026815E+03  0.00000000000E+00 0.  1.
         21    1    1    2  506  501  0.75122684274E+02  0.73042798320E+02 -0.15652830388E+03  0.18836076554E+03  0.00000000000E+00 0.  1.
<scales pt_clust_3="35.07974" pt_clust_4="51.05915" pt_clust_5="77.87939" pt_clust_6="14000.00000"></scales>
<clustering>
<clus scale="   35.080">  2  3  1 -1</clus>
<clus scale="   51.059">  1  4  2 -1</clus>
<clus scale="   77.879">  1  5  2 -1</clus>
<clus scale="   51.059">  1  3  2 -1</clus>
</clustering>
</event>
<event>
 6    0  0.4227619E+002  0.1284864E+03  0.7546771E-02  0.1229719E+00
         21   -1    0    0  505  501  0.00000000000E+00  0.00000000000E+00  0.75719883294E+03  0.75719883294E+03  0.00000000000E+00 0.  1.
         21   -1    0    0  506  502 -0.00000000000E+00 -0.00000000000E+00 -0.15863482375E+03  0.15863482375E+03  0.00000000000E+00 0. -1.
         21    1    1    2  503  501 -0.86166253109E+02 -0.94424111543E+02  0.62516139371E+03  0.63809662607E+03  0.00000000000E+00 0.  1.
         21    1    1    2  504  502  0.42006380220E+02  0.21283293599E+01  0.34810441264E+02  0.54597001621E+02  0.00000000000E+00 0. -1.
         21    1    1    2  505  504  0.70344116957E+02  0.12737585848E+03 -0.89777385546E+02  0.17097626464E+03  0.00000000000E+00 0. -1.
         21    1    1    2  506  503 -0.26184244067E+02 -0.35080076298E+02  0.28369559769E+02  0.52163764358E+02  0.00000000000E+00 0. -1.
<scales pt_clust_3="14000.00000" pt_clust_4="42.06026" pt_clust_5="128.48642" pt_clust_6="41.70909"></scales>
<clustering>
<clus scale="   42.060">  2  4  1 -1</clus>
<clus scale="   41.709">  2  6  1 -1</clus>
<clus scale="  128.486">  2  5  1 -1</clus>
<clus scale="  128.486">  1  3  2 -1</clus>
</clustering>
</event>
<event>
 6    0  0.4227619E+002  0.1465468E+03  0.7546771E-02  0.1204782E+00
         21   -1    0    0  502  501  0.00000000000E+00  0.00000000000E+00  0.17556571183E+04  0.17556571183E+04  0.00000000000E+00 0.  1.
         21   -1    0    0  503  502 -0.00000000000E+00 -0.00000000000E+00 -0.35845350649E+02  0.35845350649E+02  0.00000000000E+00 0.  1.
         21    1    1    2  503  506 -0.88398384515E+01 -0.39148287568E+02  0.25181069411E+02  0.47379504219E+02  0.00000000000E+00 0. -1.
         21    1    1    2  504  501  0.72852324984E+02  0.25558089162E+02  0.84082163798E+03  0.84435875318E+03  0.00000000000E+00 0.  1.
         21    1    1    2  505  504  0.21875311164E+02  0.92357193522E+02  0.70197659401E+03  0.70836397351E+03  0.00000000000E+00 0.  1.
         21    1    1    2  506  505 -0.85887797697E+02 -0.78766995116E+02  0.15183246625E+03  0.19140023804E+03  0.00000000000E+00 0.  1.
<scales pt_clust_3="31.07859" pt_clust_4="77.20542" pt_clust_5="136.64311" pt_clust_6="31.07859"></scales>
<clustering>
<clus scale="   31.079">  3  6 -1 -1</clus>
<clus scale="   77.205">  1  4  2 -1</clus>
<clus scale="  136.643">  1  5  2 -1</clus>
<clus scale="   77.205">  1  3  2 -1</clus>
</clustering>
</event>
<event>
 6    0  0.4227619E+002  0.7912320E+02  0.7546771E-02  0.1331558E+00
         21   -1    0    0  506  501  0.00000000000E+00  0.00000000000E+00  0.53282475469E+03  0.53282475469E+03  0.00000000000E+00 0.  1.
         21   -1    0    0  503  502 -0.00000000000E+00 -0.00000000000E+00 -0.34421506027E+03  0.34421506027E+03  0.00000000000E+00 0. -1.
         21    1    1    2  503  504 -0.83562243977E+02  0.72182530759E+02 -0.27667581455E+03  0.29789674842E+03  0.00000000000E+00 0. -1.
         21    1    1    2  504  501  0.84253472094E+02 -0.17757500252E+02  0.38363897299E+03  0.39318295738E+03  0.00000000000E+00 0.  1.
         21    1    1    2  505  502  0.18521793494E+02 -0.28479554725E+02 -0.44365080870E+02  0.55878459823E+02  0.00000000000E+00 0. -1.
         21    1    1    2  506  505 -0.19213021611E+02 -0.25945475782E+02  0.12601161685E+03  0.13008164934E+03  0.00000000000E+00 0.  1.
<scales pt_clust_3="14000.00000" pt_clust_4="79.12320" pt_clust_5="34.13573" pt_clust_6="32.28479"></scales>
<clustering>
<clus scale="   32.285">  1  6  2 -1</clus>
<clus scale="   34.136">  2  5  1 -1</clus>
<clus scale="   79.123">  1  4  2 -1</clus>
<clus scale="   32.285">  1  3  2 -1</clus>
</clustering>
</event>
<event>
 6    0  0.4227619E+002  0.7453504E+02  0.7546771E-02  0.1345317E+00
         21   -1    0    0  504  501  0.00000000000E+00  0.00000000000E+00  0.18153867658E+03  0.18153867658E+03  0.00000000000E+00 0. -1.
         21   -1    0    0  506  502 -0.00000000000E+00 -0.00000000000E+00 -0.21318583892E+03  0.21318583892E+03  0.00000000000E+00 0. -1.
         21    1    1    2  503  502 -0.96873876357E+02 -0.20508880072E+01 -0.14859873249E+03  0.17739880879E+03  0.00000000000E+00 0. -1.
         21    1    1    2  504  503  0.62765914037E+02  0.62387923482E+02  0.76420938791E+02  0.11692721175E+03  0.00000000000E+00 0. -1.
         21    1    1    2  505  501  0.58701346215E+01 -0.49031932234E+02  0.48225144810E+02  0.69023571706E+02  0.00000000000E+00 0. -1.
         21    1    1    2  506  505  0.28237827699E+02 -0.11305103240E+02 -0.76945134533E+01  0.31374923263E+02  0.00000000000E+00 0.  1.
<scales pt_clust_3="14000.00000" pt_clust_4="74.53504" pt_clust_5="50.18559" pt_clust_6="30.41678"></scales>
<clustering>
<clus scale="   30.417">  2  6  1 -1</clus>
<clus scale="   50.186">  1  5  2 -1</clus>
<clus scale="   74.535">  1  4  2 -1</clus>
<clus scale="   50.186">  1  3  2 -1</clus>
</clustering>
</event>
<event>
 6    0  0.4227619E+002  0.2290906E+03  0.7546771E-02  0.1127281E+00
         21   -1    0    0  504  501  0.00000000000E+00  0.00000000000E+00  0.86623090985E+03  0.86623090985E+03  0.00000000000E+00 0.  1.
         21   -1    0    0  503  502 -0.00000000000E+00 -0.00000000000E+00 -0.52926200364E+03  0.52926200364E+03  0.00000000000E+00 0.  1.
         21    1    1    2  503  505 -0.27467694863E+02  0.12128359466E+02 -0.23890782373E+03  0.24078729120E+03  0.00000000000E+00 0.  1.
         21    1    1    2  504  502  0.29700138308E+03 -0.10626918162E+03  0.39065135270E+03  0.50210700043E+03  0.00000000000E+00 0.  1.
         21    1    1    2  505  506 -0.11106730336E+03 -0.20459383339E+02 -0.19482070849E+03  0.22518801189E+03  0.00000000000E+00 0.  1.
         21    1    1    2  506  501 -0.15846638486E+03  0.11460020550E+03  0.38004608574E+03  0.42741060997E+03  0.00000000000E+00 0.  1.
<scales pt_clust_3="30.02618" pt_clust_4="229.09059" pt_clust_5="131.51615" pt_clust_6="14000.00000"></scales>
<clustering>
<clus scale="   30.026">  2  3  1 -1</clus>
<clus scale="  131.516">  2  5  1 -1</clus>
<clus scale="  229.091">  2  4  1 -1</clus>
<clus scale="  229.091">  1  3  2 -1</clus>
</clustering>
</event>
<event>
 6    0  0.4227619E+002  0.8989235E+02  0.7546771E-02  0.1303113E+00
         21   -1    0    0  503  501  0.00000000000E+00  0.00000000000E+00  0.75789583404E+02  0.75789583404E+02  0.00000000000E+00 0.  1.
         21   -1    0    0  506  502 -0.00000000000E+00 -0.00000000000E+00 -0.79035133978E+03  0.79035133978E+03  0.00000000000E+00 0.  1.
         21    1    1    2  503  504 -0.25001640389E+02 -0.25620311510E+02  0.55104384590E+02  0.65711304849E+02  0.00000000000E+00 0.  1.
         21    1    1    2  504  505 -0.13598742351E+02 -0.76222850972E+02 -0.20195524868E+03  0.21628862956E+03  0.00000000000E+00 0.  1.
         21    1    1    2  505  502  0.36797116692E+02  0.11048663740E+01 -0.15151913393E+03  0.15592721531E+03  0.00000000000E+00 0.  1.
         21    1    1    2  506  501  0.18032660486E+01  0.10073829611E+03 -0.41619175835E+03  0.42821377347E+03  0.00000000000E+00 0.  1.
<scales pt_clust_3="35.79780" pt_clust_4="89.89235" pt_clust_5="33.31364" pt_clust_6="14000.00000"></scales>
<clustering>
<clus scale="   35.798">  1  3  2 -1</clus>
<clus scale="   33.314">  2  5  1 -1</clus>
<clus scale="   89.892">  1  4  2 -1</clus>
<clus scale="   35.798">  1  3  2 -1</clus>
</clustering>
</event>
<event>
 6    0  0.4227619E+002  0.9357970E+02  0.7546771E-02  0.1294407E+00
         21   -1    0    0  504  501  0.00000000000E+00  0.00000000000E+00  0.11678418835E+04  0.11678418835E+04  0.00000000000E+00 0.  1.
         21   -1    0    0  506  502 -0.00000000000E+00 -0.00000000000E+00 -0.72559873431E+03  0.72559873431E+03  0.00000000000E+00 0.  1.
         21    1    1    2  503  501 -0.15476159471E+03 -0.53127161845E+01 -0.20947773174E+03  0.26050008876E+03  0.00000000000E+00 0.  1.
         21    1    1    2  504  502  0.60399590409E+02  0.16465731213E+02  0.11341217706E+04  0.11358483267E+04  0.00000000000E+00 0.  1.
         21    1    1    2  505  503  0.59014663970E+02  0.92636475207E+01 -0.13925938952E+03  0.15153126178E+03  0.00000000000E+00 0.  1.
         21    1    1    2  506  505  0.35347340330E+02 -0.20416662549E+02 -0.34314150009E+03  0.34556094059E+03  0.00000000000E+00 0.  1.
<scales pt_clust_3="14000.00000" pt_clust_4="62.66886" pt_clust_5="93.57970" pt_clust_6="40.82003"></scales>
<clustering>
<clus scale="   40.820">  2  6  1 -1</clus>
<clus scale="   62.669">  1  4  2 -1</clus>
<clus scale="   93.580">  2  5  1 -1</clus>
<clus scale="   62.669">  1  3  2 -1</clus>
</clustering>
</event>
<event>
 6    0  0.4227619E+002  0.9547973E+02  0.7546771E-02  0.1290099E+00
         21   -1    0    0  504  501  0.00000000000E+00  0.00000000000E+00  0.13071265993E+04  0.13071265993E+04  0.00000000000E+00 0.  1.
         21   -1    0    0  505  502 -0.00000000000E+00 -0.00000000000E+00 -0.15754313024E+03  0.15754313024E+03  0.00000000000E+00 0.  1.
         21    1    1    2  503  501 -0.30053273606E+02 -0.15030126374E+01  0.39239848365E+02  0.49449206274E+02  0.00000000000E+00 0. -1.
         21    1    1    2  504  506  0.26674948990E+02 -0.64983431420E+02  0.10038215708E+04  0.10062763762E+04  0.00000000000E+00 0.  1.
         21    1    1    2  505  503 -0.56029192385E+02 -0.94641596160E+01  0.23867885592E+03  0.24534962193E+03  0.00000000000E+00 0. -1.
         21    1    1    2  506  502  0.59407517000E+02  0.75950603673E+02 -0.13215680604E+03  0.16359452514E+03  0.00000000000E+00 0.  1.
<scales pt_clust_3="30.09083" pt_clust_4="95.47973" pt_clust_5="62.55382" pt_clust_6="14000.00000"></scales>
<clustering>
<clus scale="   30.091">  1  3  2 -1</clus>
<clus scale="   62.554">  1  5  2 -1</clus>
<clus scale="   95.480">  1  4  2 -1</clus>
<clus scale="   30.091">  1  3  2 -1</clus>
</clustering>
</event>
<event>
 6    0  0.4227619E+002  0.1196035E+03  0.7546771E-02  0.1243753E+00
         21   -1    0    0  503  501  0.00000000000E+00  0.00000000000E+00  0.49091595265E+02  0.49091595265E+02  0.00000000000E+00 0. -1.
         21   -1    0    0  504  502 -0.00000000000E+00 -0.00000000000E+00 -0.12067560314E+04  0.12067560314E+04  0.00000000000E+00 0. -1.
         21    1    1    2  503  505  0.35383682820E+02  0.12019269390E+03 -0.71488671844E+02  0.14425296835E+03  0.00000000000E+00 0. -1.
         21    1    1    2  504  506  0.30271139028E+02 -0.33595161656E+02 -0.52746738181E+03  0.52940231924E+03  0.00000000000E+00 0. -1.
         21    1    1    2  505  502 -0.24804195495E+02 -0.95114043693E+02 -0.50340591155E+03  0.51291270330E+03  0.00000000000E+00 0. -1.
         21    1    1    2  506  501 -0.40850626353E+02  0.85165114489E+01 -0.55302470905E+02  0.69279635745E+02  0.00000000000E+00 0. -1.
<scales pt_clust_3="119.60351" pt_clust_4="44.45128" pt_clust_5="14000.00000" pt_clust_6="41.72894"></scales>
<clustering>
<clus scale="   41.729">  1  6  2 -1</clus>
<clus scale="   44.451">  2  4  1 -1</clus>
<clus scale="  119.604">  1  3  2 -1</clus>
<clus scale="   41.729">  1  3  2 -1</clus>
</clustering>
</event>
<event>
 6    0  0.4227619E+002  0.1107836E+03  0.7546771E-02  0.1259126E+00
         21   -1    0    0  504  501  0.00000000000E+00  0.00000000000E+00  0.43200247901E+02  0.43200247901E+02  0.00000000000E+00 0.  1.
         21   -1    0    0  505  502 -0.00000000000E+00 -0.00000000000E+00 -0.20966162544E+04  0.20966162544E+04  0.00000000000E+00 0.  1.
         21    1    1    2  503  501  0.27734409917E+02 -0.10638103787E+03 -0.86343821276E+02  0.13979047959E+03  0.00000000000E+00 0.  1.
         21    1    1    2  504  506 -0.88344069049E+02  0.87658837186E+02 -0.24116217348E+03  0.27138153988E+03  0.00000000000E+00 0.  1.
         21    1    1    2  505  503  0.28995049709E+02 -0.20967287308E+02 -0.35569206057E+03  0.35748731725E+03  0.00000000000E+00 0.  1.
         21    1    1    2  506  502  0.31614609423E+02  0.39689487988E+02 -0.13702179512E+04  0.13711571656E+04  0.00000000000E+00 0.  1.
<scales pt_clust_3="14000.00000" pt_clust_4="110.78361" pt_clust_5="35.78184" pt_clust_6="59.18056"></scales>
<clustering>
<clus scale="   35.782">  2  5  1 -1</clus>
<clus scale="   59.181">  2  6  1 -1</clus>
<clus scale="  110.784">  2  4  1 -1</clus>
<clus scale="  110.784">  1  3  2 -1</clus>
</clustering>
</event>
<event>
 6    0  0.4227619E+002  0.8937402E+02  0.7546771E-02  0.1304375E+00
         21   -1    0    0  503  501  0.00000000000E+00  0.00000000000E+00  0.54586738933E+02  0.54586738933E+02  0.00000000000E+00 0.  1.
         21   -1    0    0  504  502 -0.00000000000E+00 -0.00000000000E+00 -0.14947379165E+04  0.14947379165E+04  0.00000000000E+00 0.  1.
         21    1    1    2  503  506  0.18646138051E+02 -0.12207441704E+03 -0.56946242179E+02  0.13598792688E+03  0.00000000000E+00 0.  1.
         21    1    1    2  504  505  0.31098923144E+02  0.94165103830E+02 -0.65879574795E+03  0.66621771766E+03  0.00000000000E+00 0.  1.
         21    1    1    2  505  501  0.24247496670E+02  0.45764978204E+02 -0.63967860288E+02  0.82305901822E+02  0.00000000000E+00 0.  1.
         21    1    1    2  506  502 -0.73992557865E+02 -0.17855664997E+02 -0.66044132712E+03  0.66481310904E+03  0.00000000000E+00 0.  1.
<scales pt_clust_3="14000.00000" pt_clust_4="89.37402" pt_clust_5="51.79164" pt_clust_6="74.48879"></scales>
<clustering>
<clus scale="   51.792">  1  5  2 -1</clus>
<clus scale="   74.489">  2  6  1 -1</clus>
<clus scale="   89.374">  2  4  1 -1</clus>
<clus scale="   51.792">  1  3  2 -1</clus>
</clustering>
</event>
<event>
 6    0  0.4227619E+002  0.1324489E+03  0.7546771E-02  0.1223867E+00
         21   -1    0    0  505  501  0.00000000000E+00  0.00000000000E+00  0.98939093385E+03  0.98939093385E+03  0.00000000000E+00 0.  1.
         21   -1    0    0  503  502 -0.00000000000E+00 -0.00000000000E+00 -0.40279658102E+03  0.40279658102E+03  0.00000000000E+00 0. -1.
         21    1    1    2  503  506  0.87853965138E+02  0.67474326515E+02 -0.24858159158E+03  0.27214685669E+03  0.00000000000E+00 0. -1.
         21    1    1    2  504  502 -0.93472704663E+01  0.39770761207E+02 -0.12673882072E+03  0.13316085608E+03  0.00000000000E+00 0. -1.
         21    1    1    2  505  504 -0.10364118133E+03 -0.12891691268E+03  0.91239308529E+03  0.92726598499E+03  0.00000000000E+00 0.  1.
         21    1    1    2  506  501  0.25134486662E+02  0.21671824957E+02  0.49521679848E+02  0.59613817121E+02  0.00000000000E+00 0. -1.
<scales pt_clust_3="132.44893" pt_clust_4="40.90727" pt_clust_5="14000.00000" pt_clust_6="33.18750"></scales>
<clustering>
<clus scale="   33.188">  1  6  2 -1</clus>
<clus scale="   40.907">  2  4  1 -1</clus>
<clus scale="  132.449">  2  3  1 -1</clus>
<clus scale="   33.188">  1  3  2 -1</clus>
</clustering>
</event>
<event>
 6    0  0.4227619E+002  0.1403113E+03  0.7546771E-02  0.1212911E+00
         21   -1    0    0  506  501  0.00000000000E+00  0.00000000000E+00  0.16351736068E+04  0.16351736068E+04  0.00000000000E+00 0.  1.
         21   -1    0    0  503  502 -0.00000000000E+00 -0.00000000000E+00 -0.55576416396E+02  0.55576416396E+02  0.00000000000E+00 0.  1.
         21    1    1    2  503  504  0.25246168219E+02  0.31898470546E+02 -0.12412425441E+01  0.40699166035E+02  0.00000000000E+00 0.  1.
         21    1    1    2  504  505 -0.57863336324E+01 -0.54707479678E+02  0.19170761364E+02  0.58257257753E+02  0.00000000000E+00 0.  1.
         21    1    1    2  505  501  0.46171468681E+02 -0.11090410597E+03  0.33064211947E+03  0.35178933527E+03  0.00000000000E+00 0.  1.
         21    1    1    2  506  502 -0.65631303267E+02  0.13371311511E+03  0.12310255521E+04  0.12400042641E+04  0.00000000000E+00 0.  1.
<scales pt_clust_3="40.68023" pt_clust_4="37.65849" pt_clust_5="14000.00000" pt_clust_6="140.31130"></scales>
<clustering>
<clus scale="   40.680">  2  3  1 -1</clus>
<clus scale="   37.658">  2  4  1 -1</clus>
<clus scale="  140.311">  1  6  2 -1</clus>
<clus scale="  140.311">  1  3  2 -1</clus>
</clustering>
</event>
<event>
 6    0  0.4227619E+002  0.6719692E+02  0.7546771E-02  0.1369893E+00
         21   -1    0    0  503  501  0.00000000000E+00  0.00000000000E+00  0.49939983298E+02  0.49939983298E+02  0.00000000000E+00 0. -1.
         21   -1    0    0  504  502 -0.00000000000E+00 -0.00000000000E+00 -0.12201115006E+04  0.12201115006E+04  0.00000000000E+00 0. -1.
         21    1    1    2  503  502 -0.57013250462E+01 -0.38488229956E+02 -0.38450766216E+01  0.39097743754E+02  0.00000000000E+00 0. -1.
         21    1    1    2  504  506 -0.52721337247E+02  0.35128245139E+02 -0.88258328131E+03  0.88485410179E+03  0.00000000000E+00 0. -1.
         21    1    1    2  505  501 -0.50121728045E+02  0.30325269304E+02 -0.24013090283E+02  0.63312226982E+02  0.00000000000E+00 0. -1.
         21    1    1    2  506  505  0.10854439034E+03 -0.26965284487E+02 -0.25973006908E+03  0.28278741136E+03  0.00000000000E+00 0. -1.
<scales pt_clust_3="38.90821" pt_clust_4="67.19692" pt_clust_5="54.03372" pt_clust_6="14000.00000"></scales>
<clustering>
<clus scale="   38.908">  1  3  2 -1</clus>
<clus scale="   54.034">  1  5  2 -1</clus>
<clus scale="   67.197">  2  4  1 -1</clus>
<clus scale="   38.908">  1  3  2 -1</clus>
</clustering>
</event>
<event>
 6    0  0.4227619E+002  0.9649022E+02  0.7546771E-02  0.1287855E+00
         21   -1    0    0  503  501  0.00000000000E+00  0.00000000000E+00  0.11333242799E+04  0.11333242799E+04  0.00000000000E+00 0. -1.
         21   -1    0    0  506  502 -0.00000000000E+00 -0.00000000000E+00 -0.36239514126E+03  0.36239514126E+03  0.00000000000E+00 0. -1.
         21    1    1    2  503  504 -0.33973638456E+02  0.11297018598E+02  0.13399626480E+03  0.13869689874E+03  0.00000000000E+00 0. -1.
         21    1    1    2  504  502  0.24396504373E+01 -0.35703953277E+02  0.66681154522E+01  0.36403130876E+02  0.00000000000E+00 0.  1.
         21    1    1    2  505  501  0.12801659880E+03 -0.26767387072E+02  0.96226757599E+03  0.97111463297E+03  0.00000000000E+00 0. -1.
         21    1    1    2  506  505 -0.96482610786E+02  0.51174321751E+02 -0.33200281759E+03  0.34950475859E+03  0.00000000000E+00 0. -1.
<scales pt_clust_3="35.71152" pt_clust_4="35.78721" pt_clust_5="96.49022" pt_clust_6="14000.00000"></scales>
<clustering>
<clus scale="   35.787">  2  4  1 -1</clus>
<clus scale="   35.712">  1  3  2 -1</clus>
<clus scale="   96.490">  1  5  2 -1</clus>
<clus scale="   35.712">  1  3  2 -1</clus>
</clustering>
</event>
<event>
 6    0  0.4227619E+002  0.8844801E+02  0.7546771E-02  0.1306654E+00
         21   -1    0    0  503  501  0.00000000000E+00  0.00000000000E+00  0.84515007517E+02  0.84515007517E+02  0.00000000000E+00 0. -1.
         21   -1    0    0  506  502 -0.00000000000E+00 -0.00000000000E+00 -0.48638264778E+03  0.48638264778E+03  0.00000000000E+00 0. -1.
         21    1    1    2  503  504  0.57692582865E+02  0.29198087915E+02 -0.95765731255E+02  0.11555101790E+03  0.00000000000E+00 0. -1.
         21    1    1    2  504  502 -0.33871202797E+02  0.29928791802E+02 -0.81383188666E+02  0.93092504291E+02  0.00000000000E+00 0. -1.
         21    1    1    2  505  501 -0.81831434558E+02  0.32788223667E+02  0.23540321736E+02  0.91244715137E+02  0.00000000000E+00 0. -1.
         21    1    1    2  506  505  0.58010054490E+02 -0.91915103385E+02 -0.24825904208E+03  0.27100941796E+03  0.00000000000E+00 0. -1.
<scales pt_clust_3="61.25527" pt_clust_4="45.19946" pt_clust_5="88.44801" pt_clust_6="14000.00000"></scales>
<clustering>
<clus scale="   45.199">  2  4  1 -1</clus>
<clus scale="   61.255">  2  3  1 -1</clus>
<clus scale="   88.448">  1  5  2 -1</clus>
<clus scale="   88.448">  1  3  2 -1</clus>
</clustering>
</event>
<event>
 6    0  0.4227619E+002  0.7501767E+02  0.7546771E-02  0.1343816E+00
         21   -1    0    0  505  501  0.00000000000E+00  0.00000000000E+00  0.21220707452E+03  0.21220707452E+03  0.00000000000E+00 0.  1.
         21   -1    0    0  506  502 -0.00000000000E+00 -0.00000000000E+00 -0.58637938266E+03  0.58637938266E+03  0.00000000000E+00 0.  1.
         21    1    1    2  503  504 -0.10858101628E+03  0.42734740902E+00 -0.62815447868E+02  0.12544241791E+03  0.00000000000E+00 0.  1.
         21    1    1    2  504  501  0.46704609166E+02  0.35591336433E+02  0.16492306819E+03  0.17506479420E+03  0.00000000000E+00 0.  1.
         21    1    1    2  505  502  0.55377888919E+02  0.12587491980E+02 -0.41831996552E+03  0.42215725635E+03  0.00000000000E+00 0.  1.
         21    1    1    2  506  503  0.64985181906E+01 -0.48606175822E+02 -0.57959962942E+02  0.75921988719E+02  0.00000000000E+00 0.  1.
<scales pt_clust_3="14000.00000" pt_clust_4="58.48455" pt_clust_5="75.01767" pt_clust_6="49.03867"></scales>
<clustering>
<clus scale="   49.039">  2  6  1 -1</clus>
<clus scale="   58.485">  1  4  2 -1</clus>
<clus scale="   75.018">  2  5  1 -1</clus>
<clus scale="   58.485">  1  3  2 -1</clus>
</clustering>
</event>
<event>
 6    0  0.4227619E+002  0.7601344E+02  0.7546771E-02  0.1340761E+00
         21   -1    0    0  505  501  0.00000000000E+00  0.00000000000E+00  0.39502058440E+03  0.39502058440E+03  0.00000000000E+00 0. -1.
         21   -1    0    0  504  502 -0.00000000000E+00 -0.00000000000E+00 -0.32585199337E+03  0.32585199337E+03  0.00000000000E+00 0.  1.
         21    1    1    2  503  506 -0.72896787711E+02  0.55042442558E+02 -0.56581762298E+02  0.10744816409E+03  0.00000000000E+00 0.  1.
         21    1    1    2  504  501  0.61126321562E+01  0.56082382399E+02  0.17181715222E+03  0.18084173104E+03  0.00000000000E+00 0. -1.
         21    1    1    2  505  503  0.46051483119E+02 -0.38182722895E+02  0.18234758467E+03  0.19190961690E+03  0.00000000000E+00 0. -1.
         21    1    1    2  506  502  0.20732672436E+02 -0.72942102063E+02 -0.22841438356E+03  0.24067306575E+03  0.00000000000E+00 0.  1.
<scales pt_clust_3="76.01344" pt_clust_4="56.41452" pt_clust_5="52.21096" pt_clust_6="14000.00000"></scales>
<clustering>
<clus scale="   56.415">  1  4  2 -1</clus>
<clus scale="   52.211">  1  5  2 -1</clus>
<clus scale="   76.013">  1  3  2 -1</clus>
<clus scale="   56.415">  1  3  2 -1</clus>
</clustering>
</event>
<event>
 6    0  0.4227619E+002  0.7443772E+02  0.7546771E-02  0.1345621E+00
         21   -1    0    0  503  501  0.00000000000E+00  0.00000000000E+00  0.11634374795E+04  0.11634374795E+04  0.00000000000E+00 0. -1.
         21   -1    0    0  504  502 -0.00000000000E+00 -0.00000000000E+00 -0.28906451455E+03  0.28906451455E+03  0.00000000000E+00 0. -1.
         21    1    1    2  503  506 -0.45557260681E+02 -0.57199511345E+01  0.11131756729E+04  0.11141221929E+04  0.00000000000E+00 0. -1.
         21    1    1    2  504  501 -0.53722565516E+02  0.11694241038E+02 -0.57639595869E+02  0.79656715542E+02  0.00000000000E+00 0. -1.
         21    1    1    2  505  502  0.87803180637E+02 -0.68263604081E+02 -0.15362567845E+03  0.18965802712E+03  0.00000000000E+00 0. -1.
         21    1    1    2  506  505  0.11476645560E+02  0.62289314178E+02 -0.27537433660E+02  0.69065058508E+02  0.00000000000E+00 0.  1.
<scales pt_clust_3="45.91494" pt_clust_4="74.43772" pt_clust_5="14000.00000" pt_clust_6="60.37435"></scales>
<clustering>
<clus scale="   45.915">  1  3  2 -1</clus>
<clus scale="   60.374">  1  6  2 -1</clus>
<clus scale="   74.438">  2  4  1 -1</clus>
<clus scale="   45.915">  1  3  2 -1</clus>
</clustering>
</event>
<event>
 6    0  0.4227619E+002  0.1368543E+03  0.7546771E-02  0.1217626E+00
         21   -1    0    0  506  501  0.00000000000E+00  0.00000000000E+00  0.22476752359E+03  0.22476752359E+03  0.00000000000E+00 0. -1.
         21   -1    0    0  503  502 -0.00000000000E+00 -0.00000000000E+00 -0.22090803174E+03  0.22090803174E+03  0.00000000000E+00 0. -1.
         21    1    1    2  503  504 -0.21718148038E+02  0.36640490892E+02 -0.84781293711E+02  0.94879245835E+02  0.00000000000E+00 0. -1.
         21    1    1    2  504  505  0.61753363146E+02 -0.42232321192E+02  0.66598384466E+02  0.10016182719E+03  0.00000000000E+00 0. -1.
         21    1    1    2  505  501  0.62827688679E+02 -0.21848988381E+02  0.98999943351E+02  0.11927147832E+03  0.00000000000E+00 0. -1.
         21    1    1    2  506  502 -0.10286290379E+03  0.27440818682E+02 -0.76957542247E+02  0.13136300398E+03  0.00000000000E+00 0. -1.
<scales pt_clust_3="42.59347" pt_clust_4="31.29228" pt_clust_5="31.29228" pt_clust_6="132.76964"></scales>
<clustering>
<clus scale="   31.292">  4  5 -1 -1</clus>
<clus scale="   42.593">  2  3  1 -1</clus>
<clus scale="  132.770">  2  6  1 -1</clus>
<clus scale="  136.854">  1  3  2 -1</clus>
</clustering>
</event>
<event>
 6    0  0.4227619E+002  0.2472946E+03  0.7546771E-02  0.1115027E+00
         21   -1    0    0  506  501  0.00000000000E+00  0.00000000000E+00  0.11382595596E+04  0.11382595596E+04  0.00000000000E+00 0. -1.
         21   -1    0    0  505  502 -0.00000000000E+00 -0.00000000000E+00 -0.24381068268E+03  0.24381068268E+03  0.00000000000E+00 0.  1.
         21    1    1    2  503  501 -0.15671848551E+02  0.36443330021E+02  0.40079130219E+03  0.40274978715E+03  0.00000000000E+00 0. -1.
         21    1    1    2  504  502  0.22632421456E+03 -0.15857306204E+03 -0.11969258826E+03  0.30115507929E+03  0.00000000000E+00 0.  1.
         21    1    1    2  505  503 -0.10392584705E+02  0.34047940527E+02  0.10912676681E+02  0.37233782823E+02  0.00000000000E+00 0. -1.
         21    1    1    2  506  504 -0.20025978130E+03  0.88081791494E+02  0.60243748628E+03  0.64093159298E+03  0.00000000000E+00 0. -1.
<scales pt_clust_3="39.82041" pt_clust_4="247.29462" pt_clust_5="35.59871" pt_clust_6="14000.00000"></scales>
<clustering>
<clus scale="   35.599">  2  5  1 -1</clus>
<clus scale="   39.820">  1  3  2 -1</clus>
<clus scale="  247.295">  2  4  1 -1</clus>
<clus scale="   39.820">  1  3  2 -1</clus>
</clustering>
</event>
<event>
 6    0  0.5572599E+002  0.1364428E+03  0.7546771E-02  0.1218197E+00
         21   -1    0    0  504  501  0.00000000000E+00  0.00000000000E+00  0.37147381045E+03  0.37147381045E+03  0.00000000000E+00 0.  1.
         21   -1    0    0  505  502 -0.00000000000E+00 -0.00000000000E+00 -0.27642243731E+04  0.27642243731E+04  0.00000000000E+00 0. -1.
         21    1    1    2  503  502  0.15154016932E+03 -0.42424041186E+02 -0.79729714833E+03  0.81267888180E+03  0.00000000000E+00 0.  1.
         21    1    1    2  504  506 -0.58689932578E+02  0.44275243875E+02  0.21367142840E+03  0.22596522901E+03  0.00000000000E+00 0.  1.
         21    1    1    2  505  501 -0.31383963457E+02 -0.39735411491E+01 -0.19463864178E+04  0.19466434778E+04  0.00000000000E+00 0. -1.
         21    1    1    2  506  503 -0.61466273288E+02  0.21223384603E+01  0.13726157509E+03  0.15041059494E+03  0.00000000000E+00 0.  1.
<scales pt_clust_3="129.23656" pt_clust_4="40.05589" pt_clust_5="31.63451" pt_clust_6="40.05589"></scales>
<clustering>
<clus scale="   31.635">  2  5  1 -1</clus>
<clus scale="   40.056">  4  6 -1 -1</clus>
<clus scale="  129.237">  2  3  1 -1</clus>
<clus scale="  136.443">  1  3  2 -1</clus>
</clustering>
</event>
<event>
 6    0  0.4227619E+002  0.1001250E+03  0.7546771E-02  0.1280033E+00
         21   -1    0    0  504  501  0.00000000000E+00  0.00000000000E+00  0.13659138501E+04  0.13659138501E+04  0.00000000000E+00 0.  1.
         21   -1    0    0  506  502 -0.00000000000E+00 -0.00000000000E+00 -0.27576347321E+02  0.27576347321E+02  0.00000000000E+00 0.  1.
         21    1    1    2  503  505  0.74791125157E+02  0.17383939632E+02  0.39866770823E+03  0.40599489571E+03  0.00000000000E+00 0.  1.
         21    1    1    2  504  502 -0.14492411674E+03  0.66340071592E+02  0.60613234320E+03  0.62673792145E+03  0.00000000000E+00 0.  1.
         21    1    1    2  505  501 -0.57557119451E+01 -0.48501408173E+02  0.17252945633E+03  0.17930958736E+03  0.00000000000E+00 0.  1.
         21    1    1    2  506  503  0.75888703532E+02 -0.35222603051E+02  0.16100799502E+03  0.18144779290E+03  0.00000000000E+00 0.  1.
<scales pt_clust_3="72.85182" pt_clust_4="14000.00000" pt_clust_5="48.84173" pt_clust_6="100.12505"></scales>
<clustering>
<clus scale="   48.842">  1  5  2 -1</clus>
<clus scale="   72.852">  1  3  2 -1</clus>
<clus scale="  100.125">  2  6  1 -1</clus>
<clus scale="   48.842">  1  3  2 -1</clus>
</clustering>
</event>
<event>
 6    0  0.4227619E+002  0.1519831E+03  0.7546771E-02  0.1198057E+00
         21   -1    0    0  505  501  0.00000000000E+00  0.00000000000E+00  0.54328878730E+02  0.54328878730E+02  0.00000000000E+00 0.  1.
         21   -1    0    0  503  502 -0.00000000000E+00 -0.00000000000E+00 -0.16306649691E+04  0.16306649691E+04  0.00000000000E+00 0.  1.
         21    1    1    2  503  506  0.96633528544E+02  0.74244971080E+02 -0.12840026853E+04  0.12897725576E+04  0.00000000000E+00 0.  1.
         21    1    1    2  504  502  0.39208354601E+02  0.10764509265E+02 -0.15721113630E+03  0.16238383881E+03  0.00000000000E+00 0. -1.
         21    1    1    2  505  504 -0.10431401870E+03 -0.84120517404E+02 -0.51668017860E+02  0.14362193431E+03  0.00000000000E+00 0.  1.
         21    1    1    2  506  501 -0.31527864446E+02 -0.88896294082E+00 -0.83454250894E+02  0.89215517058E+02  0.00000000000E+00 0. -1.
<scales pt_clust_3="14000.00000" pt_clust_4="39.12079" pt_clust_5="151.98311" pt_clust_6="31.54039"></scales>
<clustering>
<clus scale="   31.540">  1  6  2 -1</clus>
<clus scale="   39.121">  2  4  1 -1</clus>
<clus scale="  151.983">  1  5  2 -1</clus>
<clus scale="   31.540">  1  3  2 -1</clus>
</clustering>
</event>
<event>
 6    0  0.4227619E+002  0.8320426E+02  0.7546771E-02  0.1320197E+00
         21   -1    0    0  506  501  0.00000000000E+00  0.00000000000E+00  0.18314792631E+03  0.18314792631E+03  0.00000000000E+00 0. -1.
         21   -1    0    0  504  502 -0.00000000000E+00 -0.00000000000E+00 -0.32092357755E+03  0.32092357755E+03  0.00000000000E+00 0. -1.
         21    1    1    2  503  501 -0.11911372638E+03  0.15095652693E+01  0.11176946687E+03  0.16334862204E+03  0.00000000000E+00 0. -1.
         21    1    1    2  504  505  0.27721248184E+02 -0.12191264414E+02 -0.18463581411E+03  0.18710285509E+03  0.00000000000E+00 0. -1.
         21    1    1    2  505  503  0.52836778117E+02 -0.30420542999E+02 -0.74698215274E+02  0.96420733886E+02  0.00000000000E+00 0. -1.
         21    1    1    2  506  502  0.38555700081E+02  0.41102242143E+02  0.97889112768E+01  0.57199292844E+02  0.00000000000E+00 0. -1.
<scales pt_clust_3="83.20426" pt_clust_4="30.28357" pt_clust_5="14000.00000" pt_clust_6="58.33942"></scales>
<clustering>
<clus scale="   30.284">  2  4  1 -1</clus>
<clus scale="   58.339">  1  6  2 -1</clus>
<clus scale="   83.204">  1  3  2 -1</clus>
<clus scale="   58.339">  1  3  2 -1</clus>
</clustering>
</event>
<event>
 6    0  0.4227619E+002  0.1894902E+03  0.7546771E-02  0.1158922E+00
         21   -1    0    0  504  501  0.00000000000E+00  0.00000000000E+00  0.26715993873E+04  0.26715993873E+04  0.00000000000E+00 0.  1.
         21   -1    0    0  503  502 -0.00000000000E+00 -0.00000000000E+00 -0.17415081693E+03  0.17415081693E+03  0.00000000000E+00 0.  1.
         21    1    1    2  503  505  0.19798146869E+03 -0.28976552981E+02 -0.93322744371E+02  0.22078368867E+03  0.00000000000E+00 0.  1.
         21    1    1    2  504  502 -0.13650108944E+03 -0.62335062328E+02  0.35048017965E+03  0.38125393604E+03  0.00000000000E+00 0.  1.
         21    1    1    2  505  506 -0.39860867349E+02  0.61644147538E+02  0.92465939423E+03  0.92756880338E+03  0.00000000000E+00 0.  1.
         21    1    1    2  506  501 -0.21619511894E+02  0.29667467771E+02  0.13156317409E+04  0.13161437762E+04  0.00000000000E+00 0.  1.
<scales pt_clust_3="14000.00000" pt_clust_4="189.49021" pt_clust_5="98.45678" pt_clust_6="36.70915"></scales>
<clustering>
<clus scale="   36.709">  1  6  2 -1</clus>
<clus scale="   98.457">  1  5  2 -1</clus>
<clus scale="  189.490">  1  4  2 -1</clus>
<clus scale="   36.709">  1  3  2 -1</clus>
</clustering>
</event>
<event>
 6    0  0.4227619E+002  0.7731066E+02  0.7546771E-02  0.1336861E+00
         21   -1    0    0  504  501  0.00000000000E+00  0.00000000000E+00  0.26625959933E+03  0.26625959933E+03  0.00000000000E+00 0.  1.
         21   -1    0    0  506  502 -0.00000000000E+00 -0.00000000000E+00 -0.95185968692E+02  0.95185968692E+02  0.00000000000E+00 0. -1.
         21    1    1    2  503  501 -0.11007821194E+03 -0.23304915220E+02  0.16575291814E+03  0.20033562261E+03  0.00000000000E+00 0.  1.
         21    1    1    2  504  505  0.32741396998E+02 -0.12564999173E+02  0.34545669788E+02  0.49226838033E+02  0.00000000000E+00 0. -1.
         21    1    1    2  505  502  0.53546836915E+02 -0.98813539465E+01 -0.43339651379E+01  0.54623146680E+02  0.00000000000E+00 0. -1.
         21    1    1    2  506  503  0.23789978024E+02  0.45751268339E+02 -0.24890992148E+02  0.57259960698E+02  0.00000000000E+00 0. -1.
<scales pt_clust_3="14000.00000" pt_clust_4="35.06962" pt_clust_5="77.31066" pt_clust_6="51.91318"></scales>
<clustering>
<clus scale="   35.070">  1  4  2 -1</clus>
<clus scale="   51.913">  2  6  1 -1</clus>
<clus scale="   77.311">  2  5  1 -1</clus>
<clus scale="   35.070">  1  3  2 -1</clus>
</clustering>
</event>
<event>
 6    0  0.4227619E+002  0.9737082E+02  0.7546771E-02  0.1285924E+00
         21   -1    0    0  502  501  0.00000000000E+00  0.00000000000E+00  0.17091868297E+03  0.17091868297E+03  0.00000000000E+00 0. -1.
         21   -1    0    0  504  502 -0.00000000000E+00 -0.00000000000E+00 -0.29474906139E+03  0.29474906139E+03  0.00000000000E+00 0.  1.
         21    1    1    2  503  501  0.53915493848E+02 -0.46285922409E+02  0.12118864909E+02  0.72084214477E+02  0.00000000000E+00 0.  1.
         21    1    1    2  504  506  0.30471362916E+02  0.64959992796E+00 -0.15856446593E+03  0.16146707340E+03  0.00000000000E+00 0.  1.
         21    1    1    2  505  503 -0.12013726136E+03  0.49980193973E+02  0.88269308812E+02  0.15723375031E+03  0.00000000000E+00 0. -1.
         21    1    1    2  506  505  0.35750404598E+02 -0.43438714920E+01 -0.65654086207E+02  0.74882706175E+02  0.00000000000E+00 0.  1.
<scales pt_clust_3="14000.00000" pt_clust_4="30.47829" pt_clust_5="97.37082" pt_clust_6="51.79742"></scales>
<clustering>
<clus scale="   30.478">  2  4  1 -1</clus>
<clus scale="   51.797">  2  6  1 -1</clus>
<clus scale="   97.371">  2  5  1 -1</clus>
<clus scale="   97.371">  1  3  2 -1</clus>
</clustering>
</event>
<event>
 6    0  0.4227619E+002  0.1369277E+03  0.7546771E-02  0.1217524E+00
         21   -1    0    0  504  501  0.00000000000E+00  0.00000000000E+00  0.15042610649E+04  0.15042610649E+04  0.00000000000E+00 0. -1.
         21   -1    0    0  506  502 -0.00000000000E+00 -0.00000000000E+00 -0.69713454973E+02  0.69713454973E+02  0.00000000000E+00 0. -1.
         21    1    1    2  503  501 -0.10621287073E+03 -0.76259341302E+02  0.70203789037E+03  0.71411053805E+03  0.00000000000E+00 0. -1.
         21    1    1    2  504  505  0.42370741492E+01 -0.34099006957E+02  0.61320551065E+03  0.61416747990E+03  0.00000000000E+00 0. -1.
         21    1    1    2  505  502  0.80149407736E+02  0.15647537069E+02  0.12390377847E+03  0.14839447191E+03  0.00000000000E+00 0. -1.
         21    1    1    2  506  503  0.21826388844E+02  0.94710811190E+02 -0.45995695447E+01  0.97302030021E+02  0.00000000000E+00 0. -1.
<scales pt_clust_3="136.92771" pt_clust_4="34.36124" pt_clust_5="81.46816" pt_clust_6="14000.00000"></scales>
<clustering>
<clus scale="   34.361">  1  4  2 -1</clus>
<clus scale="   81.468">  2  5  1 -1</clus>
<clus scale="  136.928">  1  3  2 -1</clus>
<clus scale="   34.361">  1  3  2 -1</clus>
</clustering>
</event>
<event>
 6    0  0.4227619E+002  0.8080270E+02  0.7546771E-02  0.1326789E+00
         21   -1    0    0  503  501  0.00000000000E+00  0.00000000000E+00  0.41034462717E+03  0.41034462717E+03  0.00000000000E+00 0.  1.
         21   -1    0    0  506  502 -0.00000000000E+00 -0.00000000000E+00 -0.12753402263E+03  0.12753402263E+03  0.00000000000E+00 0.  1.
         21    1    1    2  503  504 -0.95220186365E+02  0.70196265881E+01  0.13751719899E+03  0.16741307914E+03  0.00000000000E+00 0.  1.
         21    1    1    2  504  502 -0.50247657274E+02  0.67662553941E+01  0.18772977665E+01  0.50735919431E+02  0.00000000000E+00 0.  1.
         21    1    1    2  505  501  0.72529413695E+02  0.22942619475E+02  0.20421177513E+03  0.21792046426E+03  0.00000000000E+00 0.  1.
         21    1    1    2  506  505  0.72938429944E+02 -0.36728501457E+02 -0.60795667348E+02  0.10180918696E+03  0.00000000000E+00 0.  1.
<scales pt_clust_3="80.80270" pt_clust_4="50.70118" pt_clust_5="14000.00000" pt_clust_6="45.77641"></scales>
<clustering>
<clus scale="   50.701">  2  4  1 -1</clus>
<clus scale="   45.776">  2  6  1 -1</clus>
<clus scale="   80.803">  2  3  1 -1</clus>
<clus scale="   80.803">  1  3  2 -1</clus>
</clustering>
</event>
<event>
 6    0  0.4227619E+002  0.1133448E+03  0.7546771E-02  0.1254498E+00
         21   -1    0    0  506  501  0.00000000000E+00  0.00000000000E+00  0.12576748901E+03  0.12576748901E+03  0.00000000000E+00 0. -1.
         21   -1    0    0  504  502 -0.00000000000E+00 -0.00000000000E+00 -0.18982516196E+04  0.18982516196E+04  0.00000000000E+00 0. -1.
         21    1    1    2  503  501  0.81234028887E+02  0.12113438938E+03 -0.48647233140E+02  0.15374999522E+03  0.00000000000E+00 0. -1.
         21    1    1    2  504  503 -0.86911923904E+02 -0.30903824978E+02 -0.95773283765E+03  0.96216470379E+03  0.00000000000E+00 0. -1.
         21    1    1    2  505  502  0.71203553374E+01 -0.50532992955E+02 -0.83070300767E+03  0.83226904892E+03  0.00000000000E+00 0. -1.
         21    1    1    2  506  505 -0.14424603205E+01 -0.39697571443E+02  0.64598947842E+02  0.75835360700E+02  0.00000000000E+00 0. -1.
<scales pt_clust_3="14000.00000" pt_clust_4="113.34476" pt_clust_5="51.58352" pt_clust_6="39.72377"></scales>
<clustering>
<clus scale="   39.724">  1  6  2 -1</clus>
<clus scale="   51.584">  2  5  1 -1</clus>
<clus scale="  113.345">  2  4  1 -1</clus>
<clus scale="   39.724">  1  3  2 -1</clus>
</clustering>
</event>
<event>
 6    0  0.4227619E+002  0.1376917E+03  0.7546771E-02  0.1216469E+00
         21   -1    0    0  506  501  0.00000000000E+00  0.00000000000E+00  0.52378967666E+03  0.52378967666E+03  0.00000000000E+00 0. -1.
         21   -1    0    0  503  502 -0.00000000000E+00 -0.00000000000E+00 -0.60486300686E+03  0.60486300686E+03  0.00000000000E+00 0. -1.
         21    1    1    2  503  501  0.11374547146E+03 -0.65314125796E+02  0.41482893649E+03  0.43507127445E+03  0.00000000000E+00 0. -1.
         21    1    1    2  504  502  0.38110839866E+02 -0.13834631853E+02 -0.25030709797E+03  0.25356947066E+03  0.00000000000E+00 0. -1.
         21    1    1    2  505  504  0.53512206348E+02 -0.42073045152E+02 -0.18035382854E+03  0.19277240680E+03  0.00000000000E+00 0. -1.
         21    1    1    2  506  505 -0.20536851768E+03  0.12122180280E+03 -0.65241340178E+02  0.24723953162E+03  0.00000000000E+00 0. -1.
<scales pt_clust_3="137.69168" pt_clust_4="36.45935" pt_clust_5="117.26994" pt_clust_6="14000.00000"></scales>
<clustering>
<clus scale="   36.459">  4  5 -1 -1</clus>
<clus scale="  117.270">  2  4  1 -1</clus>
<clus scale="  137.692">  1  3  2 -1</clus>
<clus scale="  137.692">  1  3  2 -1</clus>
</clustering>
</event>
<event>
 6    0  0.4227619E+002  0.8537533E+02  0.7546771E-02  0.1314454E+00
         21   -1    0    0  506  501  0.00000000000E+00  0.00000000000E+00  0.59601459684E+03  0.59601459684E+03  0.00000000000E+00 0.  1.
         21   -1    0    0  503  502 -0.00000000000E+00 -0.00000000000E+00 -0.84838906330E+02  0.84838906330E+02  0.00000000000E+00 0.  1.
         21    1    1    2  503  504  0.44729736005E+02  0.23611697198E+02  0.20793809872E+02  0.54686781370E+02  0.00000000000E+00 0.  1.
         21    1    1    2  504  501 -0.52887025634E+02 -0.10344811837E+03  0.78373125925E+02  0.14014598653E+03  0.00000000000E+00 0.  1.
         21    1    1    2  505  502 -0.62283954970E+02  0.35785147936E+02  0.65417595421E+01  0.72129484106E+02  0.00000000000E+00 0.  1.
         21    1    1    2  506  505  0.70441244599E+02  0.44051273234E+02  0.40546699517E+03  0.41389125116E+03  0.00000000000E+00 0.  1.
<scales pt_clust_3="50.57926" pt_clust_4="85.37533" pt_clust_5="62.30282" pt_clust_6="14000.00000"></scales>
<clustering>
<clus scale="   50.579">  2  3  1 -1</clus>
<clus scale="   62.303">  2  5  1 -1</clus>
<clus scale="   85.375">  2  4  1 -1</clus>
<clus scale="   85.375">  1  3  2 -1</clus>
</clustering>
</event>
<event>
 6    0  0.4227619E+002  0.9460395E+02  0.7546771E-02  0.1292071E+00
         21   -1    0    0  505  501  0.00000000000E+00  0.00000000000E+00  0.92641190442E+02  0.92641190442E+02  0.00000000000E+00 0. -1.
         21   -1    0    0  506  502 -0.00000000000E+00 -0.00000000000E+00 -0.51879253332E+03  0.51879253332E+03  0.00000000000E+00 0.  1.
         21    1    1    2  503  501  0.45906012145E+02 -0.10532113382E+02 -0.36472310442E+02  0.59569428336E+02  0.00000000000E+00 0.  1.
         21    1    1    2  504  503  0.42702344925E+02  0.55901847114E+02  0.51238294152E+02  0.87027981480E+02  0.00000000000E+00 0. -1.
         21    1    1    2  505  502 -0.71290754626E+02 -0.72417476039E+02 -0.40061325005E+03  0.41330090569E+03  0.00000000000E+00 0.  1.
         21    1    1    2  506  504 -0.17317602444E+02  0.27047742308E+02 -0.40304076538E+02  0.51535408255E+02  0.00000000000E+00 0.  1.
<scales pt_clust_3="44.82861" pt_clust_4="14000.00000" pt_clust_5="94.60395" pt_clust_6="32.11666"></scales>
<clustering>
<clus scale="   32.117">  2  6  1 -1</clus>
<clus scale="   44.829">  1  3  2 -1</clus>
<clus scale="   94.604">  2  5  1 -1</clus>
<clus scale="   44.829">  1  3  2 -1</clus>
</clustering>
</event>
<event>
 6    0  0.4227619E+002  0.1230686E+03  0.7546771E-02  0.1238119E+00
         21   -1    0    0  505  501  0.00000000000E+00  0.00000000000E+00  0.42791692455E+03  0.42791692455E+03  0.00000000000E+00 0. -1.
         21   -1    0    0  506  502 -0.00000000000E+00 -0.00000000000E+00 -0.91615841028E+03  0.91615841028E+03  0.00000000000E+00 0. -1.
         21    1    1    2  503  504 -0.46985781144E+01 -0.12678112384E+03 -0.25990263153E+03  0.28921429403E+03  0.00000000000E+00 0. -1.
         21    1    1    2  504  502  0.16477637884E+02 -0.29160952007E+02 -0.57542923260E+03  0.57640322293E+03  0.00000000000E+00 0. -1.
         21    1    1    2  505  503 -0.44976402300E+02  0.82580614281E+02 -0.25366876365E+02  0.97395652035E+02  0.00000000000E+00 0. -1.
         21    1    1    2  506  501  0.33197342531E+02  0.73361461570E+02  0.37245725477E+03  0.38106216583E+03  0.00000000000E+00 0. -1.
<scales pt_clust_3="123.06858" pt_clust_4="33.49438" pt_clust_5="14000.00000" pt_clust_6="80.27377"></scales>
<clustering>
<clus scale="   33.494">  2  4  1 -1</clus>
<clus scale="   80.274">  1  6  2 -1</clus>
<clus scale="  123.069">  2  3  1 -1</clus>
<clus scale="   80.274">  1  3  2 -1</clus>
</clustering>
</event>
<event>
 6    0  0.4227619E+002  0.1168040E+03  0.7546771E-02  0.1248465E+00
         21   -1    0    0  504  501  0.00000000000E+00  0.00000000000E+00  0.13372002302E+04  0.13372002302E+04  0.00000000000E+00 0. -1.
         21   -1    0    0  505  502 -0.00000000000E+00 -0.00000000000E+00 -0.10833323567E+04  0.10833323567E+04  0.00000000000E+00 0. -1.
         21    1    1    2  503  502  0.14493153208E+03 -0.14953666212E+02 -0.88317531460E+03  0.89511306406E+03  0.00000000000E+00 0. -1.
         21    1    1    2  504  503 -0.77247082931E+02  0.19205899697E+02  0.11055020987E+04  0.11083640505E+04  0.00000000000E+00 0. -1.
         21    1    1    2  505  506 -0.71233599127E+02  0.36597177463E+02 -0.18240725000E+03  0.19921341294E+03  0.00000000000E+00 0. -1.
         21    1    1    2  506  501  0.35491499740E+01 -0.40849410948E+02  0.21394833946E+03  0.21784205930E+03  0.00000000000E+00 0. -1.
<scales pt_clust_3="14000.00000" pt_clust_4="76.70818" pt_clust_5="116.80395" pt_clust_6="41.00330"></scales>
<clustering>
<clus scale="   41.003">  1  6  2 -1</clus>
<clus scale="   76.708">  1  4  2 -1</clus>
<clus scale="  116.804">  1  5  2 -1</clus>
<clus scale="   41.003">  1  3  2 -1</clus>
</clustering>
</event>
<event>
 6    0  0.4227619E+002  0.2195816E+03  0.7546771E-02  0.1134195E+00
         21   -1    0    0  506  501  0.00000000000E+00  0.00000000000E+00  0.13400644033E+04  0.13400644033E+04  0.00000000000E+00 0. -1.
         21   -1    0    0  504  502 -0.00000000000E+00 -0.00000000000E+00 -0.46814958565E+03  0.46814958565E+03  0.00000000000E+00 0. -1.
         21    1    1    2  503  501  0.12151955507E+03 -0.11217831450E+03  0.11420166525E+04  0.11539293788E+04  0.00000000000E+00 0. -1.
         21    1    1    2  504  505  0.78753184444E+02 -0.53454218211E+02 -0.56673131642E+02  0.11077572548E+03  0.00000000000E+00 0. -1.
         21    1    1    2  505  503 -0.27059470428E+03  0.15732062246E+03 -0.29870758199E+03  0.43266325448E+03  0.00000000000E+00 0. -1.
         21    1    1    2  506  502  0.70321964769E+02  0.83119102539E+01  0.85278878790E+02  0.11084563026E+03  0.00000000000E+00 0. -1.
<scales pt_clust_3="14000.00000" pt_clust_4="96.35188" pt_clust_5="219.58157" pt_clust_6="70.81149"></scales>
<clustering>
<clus scale="   70.811">  1  6  2 -1</clus>
<clus scale="   96.352">  2  4  1 -1</clus>
<clus scale="  219.582">  2  5  1 -1</clus>
<clus scale="   70.811">  1  3  2 -1</clus>
</clustering>
</event>
<event>
 6    0  0.4227619E+002  0.1595246E+03  0.7546771E-02  0.1189235E+00
         21   -1    0    0  503  501  0.00000000000E+00  0.00000000000E+00  0.35055385514E+03  0.35055385514E+03  0.00000000000E+00 0. -1.
         21   -1    0    0  506  502 -0.00000000000E+00 -0.00000000000E+00 -0.14758747348E+03  0.14758747348E+03  0.00000000000E+00 0.  1.
         21    1    1    2  503  502  0.15204821045E+03  0.17660780034E+02 -0.37665956080E+02  0.15763656207E+03  0.00000000000E+00 0.  1.
         21    1    1    2  504  501 -0.40801107419E+02 -0.99804761641E+01  0.33397243875E+02  0.53662986961E+02  0.00000000000E+00 0. -1.
         21    1    1    2  505  504 -0.97841640569E+02 -0.54299673488E+02  0.21032026682E+03  0.23823529505E+03  0.00000000000E+00 0. -1.
         21    1    1    2  506  505 -0.13405462462E+02  0.46619369618E+02 -0.30851729585E+01  0.48606484543E+02  0.00000000000E+00 0. -1.
<scales pt_clust_3="151.64254" pt_clust_4="30.34228" pt_clust_5="30.34228" pt_clust_6="48.50847"></scales>
<clustering>
<clus scale="   30.342">  4  5 -1 -1</clus>
<clus scale="   48.508">  2  6  1 -1</clus>
<clus scale="  151.643">  2  3  1 -1</clus>
<clus scale="  159.525">  1  3  2 -1</clus>
</clustering>
</event>
<event>
 6    0  0.4227619E+002  0.8945858E+02  0.7546771E-02  0.1304168E+00
         21   -1    0    0  504  501  0.00000000000E+00  0.00000000000E+00  0.70897881845E+03  0.70897881845E+03  0.00000000000E+00 0. -1.
         21   -1    0    0  503  502 -0.00000000000E+00 -0.00000000000E+00 -0.68885016779E+02  0.68885016779E+02  0.00000000000E+00 0. -1.
         21    1    1    2  503  501  0.24154396128E+01 -0.68585641643E+02  0.31226872739E+03  0.31972110142E+03  0.00000000000E+00 0. -1.
         21    1    1    2  504  505  0.15765644038E+02  0.90935861629E+02  0.10317453400E+03  0.13843002177E+03  0.00000000000E+00 0. -1.
         21    1    1    2  505  506  0.72696639573E+02  0.14292433470E+01  0.21298435686E+03  0.22505372783E+03  0.00000000000E+00 0. -1.
         21    1    1    2  506  502 -0.90877723224E+02 -0.23779463333E+02  0.11666183416E+02  0.94658984203E+02  0.00000000000E+00 0. -1.
<scales pt_clust_3="68.62816" pt_clust_4="71.77697" pt_clust_5="14000.00000" pt_clust_6="89.45858"></scales>
<clustering>
<clus scale="   68.628">  1  3  2 -1</clus>
<clus scale="   71.777">  1  4  2 -1</clus>
<clus scale="   89.459">  2  6  1 -1</clus>
<clus scale="   68.628">  1  3  2 -1</clus>
</clustering>
</event>
<event>
 6    0  0.4227619E+002  0.1193758E+03  0.7546771E-02  0.1244130E+00
         21   -1    0    0  503  501  0.00000000000E+00  0.00000000000E+00  0.21846420864E+03  0.21846420864E+03  0.00000000000E+00 0. -1.
         21   -1    0    0  506  502 -0.00000000000E+00 -0.00000000000E+00 -0.57788816414E+03  0.57788816414E+03  0.00000000000E+00 0. -1.
         21    1    1    2  503  504 -0.37403965547E+02 -0.64023337348E+02  0.55088585861E+02  0.92373138173E+02  0.00000000000E+00 0. -1.
         21    1    1    2  504  502 -0.94391283079E+02  0.55280199852E+02  0.26735126533E+02  0.11260720140E+03  0.00000000000E+00 0. -1.
         21    1    1    2  505  501  0.13087442988E+03 -0.26429915708E+02  0.14469800318E+02  0.13429829471E+03  0.00000000000E+00 0. -1.
         21    1    1    2  506  505  0.92081874584E+00  0.35173053205E+02 -0.45571746821E+03  0.45707373849E+03  0.00000000000E+00 0. -1.
<scales pt_clust_3="69.46614" pt_clust_4="14000.00000" pt_clust_5="119.37584" pt_clust_6="35.18510"></scales>
<clustering>
<clus scale="   35.185">  2  6  1 -1</clus>
<clus scale="   69.466">  1  3  2 -1</clus>
<clus scale="  119.376">  2  5  1 -1</clus>
<clus scale="   69.466">  1  3  2 -1</clus>
</clustering>
</event>
<event>
 6    0  0.4227619E+002  0.1068286E+03  0.7546771E-02  0.1266558E+00
         21   -1    0    0  506  501  0.00000000000E+00  0.00000000000E+00  0.19354962527E+04  0.19354962527E+04  0.00000000000E+00 0. -1.
         21   -1    0    0  505  502 -0.00000000000E+00 -0.00000000000E+00 -0.18982035501E+02  0.18982035501E+02  0.00000000000E+00 0. -1.
         21    1    1    2  503  504 -0.13772191205E+03  0.17186057468E+02  0.83022366926E+03  0.84174463267E+03  0.00000000000E+00 0. -1.
         21    1    1    2  504  502  0.45208911834E+02 -0.38368495826E+02  0.88650328251E+02  0.10665302565E+03  0.00000000000E+00 0. -1.
         21    1    1    2  505  501  0.82444125375E+02  0.50525449439E+02  0.82802444964E+03  0.83365121247E+03  0.00000000000E+00 0. -1.
         21    1    1    2  506  503  0.10068874840E+02 -0.29343011081E+02  0.16961577006E+03  0.17242941742E+03  0.00000000000E+00 0. -1.
<scales pt_clust_3="106.82864" pt_clust_4="60.77776" pt_clust_5="14000.00000" pt_clust_6="31.02248"></scales>
<clustering>
<clus scale="   31.022">  1  6  2 -1</clus>
<clus scale="   60.778">  2  4  1 -1</clus>
<clus scale="  106.829">  2  3  1 -1</clus>
<clus scale="   31.022">  1  3  2 -1</clus>
</clustering>
</event>
<event>
 6    0  0.4227619E+002  0.1126935E+03  0.7546771E-02  0.1255662E+00
         21   -1    0    0  503  501  0.00000000000E+00  0.00000000000E+00  0.13029296860E+04  0.13029296860E+04  0.00000000000E+00 0. -1.
         21   -1    0    0  506  502 -0.00000000000E+00 -0.00000000000E+00 -0.70726893158E+02  0.70726893158E+02  0.00000000000E+00 0.  1.
         21    1    1    2  503  504 -0.68778886691E+01 -0.29818418144E+02  0.40358485045E+03  0.40474334451E+03  0.00000000000E+00 0.  1.
         21    1    1    2  504  505 -0.28156939217E+02 -0.47400625193E+02 -0.83208034832E+01  0.55757226127E+02  0.00000000000E+00 0. -1.
         21    1    1    2  505  502  0.21658012929E+02 -0.51782400120E+02 -0.94233628165E+01  0.56914727910E+02  0.00000000000E+00 0.  1.
         21    1    1    2  506  501  0.13376814957E+02  0.12900144346E+03  0.84636210872E+03  0.85624128064E+03  0.00000000000E+00 0. -1.
<scales pt_clust_3="30.60136" pt_clust_4="49.61478" pt_clust_5="49.61478" pt_clust_6="100.99114"></scales>
<clustering>
<clus scale="   30.601">  1  3  2 -1</clus>
<clus scale="   49.615">  4  5 -1 -1</clus>
<clus scale="  100.991">  1  6  2 -1</clus>
<clus scale="   30.601">  1  3  2 -1</clus>
</clustering>
</event>
<event>
 6    0  0.4227619E+002  0.1047519E+03  0.7546771E-02  0.1270609E+00
         21   -1    0    0  504  501  0.00000000000E+00  0.00000000000E+00  0.17168193602E+03  0.17168193602E+03  0.00000000000E+00 0.  1.
         21   -1    0    0  503  502 -0.00000000000E+00 -0.00000000000E+00 -0.75386372409E+03  0.75386372409E+03  0.00000000000E+00 0.  1.
         21    1    1    2  503  501 -0.39011970083E+02 -0.17179684519E+02 -0.74524754880E+02  0.85854612339E+02  0.00000000000E+00 0. -1.
         21    1    1    2  504  505 -0.26305043567E+02 -0.91849704798E+02  0.82482956838E+02  0.12622108286E+03  0.00000000000E+00 0.  1.
         21    1    1    2  505  506  0.11067550773E+03  0.12190665107E+03 -0.51139402632E+02  0.17241095698E+03  0.00000000000E+00 0.  1.
         21    1    1    2  506  502 -0.45358494082E+02 -0.12877261748E+02 -0.53900058740E+03  0.54105900794E+03  0.00000000000E+00 0.  1.
<scales pt_clust_3="42.62717" pt_clust_4="104.75195" pt_clust_5="14000.00000" pt_clust_6="81.13263"></scales>
<clustering>
<clus scale="   42.627">  2  3  1 -1</clus>
<clus scale="   81.133">  2  6  1 -1</clus>
<clus scale="  104.752">  1  4  2 -1</clus>
<clus scale="  104.752">  1  3  2 -1</clus>
</clustering>
</event>
<event>
 6    0  0.4227619E+002  0.8075354E+02  0.7546771E-02  0.1326926E+00
         21   -1    0    0  504  501  0.00000000000E+00  0.00000000000E+00  0.11515675500E+03  0.11515675500E+03  0.00000000000E+00 0.  1.
         21   -1    0    0  503  502 -0.00000000000E+00 -0.00000000000E+00 -0.12056506314E+04  0.12056506314E+04  0.00000000000E+00 0.  1.
         21    1    1    2  503  505 -0.13700323697E+02  0.74462885385E+02 -0.22100588168E+03  0.23361511062E+03  0.00000000000E+00 0.  1.
         21    1    1    2  504  502 -0.40471338858E+02 -0.34578647940E+01 -0.86499278013E+03  0.86594595430E+03  0.00000000000E+00 0.  1.
         21    1    1    2  505  506 -0.40112389477E+01 -0.87967785930E+02 -0.83715888536E+02  0.12150214563E+03  0.00000000000E+00 0.  1.
         21    1    1    2  506  501  0.58182901502E+02  0.16962765339E+02  0.79220673954E+02  0.99744175854E+02  0.00000000000E+00 0.  1.
<scales pt_clust_3="14000.00000" pt_clust_4="40.61879" pt_clust_5="80.75354" pt_clust_6="59.40441"></scales>
<clustering>
<clus scale="   40.619">  2  4  1 -1</clus>
<clus scale="   59.404">  1  6  2 -1</clus>
<clus scale="   80.754">  1  5  2 -1</clus>
<clus scale="   59.404">  1  3  2 -1</clus>
</clustering>
</event>
<event>
 6    0  0.4227619E+002  0.2581660E+03  0.7546771E-02  0.1108250E+00
         21   -1    0    0  506  501  0.00000000000E+00  0.00000000000E+00  0.68684986343E+03  0.68684986343E+03  0.00000000000E+00 0.  1.
         21   -1    0    0  503  502 -0.00000000000E+00 -0.00000000000E+00 -0.17930340337E+03  0.17930340337E+03  0.00000000000E+00 0.  1.
         21    1    1    2  503  505  0.12290480016E+03  0.50896955624E+02  0.12092180863E+02  0.13357511307E+03  0.00000000000E+00 0.  1.
         21    1    1    2  504  501 -0.22480031908E+03 -0.16114336340E+03  0.44453735836E+03  0.52356072236E+03  0.00000000000E+00 0.  1.
         21    1    1    2  505  504  0.55906816866E+02  0.18994170046E+00 -0.31371826833E+02  0.64107720041E+02  0.00000000000E+00 0.  1.
         21    1    1    2  506  502  0.45988702056E+02  0.11005646608E+03  0.82288747672E+02  0.14490971132E+03  0.00000000000E+00 0. -1.
<scales pt_clust_3="41.62828" pt_clust_4="250.05272" pt_clust_5="41.62828" pt_clust_6="119.27861"></scales>
<clustering>
<clus scale="   41.628">  3  5 -1 -1</clus>
<clus scale="  119.279">  2  6  1 -1</clus>
<clus scale="  250.053">  1  4  2 -1</clus>
<clus scale="  250.053">  1  3  2 -1</clus>
</clustering>
</event>
<event>
 6    0  0.4227619E+002  0.8199117E+02  0.7546771E-02  0.1323494E+00
         21   -1    0    0  506  501  0.00000000000E+00  0.00000000000E+00  0.45248117824E+03  0.45248117824E+03  0.00000000000E+00 0.  1.
         21   -1    0    0  505  502 -0.00000000000E+00 -0.00000000000E+00 -0.13217879356E+04  0.13217879356E+04  0.00000000000E+00 0. -1.
         21    1    1    2  503  504  0.42242997552E+02 -0.10171511093E+03  0.13967316707E+03  0.17787362996E+03  0.00000000000E+00 0.  1.
         21    1    1    2  504  501  0.41559728007E+02  0.26668952205E+02  0.25560284727E+03  0.26032913694E+03  0.00000000000E+00 0.  1.
         21    1    1    2  505  503 -0.25317310564E+02  0.77743194159E+02 -0.12741255218E+04  0.12767461830E+04  0.00000000000E+00 0. -1.
         21    1    1    2  506  502 -0.58485414995E+02 -0.26970354323E+01  0.95427501301E+01  0.59320163918E+02  0.00000000000E+00 0.  1.
<scales pt_clust_3="81.99117" pt_clust_4="49.38060" pt_clust_5="14000.00000" pt_clust_6="51.16889"></scales>
<clustering>
<clus scale="   49.381">  1  4  2 -1</clus>
<clus scale="   51.169">  1  6  2 -1</clus>
<clus scale="   81.991">  1  3  2 -1</clus>
<clus scale="   49.381">  1  3  2 -1</clus>
</clustering>
</event>
<event>
 6    0  0.4227619E+002  0.7659104E+02  0.7546771E-02  0.1339014E+00
         21   -1    0    0  506  501  0.00000000000E+00  0.00000000000E+00  0.65739733314E+03  0.65739733314E+03  0.00000000000E+00 0.  1.
         21   -1    0    0  505  502 -0.00000000000E+00 -0.00000000000E+00 -0.13292491431E+04  0.13292491431E+04  0.00000000000E+00 0. -1.
         21    1    1    2  503  504  0.98130207282E+02  0.73830380661E+02 -0.42956449500E+03  0.44677300506E+03  0.00000000000E+00 0.  1.
         21    1    1    2  504  501  0.69617554721E+01 -0.48382110319E+02  0.17097508447E+03  0.17782512238E+03  0.00000000000E+00 0.  1.
         21    1    1    2  505  503 -0.52762688757E+02 -0.44981241454E+02 -0.88465008390E+03  0.88736293835E+03  0.00000000000E+00 0. -1.
         21    1    1    2  506  502 -0.52329273997E+02  0.19532971112E+02  0.47138768444E+03  0.47468541047E+03  0.00000000000E+00 0.  1.
<scales pt_clust_3="14000.00000" pt_clust_4="48.88041" pt_clust_5="76.59104" pt_clust_6="53.35689"></scales>
<clustering>
<clus scale="   48.880">  1  4  2 -1</clus>
<clus scale="   53.357">  1  6  2 -1</clus>
<clus scale="   76.591">  2  5  1 -1</clus>
<clus scale="   48.880">  1  3  2 -1</clus>
</clustering>
</event>
<event>
 6    0  0.4227619E+002  0.1124827E+03  0.7546771E-02  0.1256040E+00
         21   -1    0    0  505  501  0.00000000000E+00  0.00000000000E+00  0.12140886381E+03  0.12140886381E+03  0.00000000000E+00 0. -1.
         21   -1    0    0  503  502 -0.00000000000E+00 -0.00000000000E+00 -0.11327684483E+04  0.11327684483E+04  0.00000000000E+00 0.  1.
         21    1    1    2  503  501 -0.53934413692E+02  0.32940004299E+02  0.84069361030E+02  0.10517424745E+03  0.00000000000E+00 0. -1.
         21    1    1    2  504  506 -0.12297309097E+02  0.11890559940E+03 -0.38252290614E+03  0.40076619006E+03  0.00000000000E+00 0.  1.
         21    1    1    2  505  504  0.13275624957E+02 -0.53299673496E+02 -0.44947274510E+02  0.70974325630E+02  0.00000000000E+00 0.  1.
         21    1    1    2  506  502  0.52956097831E+02 -0.98545930201E+02 -0.66795876488E+03  0.67726254897E+03  0.00000000000E+00 0.  1.
<scales pt_clust_3="44.47206" pt_clust_4="112.48273" pt_clust_5="54.92811" pt_clust_6="14000.00000"></scales>
<clustering>
<clus scale="   54.928">  1  5  2 -1</clus>
<clus scale="   44.472">  1  3  2 -1</clus>
<clus scale="  112.483">  1  4  2 -1</clus>
<clus scale="   54.928">  1  3  2 -1</clus>
</clustering>
</event>
<event>
 6    0  0.4227619E+002  0.1391581E+03  0.7546771E-02  0.1214466E+00
         21   -1    0    0  505  501  0.00000000000E+00  0.00000000000E+00  0.79792487744E+03  0.79792487744E+03  0.00000000000E+00 0.  1.
         21   -1    0    0  506  502 -0.00000000000E+00 -0.00000000000E+00 -0.37486670622E+03  0.37486670622E+03  0.00000000000E+00 0.  1.
         21    1    1    2  503  501 -0.23928099831E+02  0.38905317006E+02  0.34831693151E+03  0.35129882213E+03  0.00000000000E+00 0.  1.
         21    1    1    2  504  502 -0.82463154560E+02  0.14633572458E+02 -0.20530466353E+02  0.86231162299E+02  0.00000000000E+00 0.  1.
         21    1    1    2  505  504  0.14583690366E+03  0.33962399760E+02  0.39399880938E+03  0.42149366408E+03  0.00000000000E+00 0.  1.
         21    1    1    2  506  503 -0.39445649269E+02 -0.87501289224E+02 -0.29872710333E+03  0.31376793514E+03  0.00000000000E+00 0.  1.
<scales pt_clust_3="45.67469" pt_clust_4="86.01334" pt_clust_5="14000.00000" pt_clust_6="139.15812"></scales>
<clustering>
<clus scale="   45.675">  1  3  2 -1</clus>
<clus scale="   86.013">  2  4  1 -1</clus>
<clus scale="  139.158">  2  6  1 -1</clus>
<clus scale="   45.675">  1  3  2 -1</clus>
</clustering>
</event>
<event>
 6    0  0.4227619E+002  0.1126075E+03  0.7546771E-02  0.1255816E+00
         21   -1    0    0  506  501  0.00000000000E+00  0.00000000000E+00  0.18774910857E+03  0.18774910857E+03  0.00000000000E+00 0.  1.
         21   -1    0    0  504  502 -0.00000000000E+00 -0.00000000000E+00 -0.20467455967E+03  0.20467455967E+03  0.00000000000E+00 0.  1.
         21    1    1    2  503  502  0.91864158105E+02  0.11395818964E+03 -0.79332098858E+02  0.16649046351E+03  0.00000000000E+00 0.  1.
         21    1    1    2  504  505 -0.22376469572E+02 -0.81167499475E+02  0.53744170306E+00  0.84197138937E+02  0.00000000000E+00 0.  1.
         21    1    1    2  505  501 -0.56108227697E+02  0.39658686762E+01 -0.12578797966E+02  0.57637552758E+02  0.00000000000E+00 0.  1.
         21    1    1    2  506  503 -0.13379460836E+02 -0.36756558844E+02  0.74448004022E+02  0.84098513025E+02  0.00000000000E+00 0.  1.
<scales pt_clust_3="14000.00000" pt_clust_4="112.60753" pt_clust_5="59.00115" pt_clust_6="39.11591"></scales>
<clustering>
<clus scale="   39.116">  1  6  2 -1</clus>
<clus scale="   59.001">  1  5  2 -1</clus>
<clus scale="  112.608">  2  4  1 -1</clus>
<clus scale="   39.116">  1  3  2 -1</clus>
</clustering>
</event>
<event>
 6    0  0.4227619E+002  0.1311780E+03  0.7546771E-02  0.1225718E+00
         21   -1    0    0  506  501  0.00000000000E+00  0.00000000000E+00  0.11500473058E+04  0.11500473058E+04  0.00000000000E+00 0. -1.
         21   -1    0    0  505  502 -0.00000000000E+00 -0.00000000000E+00 -0.68806574185E+03  0.68806574185E+03  0.00000000000E+00 0. -1.
         21    1    1    2  503  504 -0.22276454730E+03  0.32683693095E+02  0.24231079715E+02  0.22644958059E+03  0.00000000000E+00 0. -1.
         21    1    1    2  504  502  0.11406439810E+03  0.58073490131E+02 -0.56799403447E+03  0.58223744328E+03  0.00000000000E+00 0. -1.
         21    1    1    2  505  501  0.58960776097E+02 -0.79481666468E+02  0.21109119611E+03  0.23313773074E+03  0.00000000000E+00 0. -1.
         21    1    1    2  506  503  0.49739373094E+02 -0.11275516758E+02  0.79465332257E+03  0.79628829301E+03  0.00000000000E+00 0. -1.
<scales pt_clust_3="131.17800" pt_clust_4="14000.00000" pt_clust_5="124.94552" pt_clust_6="51.00140"></scales>
<clustering>
<clus scale="   51.001">  1  6  2 -1</clus>
<clus scale="  124.946">  1  5  2 -1</clus>
<clus scale="  131.178">  1  3  2 -1</clus>
<clus scale="   51.001">  1  3  2 -1</clus>
</clustering>
</event>
<event>
 6    0  0.4227619E+002  0.1121848E+03  0.7546771E-02  0.1256577E+00
         21   -1    0    0  506  501  0.00000000000E+00  0.00000000000E+00  0.30885771840E+03  0.30885771840E+03  0.00000000000E+00 0.  1.
         21   -1    0    0  503  502 -0.00000000000E+00 -0.00000000000E+00 -0.47711000457E+03  0.47711000457E+03  0.00000000000E+00 0.  1.
         21    1    1    2  503  504 -0.45631940567E+02 -0.13802790262E+02 -0.46426877901E+02  0.66545067515E+02  0.00000000000E+00 0.  1.
         21    1    1    2  504  501  0.10170567107E+03  0.16583461601E+03  0.19965309356E+03  0.27875889432E+03  0.00000000000E+00 0.  1.
         21    1    1    2  505  502 -0.70541017711E+01 -0.84646096209E+02 -0.34401082783E+03  0.35434188522E+03  0.00000000000E+00 0.  1.
         21    1    1    2  506  505 -0.49019628737E+02 -0.67385729535E+02  0.22532325996E+02  0.86321875914E+02  0.00000000000E+00 0.  1.
<scales pt_clust_3="47.67380" pt_clust_4="112.18482" pt_clust_5="14000.00000" pt_clust_6="86.23871"></scales>
<clustering>
<clus scale="   47.674">  2  3  1 -1</clus>
<clus scale="   86.239">  1  6  2 -1</clus>
<clus scale="  112.185">  1  4  2 -1</clus>
<clus scale="   86.239">  1  3  2 -1</clus>
</clustering>
</event>
<event>
 6    0  0.4227619E+002  0.1011261E+03  0.7546771E-02  0.1277946E+00
         21   -1    0    0  504  501  0.00000000000E+00  0.00000000000E+00  0.53421763784E+02  0.53421763784E+02  0.00000000000E+00 0.  1.
         21   -1    0    0  503  502 -0.00000000000E+00 -0.00000000000E+00 -0.74752984506E+03  0.74752984506E+03  0.00000000000E+00 0. -1.
         21    1    1    2  503  501 -0.91309616587E+02 -0.13864260703E+01 -0.52840439910E+02  0.10550583087E+03  0.00000000000E+00 0.  1.
         21    1    1    2  504  505  0.12668811166E+03  0.13347432686E+02 -0.18995489280E+03  0.22871574693E+03  0.00000000000E+00 0. -1.
         21    1    1    2  505  506 -0.52519323173E+02 -0.44251823482E+02 -0.17473668119E+03  0.18774826482E+03  0.00000000000E+00 0. -1.
         21    1    1    2  506  502  0.17140828104E+02  0.32290816867E+02 -0.27657606737E+03  0.27898176623E+03  0.00000000000E+00 0.  1.
<scales pt_clust_3="101.12609" pt_clust_4="14000.00000" pt_clust_5="55.84049" pt_clust_6="36.55824"></scales>
<clustering>
<clus scale="   36.558">  2  6  1 -1</clus>
<clus scale="   55.840">  2  5  1 -1</clus>
<clus scale="  101.126">  1  3  2 -1</clus>
<clus scale="  101.126">  1  3  2 -1</clus>
</clustering>
</event>
<event>
 6    0  0.4227619E+002  0.1441478E+03  0.7546771E-02  0.1207854E+00
         21   -1    0    0  506  501  0.00000000000E+00  0.00000000000E+00  0.50624072140E+03  0.50624072140E+03  0.00000000000E+00 0.  1.
         21   -1    0    0  505  502 -0.00000000000E+00 -0.00000000000E+00 -0.70401520205E+03  0.70401520205E+03  0.00000000000E+00 0.  1.
         21    1    1    2  503  501 -0.41050485957E+02 -0.49565498615E+02 -0.11230325563E+03  0.12943686598E+03  0.00000000000E+00 0.  1.
         21    1    1    2  504  503 -0.69287169953E+02  0.10741308659E+03 -0.19229924321E+03  0.23090535297E+03  0.00000000000E+00 0.  1.
         21    1    1    2  505  504  0.11398166583E+03 -0.11291706439E+03 -0.35249251268E+03  0.38728936866E+03  0.00000000000E+00 0.  1.
         21    1    1    2  506  502 -0.36440099193E+01  0.55069476414E+02  0.45932053087E+03  0.46262433585E+03  0.00000000000E+00 0.  1.
<scales pt_clust_3="57.22305" pt_clust_4="144.14778" pt_clust_5="14000.00000" pt_clust_6="55.18991"></scales>
<clustering>
<clus scale="   55.190">  1  6  2 -1</clus>
<clus scale="   57.223">  1  3  2 -1</clus>
<clus scale="  144.148">  1  4  2 -1</clus>
<clus scale="   55.190">  1  3  2 -1</clus>
</clustering>
</event>
<event>
 6    0  0.4227619E+002  0.1023325E+03  0.7546771E-02  0.1275466E+00
         21   -1    0    0  503  501  0.00000000000E+00  0.00000000000E+00  0.95026703113E+02  0.95026703113E+02  0.00000000000E+00 0.  1.
         21   -1    0    0  505  502 -0.00000000000E+00 -0.00000000000E+00 -0.39083073588E+03  0.39083073588E+03  0.00000000000E+00 0.  1.
         21    1    1    2  503  506  0.49289598687E+02  0.18590295215E+02  0.46631360532E+01  0.52884860336E+02  0.00000000000E+00 0.  1.
         21    1    1    2  504  502  0.59197670609E+02  0.82424059527E+02 -0.20762442139E+03  0.23109736076E+03  0.00000000000E+00 0.  1.
         21    1    1    2  505  501 -0.11866998326E+02 -0.46627569177E+02  0.11666935878E+02  0.49508314952E+02  0.00000000000E+00 0.  1.
         21    1    1    2  506  504 -0.96620270970E+02 -0.54386785565E+02 -0.10450968331E+03  0.15236690294E+03  0.00000000000E+00 0.  1.
<scales pt_clust_3="44.04713" pt_clust_4="14000.00000" pt_clust_5="48.11399" pt_clust_6="102.33250"></scales>
<clustering>
<clus scale="   48.114">  1  5  2 -1</clus>
<clus scale="   44.047">  1  3  2 -1</clus>
<clus scale="  102.333">  1  6  2 -1</clus>
<clus scale="   48.114">  1  3  2 -1</clus>
</clustering>
</event>
<event>
 6    0  0.4227619E+002  0.1457122E+03  0.7546771E-02  0.1205843E+00
         21   -1    0    0  504  501  0.00000000000E+00  0.00000000000E+00  0.47915032894E+03  0.47915032894E+03  0.00000000000E+00 0. -1.
         21   -1    0    0  506  502 -0.00000000000E+00 -0.00000000000E+00 -0.90540690495E+03  0.90540690495E+03  0.00000000000E+00 0.  1.
         21    1    1    2  503  505 -0.51657199227E+02 -0.10822478823E+03  0.10126020071E+03  0.15695444965E+03  0.00000000000E+00 0. -1.
         21    1    1    2  504  503 -0.69599331789E+01  0.36459088749E+02  0.31930252396E+03  0.32145265223E+03  0.00000000000E+00 0. -1.
         21    1    1    2  505  502  0.60979716192E+02  0.13376151149E+03 -0.82852880768E+03  0.84146934163E+03  0.00000000000E+00 0.  1.
         21    1    1    2  506  501 -0.23625837869E+01 -0.61995812013E+02 -0.18290492998E+02  0.64680790374E+02  0.00000000000E+00 0. -1.
<scales pt_clust_3="145.71224" pt_clust_4="37.11746" pt_clust_5="14000.00000" pt_clust_6="56.77017"></scales>
<clustering>
<clus scale="   37.117">  1  4  2 -1</clus>
<clus scale="   56.770">  1  6  2 -1</clus>
<clus scale="  145.712">  1  3  2 -1</clus>
<clus scale="   37.117">  1  3  2 -1</clus>
</clustering>
</event>
<event>
 6    0  0.4227619E+002  0.9027794E+02  0.7546771E-02  0.1302180E+00
         21   -1    0    0  504  501  0.00000000000E+00  0.00000000000E+00  0.20827987134E+03  0.20827987134E+03  0.00000000000E+00 0. -1.
         21   -1    0    0  505  502 -0.00000000000E+00 -0.00000000000E+00 -0.42685567804E+03  0.42685567804E+03  0.00000000000E+00 0. -1.
         21    1    1    2  503  502  0.65124005379E+02  0.15102006554E+02 -0.42839707291E+01  0.66989246030E+02  0.00000000000E+00 0. -1.
         21    1    1    2  504  503  0.13477406378E+02 -0.46658956236E+02  0.93922482869E+02  0.10573614078E+03  0.00000000000E+00 0. -1.
         21    1    1    2  505  506 -0.91194270780E+02 -0.25855620089E+02 -0.36714148026E+03  0.37918039854E+03  0.00000000000E+00 0. -1.
         21    1    1    2  506  501  0.12592859023E+02  0.57412569770E+02  0.58927161418E+02  0.83229764020E+02  0.00000000000E+00 0. -1.
<scales pt_clust_3="14000.00000" pt_clust_4="48.56644" pt_clust_5="90.27794" pt_clust_6="34.33721"></scales>
<clustering>
<clus scale="   48.566">  1  4  2 -1</clus>
<clus scale="   34.337">  1  6  2 -1</clus>
<clus scale="   90.278">  2  5  1 -1</clus>
<clus scale="   48.566">  1  3  2 -1</clus>
</clustering>
</event>
<event>
 6    0  0.4227619E+002  0.7257599E+02  0.7546771E-02  0.1351546E+00
         21   -1    0    0  505  501  0.00000000000E+00  0.00000000000E+00  0.55285176683E+03  0.55285176683E+03  0.00000000000E+00 0.  1.
         21   -1    0    0  504  502 -0.00000000000E+00 -0.00000000000E+00 -0.16626114329E+03  0.16626114329E+03  0.00000000000E+00 0.  1.
         21    1    1    2  503  506  0.36625988539E+02  0.51858772712E+02  0.24974227852E+02  0.68223950344E+02  0.00000000000E+00 0.  1.
         21    1    1    2  504  501 -0.69593251289E+02 -0.37460456214E+02  0.23194618334E+03  0.24504191146E+03  0.00000000000E+00 0. -1.
         21    1    1    2  505  503 -0.33751258729E+02  0.16626274325E+02  0.25648631401E+03  0.25923118975E+03  0.00000000000E+00 0.  1.
         21    1    1    2  506  502  0.66718521478E+02 -0.31024590823E+02 -0.12681610166E+03  0.14661585857E+03  0.00000000000E+00 0.  1.
<scales pt_clust_3="62.83291" pt_clust_4="72.57599" pt_clust_5="37.62420" pt_clust_6="14000.00000"></scales>
<clustering>
<clus scale="   37.624">  1  5  2 -1</clus>
<clus scale="   62.833">  1  3  2 -1</clus>
<clus scale="   72.576">  1  4  2 -1</clus>
<clus scale="   37.624">  1  3  2 -1</clus>
</clustering>
</event>
<event>
 6    0  0.4227619E+002  0.1126955E+03  0.7546771E-02  0.1255658E+00
         21   -1    0    0  503  501  0.00000000000E+00  0.00000000000E+00  0.17601042533E+03  0.17601042533E+03  0.00000000000E+00 0. -1.
         21   -1    0    0  504  502 -0.00000000000E+00 -0.00000000000E+00 -0.20761253891E+04  0.20761253891E+04  0.00000000000E+00 0. -1.
         21    1    1    2  503  505  0.47039271098E+02 -0.65127645199E+01  0.12621233884E+03  0.13485052319E+03  0.00000000000E+00 0. -1.
         21    1    1    2  504  501 -0.95759091064E+02 -0.14076301206E+02 -0.17534280120E+04  0.17560973034E+04  0.00000000000E+00 0. -1.
         21    1    1    2  505  506  0.67805670372E+02 -0.14155380656E+02  0.14749576295E+02  0.70820433047E+02  0.00000000000E+00 0. -1.
         21    1    1    2  506  502 -0.19085850406E+02  0.34744446381E+02 -0.28764886686E+03  0.29036755474E+03  0.00000000000E+00 0.  1.
<scales pt_clust_3="47.43084" pt_clust_4="112.69550" pt_clust_5="14000.00000" pt_clust_6="39.64147"></scales>
<clustering>
<clus scale="   39.641">  2  6  1 -1</clus>
<clus scale="   47.431">  1  3  2 -1</clus>
<clus scale="  112.695">  2  4  1 -1</clus>
<clus scale="   47.431">  1  3  2 -1</clus>
</clustering>
</event>
<event>
 6    0  0.4227619E+002  0.1087295E+03  0.7546771E-02  0.1262941E+00
         21   -1    0    0  504  501  0.00000000000E+00  0.00000000000E+00  0.38130082473E+03  0.38130082473E+03  0.00000000000E+00 0. -1.
         21   -1    0    0  505  502 -0.00000000000E+00 -0.00000000000E+00 -0.63394961475E+03  0.63394961475E+03  0.00000000000E+00 0.  1.
         21    1    1    2  503  502  0.85502304679E+02 -0.24149759153E+02  0.25571380220E+02  0.92454045119E+02  0.00000000000E+00 0. -1.
         21    1    1    2  504  503 -0.10085515917E+03  0.23342517150E+02  0.26541730628E+03  0.28489117697E+03  0.00000000000E+00 0. -1.
         21    1    1    2  505  506  0.30209439023E+02 -0.26847065352E+02 -0.58476834921E+03  0.58616328558E+03  0.00000000000E+00 0.  1.
         21    1    1    2  506  501 -0.14856584531E+02  0.27654307355E+02  0.41130872692E+02  0.51741931812E+02  0.00000000000E+00 0. -1.
<scales pt_clust_3="108.72947" pt_clust_4="14000.00000" pt_clust_5="40.35365" pt_clust_6="31.39234"></scales>
<clustering>
<clus scale="   31.392">  1  6  2 -1</clus>
<clus scale="   40.354">  2  5  1 -1</clus>
<clus scale="  108.729">  2  3  1 -1</clus>
<clus scale="   31.392">  1  3  2 -1</clus>
</clustering>
</event>
<event>
 6    0  0.4227619E+002  0.1049907E+03  0.7546771E-02  0.1270138E+00
         21   -1    0    0  502  501  0.00000000000E+00  0.00000000000E+00  0.10142497718E+03  0.10142497718E+03  0.00000000000E+00 0. -1.
         21   -1    0    0  506  502 -0.00000000000E+00 -0.00000000000E+00 -0.68090322874E+03  0.68090322874E+03  0.00000000000E+00 0.  1.
         21    1    1    2  503  501 -0.70983859104E+01 -0.49963721918E+02  0.52105897323E+02  0.72538163240E+02  0.00000000000E+00 0. -1.
         21    1    1    2  504  503  0.30285339804E+02 -0.85037877048E+02 -0.42106360203E+02  0.99607167963E+02  0.00000000000E+00 0. -1.
         21    1    1    2  505  504 -0.49260437981E+02  0.60657434772E+02 -0.32185230018E+03  0.33120208072E+03  0.00000000000E+00 0.  1.
         21    1    1    2  506  505  0.26073484087E+02  0.74344164195E+02 -0.26762548850E+03  0.27898079399E+03  0.00000000000E+00 0.  1.
<scales pt_clust_3="50.46544" pt_clust_4="14000.00000" pt_clust_5="104.99074" pt_clust_6="71.61111"></scales>
<clustering>
<clus scale="   50.465">  1  3  2 -1</clus>
<clus scale="   71.611">  2  6  1 -1</clus>
<clus scale="  104.991">  2  5  1 -1</clus>
<clus scale="   50.465">  1  3  2 -1</clus>
</clustering>
</event>
<event>
 6    0  0.4227619E+002  0.1253138E+03  0.7546771E-02  0.1234580E+00
         21   -1    0    0  504  501  0.00000000000E+00  0.00000000000E+00  0.67354527586E+03  0.67354527586E+03  0.00000000000E+00 0. -1.
         21   -1    0    0  503  502 -0.00000000000E+00 -0.00000000000E+00 -0.28386407361E+03  0.28386407361E+03  0.00000000000E+00 0. -1.
         21    1    1    2  503  505  0.64269780352E+01 -0.10843792948E+03  0.40255738605E+03  0.41695628028E+03  0.00000000000E+00 0. -1.
         21    1    1    2  504  506 -0.98056625632E+01  0.10278253456E+03 -0.81914983166E+02  0.13179705951E+03  0.00000000000E+00 0. -1.
         21    1    1    2  505  501 -0.37048053281E+02 -0.18286810168E+02  0.23375071490E+03  0.23737388735E+03  0.00000000000E+00 0. -1.
         21    1    1    2  506  502  0.40426737809E+02  0.23942205095E+02 -0.16471191553E+03  0.17128212234E+03  0.00000000000E+00 0. -1.
<scales pt_clust_3="125.31377" pt_clust_4="14000.00000" pt_clust_5="41.31544" pt_clust_6="46.67559"></scales>
<clustering>
<clus scale="   41.315">  1  5  2 -1</clus>
<clus scale="   46.676">  2  6  1 -1</clus>
<clus scale="  125.314">  1  3  2 -1</clus>
<clus scale="   41.315">  1  3  2 -1</clus>
</clustering>
</event>
<event>
 6    0  0.4227619E+002  0.8495455E+02  0.7546771E-02  0.1315551E+00
         21   -1    0    0  503  501  0.00000000000E+00  0.00000000000E+00  0.10681222540E+03  0.10681222540E+03  0.00000000000E+00 0. -1.
         21   -1    0    0  506  502 -0.00000000000E+00 -0.00000000000E+00 -0.93634329053E+03  0.93634329053E+03  0.00000000000E+00 0. -1.
         21    1    1    2  503  504  0.48115587879E+02  0.69999050124E+02  0.68655462154E+02  0.10921789825E+03  0.00000000000E+00 0. -1.
         21    1    1    2  504  505 -0.66151189765E+02 -0.57256095552E+02 -0.11603391099E+03  0.14532071045E+03  0.00000000000E+00 0. -1.
         21    1    1    2  505  502  0.42626538685E+02 -0.36506013339E+02 -0.29669436771E+03  0.30195572298E+03  0.00000000000E+00 0. -1.
         21    1    1    2  506  501 -0.24590936799E+02  0.23763058767E+02 -0.48545824859E+03  0.48666118426E+03  0.00000000000E+00 0. -1.
<scales pt_clust_3="84.95455" pt_clust_4="14000.00000" pt_clust_5="33.45912" pt_clust_6="34.19645"></scales>
<clustering>
<clus scale="   34.196">  2  6  1 -1</clus>
<clus scale="   33.459">  2  5  1 -1</clus>
<clus scale="   84.955">  1  3  2 -1</clus>
<clus scale="   84.955">  1  3  2 -1</clus>
</clustering>
</event>
<event>
 6    0  0.4227619E+002  0.1014219E+03  0.7546771E-02  0.1277334E+00
         21   -1    0    0  503  501  0.00000000000E+00  0.00000000000E+00  0.89311354021E+03  0.89311354021E+03  0.00000000000E+00 0.  1.
         21   -1    0    0  504  502 -0.00000000000E+00 -0.00000000000E+00 -0.64891441636E+02  0.64891441636E+02  0.00000000000E+00 0. -1.
         21    1    1    2  503  506 -0.21060501860E+02  0.12724149454E+03  0.58719289441E+03  0.60119001814E+03  0.00000000000E+00 0.  1.
         21    1    1    2  504  501  0.73175145190E+02 -0.55331181170E+01  0.41319424676E+01  0.73500273592E+02  0.00000000000E+00 0. -1.
         21    1    1    2  505  502 -0.11844361058E+02 -0.49755520295E+02  0.27070486432E+02  0.57868056165E+02  0.00000000000E+00 0. -1.
         21    1    1    2  506  505 -0.40270282272E+02 -0.71952856127E+02  0.20982677526E+03  0.22544663394E+03  0.00000000000E+00 0. -1.
<scales pt_clust_3="101.42190" pt_clust_4="76.42647" pt_clust_5="51.14588" pt_clust_6="14000.00000"></scales>
<clustering>
<clus scale="   51.146">  2  5  1 -1</clus>
<clus scale="   76.426">  2  4  1 -1</clus>
<clus scale="  101.422">  1  3  2 -1</clus>
<clus scale="  101.422">  1  3  2 -1</clus>
</clustering>
</event>
<event>
 6    0  0.4227619E+002  0.8471457E+02  0.7546771E-02  0.1316181E+00
         21   -1    0    0  504  501  0.00000000000E+00  0.00000000000E+00  0.20304550182E+04  0.20304550182E+04  0.00000000000E+00 0. -1.
         21   -1    0    0  503  502 -0.00000000000E+00 -0.00000000000E+00 -0.17398472324E+03  0.17398472324E+03  0.00000000000E+00 0.  1.
         21    1    1    2  503  505 -0.31494257328E+01  0.32705495652E+02  0.95750831450E+01  0.34223537887E+02  0.00000000000E+00 0.  1.
         21    1    1    2  504  506 -0.79336963011E+02 -0.91832558336E+02  0.18599181135E+04  0.18638731076E+04  0.00000000000E+00 0. -1.
         21    1    1    2  505  501  0.13521147158E+02  0.38619380813E+02  0.13537449997E+03  0.14142324151E+03  0.00000000000E+00 0.  1.
         21    1    1    2  506  502  0.68965241587E+02  0.20507681872E+02 -0.14839740165E+03  0.16491985442E+03  0.00000000000E+00 0.  1.
<scales pt_clust_3="32.85679" pt_clust_4="84.71457" pt_clust_5="41.47676" pt_clust_6="14000.00000"></scales>
<clustering>
<clus scale="   32.857">  2  3  1 -1</clus>
<clus scale="   41.477">  1  5  2 -1</clus>
<clus scale="   84.715">  1  4  2 -1</clus>
<clus scale="   41.477">  1  3  2 -1</clus>
</clustering>
</event>
<event>
 6    0  0.4227619E+002  0.9621368E+02  0.7546771E-02  0.1288466E+00
         21   -1    0    0  504  501  0.00000000000E+00  0.00000000000E+00  0.30226316587E+03  0.30226316587E+03  0.00000000000E+00 0.  1.
         21   -1    0    0  506  502 -0.00000000000E+00 -0.00000000000E+00 -0.32622690940E+04  0.32622690940E+04  0.00000000000E+00 0.  1.
         21    1    1    2  503  505 -0.13264635197E+03 -0.41716935286E+02  0.26111344394E+01  0.13907614966E+03  0.00000000000E+00 0. -1.
         21    1    1    2  504  503  0.97796159867E+01 -0.34335121481E+02  0.21543489289E+03  0.21837292536E+03  0.00000000000E+00 0.  1.
         21    1    1    2  505  502  0.90174342840E+02  0.32265181453E+02 -0.31376821604E+04  0.31391434809E+04  0.00000000000E+00 0.  1.
         21    1    1    2  506  501  0.32692393143E+02  0.43786875314E+02 -0.40369795106E+02  0.67939703974E+02  0.00000000000E+00 0. -1.
<scales pt_clust_3="14000.00000" pt_clust_4="35.70072" pt_clust_5="96.21368" pt_clust_6="51.35174"></scales>
<clustering>
<clus scale="   35.701">  1  4  2 -1</clus>
<clus scale="   51.352">  1  6  2 -1</clus>
<clus scale="   96.214">  2  5  1 -1</clus>
<clus scale="   35.701">  1  3  2 -1</clus>
</clustering>
</event>
<event>
 6    0  0.4227619E+002  0.1010585E+03  0.7546771E-02  0.1278086E+00
         21   -1    0    0  505  501  0.00000000000E+00  0.00000000000E+00  0.74365955758E+03  0.74365955758E+03  0.00000000000E+00 0. -1.
         21   -1    0    0  503  502 -0.00000000000E+00 -0.00000000000E+00 -0.64721082682E+03  0.64721082682E+03  0.00000000000E+00 0.  1.
         21    1    1    2  503  504 -0.82969914408E+02  0.55967247203E+02 -0.46958168080E+03  0.48012841449E+03  0.00000000000E+00 0.  1.
         21    1    1    2  504  506  0.27731097437E+02  0.18524117633E+02  0.16305088141E+03  0.16642640003E+03  0.00000000000E+00 0. -1.
         21    1    1    2  505  502  0.35239458685E+02 -0.12581256878E+03 -0.14407519848E+03  0.19449494782E+03  0.00000000000E+00 0.  1.
         21    1    1    2  506  501  0.19999358286E+02  0.51321203942E+02  0.54705472864E+03  0.54982062205E+03  0.00000000000E+00 0. -1.
<scales pt_clust_3="101.05847" pt_clust_4="31.15620" pt_clust_5="14000.00000" pt_clust_6="93.59391"></scales>
<clustering>
<clus scale="   31.156">  4  6 -1 -1</clus>
<clus scale="   93.594">  1  4  2 -1</clus>
<clus scale="  101.058">  2  3  1 -1</clus>
<clus scale="   93.594">  1  3  2 -1</clus>
</clustering>
</event>
<event>
 6    0  0.4227619E+002  0.1049621E+03  0.7546771E-02  0.1270194E+00
         21   -1    0    0  503  501  0.00000000000E+00  0.00000000000E+00  0.29514859184E+03  0.29514859184E+03  0.00000000000E+00 0. -1.
         21   -1    0    0  506  502 -0.00000000000E+00 -0.00000000000E+00 -0.30868559715E+03  0.30868559715E+03  0.00000000000E+00 0. -1.
         21    1    1    2  503  504 -0.15157226238E+02  0.44332878739E+02  0.88943930855E+02  0.10052944086E+03  0.00000000000E+00 0. -1.
         21    1    1    2  504  502  0.84186226062E+02  0.67168325447E+01  0.15777095914E+03  0.17895282073E+03  0.00000000000E+00 0. -1.
         21    1    1    2  505  501 -0.40481133916E+01  0.35137976248E+02  0.70616676811E+01  0.36068431450E+02  0.00000000000E+00 0. -1.
         21    1    1    2  506  505 -0.64980886433E+02 -0.86187687531E+02 -0.26731356298E+03  0.28828349595E+03  0.00000000000E+00 0. -1.
<scales pt_clust_3="58.87703" pt_clust_4="104.96207" pt_clust_5="35.37039" pt_clust_6="14000.00000"></scales>
<clustering>
<clus scale="   35.370">  1  5  2 -1</clus>
<clus scale="   58.877">  1  3  2 -1</clus>
<clus scale="  104.962">  1  4  2 -1</clus>
<clus scale="   35.370">  1  3  2 -1</clus>
</clustering>
</event>
<event>
 6    0  0.4227619E+002  0.1164345E+03  0.7546771E-02  0.1249098E+00
         21   -1    0    0  503  501  0.00000000000E+00  0.00000000000E+00  0.17159581854E+04  0.17159581854E+04  0.00000000000E+00 0.  1.
         21   -1    0    0  506  502 -0.00000000000E+00 -0.00000000000E+00 -0.16526661678E+03  0.16526661678E+03  0.00000000000E+00 0.  1.
         21    1    1    2  503  504 -0.48783213036E+02 -0.24247461712E+02  0.56940419516E+03  0.57200426462E+03  0.00000000000E+00 0.  1.
         21    1    1    2  504  502 -0.40687260567E+02  0.54373660333E+02  0.10095073502E+04  0.10117890286E+04  0.00000000000E+00 0.  1.
         21    1    1    2  505  501 -0.10990687210E+02  0.30953098718E+02  0.11068087358E+03  0.11545191771E+03  0.00000000000E+00 0.  1.
         21    1    1    2  506  505  0.10046116081E+03 -0.61079297339E+02 -0.13890085040E+03  0.18197959126E+03  0.00000000000E+00 0.  1.
<scales pt_clust_3="54.33100" pt_clust_4="14000.00000" pt_clust_5="32.84645" pt_clust_6="116.43448"></scales>
<clustering>
<clus scale="   32.846">  1  5  2 -1</clus>
<clus scale="   54.331">  1  3  2 -1</clus>
<clus scale="  116.434">  2  6  1 -1</clus>
<clus scale="   32.846">  1  3  2 -1</clus>
</clustering>
</event>
<event>
 6    0  0.4227619E+002  0.1487984E+03  0.7546771E-02  0.1201957E+00
         21   -1    0    0  504  501  0.00000000000E+00  0.00000000000E+00  0.46034816934E+03  0.46034816934E+03  0.00000000000E+00 0.  1.
         21   -1    0    0  505  502 -0.00000000000E+00 -0.00000000000E+00 -0.27052812684E+03  0.27052812684E+03  0.00000000000E+00 0. -1.
         21    1    1    2  503  502  0.39959186059E+02 -0.16165165502E+03 -0.15388833372E+03  0.22673688138E+03  0.00000000000E+00 0. -1.
         21    1    1    2  504  506 -0.10492670285E+02  0.77343548593E+02  0.15933961376E+03  0.17742951601E+03  0.00000000000E+00 0.  1.
         21    1    1    2  505  501  0.19016447836E+02  0.44760981321E+02 -0.58405852512E+02  0.76002725904E+02  0.00000000000E+00 0.  1.
         21    1    1    2  506  503 -0.48482963611E+02  0.39547125102E+02  0.24277461497E+03  0.25070717289E+03  0.00000000000E+00 0.  1.
<scales pt_clust_3="132.95616" pt_clust_4="59.24176" pt_clust_5="48.63302" pt_clust_6="59.24176"></scales>
<clustering>
<clus scale="   48.633">  2  5  1 -1</clus>
<clus scale="   59.242">  4  6 -1 -1</clus>
<clus scale="  132.956">  2  3  1 -1</clus>
<clus scale="  148.798">  1  3  2 -1</clus>
</clustering>
</event>
<event>
 6    0  0.4227619E+002  0.7485493E+02  0.7546771E-02  0.1344321E+00
         21   -1    0    0  503  501  0.00000000000E+00  0.00000000000E+00  0.12106671826E+04  0.12106671826E+04  0.00000000000E+00 0.  1.
         21   -1    0    0  506  502 -0.00000000000E+00 -0.00000000000E+00 -0.14316557092E+03  0.14316557092E+03  0.00000000000E+00 0. -1.
         21    1    1    2  503  505  0.11491737944E+02 -0.78997169309E+02  0.99811766710E+03  0.10013048937E+04  0.00000000000E+00 0.  1.
         21    1    1    2  504  501 -0.35515142534E+02  0.10688905451E+02  0.13667011621E+03  0.14161320106E+03  0.00000000000E+00 0. -1.
         21    1    1    2  505  502 -0.51253300881E+02 -0.21696591618E+02 -0.74921068867E+02  0.93331717541E+02  0.00000000000E+00 0. -1.
         21    1    1    2  506  504  0.75276705471E+02  0.90004855476E+02  0.76348971901E+01  0.11758294116E+03  0.00000000000E+00 0. -1.
<scales pt_clust_3="74.85493" pt_clust_4="37.08879" pt_clust_5="55.90201" pt_clust_6="14000.00000"></scales>
<clustering>
<clus scale="   37.089">  1  4  2 -1</clus>
<clus scale="   55.902">  2  5  1 -1</clus>
<clus scale="   74.855">  1  3  2 -1</clus>
<clus scale="   37.089">  1  3  2 -1</clus>
</clustering>
</event>
<event>
 6    0  0.8285326E+002  0.1424784E+03  0.7546771E-02  0.1210033E+00
         21   -1    0    0  504  501  0.00000000000E+00  0.00000000000E+00  0.60714845986E+03  0.60714845986E+03  0.00000000000E+00 0. -1.
         21   -1    0    0  505  502 -0.00000000000E+00 -0.00000000000E+00 -0.12115192197E+04  0.12115192197E+04  0.00000000000E+00 0.  1.
         21    1    1    2  503  501  0.27400421597E+02 -0.28825638777E+02  0.45065333458E+03  0.45240482814E+03  0.00000000000E+00 0. -1.
         21    1    1    2  504  506 -0.15012763691E+02  0.11303528166E+03 -0.67103737384E+03  0.68065667929E+03  0.00000000000E+00 0. -1.
         21    1    1    2  505  503 -0.40597779628E+01 -0.11455846311E+03  0.12847445574E+03  0.17217958370E+03  0.00000000000E+00 0. -1.
         21    1    1    2  506  502 -0.83278799426E+01  0.30348820220E+02 -0.51246117633E+03  0.51342658844E+03  0.00000000000E+00 0.  1.
<scales pt_clust_3="39.73584" pt_clust_4="142.47837" pt_clust_5="14000.00000" pt_clust_6="31.47069"></scales>
<clustering>
<clus scale="   31.471">  2  6  1 -1</clus>
<clus scale="   39.736">  1  3  2 -1</clus>
<clus scale="  142.478">  2  4  1 -1</clus>
<clus scale="   39.736">  1  3  2 -1</clus>
</clustering>
</event>
<event>
 6    0  0.4227619E+002  0.1278662E+03  0.7546771E-02  0.1230657E+00
         21   -1    0    0  504  501  0.00000000000E+00  0.00000000000E+00  0.13725486029E+03  0.13725486029E+03  0.00000000000E+00 0.  1.
         21   -1    0    0  505  502 -0.00000000000E+00 -0.00000000000E+00 -0.39391414162E+03  0.39391414162E+03  0.00000000000E+00 0. -1.
         21    1    1    2  503  506 -0.91474437734E+02  0.72081873155E+02 -0.22693655400E+02  0.11865231221E+03  0.00000000000E+00 0.  1.
         21    1    1    2  504  503 -0.30108868371E+02  0.10694020346E+02  0.49154216153E+02  0.58626299485E+02  0.00000000000E+00 0.  1.
         21    1    1    2  505  501  0.64443425323E+02 -0.12004176478E+03 -0.14005167592E+03  0.19539051227E+03  0.00000000000E+00 0. -1.
         21    1    1    2  506  502  0.57139880782E+02  0.37265871279E+02 -0.14306816616E+03  0.15849987794E+03  0.00000000000E+00 0. -1.
<scales pt_clust_3="127.86617" pt_clust_4="31.95162" pt_clust_5="14000.00000" pt_clust_6="66.46623"></scales>
<clustering>
<clus scale="   31.952">  1  4  2 -1</clus>
<clus scale="   66.466">  2  6  1 -1</clus>
<clus scale="  127.866">  1  3  2 -1</clus>
<clus scale="   31.952">  1  3  2 -1</clus>
</clustering>
</event>
<event>
 6    0  0.4227619E+002  0.8196703E+02  0.7546771E-02  0.1323560E+00
         21   -1    0    0  506  501  0.00000000000E+00  0.00000000000E+00  0.87830190857E+02  0.87830190857E+02  0.00000000000E+00 0. -1.
         21   -1    0    0  503  502 -0.00000000000E+00 -0.00000000000E+00 -0.31513724973E+03  0.31513724973E+03  0.00000000000E+00 0. -1.
         21    1    1    2  503  501  0.42791553147E+02 -0.56110443007E+02  0.34670003163E+01  0.70650682420E+02  0.00000000000E+00 0. -1.
         21    1    1    2  504  505 -0.25996339371E+02 -0.50764640504E+02 -0.52529681580E+02  0.77538544177E+02  0.00000000000E+00 0. -1.
         21    1    1    2  505  502  0.85179806496E+01 -0.30784267749E+02 -0.72922365274E+02  0.79610919429E+02  0.00000000000E+00 0. -1.
         21    1    1    2  506  504 -0.25313194425E+02  0.13765935126E+03 -0.10532201234E+03  0.17516729456E+03  0.00000000000E+00 0. -1.
<scales pt_clust_3="81.96703" pt_clust_4="63.70907" pt_clust_5="31.94099" pt_clust_6="14000.00000"></scales>
<clustering>
<clus scale="   31.941">  2  5  1 -1</clus>
<clus scale="   63.709">  2  4  1 -1</clus>
<clus scale="   81.967">  1  3  2 -1</clus>
<clus scale="   81.967">  1  3  2 -1</clus>
</clustering>
</event>
<event>
 6    0  0.4227619E+002  0.1029049E+03  0.7546771E-02  0.1274303E+00
         21   -1    0    0  505  501  0.00000000000E+00  0.00000000000E+00  0.97991459689E+03  0.97991459689E+03  0.00000000000E+00 0. -1.
         21   -1    0    0  504  502 -0.00000000000E+00 -0.00000000000E+00 -0.14629205984E+03  0.14629205984E+03  0.00000000000E+00 0. -1.
         21    1    1    2  503  502 -0.26319394038E+02 -0.37165318978E+02 -0.11209905918E+03  0.12099657230E+03  0.00000000000E+00 0. -1.
         21    1    1    2  504  501 -0.95497177766E+02 -0.44895207594E+02  0.16000388344E+03  0.19166776814E+03  0.00000000000E+00 0. -1.
         21    1    1    2  505  506  0.10285631931E+03  0.10839064756E+02  0.65804733215E+03  0.66612551302E+03  0.00000000000E+00 0. -1.
         21    1    1    2  506  503  0.18960252492E+02  0.71221461816E+02  0.12767038064E+03  0.14741680328E+03  0.00000000000E+00 0.  1.
<scales pt_clust_3="45.54088" pt_clust_4="14000.00000" pt_clust_5="102.90488" pt_clust_6="59.76589"></scales>
<clustering>
<clus scale="   45.541">  2  3  1 -1</clus>
<clus scale="   59.766">  2  6  1 -1</clus>
<clus scale="  102.905">  1  5  2 -1</clus>
<clus scale="  102.905">  1  3  2 -1</clus>
</clustering>
</event>
<event>
 6    0  0.4227619E+002  0.1389289E+03  0.7546771E-02  0.1214778E+00
         21   -1    0    0  502  501  0.00000000000E+00  0.00000000000E+00  0.55865380343E+02  0.55865380343E+02  0.00000000000E+00 0. -1.
         21   -1    0    0  505  502 -0.00000000000E+00 -0.00000000000E+00 -0.13601706764E+04  0.13601706764E+04  0.00000000000E+00 0. -1.
         21    1    1    2  503  501  0.38594195674E+02  0.26805896712E+02 -0.27767301633E+02  0.54581050542E+02  0.00000000000E+00 0. -1.
         21    1    1    2  504  503  0.64722644004E+02 -0.12575657639E+03 -0.98455660183E+02  0.17232891277E+03  0.00000000000E+00 0. -1.
         21    1    1    2  505  506  0.61932265241E+01  0.32985854777E+02 -0.21763050037E+03  0.22020321833E+03  0.00000000000E+00 0. -1.
         21    1    1    2  506  504 -0.10951006620E+03  0.65964824904E+02 -0.96045183385E+03  0.96892287509E+03  0.00000000000E+00 0. -1.
<scales pt_clust_3="47.86003" pt_clust_4="138.92887" pt_clust_5="33.56222" pt_clust_6="14000.00000"></scales>
<clustering>
<clus scale="   33.562">  2  5  1 -1</clus>
<clus scale="   47.860">  1  3  2 -1</clus>
<clus scale="  138.929">  1  4  2 -1</clus>
<clus scale="   47.860">  1  3  2 -1</clus>
</clustering>
</event>
<event>
 6    0  0.4227619E+002  0.6441810E+02  0.7546771E-02  0.1380174E+00
         21   -1    0    0  504  501  0.00000000000E+00  0.00000000000E+00  0.88276778150E+03  0.88276778150E+03  0.00000000000E+00 0. -1.
         21   -1    0    0  503  502 -0.00000000000E+00 -0.00000000000E+00 -0.31442152588E+03  0.31442152588E+03  0.00000000000E+00 0.  1.
         21    1    1    2  503  501 -0.42984748188E+02 -0.22226649954E+02 -0.24810358634E+03  0.25277876117E+03  0.00000000000E+00 0.  1.
         21    1    1    2  504  506  0.26395947714E+02 -0.42623423066E+02  0.78094342847E+03  0.78255104672E+03  0.00000000000E+00 0. -1.
         21    1    1    2  505  502  0.78559038842E+02  0.51647544437E+02  0.14627083571E+02  0.95146954780E+02  0.00000000000E+00 0. -1.
         21    1    1    2  506  505 -0.61970238368E+02  0.13202528583E+02  0.20879329917E+02  0.66712544713E+02  0.00000000000E+00 0.  1.
<scales pt_clust_3="48.39124" pt_clust_4="50.09159" pt_clust_5="64.41810" pt_clust_6="14000.00000"></scales>
<clustering>
<clus scale="   48.391">  2  3  1 -1</clus>
<clus scale="   50.092">  1  4  2 -1</clus>
<clus scale="   64.418">  2  5  1 -1</clus>
<clus scale="   50.092">  1  3  2 -1</clus>
</clustering>
</event>
<event>
 6    0  0.4227619E+002  0.1360453E+03  0.7546771E-02  0.1218752E+00
         21   -1    0    0  503  501  0.00000000000E+00  0.00000000000E+00  0.98958140043E+02  0.98958140043E+02  0.00000000000E+00 0. -1.
         21   -1    0    0  501  502 -0.00000000000E+00 -0.00000000000E+00 -0.18861759823E+04  0.18861759823E+04  0.00000000000E+00 0.  1.
         21    1    1    2  503  506  0.45051522268E+02 -0.12181625440E+03  0.11268775361E+02  0.13036803593E+03  0.00000000000E+00 0. -1.
         21    1    1    2  504  505 -0.61503942335E+02 -0.95327025313E+02 -0.56724653911E+03  0.57847956992E+03  0.00000000000E+00 0.  1.
         21    1    1    2  505  502 -0.40613007896E+02 -0.17231695777E+02 -0.58220832954E+03  0.58387745866E+03  0.00000000000E+00 0.  1.
         21    1    1    2  506  504  0.57065427964E+02  0.23437497549E+03 -0.64903174897E+03  0.69240905784E+03  0.00000000000E+00 0.  1.
<scales pt_clust_3="14000.00000" pt_clust_4="129.94800" pt_clust_5="44.11743" pt_clust_6="136.04531"></scales>
<clustering>
<clus scale="   44.117">  2  5  1 -1</clus>
<clus scale="  129.948">  2  4  1 -1</clus>
<clus scale="  136.045">  2  6  1 -1</clus>
<clus scale="  136.045">  1  3  2 -1</clus>
</clustering>
</event>
<event>
 6    0  0.4227619E+002  0.1314972E+03  0.7546771E-02  0.1225251E+00
         21   -1    0    0  506  501  0.00000000000E+00  0.00000000000E+00  0.10725685465E+04  0.10725685465E+04  0.00000000000E+00 0.  1.
         21   -1    0    0  504  502 -0.00000000000E+00 -0.00000000000E+00 -0.37253064834E+02  0.37253064834E+02  0.00000000000E+00 0.  1.
         21    1    1    2  503  502  0.52808883954E+02 -0.11456843304E+03  0.17206868039E+03  0.21335963734E+03  0.00000000000E+00 0.  1.
         21    1    1    2  504  501 -0.37243351289E+02 -0.36476085785E+02  0.13752592549E+03  0.14707464850E+03  0.00000000000E+00 0.  1.
         21    1    1    2  505  503 -0.52325414113E+02  0.13771753537E+03  0.55210263796E+03  0.57142050309E+03  0.00000000000E+00 0.  1.
         21    1    1    2  506  505  0.36759881448E+02  0.13326983454E+02  0.17361823787E+03  0.17796682245E+03  0.00000000000E+00 0.  1.
<scales pt_clust_3="131.49718" pt_clust_4="46.55438" pt_clust_5="14000.00000" pt_clust_6="39.10112"></scales>
<clustering>
<clus scale="   39.101">  1  6  2 -1</clus>
<clus scale="   46.554">  1  4  2 -1</clus>
<clus scale="  131.497">  2  3  1 -1</clus>
<clus scale="   39.101">  1  3  2 -1</clus>
</clustering>
</event>
<event>
 6    0  0.4227619E+002  0.1182723E+03  0.7546771E-02  0.1245975E+00
         21   -1    0    0  505  501  0.00000000000E+00  0.00000000000E+00  0.73118221231E+03  0.73118221231E+03  0.00000000000E+00 0.  1.
         21   -1    0    0  504  502 -0.00000000000E+00 -0.00000000000E+00 -0.19988022497E+03  0.19988022497E+03  0.00000000000E+00 0. -1.
         21    1    1    2  503  506  0.35338088235E+02  0.10493531628E+03  0.22931038511E+03  0.25464377825E+03  0.00000000000E+00 0.  1.
         21    1    1    2  504  501  0.61822507197E+01 -0.30795458480E+02 -0.16089893523E+03  0.16393610903E+03  0.00000000000E+00 0. -1.
         21    1    1    2  505  503  0.39768388286E+01  0.33078280382E+02  0.34554506300E+03  0.34714748803E+03  0.00000000000E+00 0.  1.
         21    1    1    2  506  502 -0.45497177783E+02 -0.10721813818E+03  0.11734547446E+03  0.16533506197E+03  0.00000000000E+00 0.  1.
<scales pt_clust_3="118.27227" pt_clust_4="31.40988" pt_clust_5="32.67903" pt_clust_6="14000.00000"></scales>
<clustering>
<clus scale="   31.410">  2  4  1 -1</clus>
<clus scale="   32.679">  1  5  2 -1</clus>
<clus scale="  118.272">  1  3  2 -1</clus>
<clus scale="   32.679">  1  3  2 -1</clus>
</clustering>
</event>
<event>
 6    0  0.4227619E+002  0.1295796E+03  0.7546771E-02  0.1228081E+00
         21   -1    0    0  505  501  0.00000000000E+00  0.00000000000E+00  0.20394348007E+03  0.20394348007E+03  0.00000000000E+00 0.  1.
         21   -1    0    0  503  502 -0.00000000000E+00 -0.00000000000E+00 -0.59846429290E+03  0.59846429290E+03  0.00000000000E+00 0. -1.
         21    1    1    2  503  504  0.56913497296E+02  0.58173497735E+02 -0.32975301481E+03  0.33964739480E+03  0.00000000000E+00 0. -1.
         21    1    1    2  504  501 -0.11908699265E+03 -0.16829855782E+01  0.15003916389E+03  0.19156277029E+03  0.00000000000E+00 0.  1.
         21    1    1    2  505  506 -0.19249010046E+02 -0.27477842194E+02  0.59941381764E+01  0.34080579395E+02  0.00000000000E+00 0. -1.
         21    1    1    2  506  502  0.81422505399E+02 -0.29012669963E+02 -0.22080110008E+03  0.23711702849E+03  0.00000000000E+00 0. -1.
<scales pt_clust_3="80.49332" pt_clust_4="129.57958" pt_clust_5="33.54931" pt_clust_6="14000.00000"></scales>
<clustering>
<clus scale="   33.549">  1  5  2 -1</clus>
<clus scale="   80.493">  2  3  1 -1</clus>
<clus scale="  129.580">  1  4  2 -1</clus>
<clus scale="   33.549">  1  3  2 -1</clus>
</clustering>
</event>
<event>
 6    0  0.4227619E+002  0.9551740E+02  0.7546771E-02  0.1290015E+00
         21   -1    0    0  506  501  0.00000000000E+00  0.00000000000E+00  0.82567158451E+03  0.82567158451E+03  0.00000000000E+00 0. -1.
         21   -1    0    0  505  502 -0.00000000000E+00 -0.00000000000E+00 -0.12294639435E+03  0.12294639435E+03  0.00000000000E+00 0.  1.
         21    1    1    2  503  502  0.20455382471E+02 -0.59794664873E+02 -0.38588798318E+02  0.74046741825E+02  0.00000000000E+00 0.  1.
         21    1    1    2  504  501  0.73062800809E+02  0.12498755088E+03  0.60414345560E+03  0.62124823999E+03  0.00000000000E+00 0. -1.
         21    1    1    2  505  504 -0.65915684161E+02 -0.26748401422E+02 -0.31748314559E+02  0.77899357342E+02  0.00000000000E+00 0.  1.
         21    1    1    2  506  503 -0.27602499119E+02 -0.38444484580E+02  0.16891884743E+03  0.17542363971E+03  0.00000000000E+00 0.  1.
<scales pt_clust_3="63.94971" pt_clust_4="95.51740" pt_clust_5="14000.00000" pt_clust_6="47.32733"></scales>
<clustering>
<clus scale="   47.327">  1  6  2 -1</clus>
<clus scale="   63.950">  2  3  1 -1</clus>
<clus scale="   95.517">  1  4  2 -1</clus>
<clus scale="   47.327">  1  3  2 -1</clus>
</clustering>
</event>
<event>
 6    0  0.4227619E+002  0.7977194E+02  0.7546771E-02  0.1329700E+00
         21   -1    0    0  504  501  0.00000000000E+00  0.00000000000E+00  0.27726423050E+03  0.27726423050E+03  0.00000000000E+00 0. -1.
         21   -1    0    0  503  502 -0.00000000000E+00 -0.00000000000E+00 -0.11291485708E+04  0.11291485708E+04  0.00000000000E+00 0. -1.
         21    1    1    2  503  506  0.49224015206E+02 -0.71554782595E+02 -0.92875889841E+02  0.12715746733E+03  0.00000000000E+00 0. -1.
         21    1    1    2  504  505  0.29235401889E+02 -0.68357350692E+01  0.69264572708E+02  0.75491834194E+02  0.00000000000E+00 0. -1.
         21    1    1    2  505  502 -0.81477448090E+02  0.78208317482E+01 -0.10076559765E+04  0.10109749290E+04  0.00000000000E+00 0. -1.
         21    1    1    2  506  501  0.30180309951E+01  0.70569685916E+02  0.17938295336E+03  0.19278857081E+03  0.00000000000E+00 0. -1.
<scales pt_clust_3="79.77194" pt_clust_4="30.02392" pt_clust_5="14000.00000" pt_clust_6="70.82934"></scales>
<clustering>
<clus scale="   30.024">  1  4  2 -1</clus>
<clus scale="   70.829">  1  6  2 -1</clus>
<clus scale="   79.772">  1  3  2 -1</clus>
<clus scale="   30.024">  1  3  2 -1</clus>
</clustering>
</event>
<event>
 6    0  0.4227619E+002  0.1679245E+03  0.7546771E-02  0.1180030E+00
         21   -1    0    0  504  501  0.00000000000E+00  0.00000000000E+00  0.17083928347E+03  0.17083928347E+03  0.00000000000E+00 0.  1.
         21   -1    0    0  506  502 -0.00000000000E+00 -0.00000000000E+00 -0.15372980658E+04  0.15372980658E+04  0.00000000000E+00 0. -1.
         21    1    1    2  503  501  0.16228003262E+02 -0.69103550885E+02 -0.40083184723E+02  0.81518774109E+02  0.00000000000E+00 0.  1.
         21    1    1    2  504  505 -0.50515125624E+02  0.25275477093E+02  0.13719456480E+02  0.58127886124E+02  0.00000000000E+00 0.  1.
         21    1    1    2  505  502  0.17841818241E+02  0.20913244676E+03  0.81498395013E+01  0.21005030505E+03  0.00000000000E+00 0.  1.
         21    1    1    2  506  503  0.16445304121E+02 -0.16530437297E+03 -0.13482448936E+04  0.13584403840E+04  0.00000000000E+00 0. -1.
<scales pt_clust_3="65.77000" pt_clust_4="56.48564" pt_clust_5="167.92450" pt_clust_6="14000.00000"></scales>
<clustering>
<clus scale="   56.486">  1  4  2 -1</clus>
<clus scale="   65.770">  1  3  2 -1</clus>
<clus scale="  167.925">  1  5  2 -1</clus>
<clus scale="   56.486">  1  3  2 -1</clus>
</clustering>
</event>
<event>
 6    0  0.4227619E+002  0.2160438E+03  0.7546771E-02  0.1136867E+00
         21   -1    0    0  505  501  0.00000000000E+00  0.00000000000E+00  0.29009577982E+04  0.29009577982E+04  0.00000000000E+00 0. -1.
         21   -1    0    0  506  502 -0.00000000000E+00 -0.00000000000E+00 -0.71839899506E+02  0.71839899506E+02  0.00000000000E+00 0. -1.
         21    1    1    2  503  504 -0.70663119466E+01 -0.83280317601E+02  0.91874688770E+02  0.12420347218E+03  0.00000000000E+00 0. -1.
         21    1    1    2  504  502  0.45956580291E+02 -0.10828065601E+03  0.58010968372E+02  0.13115631967E+03  0.00000000000E+00 0. -1.
         21    1    1    2  505  503 -0.67545093833E+02 -0.68598199586E+02  0.17330746513E+04  0.17357464676E+04  0.00000000000E+00 0. -1.
         21    1    1    2  506  501  0.28654825488E+02  0.26015917320E+03  0.94615759018E+03  0.98169143822E+03  0.00000000000E+00 0. -1.
<scales pt_clust_3="56.76407" pt_clust_4="56.76407" pt_clust_5="96.27073" pt_clust_6="205.28050"></scales>
<clustering>
<clus scale="   56.764">  3  4 -1 -1</clus>
<clus scale="   96.271">  1  5  2 -1</clus>
<clus scale="  205.280">  1  6  2 -1</clus>
<clus scale="   96.271">  1  3  2 -1</clus>
</clustering>
</event>
<event>
 6    0  0.4227619E+002  0.6670877E+02  0.7546771E-02  0.1371657E+00
         21   -1    0    0  504  501  0.00000000000E+00  0.00000000000E+00  0.76570163818E+03  0.76570163818E+03  0.00000000000E+00 0.  1.
         21   -1    0    0  506  502 -0.00000000000E+00 -0.00000000000E+00 -0.10098410184E+03  0.10098410184E+03  0.00000000000E+00 0.  1.
         21    1    1    2  503  501  0.40929444158E+02 -0.93025501719E+02  0.60357080011E+03  0.61206754048E+03  0.00000000000E+00 0.  1.
         21    1    1    2  504  505 -0.18390655944E+02  0.36657564166E+02  0.86237734473E+02  0.95493141553E+02  0.00000000000E+00 0. -1.
         21    1    1    2  505  502 -0.63844587811E+02  0.49127196426E+02  0.33355351461E+02  0.87190551624E+02  0.00000000000E+00 0.  1.
         21    1    1    2  506  503  0.41305799597E+02  0.72407411266E+01 -0.58446349704E+02  0.71934506365E+02  0.00000000000E+00 0.  1.
<scales pt_clust_3="14000.00000" pt_clust_4="41.01211" pt_clust_5="66.70877" pt_clust_6="41.81970"></scales>
<clustering>
<clus scale="   41.012">  1  4  2 -1</clus>
<clus scale="   41.820">  2  6  1 -1</clus>
<clus scale="   66.709">  2  5  1 -1</clus>
<clus scale="   41.012">  1  3  2 -1</clus>
</clustering>
</event>
<event>
 6    0  0.4227619E+002  0.8474306E+02  0.7546771E-02  0.1316106E+00
         21   -1    0    0  505  501  0.00000000000E+00  0.00000000000E+00  0.30944778385E+03  0.30944778385E+03  0.00000000000E+00 0.  1.
         21   -1    0    0  504  502 -0.00000000000E+00 -0.00000000000E+00 -0.12013948841E+04  0.12013948841E+04  0.00000000000E+00 0.  1.
         21    1    1    2  503  501  0.10941942185E+03 -0.59145019792E+02 -0.14619221736E+02  0.12523763368E+03  0.00000000000E+00 0.  1.
         21    1    1    2  504  503 -0.53886141170E+02 -0.39877896249E+02 -0.34886829268E+03  0.35525068396E+03  0.00000000000E+00 0.  1.
         21    1    1    2  505  506 -0.28506679794E+02  0.78550492032E+02  0.24360855056E+03  0.25754210626E+03  0.00000000000E+00 0.  1.
         21    1    1    2  506  502 -0.27026600891E+02  0.20472424009E+02 -0.77206813641E+03  0.77281224405E+03  0.00000000000E+00 0.  1.
<scales pt_clust_3="84.74306" pt_clust_4="79.49088" pt_clust_5="14000.00000" pt_clust_6="33.90512"></scales>
<clustering>
<clus scale="   33.905">  2  6  1 -1</clus>
<clus scale="   79.491">  2  4  1 -1</clus>
<clus scale="   84.743">  2  3  1 -1</clus>
<clus scale="   84.743">  1  3  2 -1</clus>
</clustering>
</event>
<event>
 6    0  0.4227619E+002  0.2187608E+03  0.7546771E-02  0.1134810E+00
         21   -1    0    0  506  501  0.00000000000E+00  0.00000000000E+00  0.66805140700E+03  0.66805140700E+03  0.00000000000E+00 0. -1.
         21   -1    0    0  504  502 -0.00000000000E+00 -0.00000000000E+00 -0.22806794490E+03  0.22806794490E+03  0.00000000000E+00 0.  1.
         21    1    1    2  503  502  0.10424876820E+02  0.30904293136E+02  0.23591180628E+00  0.32616085683E+02  0.00000000000E+00 0. -1.
         21    1    1    2  504  501  0.19574942616E+03 -0.17803921852E+03  0.50122064132E+03  0.56677855681E+03  0.00000000000E+00 0. -1.
         21    1    1    2  505  503 -0.16192614453E+03  0.12158497571E+03 -0.10634911974E+03  0.22872061095E+03  0.00000000000E+00 0.  1.
         21    1    1    2  506  505 -0.44248158450E+02  0.25549949676E+02  0.44876028704E+02  0.68004098457E+02  0.00000000000E+00 0. -1.
<scales pt_clust_3="32.61523" pt_clust_4="218.76078" pt_clust_5="14000.00000" pt_clust_6="51.47530"></scales>
<clustering>
<clus scale="   32.615">  2  3  1 -1</clus>
<clus scale="   51.475">  1  6  2 -1</clus>
<clus scale="  218.761">  1  4  2 -1</clus>
<clus scale="   51.475">  1  3  2 -1</clus>
</clustering>
</event>
<event>
 6    0  0.4227619E+002  0.1221977E+03  0.7546771E-02  0.1239515E+00
         21   -1    0    0  505  501  0.00000000000E+00  0.00000000000E+00  0.40265399852E+03  0.40265399852E+03  0.00000000000E+00 0.  1.
         21   -1    0    0  504  502 -0.00000000000E+00 -0.00000000000E+00 -0.59380392368E+03  0.59380392368E+03  0.00000000000E+00 0.  1.
         21    1    1    2  503  506  0.89918890229E+02  0.15738895523E+03 -0.34918086532E+03  0.39342593554E+03  0.00000000000E+00 0.  1.
         21    1    1    2  504  501  0.12740829959E+02 -0.37927366184E+02 -0.12642966117E+03  0.13260947582E+03  0.00000000000E+00 0. -1.
         21    1    1    2  505  503 -0.58209770717E+02 -0.10566517633E+03  0.36112176568E+03  0.38073932886E+03  0.00000000000E+00 0.  1.
         21    1    1    2  506  502 -0.44449949471E+02 -0.13796412714E+02 -0.76661164347E+02  0.89683181984E+02  0.00000000000E+00 0.  1.
<scales pt_clust_3="14000.00000" pt_clust_4="40.01017" pt_clust_5="122.19773" pt_clust_6="46.92634"></scales>
<clustering>
<clus scale="   40.010">  2  4  1 -1</clus>
<clus scale="   46.926">  2  6  1 -1</clus>
<clus scale="  122.198">  1  5  2 -1</clus>
<clus scale="  122.198">  1  3  2 -1</clus>
</clustering>
</event>
<event>
 6    0  0.4227619E+002  0.9400159E+02  0.7546771E-02  0.1293441E+00
         21   -1    0    0  505  501  0.00000000000E+00  0.00000000000E+00  0.62120552628E+03  0.62120552628E+03  0.00000000000E+00 0.  1.
         21   -1    0    0  504  502 -0.00000000000E+00 -0.00000000000E+00 -0.41213411612E+02  0.41213411612E+02  0.00000000000E+00 0.  1.
         21    1    1    2  503  502 -0.56508542081E+01 -0.94789697096E+02  0.95367515047E+02  0.13458076295E+03  0.00000000000E+00 0.  1.
         21    1    1    2  504  506 -0.19685610488E+02  0.92612340487E+02  0.13929014794E+03  0.16842302154E+03  0.00000000000E+00 0.  1.
         21    1    1    2  505  503  0.44889280819E+02 -0.20938621542E+02  0.93891470449E+02  0.10615593072E+03  0.00000000000E+00 0. -1.
         21    1    1    2  506  501 -0.19552816123E+02  0.23115978151E+02  0.25144298124E+03  0.25325922269E+03  0.00000000000E+00 0.  1.
<scales pt_clust_3="94.00159" pt_clust_4="14000.00000" pt_clust_5="42.21788" pt_clust_6="30.27641"></scales>
<clustering>
<clus scale="   30.276">  1  6  2 -1</clus>
<clus scale="   42.218">  1  5  2 -1</clus>
<clus scale="   94.002">  2  3  1 -1</clus>
<clus scale="   30.276">  1  3  2 -1</clus>
</clustering>
</event>
<event>
 6    0  0.4227619E+002  0.8381836E+02  0.7546771E-02  0.1318552E+00
         21   -1    0    0  506  501  0.00000000000E+00  0.00000000000E+00  0.53954428397E+03  0.53954428397E+03  0.00000000000E+00 0.  1.
         21   -1    0    0  504  502 -0.00000000000E+00 -0.00000000000E+00 -0.69530222500E+03  0.69530222500E+03  0.00000000000E+00 0.  1.
         21    1    1    2  503  501  0.36563199926E+02  0.17831871625E+02  0.52900447220E+02  0.66733054407E+02  0.00000000000E+00 0.  1.
         21    1    1    2  504  503  0.94535262839E+00  0.34354066169E+02 -0.45914488074E+03  0.46042927477E+03  0.00000000000E+00 0.  1.
         21    1    1    2  505  502  0.75078534134E+02 -0.66511498961E+02 -0.21037004771E+03  0.23305819607E+03  0.00000000000E+00 0.  1.
         21    1    1    2  506  505 -0.11258708669E+03  0.14325561166E+02  0.46085654020E+03  0.47462598373E+03  0.00000000000E+00 0.  1.
<scales pt_clust_3="41.15667" pt_clust_4="34.36707" pt_clust_5="14000.00000" pt_clust_6="83.81836"></scales>
<clustering>
<clus scale="   34.367">  2  4  1 -1</clus>
<clus scale="   41.157">  1  3  2 -1</clus>
<clus scale="   83.818">  1  6  2 -1</clus>
<clus scale="   41.157">  1  3  2 -1</clus>
</clustering>
</event>
<event>
 6    0  0.4227619E+002  0.9691102E+02  0.7546771E-02  0.1286929E+00
         21   -1    0    0  504  501  0.00000000000E+00  0.00000000000E+00  0.52365428740E+03  0.52365428740E+03  0.00000000000E+00 0. -1.
         21   -1    0    0  503  502 -0.00000000000E+00 -0.00000000000E+00 -0.21381287553E+03  0.21381287553E+03  0.00000000000E+00 0. -1.
         21    1    1    2  503  501 -0.15178770246E+02  0.65961967433E+02 -0.12596749992E+03  0.14300065472E+03  0.00000000000E+00 0. -1.
         21    1    1    2  504  506 -0.31007165033E+02 -0.27847706861E+02  0.38666024205E+03  0.38889983523E+03  0.00000000000E+00 0. -1.
         21    1    1    2  505  502  0.55177740718E+02  0.39611943627E+02 -0.46257133109E+02  0.82179142805E+02  0.00000000000E+00 0. -1.
         21    1    1    2  506  505 -0.89918054384E+01 -0.77726204199E+02  0.95405802846E+02  0.12338753017E+03  0.00000000000E+00 0. -1.
<scales pt_clust_3="96.91102" pt_clust_4="41.67660" pt_clust_5="62.45063" pt_clust_6="14000.00000"></scales>
<clustering>
<clus scale="   41.677">  1  4  2 -1</clus>
<clus scale="   62.451">  2  5  1 -1</clus>
<clus scale="   96.911">  2  3  1 -1</clus>
<clus scale="   41.677">  1  3  2 -1</clus>
</clustering>
</event>
<event>
 6    0  0.4227619E+002  0.7669208E+02  0.7546771E-02  0.1338710E+00
         21   -1    0    0  503  501  0.00000000000E+00  0.00000000000E+00  0.31928150502E+02  0.31928150502E+02  0.00000000000E+00 0.  1.
         21   -1    0    0  504  502 -0.00000000000E+00 -0.00000000000E+00 -0.65708072338E+03  0.65708072338E+03  0.00000000000E+00 0.  1.
         21    1    1    2  503  505  0.23744545681E+02  0.52883980573E+02 -0.17429593885E+03  0.18368340467E+03  0.00000000000E+00 0.  1.
         21    1    1    2  504  506 -0.36067962316E+02  0.14658236606E+02 -0.93508065872E+02  0.10128928961E+03  0.00000000000E+00 0.  1.
         21    1    1    2  505  502  0.69409739322E+02 -0.68086772454E-01 -0.27363349284E+03  0.28229949513E+03  0.00000000000E+00 0.  1.
         21    1    1    2  506  501 -0.57086322688E+02 -0.67474130406E+02 -0.83715075322E+02  0.12173668448E+03  0.00000000000E+00 0.  1.
<scales pt_clust_3="14000.00000" pt_clust_4="38.93279" pt_clust_5="51.99911" pt_clust_6="76.69208"></scales>
<clustering>
<clus scale="   38.933">  2  4  1 -1</clus>
<clus scale="   51.999">  2  5  1 -1</clus>
<clus scale="   76.692">  1  6  2 -1</clus>
<clus scale="   76.692">  1  3  2 -1</clus>
</clustering>
</event>
<event>
 6    0  0.4227619E+002  0.9776222E+02  0.7546771E-02  0.1285073E+00
         21   -1    0    0  505  501  0.00000000000E+00  0.00000000000E+00  0.12028987590E+03  0.12028987590E+03  0.00000000000E+00 0.  1.
         21   -1    0    0  501  502 -0.00000000000E+00 -0.00000000000E+00 -0.18944890703E+04  0.18944890703E+04  0.00000000000E+00 0. -1.
         21    1    1    2  503  506 -0.14981417059E+02  0.48213045083E+02 -0.72265896032E+03  0.72442039832E+03  0.00000000000E+00 0. -1.
         21    1    1    2  504  503  0.75992417901E+01 -0.13167462593E+03 -0.17781465343E+03  0.22139107155E+03  0.00000000000E+00 0. -1.
         21    1    1    2  505  504 -0.11744844101E+02  0.45597295811E+02  0.91450114391E+02  0.10285999305E+03  0.00000000000E+00 0.  1.
         21    1    1    2  506  502  0.19127019370E+02  0.37864285035E+02 -0.96517569506E+03  0.96610748330E+03  0.00000000000E+00 0. -1.
<scales pt_clust_3="37.48394" pt_clust_4="88.79893" pt_clust_5="47.08561" pt_clust_6="37.48394"></scales>
<clustering>
<clus scale="   37.484">  3  6 -1 -1</clus>
<clus scale="   47.086">  1  5  2 -1</clus>
<clus scale="   88.799">  1  4  2 -1</clus>
<clus scale="   47.086">  1  3  2 -1</clus>
</clustering>
</event>
<event>
 6    0  0.4227619E+002  0.8786245E+02  0.7546771E-02  0.1308112E+00
         21   -1    0    0  503  501  0.00000000000E+00  0.00000000000E+00  0.34098624693E+03  0.34098624693E+03  0.00000000000E+00 0.  1.
         21   -1    0    0  506  502 -0.00000000000E+00 -0.00000000000E+00 -0.25284666777E+03  0.25284666777E+03  0.00000000000E+00 0.  1.
         21    1    1    2  503  502  0.24296337599E+02 -0.46901167555E+02 -0.21045464383E+02  0.56858975631E+02  0.00000000000E+00 0.  1.
         21    1    1    2  504  505 -0.73664451007E+02 -0.19057918781E+02 -0.57618047467E+02  0.95443674512E+02  0.00000000000E+00 0.  1.
         21    1    1    2  505  501 -0.39348082093E+02  0.18223457141E+02  0.28382431734E+03  0.28711776167E+03  0.00000000000E+00 0.  1.
         21    1    1    2  506  504  0.88716195501E+02  0.47735629195E+02 -0.11702122632E+03  0.15441250289E+03  0.00000000000E+00 0.  1.
<scales pt_clust_3="42.63279" pt_clust_4="87.86245" pt_clust_5="43.36319" pt_clust_6="14000.00000"></scales>
<clustering>
<clus scale="   43.363">  1  5  2 -1</clus>
<clus scale="   42.633">  1  3  2 -1</clus>
<clus scale="   87.862">  1  4  2 -1</clus>
<clus scale="   43.363">  1  3  2 -1</clus>
</clustering>
</event>
<event>
 6    0  0.4227619E+002  0.1131990E+03  0.7546771E-02  0.1254758E+00
         21   -1    0    0  503  501  0.00000000000E+00  0.00000000000E+00  0.31420372324E+03  0.31420372324E+03  0.00000000000E+00 0. -1.
         21   -1    0    0  504  502 -0.00000000000E+00 -0.00000000000E+00 -0.25993462463E+03  0.25993462463E+03  0.00000000000E+00 0. -1.
         21    1    1    2  503  502  0.82284017815E+02  0.52173043945E+02 -0.15332660253E+03  0.18166379151E+03  0.00000000000E+00 0. -1.
         21    1    1    2  504  506 -0.52725474647E+02 -0.14465424929E+03 -0.43588974881E+01  0.15402541187E+03  0.00000000000E+00 0. -1.
         21    1    1    2  505  501  0.27443547910E+01  0.48075231937E+02  0.13922751854E+03  0.14731958908E+03  0.00000000000E+00 0. -1.
         21    1    1    2  506  505 -0.32302897959E+02  0.44405973410E+02  0.72727080084E+02  0.91129555406E+02  0.00000000000E+00 0.  1.
<scales pt_clust_3="97.43042" pt_clust_4="101.52465" pt_clust_5="46.88516" pt_clust_6="46.88516"></scales>
<clustering>
<clus scale="   46.885">  5  6 -1 -1</clus>
<clus scale="   97.430">  2  3  1 -1</clus>
<clus scale="  101.525">  2  4  1 -1</clus>
<clus scale="  113.199">  1  3  2 -1</clus>
</clustering>
</event>
<event>
 6    0  0.4227619E+002  0.9525200E+02  0.7546771E-02  0.1290610E+00
         21   -1    0    0  504  501  0.00000000000E+00  0.00000000000E+00  0.94931979127E+02  0.94931979127E+02  0.00000000000E+00 0. -1.
         21   -1    0    0  505  502 -0.00000000000E+00 -0.00000000000E+00 -0.14567169387E+04  0.14567169387E+04  0.00000000000E+00 0.  1.
         21    1    1    2  503  501 -0.48123386259E+02 -0.67967273636E+02 -0.44116593682E+01  0.83395883165E+02  0.00000000000E+00 0. -1.
         21    1    1    2  504  506  0.62375075785E+02  0.15492153944E+03 -0.83735782623E+02  0.18682348555E+03  0.00000000000E+00 0. -1.
         21    1    1    2  505  503  0.40641704219E+01 -0.11087804276E+03 -0.99331839064E+03  0.99949581442E+03  0.00000000000E+00 0.  1.
         21    1    1    2  506  502 -0.18315859948E+02  0.23923776956E+02 -0.28031912698E+03  0.28193373473E+03  0.00000000000E+00 0.  1.
<scales pt_clust_3="82.95215" pt_clust_4="95.25200" pt_clust_5="14000.00000" pt_clust_6="30.13002"></scales>
<clustering>
<clus scale="   30.130">  2  6  1 -1</clus>
<clus scale="   82.952">  1  3  2 -1</clus>
<clus scale="   95.252">  1  4  2 -1</clus>
<clus scale="   82.952">  1  3  2 -1</clus>
</clustering>
</event>
<event>
 6    0  0.4227619E+002  0.1013369E+03  0.7546771E-02  0.1277510E+00
         21   -1    0    0  503  501  0.00000000000E+00  0.00000000000E+00  0.12680456327E+04  0.12680456327E+04  0.00000000000E+00 0. -1.
         21   -1    0    0  504  502 -0.00000000000E+00 -0.00000000000E+00 -0.81700194033E+02  0.81700194033E+02  0.00000000000E+00 0. -1.
         21    1    1    2  503  506  0.69486701522E+02 -0.23575483550E+02  0.87923401075E+03  0.88229057048E+03  0.00000000000E+00 0. -1.
         21    1    1    2  504  505 -0.13605195041E+03  0.40658549371E+02  0.24735774745E+03  0.28521764684E+03  0.00000000000E+00 0. -1.
         21    1    1    2  505  501  0.29337889054E+02  0.19674583505E+02  0.10642178942E+03  0.11213116531E+03  0.00000000000E+00 0. -1.
         21    1    1    2  506  502  0.37227359838E+02 -0.36757649325E+02 -0.46668108975E+02  0.70106444067E+02  0.00000000000E+00 0. -1.
<scales pt_clust_3="14000.00000" pt_clust_4="101.33690" pt_clust_5="35.32423" pt_clust_6="52.38885"></scales>
<clustering>
<clus scale="   35.324">  1  5  2 -1</clus>
<clus scale="   52.389">  2  6  1 -1</clus>
<clus scale="  101.337">  2  4  1 -1</clus>
<clus scale="   35.324">  1  3  2 -1</clus>
</clustering>
</event>
<event>
 6    0  0.4227619E+002  0.1185404E+03  0.7546771E-02  0.1245525E+00
         21   -1    0    0  503  501  0.00000000000E+00  0.00000000000E+00  0.15165326296E+04  0.15165326296E+04  0.00000000000E+00 0. -1.
         21   -1    0    0  505  502 -0.00000000000E+00 -0.00000000000E+00 -0.60569278431E+02  0.60569278431E+02  0.00000000000E+00 0. -1.
         21    1    1    2  503  504  0.77067818482E+02 -0.10571272807E+02  0.98504353088E+03  0.98811029657E+03  0.00000000000E+00 0. -1.
         21    1    1    2  504  502 -0.64561873051E+02 -0.13320094712E+03  0.21661961762E+03  0.26236384374E+03  0.00000000000E+00 0. -1.
         21    1    1    2  505  506 -0.10277686136E+02  0.39317708748E+02 -0.10489989887E+02  0.41970858239E+02  0.00000000000E+00 0. -1.
         21    1    1    2  506  501 -0.22282592953E+01  0.10445451118E+03  0.26479019258E+03  0.28465690951E+03  0.00000000000E+00 0. -1.
<scales pt_clust_3="77.11442" pt_clust_4="118.54038" pt_clust_5="40.63881" pt_clust_6="14000.00000"></scales>
<clustering>
<clus scale="   40.639">  2  5  1 -1</clus>
<clus scale="   77.114">  1  3  2 -1</clus>
<clus scale="  118.540">  2  4  1 -1</clus>
<clus scale="   77.114">  1  3  2 -1</clus>
</clustering>
</event>
<event>
 6    0  0.4227619E+002  0.6317832E+02  0.7546771E-02  0.1384958E+00
         21   -1    0    0  505  501  0.00000000000E+00  0.00000000000E+00  0.24973225053E+03  0.24973225053E+03  0.00000000000E+00 0.  1.
         21   -1    0    0  504  502 -0.00000000000E+00 -0.00000000000E+00 -0.78831961218E+03  0.78831961218E+03  0.00000000000E+00 0.  1.
         21    1    1    2  503  501  0.41661010119E+02  0.17229311100E+02  0.91328335240E+02  0.10184966246E+03  0.00000000000E+00 0.  1.
         21    1    1    2  504  503  0.74762772839E+02  0.68663497934E+01 -0.63278817888E+03  0.63722641055E+03  0.00000000000E+00 0.  1.
         21    1    1    2  505  506 -0.81398057934E+02 -0.63962008544E+02  0.12707878892E+03  0.16390790392E+03  0.00000000000E+00 0.  1.
         21    1    1    2  506  502 -0.35025725024E+02  0.39866347650E+02 -0.12420630693E+03  0.13506788578E+03  0.00000000000E+00 0.  1.
<scales pt_clust_3="45.08313" pt_clust_4="14000.00000" pt_clust_5="63.17832" pt_clust_6="52.57286"></scales>
<clustering>
<clus scale="   45.083">  1  3  2 -1</clus>
<clus scale="   52.573">  2  6  1 -1</clus>
<clus scale="   63.178">  1  5  2 -1</clus>
<clus scale="   45.083">  1  3  2 -1</clus>
</clustering>
</event>
<event>
 6    0  0.4227619E+002  0.9478066E+02  0.7546771E-02  0.1291671E+00
         21   -1    0    0  503  501  0.00000000000E+00  0.00000000000E+00  0.35642533795E+03  0.35642533795E+03  0.00000000000E+00 0. -1.
         21   -1    0    0  504  502 -0.00000000000E+00 -0.00000000000E+00 -0.23188816660E+03  0.23188816660E+03  0.00000000000E+00 0. -1.
         21    1    1    2  503  505 -0.24452749207E+02  0.75408976883E+02  0.12864354903E+03  0.15110795295E+03  0.00000000000E+00 0. -1.
         21    1    1    2  504  501 -0.42973052283E+02 -0.19354883775E+02 -0.15948360276E+03  0.16630187701E+03  0.00000000000E+00 0. -1.
         21    1    1    2  505  506  0.57815166727E+02 -0.10764955476E+03  0.17621457664E+03  0.21443553149E+03  0.00000000000E+00 0. -1.
         21    1    1    2  506  502  0.96106347627E+01  0.51595461655E+02 -0.20837351568E+02  0.56468143092E+02  0.00000000000E+00 0. -1.
<scales pt_clust_3="14000.00000" pt_clust_4="47.13061" pt_clust_5="94.78066" pt_clust_6="43.24306"></scales>
<clustering>
<clus scale="   47.131">  2  4  1 -1</clus>
<clus scale="   43.243">  2  6  1 -1</clus>
<clus scale="   94.781">  2  5  1 -1</clus>
<clus scale="   94.781">  1  3  2 -1</clus>
</clustering>
</event>
<event>
 6    0  0.4227619E+002  0.1222296E+03  0.7546771E-02  0.1239464E+00
         21   -1    0    0  505  501  0.00000000000E+00  0.00000000000E+00  0.57465014637E+03  0.57465014637E+03  0.00000000000E+00 0. -1.
         21   -1    0    0  504  502 -0.00000000000E+00 -0.00000000000E+00 -0.53455087584E+03  0.53455087584E+03  0.00000000000E+00 0. -1.
         21    1    1    2  503  506  0.10878548559E+00  0.96791125202E+02 -0.20887239933E+02  0.99019243302E+02  0.00000000000E+00 0. -1.
         21    1    1    2  504  503 -0.24957990813E+02 -0.10335628089E+03 -0.42058929276E+03  0.43382113283E+03  0.00000000000E+00 0. -1.
         21    1    1    2  505  502  0.21871437803E+02 -0.40746585371E+02 -0.34760518709E+02  0.57852723980E+02  0.00000000000E+00 0.  1.
         21    1    1    2  506  501  0.29777675243E+01  0.47311741058E+02  0.51633632192E+03  0.51850792210E+03  0.00000000000E+00 0. -1.
<scales pt_clust_3="14000.00000" pt_clust_4="122.22960" pt_clust_5="46.24548" pt_clust_6="47.31801"></scales>
<clustering>
<clus scale="   46.245">  2  5  1 -1</clus>
<clus scale="   47.318">  1  6  2 -1</clus>
<clus scale="  122.230">  2  4  1 -1</clus>
<clus scale="   47.318">  1  3  2 -1</clus>
</clustering>
</event>
<event>
 6    0  0.4227619E+002  0.1249679E+03  0.7546771E-02  0.1235119E+00
         21   -1    0    0  503  501  0.00000000000E+00  0.00000000000E+00  0.18695989446E+03  0.18695989446E+03  0.00000000000E+00 0. -1.
         21   -1    0    0  504  502 -0.00000000000E+00 -0.00000000000E+00 -0.10593623113E+04  0.10593623113E+04  0.00000000000E+00 0. -1.
         21    1    1    2  503  505 -0.23078343776E+02 -0.42553055430E+02 -0.40577732148E+02  0.63165851725E+02  0.00000000000E+00 0. -1.
         21    1    1    2  504  506  0.48893934056E+02  0.13088948424E+03  0.64315382001E+02  0.15381528609E+03  0.00000000000E+00 0. -1.
         21    1    1    2  505  502 -0.12099678084E+03 -0.36889165278E+02 -0.91134536999E+03  0.92008228702E+03  0.00000000000E+00 0. -1.
         21    1    1    2  506  501  0.95181190557E+02 -0.51447263531E+02  0.15205303300E+02  0.10925878092E+03  0.00000000000E+00 0. -1.
<scales pt_clust_3="48.40839" pt_clust_4="14000.00000" pt_clust_5="124.96788" pt_clust_6="109.52236"></scales>
<clustering>
<clus scale="   48.408">  1  3  2 -1</clus>
<clus scale="  109.522">  1  6  2 -1</clus>
<clus scale="  124.968">  2  5  1 -1</clus>
<clus scale="   48.408">  1  3  2 -1</clus>
</clustering>
</event>
<event>
 6    0  0.4227619E+002  0.1552695E+03  0.7546771E-02  0.1194143E+00
         21   -1    0    0  502  501  0.00000000000E+00  0.00000000000E+00  0.26357490555E+03  0.26357490555E+03  0.00000000000E+00 0. -1.
         21   -1    0    0  504  502 -0.00000000000E+00 -0.00000000000E+00 -0.25895970468E+04  0.25895970468E+04  0.00000000000E+00 0.  1.
         21    1    1    2  503  506  0.13301679714E+03 -0.10351179852E+03 -0.23001926270E+02  0.17010952168E+03  0.00000000000E+00 0. -1.
         21    1    1    2  504  503 -0.12277885246E+02  0.40742797739E+02 -0.24276463492E+04  0.24280192584E+04  0.00000000000E+00 0.  1.
         21    1    1    2  505  501  0.35835104051E+02  0.18531791415E+02  0.74621830394E+02  0.84829237570E+02  0.00000000000E+00 0. -1.
         21    1    1    2  506  505 -0.15657401595E+03  0.44237209367E+02  0.50004303890E+02  0.17021393471E+03  0.00000000000E+00 0. -1.
<scales pt_clust_3="14000.00000" pt_clust_4="42.56011" pt_clust_5="40.34330" pt_clust_6="155.26951"></scales>
<clustering>
<clus scale="   40.343">  1  5  2 -1</clus>
<clus scale="   42.560">  2  4  1 -1</clus>
<clus scale="  155.270">  1  6  2 -1</clus>
<clus scale="   40.343">  1  3  2 -1</clus>
</clustering>
</event>
<event>
 6    0  0.4227619E+002  0.1472011E+03  0.7546771E-02  0.1203955E+00
         21   -1    0    0  506  501  0.00000000000E+00  0.00000000000E+00  0.51499180092E+02  0.51499180092E+02  0.00000000000E+00 0. -1.
         21   -1    0    0  505  502 -0.00000000000E+00 -0.00000000000E+00 -0.52747264273E+03  0.52747264273E+03  0.00000000000E+00 0. -1.
         21    1    1    2  503  501 -0.30621986004E+02  0.43286167994E+02 -0.22518862112E+02  0.57606401704E+02  0.00000000000E+00 0. -1.
         21    1    1    2  504  502  0.24451324085E+02 -0.44391905751E+02 -0.12464778661E+03  0.13455697400E+03  0.00000000000E+00 0.  1.
         21    1    1    2  505  503 -0.88863202726E+02  0.17896398631E+02 -0.83671382517E+02  0.12336065068E+03  0.00000000000E+00 0. -1.
         21    1    1    2  506  504  0.95033864646E+02 -0.16790660874E+02 -0.24513543140E+03  0.26344779644E+03  0.00000000000E+00 0. -1.
<scales pt_clust_3="44.93986" pt_clust_4="43.77036" pt_clust_5="146.53568" pt_clust_6="43.77036"></scales>
<clustering>
<clus scale="   43.770">  4  6 -1 -1</clus>
<clus scale="   44.940">  3  5 -1 -1</clus>
<clus scale="  146.536">  1  3  2 -1</clus>
<clus scale="  146.536">  1  3  2 -1</clus>
</clustering>
</event>
<event>
 6    0  0.4227619E+002  0.6101246E+02  0.7546771E-02  0.1393631E+00
         21   -1    0    0  506  501  0.00000000000E+00  0.00000000000E+00  0.38091406764E+03  0.38091406764E+03  0.00000000000E+00 0.  1.
         21   -1    0    0  505  502 -0.00000000000E+00 -0.00000000000E+00 -0.52785314315E+03  0.52785314315E+03  0.00000000000E+00 0. -1.
         21    1    1    2  503  504 -0.31966659899E+02 -0.86008070167E+02 -0.67531463931E+02  0.11392872377E+03  0.00000000000E+00 0. -1.
         21    1    1    2  504  501 -0.11284302824E+01  0.60272639893E+02  0.33575029360E+03  0.34111922275E+03  0.00000000000E+00 0.  1.
         21    1    1    2  505  503  0.63197733124E+02 -0.97909722067E+00 -0.36619426508E+02  0.73047207347E+02  0.00000000000E+00 0.  1.
         21    1    1    2  506  502 -0.30102642943E+02  0.26714527495E+02 -0.37853847867E+03  0.38067205693E+03  0.00000000000E+00 0. -1.
<scales pt_clust_3="14000.00000" pt_clust_4="61.01246" pt_clust_5="52.81905" pt_clust_6="40.24717"></scales>
<clustering>
<clus scale="   40.247">  2  6  1 -1</clus>
<clus scale="   52.819">  2  5  1 -1</clus>
<clus scale="   61.012">  1  4  2 -1</clus>
<clus scale="   61.012">  1  3  2 -1</clus>
</clustering>
</event>
<event>
 6    0  0.4227619E+002  0.1171814E+03  0.7546771E-02  0.1247821E+00
         21   -1    0    0  504  501  0.00000000000E+00  0.00000000000E+00  0.58765294515E+03  0.58765294515E+03  0.00000000000E+00 0.  1.
         21   -1    0    0  503  502 -0.00000000000E+00 -0.00000000000E+00 -0.17446337489E+03  0.17446337489E+03  0.00000000000E+00 0. -1.
         21    1    1    2  503  505 -0.17252261518E+02  0.83296004369E+02 -0.90126238644E+02  0.12392983403E+03  0.00000000000E+00 0. -1.
         21    1    1    2  504  502  0.65596579893E+02  0.10449028878E+03  0.96465840191E+02  0.15661031277E+03  0.00000000000E+00 0. -1.
         21    1    1    2  505  506  0.41944084617E+02 -0.11399230766E+03  0.11489625923E+03  0.16719659932E+03  0.00000000000E+00 0.  1.
         21    1    1    2  506  501 -0.90288402992E+02 -0.73793985486E+02  0.29195370949E+03  0.31437957391E+03  0.00000000000E+00 0.  1.
<scales pt_clust_3="85.06389" pt_clust_4="117.18141" pt_clust_5="88.97399" pt_clust_6="14000.00000"></scales>
<clustering>
<clus scale="   85.064">  2  3  1 -1</clus>
<clus scale="   88.974">  2  5  1 -1</clus>
<clus scale="  117.181">  2  4  1 -1</clus>
<clus scale="  117.181">  1  3  2 -1</clus>
</clustering>
</event>
<event>
 6    0  0.4227619E+002  0.1095182E+03  0.7546771E-02  0.1261465E+00
         21   -1    0    0  502  501  0.00000000000E+00  0.00000000000E+00  0.10525102312E+04  0.10525102312E+04  0.00000000000E+00 0.  1.
         21   -1    0    0  505  502 -0.00000000000E+00 -0.00000000000E+00 -0.37709598266E+02  0.37709598266E+02  0.00000000000E+00 0. -1.
         21    1    1    2  503  504 -0.99564223192E+01  0.58825600612E+02  0.13000175114E+03  0.14303858546E+03  0.00000000000E+00 0.  1.
         21    1    1    2  504  506 -0.54020751386E+02  0.60582166327E+02  0.32338496902E+03  0.33341607436E+03  0.00000000000E+00 0.  1.
         21    1    1    2  505  503 -0.11360529811E+02 -0.89514715740E+02  0.66074063617E+02  0.11183795355E+03  0.00000000000E+00 0. -1.
         21    1    1    2  506  501  0.75337703516E+02 -0.29893051198E+02  0.49533984918E+03  0.50192721610E+03  0.00000000000E+00 0. -1.
<scales pt_clust_3="47.72116" pt_clust_4="47.72116" pt_clust_5="94.31862" pt_clust_6="81.05161"></scales>
<clustering>
<clus scale="   47.721">  3  4 -1 -1</clus>
<clus scale="   81.052">  1  6  2 -1</clus>
<clus scale="   94.319">  2  5  1 -1</clus>
<clus scale="   81.052">  1  3  2 -1</clus>
</clustering>
</event>
<event>
 6    0  0.4227619E+002  0.1346295E+03  0.7546771E-02  0.1220744E+00
         21   -1    0    0  503  501  0.00000000000E+00  0.00000000000E+00  0.79491060797E+03  0.79491060797E+03  0.00000000000E+00 0. -1.
         21   -1    0    0  505  502 -0.00000000000E+00 -0.00000000000E+00 -0.97756459888E+03  0.97756459888E+03  0.00000000000E+00 0.  1.
         21    1    1    2  503  504  0.44037837056E+02 -0.21823132891E+02  0.13452776914E+02  0.50956426763E+02  0.00000000000E+00 0.  1.
         21    1    1    2  504  502 -0.53485533490E+02 -0.71567516328E+02 -0.55550102994E+03  0.56264021003E+03  0.00000000000E+00 0.  1.
         21    1    1    2  505  506 -0.51751036937E+02  0.15706160172E+03 -0.37989830368E+03  0.41432986581E+03  0.00000000000E+00 0.  1.
         21    1    1    2  506  501  0.61198733372E+02 -0.63670952497E+02  0.73929256579E+03  0.74454870425E+03  0.00000000000E+00 0. -1.
<scales pt_clust_3="49.14855" pt_clust_4="89.30418" pt_clust_5="14000.00000" pt_clust_6="134.62955"></scales>
<clustering>
<clus scale="   49.149">  1  3  2 -1</clus>
<clus scale="   89.304">  2  4  1 -1</clus>
<clus scale="  134.630">  1  6  2 -1</clus>
<clus scale="   49.149">  1  3  2 -1</clus>
</clustering>
</event>
<event>
 6    0  0.4227619E+002  0.8563523E+02  0.7546771E-02  0.1313780E+00
         21   -1    0    0  505  501  0.00000000000E+00  0.00000000000E+00  0.25611430414E+03  0.25611430414E+03  0.00000000000E+00 0.  1.
         21   -1    0    0  506  502 -0.00000000000E+00 -0.00000000000E+00 -0.39255561750E+03  0.39255561750E+03  0.00000000000E+00 0.  1.
         21    1    1    2  503  501  0.39605657103E+02 -0.82560109660E+02 -0.21014797075E+03  0.22923121382E+03  0.00000000000E+00 0.  1.
         21    1    1    2  504  502  0.55996565753E+02  0.71383070265E+02 -0.58360289324E+02  0.10787530517E+03  0.00000000000E+00 0.  1.
         21    1    1    2  505  504 -0.74039827448E+02  0.33242081308E+02  0.21139928779E+03  0.22644335030E+03  0.00000000000E+00 0.  1.
         21    1    1    2  506  503 -0.21562395408E+02 -0.22065041913E+02 -0.79332341070E+02  0.85120052338E+02  0.00000000000E+00 0.  1.
<scales pt_clust_3="85.63523" pt_clust_4="14000.00000" pt_clust_5="81.42068" pt_clust_6="30.85130"></scales>
<clustering>
<clus scale="   30.851">  2  6  1 -1</clus>
<clus scale="   81.421">  1  5  2 -1</clus>
<clus scale="   85.635">  2  3  1 -1</clus>
<clus scale="   81.421">  1  3  2 -1</clus>
</clustering>
</event>
<event>
 6    0  0.4227619E+002  0.1098255E+03  0.7546771E-02  0.1260893E+00
         21   -1    0    0  503  501  0.00000000000E+00  0.00000000000E+00  0.66755918371E+03  0.66755918371E+03  0.00000000000E+00 0.  1.
         21   -1    0    0  506  502 -0.00000000000E+00 -0.00000000000E+00 -0.30430697058E+04  0.30430697058E+04  0.00000000000E+00 0. -1.
         21    1    1    2  503  505  0.19072048382E+02  0.10792033248E+03  0.56428535125E+03  0.57482910402E+03  0.00000000000E+00 0.  1.
         21    1    1    2  504  501  0.31237093787E+02 -0.10376557155E+02  0.92127453803E+02  0.97830959879E+02  0.00000000000E+00 0.  1.
         21    1    1    2  505  502  0.26031989973E+02  0.22768598576E+02 -0.24780962743E+03  0.25021128078E+03  0.00000000000E+00 0. -1.
         21    1    1    2  506  504 -0.76341132142E+02 -0.12031237390E+03 -0.27841136997E+04  0.27877575448E+04  0.00000000000E+00 0. -1.
<scales pt_clust_3="14000.00000" pt_clust_4="32.91548" pt_clust_5="34.61933" pt_clust_6="109.82554"></scales>
<clustering>
<clus scale="   32.915">  1  4  2 -1</clus>
<clus scale="   34.619">  2  5  1 -1</clus>
<clus scale="  109.826">  2  6  1 -1</clus>
<clus scale="   32.915">  1  3  2 -1</clus>
</clustering>
</event>
<event>
 6    0  0.4227619E+002  0.1448255E+03  0.7546771E-02  0.1206979E+00
         21   -1    0    0  506  501  0.00000000000E+00  0.00000000000E+00  0.47267990752E+02  0.47267990752E+02  0.00000000000E+00 0. -1.
         21   -1    0    0  503  502 -0.00000000000E+00 -0.00000000000E+00 -0.10531616829E+04  0.10531616829E+04  0.00000000000E+00 0. -1.
         21    1    1    2  503  505  0.14857897325E+02  0.45270310118E+02 -0.17594122974E+03  0.18227856268E+03  0.00000000000E+00 0. -1.
         21    1    1    2  504  501  0.22761656040E+02 -0.21719854341E+02 -0.86771610554E+01  0.32636454805E+02  0.00000000000E+00 0. -1.
         21    1    1    2  505  504 -0.14404124541E+03  0.75599080531E+02 -0.26860756170E+03  0.31402726563E+03  0.00000000000E+00 0. -1.
         21    1    1    2  506  502  0.10642169204E+03 -0.99149536309E+02 -0.55266773962E+03  0.57148739050E+03  0.00000000000E+00 0. -1.
<scales pt_clust_3="46.50045" pt_clust_4="31.46180" pt_clust_5="144.82552" pt_clust_6="14000.00000"></scales>
<clustering>
<clus scale="   31.462">  1  4  2 -1</clus>
<clus scale="   46.500">  2  3  1 -1</clus>
<clus scale="  144.826">  1  5  2 -1</clus>
<clus scale="   31.462">  1  3  2 -1</clus>
</clustering>
</event>
<event>
 6    0  0.4227619E+002  0.7905799E+02  0.7546771E-02  0.1331746E+00
         21   -1    0    0  504  501  0.00000000000E+00  0.00000000000E+00  0.14447727273E+03  0.14447727273E+03  0.00000000000E+00 0. -1.
         21   -1    0    0  503  502 -0.00000000000E+00 -0.00000000000E+00 -0.20011043714E+03  0.20011043714E+03  0.00000000000E+00 0. -1.
         21    1    1    2  503  506 -0.36811295808E+02  0.87533062835E+02 -0.79263379365E+02  0.12369232756E+03  0.00000000000E+00 0. -1.
         21    1    1    2  504  502  0.39360982188E+02 -0.18153675849E+02 -0.56286292855E+02  0.71042167964E+02  0.00000000000E+00 0.  1.
         21    1    1    2  505  501 -0.23839355400E+02  0.20075954270E+02  0.37000512844E+02  0.48377647282E+02  0.00000000000E+00 0. -1.
         21    1    1    2  506  505  0.21289669021E+02 -0.89455341256E+02  0.42915994969E+02  0.10147556706E+03  0.00000000000E+00 0. -1.
<scales pt_clust_3="79.05799" pt_clust_4="41.17141" pt_clust_5="31.16663" pt_clust_6="14000.00000"></scales>
<clustering>
<clus scale="   31.167">  1  5  2 -1</clus>
<clus scale="   41.171">  2  4  1 -1</clus>
<clus scale="   79.058">  2  3  1 -1</clus>
<clus scale="   31.167">  1  3  2 -1</clus>
</clustering>
</event>
<event>
 6    0  0.4227619E+002  0.1391901E+03  0.7546771E-02  0.1214423E+00
         21   -1    0    0  503  501  0.00000000000E+00  0.00000000000E+00  0.28302029403E+03  0.28302029403E+03  0.00000000000E+00 0. -1.
         21   -1    0    0  506  502 -0.00000000000E+00 -0.00000000000E+00 -0.14442493818E+04  0.14442493818E+04  0.00000000000E+00 0.  1.
         21    1    1    2  503  504  0.31720082204E+02 -0.47046608313E+02  0.24558436249E+03  0.25205401419E+03  0.00000000000E+00 0. -1.
         21    1    1    2  504  502 -0.10089084274E+03  0.10963038955E+03 -0.31966908573E+03  0.35268414883E+03  0.00000000000E+00 0.  1.
         21    1    1    2  505  501  0.13477156649E+03 -0.71611313458E+02 -0.34268310309E+03  0.37513099644E+03  0.00000000000E+00 0. -1.
         21    1    1    2  506  505 -0.65600805946E+02  0.90275322220E+01 -0.74446126141E+03  0.74740051634E+03  0.00000000000E+00 0.  1.
<scales pt_clust_3="56.74105" pt_clust_4="139.19011" pt_clust_5="14000.00000" pt_clust_6="64.61870"></scales>
<clustering>
<clus scale="   56.741">  1  3  2 -1</clus>
<clus scale="   64.619">  2  6  1 -1</clus>
<clus scale="  139.190">  1  4  2 -1</clus>
<clus scale="   56.741">  1  3  2 -1</clus>
</clustering>
</event>
<event>
 6    0  0.4227619E+002  0.7826797E+02  0.7546771E-02  0.1334040E+00
         21   -1    0    0  505  501  0.00000000000E+00  0.00000000000E+00  0.71371500071E+02  0.71371500071E+02  0.00000000000E+00 0.  1.
         21   -1    0    0  503  502 -0.00000000000E+00 -0.00000000000E+00 -0.10042333979E+04  0.10042333979E+04  0.00000000000E+00 0.  1.
         21    1    1    2  503  504  0.33175281228E+02 -0.13672822520E+02 -0.11735243572E+03  0.12271568575E+03  0.00000000000E+00 0.  1.
         21    1    1    2  504  501 -0.21606515825E+02 -0.37804573738E+02  0.26287265199E+02  0.50863028156E+02  0.00000000000E+00 0.  1.
         21    1    1    2  505  506  0.62295484251E+02  0.96043694873E+02 -0.90866347861E+02  0.14615680571E+03  0.00000000000E+00 0.  1.
         21    1    1    2  506  502 -0.73864249654E+02 -0.44566298615E+02 -0.75093037940E+03  0.75586937830E+03  0.00000000000E+00 0.  1.
<scales pt_clust_3="35.88238" pt_clust_4="43.48241" pt_clust_5="78.26797" pt_clust_6="14000.00000"></scales>
<clustering>
<clus scale="   35.882">  2  3  1 -1</clus>
<clus scale="   43.482">  1  4  2 -1</clus>
<clus scale="   78.268">  1  5  2 -1</clus>
<clus scale="   43.482">  1  3  2 -1</clus>
</clustering>
</event>
<event>
 6    0  0.4227619E+002  0.1536753E+03  0.7546771E-02  0.1196028E+00
         21   -1    0    0  506  501  0.00000000000E+00  0.00000000000E+00  0.21401102777E+04  0.21401102777E+04  0.00000000000E+00 0.  1.
         21   -1    0    0  503  502 -0.00000000000E+00 -0.00000000000E+00 -0.40071902142E+02  0.40071902142E+02  0.00000000000E+00 0.  1.
         21    1    1    2  503  504  0.58073596700E+02  0.13566017336E+03  0.21033475476E+03  0.25693760785E+03  0.00000000000E+00 0.  1.
         21    1    1    2  504  505  0.30173245745E+02  0.74813640299E+02  0.40126236719E+03  0.40929084141E+03  0.00000000000E+00 0.  1.
         21    1    1    2  505  501  0.17858679766E+02 -0.70636691368E+02  0.80644356483E+03  0.80972816294E+03  0.00000000000E+00 0.  1.
         21    1    1    2  506  502 -0.10610552221E+03 -0.13983712229E+03  0.68199768876E+03  0.70422556762E+03  0.00000000000E+00 0. -1.
<scales pt_clust_3="14000.00000" pt_clust_4="64.11773" pt_clust_5="72.85928" pt_clust_6="153.67529"></scales>
<clustering>
<clus scale="   72.859">  1  5  2 -1</clus>
<clus scale="   64.118">  1  4  2 -1</clus>
<clus scale="  153.675">  1  6  2 -1</clus>
<clus scale="   72.859">  1  3  2 -1</clus>
</clustering>
</event>
<event>
 6    0  0.4227619E+002  0.7356107E+02  0.7546771E-02  0.1348386E+00
         21   -1    0    0  506  501  0.00000000000E+00  0.00000000000E+00  0.24718481154E+03  0.24718481154E+03  0.00000000000E+00 0. -1.
         21   -1    0    0  504  502 -0.00000000000E+00 -0.00000000000E+00 -0.14732462746E+03  0.14732462746E+03  0.00000000000E+00 0. -1.
         21    1    1    2  503  502 -0.59662889748E+02  0.37145418630E+01 -0.66720403648E+02  0.89582757812E+02  0.00000000000E+00 0. -1.
         21    1    1    2  504  505  0.95137182508E+00  0.39772590509E+02 -0.29502208523E+02  0.49529227451E+02  0.00000000000E+00 0. -1.
         21    1    1    2  505  501 -0.41438834633E+02  0.17645708167E+02  0.40817141946E+02  0.60783115330E+02  0.00000000000E+00 0. -1.
         21    1    1    2  506  503  0.10015035256E+03 -0.61132840540E+02  0.15526565430E+03  0.19461433841E+03  0.00000000000E+00 0. -1.
<scales pt_clust_3="73.56107" pt_clust_4="39.78397" pt_clust_5="46.52734" pt_clust_6="14000.00000"></scales>
<clustering>
<clus scale="   39.784">  2  4  1 -1</clus>
<clus scale="   46.527">  1  5  2 -1</clus>
<clus scale="   73.561">  2  3  1 -1</clus>
<clus scale="   46.527">  1  3  2 -1</clus>
</clustering>
</event>
<event>
 6    0  0.4227619E+002  0.1150102E+03  0.7546771E-02  0.1251563E+00
         21   -1    0    0  505  501  0.00000000000E+00  0.00000000000E+00  0.37249401190E+03  0.37249401190E+03  0.00000000000E+00 0.  1.
         21   -1    0    0  503  502 -0.00000000000E+00 -0.00000000000E+00 -0.10677830483E+03  0.10677830483E+03  0.00000000000E+00 0.  1.
         21    1    1    2  503  504  0.86764078790E+02  0.12046570612E+01  0.75913926716E+02  0.11529258795E+03  0.00000000000E+00 0.  1.
         21    1    1    2  504  501  0.26176433232E+02 -0.29198876457E+02  0.78249076385E+02  0.87525413442E+02  0.00000000000E+00 0.  1.
         21    1    1    2  505  506  0.17750489353E+02  0.38236879227E+02  0.13662988305E+03  0.14298553685E+03  0.00000000000E+00 0.  1.
         21    1    1    2  506  502 -0.13069100137E+03 -0.10242659831E+02 -0.25077179079E+02  0.13346877849E+03  0.00000000000E+00 0.  1.
<scales pt_clust_3="14000.00000" pt_clust_4="39.21454" pt_clust_5="38.80945" pt_clust_6="115.01025"></scales>
<clustering>
<clus scale="   39.215">  1  4  2 -1</clus>
<clus scale="   38.809">  1  5  2 -1</clus>
<clus scale="  115.010">  2  6  1 -1</clus>
<clus scale="   39.215">  1  3  2 -1</clus>
</clustering>
</event>
<event>
 6    0  0.4227619E+002  0.9835607E+02  0.7546771E-02  0.1283791E+00
         21   -1    0    0  503  501  0.00000000000E+00  0.00000000000E+00  0.11552092277E+04  0.11552092277E+04  0.00000000000E+00 0. -1.
         21   -1    0    0  505  502 -0.00000000000E+00 -0.00000000000E+00 -0.37039290907E+03  0.37039290907E+03  0.00000000000E+00 0.  1.
         21    1    1    2  503  502  0.17205893789E+02 -0.49518533182E+02 -0.31100591815E+03  0.31539310239E+03  0.00000000000E+00 0.  1.
         21    1    1    2  504  501 -0.61143474541E+02  0.42046696064E+01  0.29375414292E+03  0.30007948981E+03  0.00000000000E+00 0.  1.
         21    1    1    2  505  506  0.30500716120E+02 -0.44487193200E+02 -0.37482080157E+02  0.65683410200E+02  0.00000000000E+00 0. -1.
         21    1    1    2  506  504  0.13436864631E+02  0.89801056776E+02  0.83955017399E+03  0.84444613432E+03  0.00000000000E+00 0. -1.
<scales pt_clust_3="52.42259" pt_clust_4="60.20988" pt_clust_5="98.35607" pt_clust_6="14000.00000"></scales>
<clustering>
<clus scale="   52.423">  2  3  1 -1</clus>
<clus scale="   60.210">  1  4  2 -1</clus>
<clus scale="   98.356">  2  5  1 -1</clus>
<clus scale="   60.210">  1  3  2 -1</clus>
</clustering>
</event>
<event>
 6    0  0.4227619E+002  0.8051737E+02  0.7546771E-02  0.1327590E+00
         21   -1    0    0  504  501  0.00000000000E+00  0.00000000000E+00  0.19068124554E+03  0.19068124554E+03  0.00000000000E+00 0.  1.
         21   -1    0    0  503  502 -0.00000000000E+00 -0.00000000000E+00 -0.87988479938E+03  0.87988479938E+03  0.00000000000E+00 0.  1.
         21    1    1    2  503  506 -0.12495762912E+03  0.21961510477E+02 -0.76430051241E+02  0.14811573093E+03  0.00000000000E+00 0.  1.
         21    1    1    2  504  505  0.25763339804E+02 -0.21150636070E+02  0.93925076150E+01  0.34631175020E+02  0.00000000000E+00 0. -1.
         21    1    1    2  505  502  0.70809862797E+02  0.35377860033E+02 -0.74886182720E+03  0.75303364194E+03  0.00000000000E+00 0.  1.
         21    1    1    2  506  501  0.28384426516E+02 -0.36188734440E+02  0.12669581698E+03  0.13478549703E+03  0.00000000000E+00 0.  1.
<scales pt_clust_3="14000.00000" pt_clust_4="33.33315" pt_clust_5="80.51737" pt_clust_6="71.43626"></scales>
<clustering>
<clus scale="   33.333">  1  4  2 -1</clus>
<clus scale="   71.436">  1  6  2 -1</clus>
<clus scale="   80.517">  2  5  1 -1</clus>
<clus scale="   33.333">  1  3  2 -1</clus>
</clustering>
</event>
<event>
 6    0  0.4227619E+002  0.8987332E+02  0.7546771E-02  0.1303159E+00
         21   -1    0    0  505  501  0.00000000000E+00  0.00000000000E+00  0.39867799129E+03  0.39867799129E+03  0.00000000000E+00 0.  1.
         21   -1    0    0  504  502 -0.00000000000E+00 -0.00000000000E+00 -0.76347452051E+03  0.76347452051E+03  0.00000000000E+00 0. -1.
         21    1    1    2  503  506 -0.48915360903E+02 -0.62856187405E+02  0.10225136992E+03  0.12961078457E+03  0.00000000000E+00 0. -1.
         21    1    1    2  504  503 -0.30366792149E+02  0.85898510109E+02 -0.66754965570E+03  0.67373825699E+03  0.00000000000E+00 0. -1.
         21    1    1    2  505  502 -0.10835319843E+02 -0.33173845457E+02  0.25207476282E+03  0.25447906442E+03  0.00000000000E+00 0.  1.
         21    1    1    2  506  501  0.90117472895E+02  0.10131522752E+02 -0.51573006255E+02  0.10432440581E+03  0.00000000000E+00 0. -1.
<scales pt_clust_3="89.87332" pt_clust_4="14000.00000" pt_clust_5="34.89854" pt_clust_6="88.24789"></scales>
<clustering>
<clus scale="   34.899">  1  5  2 -1</clus>
<clus scale="   88.248">  1  6  2 -1</clus>
<clus scale="   89.873">  1  3  2 -1</clus>
<clus scale="   34.899">  1  3  2 -1</clus>
</clustering>
</event>
<event>
 6    0  0.4227619E+002  0.7565215E+02  0.7546771E-02  0.1341863E+00
         21   -1    0    0  505  501  0.00000000000E+00  0.00000000000E+00  0.37255527086E+03  0.37255527086E+03  0.00000000000E+00 0.  1.
         21   -1    0    0  504  502 -0.00000000000E+00 -0.00000000000E+00 -0.40203282465E+03  0.40203282465E+03  0.00000000000E+00 0.  1.
         21    1    1    2  503  502 -0.53904358793E+02 -0.54144127715E+02 -0.33818950548E+03  0.34671228429E+03  0.00000000000E+00 0.  1.
         21    1    1    2  504  501 -0.57232877273E+02  0.41822883396E+02  0.22891235995E+03  0.23963644205E+03  0.00000000000E+00 0.  1.
         21    1    1    2  505  506  0.33606537677E+02  0.34064660430E+02  0.94929696568E+02  0.10630826758E+03  0.00000000000E+00 0.  1.
         21    1    1    2  506  503  0.77530698390E+02 -0.21743416111E+02 -0.15130104832E+02  0.81931101599E+02  0.00000000000E+00 0.  1.
<scales pt_clust_3="75.65215" pt_clust_4="72.04252" pt_clust_5="47.85186" pt_clust_6="14000.00000"></scales>
<clustering>
<clus scale="   47.852">  1  5  2 -1</clus>
<clus scale="   75.652">  2  3  1 -1</clus>
<clus scale="   72.043">  1  4  2 -1</clus>
<clus scale="   47.852">  1  3  2 -1</clus>
</clustering>
</event>
<event>
 6    0  0.4227619E+002  0.9677842E+02  0.7546771E-02  0.1287220E+00
         21   -1    0    0  503  501  0.00000000000E+00  0.00000000000E+00  0.84895166520E+03  0.84895166520E+03  0.00000000000E+00 0.  1.
         21   -1    0    0  506  502 -0.00000000000E+00 -0.00000000000E+00 -0.71607711838E+03  0.71607711838E+03  0.00000000000E+00 0.  1.
         21    1    1    2  503  504  0.48432528068E+02  0.47768259310E+02  0.73068773562E+02  0.99832670216E+02  0.00000000000E+00 0.  1.
         21    1    1    2  504  502 -0.91141900967E+02  0.60509771467E+02 -0.13615805793E+03  0.17466337709E+03  0.00000000000E+00 0. -1.
         21    1    1    2  505  501  0.43508325450E+02 -0.77367358717E+02  0.74015775628E+03  0.74546105651E+03  0.00000000000E+00 0.  1.
         21    1    1    2  506  505 -0.79895255043E+00 -0.30910672060E+02 -0.54419392509E+03  0.54507167976E+03  0.00000000000E+00 0.  1.
<scales pt_clust_3="66.30836" pt_clust_4="96.77842" pt_clust_5="14000.00000" pt_clust_6="30.92100"></scales>
<clustering>
<clus scale="   30.921">  2  6  1 -1</clus>
<clus scale="   66.308">  1  3  2 -1</clus>
<clus scale="   96.778">  2  4  1 -1</clus>
<clus scale="   66.308">  1  3  2 -1</clus>
</clustering>
</event>
<event>
 6    0  0.4227619E+002  0.1428806E+03  0.7546771E-02  0.1209505E+00
         21   -1    0    0  503  501  0.00000000000E+00  0.00000000000E+00  0.31850326297E+04  0.31850326297E+04  0.00000000000E+00 0.  1.
         21   -1    0    0  504  502 -0.00000000000E+00 -0.00000000000E+00 -0.31093272679E+02  0.31093272679E+02  0.00000000000E+00 0. -1.
         21    1    1    2  503  502 -0.45628168899E+02 -0.59102296949E+02  0.35438032251E+02  0.82649049792E+02  0.00000000000E+00 0. -1.
         21    1    1    2  504  506 -0.29539983010E+02 -0.56898832343E+02  0.17628902794E+03  0.18758440524E+03  0.00000000000E+00 0. -1.
         21    1    1    2  505  501  0.45251198517E+02  0.76232404673E+02  0.23200174943E+04  0.23217106246E+04  0.00000000000E+00 0.  1.
         21    1    1    2  506  505  0.29916953392E+02  0.39768724619E+02  0.62219480258E+03  0.62418182280E+03  0.00000000000E+00 0.  1.
<scales pt_clust_3="133.61239" pt_clust_4="64.10997" pt_clust_5="37.92806" pt_clust_6="37.92806"></scales>
<clustering>
<clus scale="   37.928">  5  6 -1 -1</clus>
<clus scale="   64.110">  2  4  1 -1</clus>
<clus scale="  133.612">  2  3  1 -1</clus>
<clus scale="  142.881">  1  3  2 -1</clus>
</clustering>
</event>
<event>
 6    0  0.4227619E+002  0.1546648E+03  0.7546771E-02  0.1194855E+00
         21   -1    0    0  505  501  0.00000000000E+00  0.00000000000E+00  0.48664584034E+03  0.48664584034E+03  0.00000000000E+00 0. -1.
         21   -1    0    0  503  502 -0.00000000000E+00 -0.00000000000E+00 -0.15552044443E+03  0.15552044443E+03  0.00000000000E+00 0.  1.
         21    1    1    2  503  506  0.63588536438E+02  0.12609266721E+03 -0.68869015787E+02  0.15711716656E+03  0.00000000000E+00 0.  1.
         21    1    1    2  504  501 -0.88471867707E+02 -0.11033217993E+03  0.25919418584E+03  0.29526612958E+03  0.00000000000E+00 0. -1.
         21    1    1    2  505  502  0.53484541359E+02  0.38450919573E+02  0.76417514682E+02  0.10088957295E+03  0.00000000000E+00 0. -1.
         21    1    1    2  506  504 -0.28601210090E+02 -0.54211406857E+02  0.64382711181E+02  0.88893415678E+02  0.00000000000E+00 0. -1.
<scales pt_clust_3="147.73408" pt_clust_4="30.13892" pt_clust_5="65.87161" pt_clust_6="30.13892"></scales>
<clustering>
<clus scale="   30.139">  4  6 -1 -1</clus>
<clus scale="   65.872">  1  5  2 -1</clus>
<clus scale="  147.734">  2  3  1 -1</clus>
<clus scale="   65.872">  1  3  2 -1</clus>
</clustering>
</event>
<event>
 6    0  0.4227619E+002  0.8596666E+02  0.7546771E-02  0.1312924E+00
         21   -1    0    0  504  501  0.00000000000E+00  0.00000000000E+00  0.19171531655E+03  0.19171531655E+03  0.00000000000E+00 0. -1.
         21   -1    0    0  506  502 -0.00000000000E+00 -0.00000000000E+00 -0.29215454154E+03  0.29215454154E+03  0.00000000000E+00 0. -1.
         21    1    1    2  503  501  0.67431469624E+02  0.20301574124E+02 -0.22770000574E+02  0.74011012246E+02  0.00000000000E+00 0. -1.
         21    1    1    2  504  505 -0.31784388415E+02 -0.75672768997E+01  0.88602296157E+02  0.94434516523E+02  0.00000000000E+00 0. -1.
         21    1    1    2  505  502 -0.84035544896E+02 -0.38533301982E+02  0.40919162746E+02  0.10109978263E+03  0.00000000000E+00 0. -1.
         21    1    1    2  506  503  0.48388463687E+02  0.25799004758E+02 -0.20719068331E+03  0.21432454670E+03  0.00000000000E+00 0. -1.
<scales pt_clust_3="85.96666" pt_clust_4="32.67279" pt_clust_5="14000.00000" pt_clust_6="53.71203"></scales>
<clustering>
<clus scale="   32.673">  1  4  2 -1</clus>
<clus scale="   53.712">  2  6  1 -1</clus>
<clus scale="   85.967">  1  3  2 -1</clus>
<clus scale="   32.673">  1  3  2 -1</clus>
</clustering>
</event>
<event>
 6    0  0.4227619E+002  0.8191162E+02  0.7546771E-02  0.1323712E+00
         21   -1    0    0  503  501  0.00000000000E+00  0.00000000000E+00  0.66305181941E+03  0.66305181941E+03  0.00000000000E+00 0.  1.
         21   -1    0    0  504  502 -0.00000000000E+00 -0.00000000000E+00 -0.41125897545E+03  0.41125897545E+03  0.00000000000E+00 0. -1.
         21    1    1    2  503  505 -0.15081670915E+01  0.82363354992E+02  0.56085254761E+02  0.99657175432E+02  0.00000000000E+00 0.  1.
         21    1    1    2  504  506 -0.22248282496E+02 -0.82554556450E+02 -0.29025192428E+03  0.30258291494E+03  0.00000000000E+00 0. -1.
         21    1    1    2  505  502  0.74452463653E+02  0.46848904556E+02 -0.69652707946E+02  0.11220289179E+03  0.00000000000E+00 0.  1.
         21    1    1    2  506  501 -0.50696014066E+02 -0.46657703097E+02  0.55561222142E+03  0.55986781270E+03  0.00000000000E+00 0.  1.
<scales pt_clust_3="61.73690" pt_clust_4="14000.00000" pt_clust_5="81.91162" pt_clust_6="68.89867"></scales>
<clustering>
<clus scale="   68.899">  1  6  2 -1</clus>
<clus scale="   61.737">  1  3  2 -1</clus>
<clus scale="   81.912">  1  5  2 -1</clus>
<clus scale="   68.899">  1  3  2 -1</clus>
</clustering>
</event>
<event>
 6    0  0.4227619E+002  0.1087384E+03  0.7546771E-02  0.1262924E+00
         21   -1    0    0  504  501  0.00000000000E+00  0.00000000000E+00  0.73019270792E+03  0.73019270792E+03  0.00000000000E+00 0.  1.
         21   -1    0    0  503  502 -0.00000000000E+00 -0.00000000000E+00 -0.10660822080E+03  0.10660822080E+03  0.00000000000E+00 0.  1.
         21    1    1    2  503  506 -0.50454687612E+02  0.35298729170E+02  0.51109425518E+02  0.80024053633E+02  0.00000000000E+00 0.  1.
         21    1    1    2  504  505 -0.10285234870E+03  0.33524398597E+02  0.55865200674E+03  0.56902948568E+03  0.00000000000E+00 0.  1.
         21    1    1    2  505  502  0.35919919168E+02 -0.58567280063E+02  0.12922650508E+02  0.69909668739E+02  0.00000000000E+00 0.  1.
         21    1    1    2  506  501  0.11738711715E+03 -0.10255847703E+02  0.90040435123E+00  0.11783772067E+03  0.00000000000E+00 0.  1.
<scales pt_clust_3="61.57658" pt_clust_4="108.73836" pt_clust_5="51.80395" pt_clust_6="14000.00000"></scales>
<clustering>
<clus scale="   61.577">  2  3  1 -1</clus>
<clus scale="   51.804">  2  5  1 -1</clus>
<clus scale="  108.738">  1  4  2 -1</clus>
<clus scale="  108.738">  1  3  2 -1</clus>
</clustering>
</event>
<event>
 6    0  0.4227619E+002  0.6122739E+02  0.7546771E-02  0.1392752E+00
         21   -1    0    0  503  501  0.00000000000E+00  0.00000000000E+00  0.15767408283E+03  0.15767408283E+03  0.00000000000E+00 0. -1.
         21   -1    0    0  505  502 -0.00000000000E+00 -0.00000000000E+00 -0.78882854824E+03  0.78882854824E+03  0.00000000000E+00 0.  1.
         21    1    1    2  503  506  0.51875192683E+02 -0.28593928111E+02  0.10116649026E+03  0.11723185187E+03  0.00000000000E+00 0. -1.
         21    1    1    2  504  501 -0.90409029674E+02 -0.86739308246E+01 -0.33243675419E+02  0.96716966856E+02  0.00000000000E+00 0.  1.
         21    1    1    2  505  504 -0.26004639269E+02  0.27648009090E+02 -0.64949125220E+03  0.65059937009E+03  0.00000000000E+00 0.  1.
         21    1    1    2  506  502  0.64538476259E+02  0.96198498457E+01 -0.49586028046E+02  0.81954442261E+02  0.00000000000E+00 0. -1.
<scales pt_clust_3="61.22739" pt_clust_4="14000.00000" pt_clust_5="37.95594" pt_clust_6="56.94458"></scales>
<clustering>
<clus scale="   37.956">  2  5  1 -1</clus>
<clus scale="   56.945">  2  6  1 -1</clus>
<clus scale="   61.227">  1  3  2 -1</clus>
<clus scale="   61.227">  1  3  2 -1</clus>
</clustering>
</event>
<event>
 6    0  0.4227619E+002  0.1675196E+03  0.7546771E-02  0.1180459E+00
         21   -1    0    0  506  501  0.00000000000E+00  0.00000000000E+00  0.34410299998E+03  0.34410299998E+03  0.00000000000E+00 0.  1.
         21   -1    0    0  505  502 -0.00000000000E+00 -0.00000000000E+00 -0.18835048636E+04  0.18835048636E+04  0.00000000000E+00 0. -1.
         21    1    1    2  503  504  0.42424515415E+02  0.42935561159E+02 -0.45111451429E+03  0.45513471294E+03  0.00000000000E+00 0.  1.
         21    1    1    2  504  501  0.28420224292E+02 -0.20896986501E+02  0.45067930586E+01  0.35562682369E+02  0.00000000000E+00 0. -1.
         21    1    1    2  505  503  0.85067130535E+02  0.52107821976E+02 -0.13897980439E+04  0.13933736916E+04  0.00000000000E+00 0. -1.
         21    1    1    2  506  502 -0.15591187024E+03 -0.74146396635E+02  0.29700390147E+03  0.34353677664E+03  0.00000000000E+00 0.  1.
<scales pt_clust_3="40.68980" pt_clust_4="35.27596" pt_clust_5="40.68980" pt_clust_6="159.14116"></scales>
<clustering>
<clus scale="   35.276">  1  4  2 -1</clus>
<clus scale="   40.690">  3  5 -1 -1</clus>
<clus scale="  159.141">  1  6  2 -1</clus>
<clus scale="   35.276">  1  3  2 -1</clus>
</clustering>
</event>
<event>
 6    0  0.4227619E+002  0.1721327E+03  0.7546771E-02  0.1175642E+00
         21   -1    0    0  504  501  0.00000000000E+00  0.00000000000E+00  0.25248770232E+03  0.25248770232E+03  0.00000000000E+00 0.  1.
         21   -1    0    0  505  502 -0.00000000000E+00 -0.00000000000E+00 -0.92995105242E+03  0.92995105242E+03  0.00000000000E+00 0. -1.
         21    1    1    2  503  501  0.43589722255E+02 -0.20239441703E+02 -0.31128745378E+02  0.57259913339E+02  0.00000000000E+00 0.  1.
         21    1    1    2  504  506  0.13870135043E+03 -0.36631039165E+02  0.19992198853E+03  0.24606645269E+03  0.00000000000E+00 0.  1.
         21    1    1    2  505  503 -0.58104120231E+02  0.67603796535E+02 -0.55776372136E+03  0.56484221775E+03  0.00000000000E+00 0. -1.
         21    1    1    2  506  502 -0.12418695245E+03 -0.10733315667E+02 -0.28849287189E+03  0.31427017096E+03  0.00000000000E+00 0. -1.
<scales pt_clust_3="48.05933" pt_clust_4="172.13272" pt_clust_5="88.49595" pt_clust_6="14000.00000"></scales>
<clustering>
<clus scale="   48.059">  1  3  2 -1</clus>
<clus scale="   88.496">  2  5  1 -1</clus>
<clus scale="  172.133">  1  4  2 -1</clus>
<clus scale="   48.059">  1  3  2 -1</clus>
</clustering>
</event>
<event>
 6    0  0.4227619E+002  0.5840327E+02  0.7546771E-02  0.1404657E+00
         21   -1    0    0  503  501  0.00000000000E+00  0.00000000000E+00  0.18058483628E+04  0.18058483628E+04  0.00000000000E+00 0. -1.
         21   -1    0    0  504  502 -0.00000000000E+00 -0.00000000000E+00 -0.34505598497E+02  0.34505598497E+02  0.00000000000E+00 0. -1.
         21    1    1    2  503  506 -0.33644301443E+02  0.31532890849E+02  0.25217213061E+03  0.25635336097E+03  0.00000000000E+00 0. -1.
         21    1    1    2  504  501  0.96926725675E+01 -0.77774605390E+02  0.13332532531E+04  0.13355549685E+04  0.00000000000E+00 0. -1.
         21    1    1    2  505  502 -0.39114105877E+02 -0.33301910718E+02  0.11091031112E+03  0.12222940583E+03  0.00000000000E+00 0. -1.
         21    1    1    2  506  505  0.63065734753E+02  0.79543625259E+02  0.75007069474E+02  0.12621622594E+03  0.00000000000E+00 0. -1.
<scales pt_clust_3="46.11141" pt_clust_4="14000.00000" pt_clust_5="51.87369" pt_clust_6="58.40327"></scales>
<clustering>
<clus scale="   46.111">  1  3  2 -1</clus>
<clus scale="   51.874">  2  5  1 -1</clus>
<clus scale="   58.403">  2  6  1 -1</clus>
<clus scale="   46.111">  1  3  2 -1</clus>
</clustering>
</event>
<event>
 6    0  0.4227619E+002  0.7509249E+02  0.7546771E-02  0.1343585E+00
         21   -1    0    0  504  501  0.00000000000E+00  0.00000000000E+00  0.12398468099E+04  0.12398468099E+04  0.00000000000E+00 0.  1.
         21   -1    0    0  506  502 -0.00000000000E+00 -0.00000000000E+00 -0.55405220329E+02  0.55405220329E+02  0.00000000000E+00 0. -1.
         21    1    1    2  503  501  0.64459322180E+02 -0.12346270676E+02  0.23866105297E+03  0.24752077250E+03  0.00000000000E+00 0. -1.
         21    1    1    2  504  505 -0.31850352401E+02 -0.64775365486E+01  0.87771427278E+03  0.87831585894E+03  0.00000000000E+00 0.  1.
         21    1    1    2  505  502 -0.92308237903E+02  0.14712356132E+02  0.28672712989E+02  0.97772126283E+02  0.00000000000E+00 0. -1.
         21    1    1    2  506  503  0.59699268124E+02  0.41114510928E+01  0.39393550788E+02  0.71643272456E+02  0.00000000000E+00 0. -1.
<scales pt_clust_3="46.18540" pt_clust_4="32.50236" pt_clust_5="14000.00000" pt_clust_6="75.09249"></scales>
<clustering>
<clus scale="   32.502">  1  4  2 -1</clus>
<clus scale="   46.185">  1  3  2 -1</clus>
<clus scale="   75.092">  2  6  1 -1</clus>
<clus scale="   32.502">  1  3  2 -1</clus>
</clustering>
</event>
<event>
 6    0  0.4227619E+002  0.2227229E+03  0.7546771E-02  0.1131869E+00
         21   -1    0    0  503  501  0.00000000000E+00  0.00000000000E+00  0.43062009152E+03  0.43062009152E+03  0.00000000000E+00 0. -1.
         21   -1    0    0  505  502 -0.00000000000E+00 -0.00000000000E+00 -0.66889883587E+03  0.66889883587E+03  0.00000000000E+00 0. -1.
         21    1    1    2  503  502 -0.38856632186E+02  0.33866850881E+01 -0.18356854130E+03  0.18766650436E+03  0.00000000000E+00 0. -1.
         21    1    1    2  504  501 -0.20508407283E+03 -0.33557145936E+02  0.36488895176E+03  0.41991607029E+03  0.00000000000E+00 0. -1.
         21    1    1    2  505  506  0.42997742230E+02 -0.59869702611E+01 -0.13404661619E+03  0.14090118865E+03  0.00000000000E+00 0. -1.
         21    1    1    2  506  504  0.20094296279E+03  0.36157431109E+02 -0.28555253862E+03  0.35103516409E+03  0.00000000000E+00 0. -1.
<scales pt_clust_3="39.00394" pt_clust_4="209.96404" pt_clust_5="34.26137" pt_clust_6="34.26137"></scales>
<clustering>
<clus scale="   34.261">  5  6 -1 -1</clus>
<clus scale="   39.004">  2  3  1 -1</clus>
<clus scale="  209.964">  1  4  2 -1</clus>
<clus scale="  209.964">  1  3  2 -1</clus>
</clustering>
</event>
<event>
 6    0  0.4227619E+002  0.1011081E+03  0.7546771E-02  0.1277983E+00
         21   -1    0    0  503  501  0.00000000000E+00  0.00000000000E+00  0.10700598267E+04  0.10700598267E+04  0.00000000000E+00 0.  1.
         21   -1    0    0  504  502 -0.00000000000E+00 -0.00000000000E+00 -0.19358724965E+03  0.19358724965E+03  0.00000000000E+00 0.  1.
         21    1    1    2  503  505 -0.17901559067E+02  0.39433704754E+02  0.67578531899E+02  0.80264194142E+02  0.00000000000E+00 0. -1.
         21    1    1    2  504  506 -0.36436091605E+02 -0.98392660450E+02 -0.14137648529E+03  0.17605685160E+03  0.00000000000E+00 0.  1.
         21    1    1    2  505  502  0.98610271459E+02  0.10037782020E+02  0.62655985327E+02  0.11726259081E+03  0.00000000000E+00 0.  1.
         21    1    1    2  506  501 -0.44272620787E+02  0.48921173677E+02  0.88761454510E+03  0.89006343980E+03  0.00000000000E+00 0.  1.
<scales pt_clust_3="43.30685" pt_clust_4="101.10805" pt_clust_5="97.94230" pt_clust_6="14000.00000"></scales>
<clustering>
<clus scale="   43.307">  1  3  2 -1</clus>
<clus scale="   97.942">  2  5  1 -1</clus>
<clus scale="  101.108">  2  4  1 -1</clus>
<clus scale="   43.307">  1  3  2 -1</clus>
</clustering>
</event>
<event>
 6    0  0.4227619E+002  0.7543944E+02  0.7546771E-02  0.1342516E+00
         21   -1    0    0  503  501  0.00000000000E+00  0.00000000000E+00  0.22400968706E+02  0.22400968706E+02  0.00000000000E+00 0. -1.
         21   -1    0    0  506  502 -0.00000000000E+00 -0.00000000000E+00 -0.30513754208E+04  0.30513754208E+04  0.00000000000E+00 0. -1.
         21    1    1    2  503  504 -0.28379324609E+02  0.69377616020E+02 -0.73227078525E+02  0.10478952571E+03  0.00000000000E+00 0. -1.
         21    1    1    2  504  505  0.51001960178E+02  0.32525233671E+02 -0.20282505010E+03  0.21165323460E+03  0.00000000000E+00 0.  1.
         21    1    1    2  505  502 -0.45006335778E+02 -0.24486283303E+02 -0.18803253120E+04  0.18810232394E+04  0.00000000000E+00 0. -1.
         21    1    1    2  506  501  0.22383700209E+02 -0.77416566387E+02 -0.87259701142E+03  0.87631038972E+03  0.00000000000E+00 0. -1.
<scales pt_clust_3="75.43944" pt_clust_4="51.44621" pt_clust_5="51.23620" pt_clust_6="14000.00000"></scales>
<clustering>
<clus scale="   51.236">  2  5  1 -1</clus>
<clus scale="   51.446">  2  4  1 -1</clus>
<clus scale="   75.439">  1  3  2 -1</clus>
<clus scale="   75.439">  1  3  2 -1</clus>
</clustering>
</event>
<event>
 6    0  0.4227619E+002  0.7283144E+02  0.7546771E-02  0.1350721E+00
         21   -1    0    0  505  501  0.00000000000E+00  0.00000000000E+00  0.12584139601E+04  0.12584139601E+04  0.00000000000E+00 0. -1.
         21   -1    0    0  506  502 -0.00000000000E+00 -0.00000000000E+00 -0.26670822481E+02  0.26670822481E+02  0.00000000000E+00 0.  1.
         21    1    1    2  503  501 -0.43429624571E+02 -0.59280615257E+02  0.23514076799E+03  0.24635645802E+03  0.00000000000E+00 0.  1.
         21    1    1    2  504  502  0.53142365715E+02 -0.66639509737E+01  0.11850824345E+03  0.13004892557E+03  0.00000000000E+00 0.  1.
         21    1    1    2  505  504  0.63104917178E+02  0.38554371120E+02  0.77991258675E+03  0.78341069247E+03  0.00000000000E+00 0. -1.
         21    1    1    2  506  503 -0.72817658323E+02  0.27390195111E+02  0.98181539467E+02  0.12526870656E+03  0.00000000000E+00 0.  1.
<scales pt_clust_3="14000.00000" pt_clust_4="53.55856" pt_clust_5="72.83144" pt_clust_6="44.78205"></scales>
<clustering>
<clus scale="   53.559">  2  4  1 -1</clus>
<clus scale="   44.782">  2  6  1 -1</clus>
<clus scale="   72.831">  1  5  2 -1</clus>
<clus scale="   72.831">  1  3  2 -1</clus>
</clustering>
</event>
<event>
 6    0  0.4227619E+002  0.1007616E+03  0.7546771E-02  0.1278703E+00
         21   -1    0    0  504  501  0.00000000000E+00  0.00000000000E+00  0.17188403882E+04  0.17188403882E+04  0.00000000000E+00 0. -1.
         21   -1    0    0  506  502 -0.00000000000E+00 -0.00000000000E+00 -0.71215582272E+02  0.71215582272E+02  0.00000000000E+00 0.  1.
         21    1    1    2  503  505  0.93727069127E+02  0.38377199734E+02  0.20007947351E+03  0.22425291228E+03  0.00000000000E+00 0.  1.
         21    1    1    2  504  503 -0.27171746115E+02  0.21696599421E+02  0.95367370015E+03  0.95430737846E+03  0.00000000000E+00 0. -1.
         21    1    1    2  505  502  0.18853096291E+02 -0.35874794788E+02 -0.47760143104E+02  0.62637619768E+02  0.00000000000E+00 0.  1.
         21    1    1    2  506  501 -0.85408419303E+02 -0.24199004368E+02  0.54163177534E+03  0.54885805993E+03  0.00000000000E+00 0. -1.
<scales pt_clust_3="14000.00000" pt_clust_4="34.77134" pt_clust_5="40.21753" pt_clust_6="100.76156"></scales>
<clustering>
<clus scale="   34.771">  1  4  2 -1</clus>
<clus scale="   40.218">  2  5  1 -1</clus>
<clus scale="  100.762">  1  6  2 -1</clus>
<clus scale="   34.771">  1  3  2 -1</clus>
</clustering>
</event>
<event>
 6    0  0.4227619E+002  0.2180257E+03  0.7546771E-02  0.1135364E+00
         21   -1    0    0  504  501  0.00000000000E+00  0.00000000000E+00  0.45168301525E+03  0.45168301525E+03  0.00000000000E+00 0.  1.
         21   -1    0    0  503  502 -0.00000000000E+00 -0.00000000000E+00 -0.28820486385E+03  0.28820486385E+03  0.00000000000E+00 0. -1.
         21    1    1    2  503  506  0.31615063702E+02  0.57118816945E+02  0.75294305578E+02  0.99655927844E+02  0.00000000000E+00 0. -1.
         21    1    1    2  504  505  0.20127488127E+03 -0.12204334885E+03  0.88702089880E+02  0.25154366933E+03  0.00000000000E+00 0.  1.
         21    1    1    2  505  502 -0.18415021219E+03  0.10489005970E+03 -0.12721583701E+03  0.24717826454E+03  0.00000000000E+00 0. -1.
         21    1    1    2  506  501 -0.48739732781E+02 -0.39965527797E+02  0.12669759294E+03  0.14151001739E+03  0.00000000000E+00 0.  1.
<scales pt_clust_3="49.56876" pt_clust_4="218.02568" pt_clust_5="14000.00000" pt_clust_6="63.03019"></scales>
<clustering>
<clus scale="   63.030">  1  6  2 -1</clus>
<clus scale="   49.569">  1  3  2 -1</clus>
<clus scale="  218.026">  1  4  2 -1</clus>
<clus scale="   63.030">  1  3  2 -1</clus>
</clustering>
</event>
<event>
 6    0  0.4227619E+002  0.9319985E+02  0.7546771E-02  0.1295283E+00
         21   -1    0    0  506  501  0.00000000000E+00  0.00000000000E+00  0.41632058395E+03  0.41632058395E+03  0.00000000000E+00 0.  1.
         21   -1    0    0  505  502 -0.00000000000E+00 -0.00000000000E+00 -0.24834794258E+03  0.24834794258E+03  0.00000000000E+00 0. -1.
         21    1    1    2  503  504 -0.71893039819E+02 -0.95828014132E+02 -0.13551848383E+03  0.18087807199E+03  0.00000000000E+00 0. -1.
         21    1    1    2  504  501  0.49915557475E+02  0.17116252829E+02  0.29309917858E+03  0.29781144618E+03  0.00000000000E+00 0.  1.
         21    1    1    2  505  503  0.61343808981E+02  0.42514144831E+02 -0.61268855260E+02  0.96562870897E+02  0.00000000000E+00 0.  1.
         21    1    1    2  506  502 -0.39366326638E+02  0.36197616472E+02  0.71660801884E+02  0.89416137458E+02  0.00000000000E+00 0.  1.
<scales pt_clust_3="93.19985" pt_clust_4="52.76864" pt_clust_5="14000.00000" pt_clust_6="47.99292"></scales>
<clustering>
<clus scale="   52.769">  1  4  2 -1</clus>
<clus scale="   47.993">  1  6  2 -1</clus>
<clus scale="   93.200">  1  3  2 -1</clus>
<clus scale="   52.769">  1  3  2 -1</clus>
</clustering>
</event>
<event>
 6    0  0.4227619E+002  0.1012086E+03  0.7546771E-02  0.1277775E+00
         21   -1    0    0  503  501  0.00000000000E+00  0.00000000000E+00  0.26536464450E+03  0.26536464450E+03  0.00000000000E+00 0. -1.
         21   -1    0    0  504  502 -0.00000000000E+00 -0.00000000000E+00 -0.13206108536E+04  0.13206108536E+04  0.00000000000E+00 0.  1.
         21    1    1    2  503  505 -0.77435072947E+02 -0.98404420096E+02  0.18908770451E+03  0.22679016825E+03  0.00000000000E+00 0. -1.
         21    1    1    2  504  506  0.12143603417E+02  0.41052680217E+02 -0.20632687448E+03  0.21072154325E+03  0.00000000000E+00 0. -1.
         21    1    1    2  505  502  0.10836994463E+02  0.74430260560E+02  0.28498055384E+02  0.80432849611E+02  0.00000000000E+00 0. -1.
         21    1    1    2  506  501  0.54454475067E+02 -0.17078520681E+02 -0.10665050946E+04  0.10680309370E+04  0.00000000000E+00 0.  1.
<scales pt_clust_3="14000.00000" pt_clust_4="42.81109" pt_clust_5="101.20859" pt_clust_6="69.77482"></scales>
<clustering>
<clus scale="   42.811">  2  4  1 -1</clus>
<clus scale="   69.775">  2  6  1 -1</clus>
<clus scale="  101.209">  2  5  1 -1</clus>
<clus scale="  101.209">  1  3  2 -1</clus>
</clustering>
</event>
<event>
 6    0  0.4227619E+002  0.1394958E+03  0.7546771E-02  0.1214009E+00
         21   -1    0    0  503  501  0.00000000000E+00  0.00000000000E+00  0.74763916858E+03  0.74763916858E+03  0.00000000000E+00 0. -1.
         21   -1    0    0  506  502 -0.00000000000E+00 -0.00000000000E+00 -0.17809138515E+03  0.17809138515E+03  0.00000000000E+00 0.  1.
         21    1    1    2  503  504 -0.90303586313E+01  0.36347587613E+02  0.67358496665E+02  0.77070497438E+02  0.00000000000E+00 0.  1.
         21    1    1    2  504  502 -0.55440825518E+02 -0.43357861756E+02 -0.84164818960E+02  0.10971465746E+03  0.00000000000E+00 0.  1.
         21    1    1    2  505  501  0.19944471846E+02  0.11329876256E+03  0.61046646541E+03  0.62121147522E+03  0.00000000000E+00 0. -1.
         21    1    1    2  506  505  0.44526712303E+02 -0.10628848842E+03 -0.24112359694E+02  0.11773392361E+03  0.00000000000E+00 0.  1.
<scales pt_clust_3="37.45256" pt_clust_4="70.09575" pt_clust_5="139.49577" pt_clust_6="14000.00000"></scales>
<clustering>
<clus scale="   37.453">  1  3  2 -1</clus>
<clus scale="   70.096">  2  4  1 -1</clus>
<clus scale="  139.496">  1  5  2 -1</clus>
<clus scale="   37.453">  1  3  2 -1</clus>
</clustering>
</event>
<event>
 6    0  0.4227619E+002  0.6227423E+02  0.7546771E-02  0.1388528E+00
         21   -1    0    0  504  501  0.00000000000E+00  0.00000000000E+00  0.33610789959E+03  0.33610789959E+03  0.00000000000E+00 0.  1.
         21   -1    0    0  503  502 -0.00000000000E+00 -0.00000000000E+00 -0.15887610607E+03  0.15887610607E+03  0.00000000000E+00 0.  1.
         21    1    1    2  503  505  0.44282636946E+02 -0.86876125189E+02 -0.23767000075E+02  0.10036574792E+03  0.00000000000E+00 0.  1.
         21    1    1    2  504  506  0.17842389010E+02  0.50362189036E+02  0.15931038362E+03  0.16803124489E+03  0.00000000000E+00 0.  1.
         21    1    1    2  505  501 -0.60326651100E+02 -0.18919334780E+02  0.11703979917E+03  0.13302466182E+03  0.00000000000E+00 0.  1.
         21    1    1    2  506  502 -0.17983748562E+01  0.55433270933E+02 -0.75351389188E+02  0.93562351034E+02  0.00000000000E+00 0.  1.
<scales pt_clust_3="14000.00000" pt_clust_4="53.42940" pt_clust_5="50.55125" pt_clust_6="62.27423"></scales>
<clustering>
<clus scale="   53.429">  1  4  2 -1</clus>
<clus scale="   50.551">  1  5  2 -1</clus>
<clus scale="   62.274">  2  6  1 -1</clus>
<clus scale="   53.429">  1  3  2 -1</clus>
</clustering>
</event>
<event>
 6    0  0.4227619E+002  0.1112050E+03  0.7546771E-02  0.1258355E+00
         21   -1    0    0  504  501  0.00000000000E+00  0.00000000000E+00  0.73085449549E+03  0.73085449549E+03  0.00000000000E+00 0. -1.
         21   -1    0    0  503  502 -0.00000000000E+00 -0.00000000000E+00 -0.35475863925E+03  0.35475863925E+03  0.00000000000E+00 0. -1.
         21    1    1    2  503  506 -0.37135559314E+02  0.36665573433E+02 -0.30116852043E+02  0.60253122888E+02  0.00000000000E+00 0. -1.
         21    1    1    2  504  502  0.26311258810E+02  0.23754812366E+02 -0.41449115710E+01  0.35689686782E+02  0.00000000000E+00 0.  1.
         21    1    1    2  505  501 -0.32167924274E+02 -0.10733998597E+03  0.69195610139E+03  0.70097067998E+03  0.00000000000E+00 0. -1.
         21    1    1    2  506  505  0.42992224778E+02  0.46919600172E+02 -0.28159848154E+03  0.28869964509E+03  0.00000000000E+00 0. -1.
<scales pt_clust_3="52.13119" pt_clust_4="35.44818" pt_clust_5="111.20502" pt_clust_6="14000.00000"></scales>
<clustering>
<clus scale="   35.448">  2  4  1 -1</clus>
<clus scale="   52.131">  2  3  1 -1</clus>
<clus scale="  111.205">  1  5  2 -1</clus>
<clus scale="  111.205">  1  3  2 -1</clus>
</clustering>
</event>
<event>
 6    0  0.4227619E+002  0.1166871E+03  0.7546771E-02  0.1248665E+00
         21   -1    0    0  504  501  0.00000000000E+00  0.00000000000E+00  0.22386094723E+03  0.22386094723E+03  0.00000000000E+00 0.  1.
         21   -1    0    0  505  502 -0.00000000000E+00 -0.00000000000E+00 -0.12740707032E+04  0.12740707032E+04  0.00000000000E+00 0.  1.
         21    1    1    2  503  502 -0.12275327056E+03  0.29399534888E+02 -0.79350959269E+03  0.80348626110E+03  0.00000000000E+00 0.  1.
         21    1    1    2  504  506 -0.44967550187E+02 -0.92181264993E+02  0.88381389329E+02  0.13539104906E+03  0.00000000000E+00 0.  1.
         21    1    1    2  505  501  0.34233742530E+02 -0.40129577382E+02 -0.38273149226E+03  0.38634922969E+03  0.00000000000E+00 0.  1.
         21    1    1    2  506  503  0.13348707822E+03  0.10291130749E+03  0.37649939678E+02  0.17270511057E+03  0.00000000000E+00 0.  1.
<scales pt_clust_3="92.26097" pt_clust_4="14000.00000" pt_clust_5="52.74782" pt_clust_6="116.68709"></scales>
<clustering>
<clus scale="   52.748">  2  5  1 -1</clus>
<clus scale="   92.261">  2  3  1 -1</clus>
<clus scale="  116.687">  2  6  1 -1</clus>
<clus scale="  116.687">  1  3  2 -1</clus>
</clustering>
</event>
<event>
 6    0  0.4227619E+002  0.1049868E+03  0.7546771E-02  0.1270146E+00
         21   -1    0    0  503  501  0.00000000000E+00  0.00000000000E+00  0.50398825344E+03  0.50398825344E+03  0.00000000000E+00 0. -1.
         21   -1    0    0  505  502 -0.00000000000E+00 -0.00000000000E+00 -0.13781180550E+03  0.13781180550E+03  0.00000000000E+00 0. -1.
         21    1    1    2  503  506 -0.34494425588E+02  0.28861231323E+02  0.19554096586E+03  0.20064671789E+03  0.00000000000E+00 0. -1.
         21    1    1    2  504  501 -0.81045179751E+02 -0.57013042140E+02  0.21396025099E+03  0.23579185130E+03  0.00000000000E+00 0. -1.
         21    1    1    2  505  504  0.73006236986E+02  0.68545764096E+02  0.36252049347E+02  0.10650184738E+03  0.00000000000E+00 0.  1.
         21    1    1    2  506  502  0.42533368353E+02 -0.40393953279E+02 -0.79576818257E+02  0.98859642367E+02  0.00000000000E+00 0. -1.
<scales pt_clust_3="44.97595" pt_clust_4="14000.00000" pt_clust_5="104.98684" pt_clust_6="57.24327"></scales>
<clustering>
<clus scale="   44.976">  1  3  2 -1</clus>
<clus scale="   57.243">  2  6  1 -1</clus>
<clus scale="  104.987">  2  5  1 -1</clus>
<clus scale="   44.976">  1  3  2 -1</clus>
</clustering>
</event>
<event>
 6    0  0.4227619E+002  0.1939679E+03  0.7546771E-02  0.1154930E+00
         21   -1    0    0  503  501  0.00000000000E+00  0.00000000000E+00  0.46433741560E+03  0.46433741560E+03  0.00000000000E+00 0.  1.
         21   -1    0    0  504  502 -0.00000000000E+00 -0.00000000000E+00 -0.70049249953E+03  0.70049249953E+03  0.00000000000E+00 0.  1.
         21    1    1    2  503  506 -0.23768554052E+02 -0.27995494338E+02  0.22406757612E+03  0.22705719662E+03  0.00000000000E+00 0.  1.
         21    1    1    2  504  505 -0.43970066511E+02  0.27548926181E+02 -0.51533648721E+03  0.51794208666E+03  0.00000000000E+00 0.  1.
         21    1    1    2  505  501 -0.15259344852E+03  0.39887814430E+02 -0.59237555501E+02  0.16847814770E+03  0.00000000000E+00 0.  1.
         21    1    1    2  506  502  0.22033206908E+03 -0.39441246273E+02  0.11435138265E+03  0.25135248415E+03  0.00000000000E+00 0.  1.
<scales pt_clust_3="36.72454" pt_clust_4="51.91665" pt_clust_5="193.96793" pt_clust_6="14000.00000"></scales>
<clustering>
<clus scale="   36.725">  1  3  2 -1</clus>
<clus scale="   51.917">  2  4  1 -1</clus>
<clus scale="  193.968">  2  5  1 -1</clus>
<clus scale="   36.725">  1  3  2 -1</clus>
</clustering>
</event>
<event>
 6    0  0.4227619E+002  0.8793439E+02  0.7546771E-02  0.1307932E+00
         21   -1    0    0  505  501  0.00000000000E+00  0.00000000000E+00  0.29912898380E+03  0.29912898380E+03  0.00000000000E+00 0.  1.
         21   -1    0    0  506  502 -0.00000000000E+00 -0.00000000000E+00 -0.22551424518E+03  0.22551424518E+03  0.00000000000E+00 0.  1.
         21    1    1    2  503  502 -0.65740552285E+02 -0.67398315228E+02 -0.17704954245E+03  0.20052654087E+03  0.00000000000E+00 0.  1.
         21    1    1    2  504  503  0.41079165401E+02  0.52308397200E+02  0.14118550308E+02  0.67992644532E+02  0.00000000000E+00 0. -1.
         21    1    1    2  505  504 -0.65497598080E+01  0.48591977954E+02  0.88691872259E+02  0.10134262617E+03  0.00000000000E+00 0. -1.
         21    1    1    2  506  501  0.31211146692E+02 -0.33502059926E+02  0.14785385851E+03  0.15478141740E+03  0.00000000000E+00 0.  1.
<scales pt_clust_3="14000.00000" pt_clust_4="87.93439" pt_clust_5="30.24304" pt_clust_6="45.78781"></scales>
<clustering>
<clus scale="   45.788">  1  6  2 -1</clus>
<clus scale="   30.243">  1  5  2 -1</clus>
<clus scale="   87.934">  1  4  2 -1</clus>
<clus scale="   45.788">  1  3  2 -1</clus>
</clustering>
</event>
<event>
 6    0  0.4227619E+002  0.9636482E+02  0.7546771E-02  0.1288131E+00
         21   -1    0    0  504  501  0.00000000000E+00  0.00000000000E+00  0.23902705853E+02  0.23902705853E+02  0.00000000000E+00 0. -1.
         21   -1    0    0  506  502 -0.00000000000E+00 -0.00000000000E+00 -0.11395607910E+04  0.11395607910E+04  0.00000000000E+00 0. -1.
         21    1    1    2  503  505 -0.52404457083E+02 -0.73296712235E+02 -0.20296491036E+03  0.22206618380E+03  0.00000000000E+00 0. -1.
         21    1    1    2  504  503  0.50130298756E+02 -0.46255327742E+02 -0.24975455186E+03  0.25890140666E+03  0.00000000000E+00 0.  1.
         21    1    1    2  505  502  0.48192040586E+02  0.87342239869E+02 -0.50838381772E+03  0.51807841661E+03  0.00000000000E+00 0. -1.
         21    1    1    2  506  501 -0.45917882259E+02  0.32209800109E+02 -0.15455480521E+03  0.16441748979E+03  0.00000000000E+00 0. -1.
<scales pt_clust_3="14000.00000" pt_clust_4="54.83859" pt_clust_5="96.36482" pt_clust_6="56.08853"></scales>
<clustering>
<clus scale="   56.089">  1  6  2 -1</clus>
<clus scale="   54.839">  1  4  2 -1</clus>
<clus scale="   96.365">  2  5  1 -1</clus>
<clus scale="   56.089">  1  3  2 -1</clus>
</clustering>
</event>
<event>
 6    0  0.4227619E+002  0.9544332E+02  0.7546771E-02  0.1290181E+00
         21   -1    0    0  504  501  0.00000000000E+00  0.00000000000E+00  0.26105255358E+04  0.26105255358E+04  0.00000000000E+00 0. -1.
         21   -1    0    0  506  502 -0.00000000000E+00 -0.00000000000E+00 -0.33396521398E+02  0.33396521398E+02  0.00000000000E+00 0.  1.
         21    1    1    2  503  502  0.77320580401E+02 -0.93357465426E+02  0.95320863742E+02  0.15420815662E+03  0.00000000000E+00 0.  1.
         21    1    1    2  504  503 -0.46703363199E+02  0.82692009420E+02  0.12531671219E+04  0.12567605213E+04  0.00000000000E+00 0. -1.
         21    1    1    2  505  501 -0.25345416871E+02 -0.21672017988E+02  0.10893677370E+04  0.10898780358E+04  0.00000000000E+00 0. -1.
         21    1    1    2  506  505 -0.52718003318E+01  0.32337473994E+02  0.13927329180E+03  0.14307534348E+03  0.00000000000E+00 0. -1.
<scales pt_clust_3="95.44332" pt_clust_4="14000.00000" pt_clust_5="33.21065" pt_clust_6="32.76437"></scales>
<clustering>
<clus scale="   32.764">  2  6  1 -1</clus>
<clus scale="   33.211">  1  5  2 -1</clus>
<clus scale="   95.443">  2  3  1 -1</clus>
<clus scale="   33.211">  1  3  2 -1</clus>
</clustering>
</event>
<event>
 6    0  0.4227619E+002  0.7882672E+02  0.7546771E-02  0.1332414E+00
         21   -1    0    0  505  501  0.00000000000E+00  0.00000000000E+00  0.16115090244E+04  0.16115090244E+04  0.00000000000E+00 0. -1.
         21   -1    0    0  506  502 -0.00000000000E+00 -0.00000000000E+00 -0.50919835600E+03  0.50919835600E+03  0.00000000000E+00 0. -1.
         21    1    1    2  503  501  0.39135605932E+02 -0.68366731566E+02  0.15714608774E+04  0.15734341088E+04  0.00000000000E+00 0. -1.
         21    1    1    2  504  503 -0.66604986470E+02  0.76754443886E+02 -0.39715885111E+03  0.40995441441E+03  0.00000000000E+00 0. -1.
         21    1    1    2  505  502  0.45231136725E+02  0.17783004673E+02  0.98402005548E+01  0.49587503784E+02  0.00000000000E+00 0. -1.
         21    1    1    2  506  504 -0.17761756186E+02 -0.26170716993E+02 -0.81831558427E+02  0.87731353377E+02  0.00000000000E+00 0.  1.
<scales pt_clust_3="78.82672" pt_clust_4="14000.00000" pt_clust_5="47.38630" pt_clust_6="31.62889"></scales>
<clustering>
<clus scale="   31.629">  2  6  1 -1</clus>
<clus scale="   47.386">  2  5  1 -1</clus>
<clus scale="   78.827">  1  3  2 -1</clus>
<clus scale="   78.827">  1  3  2 -1</clus>
</clustering>
</event>
<event>
 6    0  0.4227619E+002  0.1465094E+03  0.7546771E-02  0.1204829E+00
         21   -1    0    0  504  501  0.00000000000E+00  0.00000000000E+00  0.60482758152E+03  0.60482758152E+03  0.00000000000E+00 0.  1.
         21   -1    0    0  503  502 -0.00000000000E+00 -0.00000000000E+00 -0.13713766591E+03  0.13713766591E+03  0.00000000000E+00 0.  1.
         21    1    1    2  503  505 -0.12778566772E+02  0.13689089455E+03  0.51731001423E+01  0.13758331928E+03  0.00000000000E+00 0.  1.
         21    1    1    2  504  506 -0.56479875592E+02  0.19758466975E+02  0.20361298423E+03  0.21222304472E+03  0.00000000000E+00 0. -1.
         21    1    1    2  505  501  0.27709789296E+02 -0.16386813468E+03  0.29371592937E+03  0.33747539933E+03  0.00000000000E+00 0.  1.
         21    1    1    2  506  502  0.41548653067E+02  0.72187731622E+01 -0.34812098131E+02  0.54683484106E+02  0.00000000000E+00 0.  1.
<scales pt_clust_3="146.50939" pt_clust_4="58.12775" pt_clust_5="14000.00000" pt_clust_6="42.17110"></scales>
<clustering>
<clus scale="   42.171">  2  6  1 -1</clus>
<clus scale="   58.128">  1  4  2 -1</clus>
<clus scale="  146.509">  2  3  1 -1</clus>
<clus scale="   58.128">  1  3  2 -1</clus>
</clustering>
</event>
<event>
 6    0  0.4227619E+002  0.1092898E+03  0.7546771E-02  0.1261891E+00
         21   -1    0    0  505  501  0.00000000000E+00  0.00000000000E+00  0.34146791820E+04  0.34146791820E+04  0.00000000000E+00 0. -1.
         21   -1    0    0  504  502 -0.00000000000E+00 -0.00000000000E+00 -0.31597318980E+02  0.31597318980E+02  0.00000000000E+00 0. -1.
         21    1    1    2  503  502 -0.73199392728E+02 -0.10751687109E+03  0.18931255829E+03  0.22968951519E+03  0.00000000000E+00 0. -1.
         21    1    1    2  504  506 -0.78837794076E+01  0.97916450288E+02  0.23952040424E+03  0.25888184421E+03  0.00000000000E+00 0. -1.
         21    1    1    2  505  503 -0.29999234318E+02  0.61962772616E+01  0.49557326620E+03  0.49651909337E+03  0.00000000000E+00 0. -1.
         21    1    1    2  506  501  0.11108240645E+03  0.34041435356E+01  0.24586756343E+04  0.24611860482E+04  0.00000000000E+00 0. -1.
<scales pt_clust_3="109.28979" pt_clust_4="14000.00000" pt_clust_5="30.63246" pt_clust_6="86.23054"></scales>
<clustering>
<clus scale="   30.632">  1  5  2 -1</clus>
<clus scale="   86.231">  1  6  2 -1</clus>
<clus scale="  109.290">  2  3  1 -1</clus>
<clus scale="   30.632">  1  3  2 -1</clus>
</clustering>
</event>
<event>
 6    0  0.4227619E+002  0.8070674E+02  0.7546771E-02  0.1327058E+00
         21   -1    0    0  503  501  0.00000000000E+00  0.00000000000E+00  0.43432507447E+03  0.43432507447E+03  0.00000000000E+00 0.  1.
         21   -1    0    0  504  502 -0.00000000000E+00 -0.00000000000E+00 -0.56387599335E+03  0.56387599335E+03  0.00000000000E+00 0. -1.
         21    1    1    2  503  505 -0.16849581394E+01 -0.34902501649E+02  0.11277558229E+03  0.11806504845E+03  0.00000000000E+00 0.  1.
         21    1    1    2  504  501 -0.32130416323E+02  0.80004719470E+02 -0.10741925929E+03  0.13773894169E+03  0.00000000000E+00 0. -1.
         21    1    1    2  505  506 -0.45827827109E+02 -0.14573921672E+02  0.29765050586E+03  0.30151021968E+03  0.00000000000E+00 0.  1.
         21    1    1    2  506  502  0.79643201571E+02 -0.30528296149E+02 -0.43255774774E+03  0.44088685800E+03  0.00000000000E+00 0. -1.
<scales pt_clust_3="34.94315" pt_clust_4="80.70674" pt_clust_5="67.01404" pt_clust_6="14000.00000"></scales>
<clustering>
<clus scale="   34.943">  1  3  2 -1</clus>
<clus scale="   67.014">  1  5  2 -1</clus>
<clus scale="   80.707">  1  4  2 -1</clus>
<clus scale="   34.943">  1  3  2 -1</clus>
</clustering>
</event>
<event>
 6    0  0.4227619E+002  0.2333608E+03  0.7546771E-02  0.1124296E+00
         21   -1    0    0  503  501  0.00000000000E+00  0.00000000000E+00  0.21581091007E+03  0.21581091007E+03  0.00000000000E+00 0.  1.
         21   -1    0    0  504  502 -0.00000000000E+00 -0.00000000000E+00 -0.55706388580E+03  0.55706388580E+03  0.00000000000E+00 0. -1.
         21    1    1    2  503  505 -0.13304469706E+03 -0.78348465600E+01 -0.99593192041E+02  0.16637632085E+03  0.00000000000E+00 0. -1.
         21    1    1    2  504  506  0.30667677307E+02  0.84060056282E+02 -0.11452408980E+03  0.14533535921E+03  0.00000000000E+00 0. -1.
         21    1    1    2  505  502 -0.10180341341E+03 -0.67275320578E+02 -0.20817817524E+03  0.24130490336E+03  0.00000000000E+00 0. -1.
         21    1    1    2  506  501  0.20418043316E+03 -0.89498891440E+01  0.81042481349E+02  0.21985821246E+03  0.00000000000E+00 0.  1.
<scales pt_clust_3="87.13609" pt_clust_4="89.47960" pt_clust_5="87.13609" pt_clust_6="209.21684"></scales>
<clustering>
<clus scale="   89.480">  2  4  1 -1</clus>
<clus scale="   87.136">  3  5 -1 -1</clus>
<clus scale="  209.217">  1  6  2 -1</clus>
<clus scale="  209.217">  1  3  2 -1</clus>
</clustering>
</event>
<event>
 6    0  0.4227619E+002  0.1059666E+03  0.7546771E-02  0.1268227E+00
         21   -1    0    0  503  501  0.00000000000E+00  0.00000000000E+00  0.21932495097E+03  0.21932495097E+03  0.00000000000E+00 0.  1.
         21   -1    0    0  506  502 -0.00000000000E+00 -0.00000000000E+00 -0.34611412099E+03  0.34611412099E+03  0.00000000000E+00 0.  1.
         21    1    1    2  503  504 -0.94491577659E+02  0.37462024864E+02 -0.43935753025E+02  0.11073577538E+03  0.00000000000E+00 0.  1.
         21    1    1    2  504  502 -0.31701499407E+02  0.91417949272E-01 -0.66892747414E+02  0.74024543758E+02  0.00000000000E+00 0. -1.
         21    1    1    2  505  501 -0.26829256250E+01 -0.65211703197E+02  0.15302688719E+03  0.16636403615E+03  0.00000000000E+00 0.  1.
         21    1    1    2  506  505  0.12887600269E+03  0.27658260383E+02 -0.16898755677E+03  0.21431471667E+03  0.00000000000E+00 0.  1.
<scales pt_clust_3="105.96663" pt_clust_4="31.70163" pt_clust_5="65.30068" pt_clust_6="14000.00000"></scales>
<clustering>
<clus scale="   31.702">  2  4  1 -1</clus>
<clus scale="   65.301">  1  5  2 -1</clus>
<clus scale="  105.967">  1  3  2 -1</clus>
<clus scale="   65.301">  1  3  2 -1</clus>
</clustering>
</event>
<event>
 6    0  0.4227619E+002  0.1149399E+03  0.7546771E-02  0.1251686E+00
         21   -1    0    0  506  501  0.00000000000E+00  0.00000000000E+00  0.62290269702E+03  0.62290269702E+03  0.00000000000E+00 0.  1.
         21   -1    0    0  504  502 -0.00000000000E+00 -0.00000000000E+00 -0.30149316078E+03  0.30149316078E+03  0.00000000000E+00 0. -1.
         21    1    1    2  503  502  0.32291983785E+02  0.75831121882E+01 -0.10774830620E+03  0.11273851736E+03  0.00000000000E+00 0. -1.
         21    1    1    2  504  505  0.59067268838E+00  0.10539662376E+03 -0.16806295511E+03  0.19837831050E+03  0.00000000000E+00 0. -1.
         21    1    1    2  505  501 -0.27935780897E+02 -0.41351451013E+02  0.10992593457E+03  0.12072307752E+03  0.00000000000E+00 0.  1.
         21    1    1    2  506  503 -0.49468755758E+01 -0.71628284935E+02  0.48729486299E+03  0.49255595243E+03  0.00000000000E+00 0.  1.
<scales pt_clust_3="33.17041" pt_clust_4="14000.00000" pt_clust_5="49.21987" pt_clust_6="114.93991"></scales>
<clustering>
<clus scale="   33.170">  2  3  1 -1</clus>
<clus scale="   49.220">  1  5  2 -1</clus>
<clus scale="  114.940">  1  6  2 -1</clus>
<clus scale="   49.220">  1  3  2 -1</clus>
</clustering>
</event>
<event>
 6    0  0.4227619E+002  0.1154161E+03  0.7546771E-02  0.1250856E+00
         21   -1    0    0  506  501  0.00000000000E+00  0.00000000000E+00  0.44965493972E+03  0.44965493972E+03  0.00000000000E+00 0. -1.
         21   -1    0    0  503  502 -0.00000000000E+00 -0.00000000000E+00 -0.96285938236E+02  0.96285938236E+02  0.00000000000E+00 0. -1.
         21    1    1    2  503  504  0.29420138048E+02  0.61597506605E+01 -0.40596051880E+02  0.50512636827E+02  0.00000000000E+00 0. -1.
         21    1    1    2  504  501 -0.15266825625E+03  0.16626941257E+02  0.21635708645E+03  0.26531950644E+03  0.00000000000E+00 0. -1.
         21    1    1    2  505  502  0.84499228150E+02 -0.30373422385E+02  0.65198401795E+02  0.11096619279E+03  0.00000000000E+00 0. -1.
         21    1    1    2  506  505  0.38748890051E+02  0.75867304674E+01  0.11240956512E+03  0.11914254190E+03  0.00000000000E+00 0. -1.
<scales pt_clust_3="30.05806" pt_clust_4="14000.00000" pt_clust_5="115.41613" pt_clust_6="41.47907"></scales>
<clustering>
<clus scale="   30.058">  2  3  1 -1</clus>
<clus scale="   41.479">  1  6  2 -1</clus>
<clus scale="  115.416">  2  5  1 -1</clus>
<clus scale="   41.479">  1  3  2 -1</clus>
</clustering>
</event>
<event>
 6    0  0.4227619E+002  0.8078950E+02  0.7546771E-02  0.1326826E+00
         21   -1    0    0  506  501  0.00000000000E+00  0.00000000000E+00  0.59110048898E+03  0.59110048898E+03  0.00000000000E+00 0.  1.
         21   -1    0    0  505  502 -0.00000000000E+00 -0.00000000000E+00 -0.88865209922E+03  0.88865209922E+03  0.00000000000E+00 0.  1.
         21    1    1    2  503  504 -0.64205503670E+02  0.21240511773E+02  0.56913814450E+01  0.67866765538E+02  0.00000000000E+00 0.  1.
         21    1    1    2  504  502 -0.13978942325E+02 -0.35917019198E+02 -0.67237185906E+03  0.67347558230E+03  0.00000000000E+00 0.  1.
         21    1    1    2  505  501  0.15515968027E+03  0.34477649254E+02 -0.14681849212E+03  0.21637676472E+03  0.00000000000E+00 0.  1.
         21    1    1    2  506  503 -0.76975234280E+02 -0.19801141829E+02  0.51594735951E+03  0.52203347564E+03  0.00000000000E+00 0.  1.
<scales pt_clust_3="68.14070" pt_clust_4="38.54145" pt_clust_5="80.78950" pt_clust_6="14000.00000"></scales>
<clustering>
<clus scale="   38.541">  2  4  1 -1</clus>
<clus scale="   68.141">  2  3  1 -1</clus>
<clus scale="   80.790">  2  5  1 -1</clus>
<clus scale="   80.790">  1  3  2 -1</clus>
</clustering>
</event>
<event>
 6    0  0.4227619E+002  0.1633084E+03  0.7546771E-02  0.1185011E+00
         21   -1    0    0  504  501  0.00000000000E+00  0.00000000000E+00  0.15302102038E+04  0.15302102038E+04  0.00000000000E+00 0.  1.
         21   -1    0    0  501  502 -0.00000000000E+00 -0.00000000000E+00 -0.34486299575E+02  0.34486299575E+02  0.00000000000E+00 0.  1.
         21    1    1    2  503  505 -0.45139193975E+01 -0.90897864052E+02  0.53301762992E+03  0.54073153317E+03  0.00000000000E+00 0.  1.
         21    1    1    2  504  503  0.16492935203E+02 -0.58414447615E+02  0.78971795972E+03  0.79204717063E+03  0.00000000000E+00 0.  1.
         21    1    1    2  505  506 -0.23326302320E+02  0.87682163452E+02  0.88690965579E+02  0.12687933458E+03  0.00000000000E+00 0.  1.
         21    1    1    2  506  502  0.11347286515E+02  0.61630148215E+02  0.84297349027E+02  0.10503846502E+03  0.00000000000E+00 0.  1.
<scales pt_clust_3="53.12693" pt_clust_4="53.12693" pt_clust_5="154.46977" pt_clust_6="31.35279"></scales>
<clustering>
<clus scale="   31.353">  5  6 -1 -1</clus>
<clus scale="   53.127">  3  4 -1 -1</clus>
<clus scale="  154.470">  2  5  1 -1</clus>
<clus scale="  163.308">  1  3  2 -1</clus>
</clustering>
</event>
<event>
 6    0  0.4227619E+002  0.1970522E+03  0.7546771E-02  0.1152250E+00
         21   -1    0    0  505  501  0.00000000000E+00  0.00000000000E+00  0.97718340172E+03  0.97718340172E+03  0.00000000000E+00 0. -1.
         21   -1    0    0  503  502 -0.00000000000E+00 -0.00000000000E+00 -0.75186995850E+03  0.75186995850E+03  0.00000000000E+00 0. -1.
         21    1    1    2  503  501  0.25706441518E+03  0.97263622819E+02 -0.37648909144E+03  0.46613985224E+03  0.00000000000E+00 0. -1.
         21    1    1    2  504  502 -0.69717968802E+02 -0.72481590163E+02 -0.15159242514E+03  0.18191877156E+03  0.00000000000E+00 0. -1.
         21    1    1    2  505  506 -0.25038614992E+02 -0.93563863452E+02  0.86627342479E+03  0.87167125413E+03  0.00000000000E+00 0. -1.
         21    1    1    2  506  504 -0.16230783139E+03  0.68781830796E+02 -0.11287846499E+03  0.20932348229E+03  0.00000000000E+00 0. -1.
<scales pt_clust_3="14000.00000" pt_clust_4="112.64177" pt_clust_5="96.85623" pt_clust_6="197.05218"></scales>
<clustering>
<clus scale="   96.856">  1  5  2 -1</clus>
<clus scale="  112.642">  2  4  1 -1</clus>
<clus scale="  197.052">  1  6  2 -1</clus>
<clus scale="   96.856">  1  3  2 -1</clus>
</clustering>
</event>
<event>
 6    0  0.4227619E+002  0.9206306E+02  0.7546771E-02  0.1297931E+00
         21   -1    0    0  504  501  0.00000000000E+00  0.00000000000E+00  0.17545642413E+03  0.17545642413E+03  0.00000000000E+00 0. -1.
         21   -1    0    0  503  502 -0.00000000000E+00 -0.00000000000E+00 -0.23657629404E+03  0.23657629404E+03  0.00000000000E+00 0. -1.
         21    1    1    2  503  501 -0.55786422481E+02  0.40401989034E+01  0.60799755336E+02  0.82613911597E+02  0.00000000000E+00 0. -1.
         21    1    1    2  504  506  0.15251519417E+02 -0.34363503515E+02  0.54109512360E+02  0.65888531219E+02  0.00000000000E+00 0. -1.
         21    1    1    2  505  502 -0.39490677602E+02 -0.62258848464E+02 -0.64578759495E+02  0.98010683129E+02  0.00000000000E+00 0. -1.
         21    1    1    2  506  505  0.80025580667E+02  0.92582153076E+02 -0.11145037811E+03  0.16551959223E+03  0.00000000000E+00 0. -1.
<scales pt_clust_3="49.44046" pt_clust_4="37.59600" pt_clust_5="14000.00000" pt_clust_6="92.06306"></scales>
<clustering>
<clus scale="   37.596">  1  4  2 -1</clus>
<clus scale="   49.440">  1  3  2 -1</clus>
<clus scale="   92.063">  1  6  2 -1</clus>
<clus scale="   37.596">  1  3  2 -1</clus>
</clustering>
</event>
<event>
 6    0  0.4227619E+002  0.6987398E+02  0.7546771E-02  0.1360522E+00
         21   -1    0    0  504  501  0.00000000000E+00  0.00000000000E+00  0.25953683709E+03  0.25953683709E+03  0.00000000000E+00 0. -1.
         21   -1    0    0  506  502 -0.00000000000E+00 -0.00000000000E+00 -0.58176924007E+03  0.58176924007E+03  0.00000000000E+00 0. -1.
         21    1    1    2  503  502  0.36582338879E+02  0.58630132967E+02 -0.48123223463E+03  0.48616892502E+03  0.00000000000E+00 0. -1.
         21    1    1    2  504  505  0.16229644418E+02 -0.65054556689E+02  0.48925522022E+02  0.83001225347E+02  0.00000000000E+00 0. -1.
         21    1    1    2  505  503 -0.94055467515E+02 -0.30757292478E+01 -0.49997881671E+02  0.10656302948E+03  0.00000000000E+00 0. -1.
         21    1    1    2  506  501  0.41243484218E+02  0.95001529699E+01  0.16007219130E+03  0.16557289732E+03  0.00000000000E+00 0. -1.
<scales pt_clust_3="69.87398" pt_clust_4="14000.00000" pt_clust_5="69.11517" pt_clust_6="42.32349"></scales>
<clustering>
<clus scale="   42.323">  1  6  2 -1</clus>
<clus scale="   69.874">  2  3  1 -1</clus>
<clus scale="   69.115">  2  5  1 -1</clus>
<clus scale="   42.323">  1  3  2 -1</clus>
</clustering>
</event>
<event>
 6    0  0.4227619E+002  0.6753767E+02  0.7546771E-02  0.1368672E+00
         21   -1    0    0  505  501  0.00000000000E+00  0.00000000000E+00  0.70996143666E+03  0.70996143666E+03  0.00000000000E+00 0. -1.
         21   -1    0    0  503  502 -0.00000000000E+00 -0.00000000000E+00 -0.40969764223E+03  0.40969764223E+03  0.00000000000E+00 0.  1.
         21    1    1    2  503  506  0.23889562674E+02 -0.91743800643E+02 -0.34125430232E+03  0.35417811199E+03  0.00000000000E+00 0.  1.
         21    1    1    2  504  502 -0.38028505015E+02  0.26401885332E+02 -0.43801628984E+02  0.63732326526E+02  0.00000000000E+00 0.  1.
         21    1    1    2  505  504  0.31228597210E+02 -0.18565517199E+02  0.56817006147E+02  0.67439423930E+02  0.00000000000E+00 0. -1.
         21    1    1    2  506  501 -0.17089654869E+02  0.83907432509E+02  0.62850271959E+03  0.63430921644E+03  0.00000000000E+00 0. -1.
<scales pt_clust_3="14000.00000" pt_clust_4="45.73755" pt_clust_5="36.33048" pt_clust_6="67.53767"></scales>
<clustering>
<clus scale="   36.330">  1  5  2 -1</clus>
<clus scale="   45.738">  2  4  1 -1</clus>
<clus scale="   67.538">  1  6  2 -1</clus>
<clus scale="   36.330">  1  3  2 -1</clus>
</clustering>
</event>
<event>
 6    0  0.4227619E+002  0.7088345E+02  0.7546771E-02  0.1357114E+00
         21   -1    0    0  504  501  0.00000000000E+00  0.00000000000E+00  0.19928476065E+03  0.19928476065E+03  0.00000000000E+00 0. -1.
         21   -1    0    0  505  502 -0.00000000000E+00 -0.00000000000E+00 -0.23956398155E+04  0.23956398155E+04  0.00000000000E+00 0. -1.
         21    1    1    2  503  502 -0.69103186849E+02  0.14971796446E+02 -0.23281125578E+04  0.23291860138E+04  0.00000000000E+00 0. -1.
         21    1    1    2  504  506 -0.31497074539E+02  0.41825373512E+02 -0.60649761883E+01  0.52708742254E+02  0.00000000000E+00 0. -1.
         21    1    1    2  505  501 -0.15121060923E+02 -0.41276352930E+02  0.24522553677E+02  0.50336263603E+02  0.00000000000E+00 0. -1.
         21    1    1    2  506  503  0.11572132231E+03 -0.15520817028E+02  0.11329992549E+03  0.16269355646E+03  0.00000000000E+00 0. -1.
<scales pt_clust_3="70.88345" pt_clust_4="49.20654" pt_clust_5="43.95889" pt_clust_6="14000.00000"></scales>
<clustering>
<clus scale="   43.959">  1  5  2 -1</clus>
<clus scale="   49.207">  1  4  2 -1</clus>
<clus scale="   70.883">  2  3  1 -1</clus>
<clus scale="   43.959">  1  3  2 -1</clus>
</clustering>
</event>
<event>
 6    0  0.4227619E+002  0.1491342E+03  0.7546771E-02  0.1201541E+00
         21   -1    0    0  504  501  0.00000000000E+00  0.00000000000E+00  0.17745334722E+04  0.17745334722E+04  0.00000000000E+00 0. -1.
         21   -1    0    0  506  502 -0.00000000000E+00 -0.00000000000E+00 -0.20036944918E+03  0.20036944918E+03  0.00000000000E+00 0. -1.
         21    1    1    2  503  505  0.79240616239E+02 -0.16049474811E+02  0.27018727634E+02  0.85244780172E+02  0.00000000000E+00 0. -1.
         21    1    1    2  504  503 -0.26388946343E+02 -0.14608890792E+03  0.14708534098E+04  0.14783261137E+04  0.00000000000E+00 0. -1.
         21    1    1    2  505  502 -0.58984963114E+02  0.72168892592E+01 -0.13602063670E+03  0.14843491157E+03  0.00000000000E+00 0. -1.
         21    1    1    2  506  501  0.61332932176E+01  0.15492149347E+03  0.21231252238E+03  0.26289711596E+03  0.00000000000E+00 0. -1.
<scales pt_clust_3="51.23738" pt_clust_4="14000.00000" pt_clust_5="59.42482" pt_clust_6="149.13417"></scales>
<clustering>
<clus scale="   59.425">  2  5  1 -1</clus>
<clus scale="   51.237">  2  3  1 -1</clus>
<clus scale="  149.134">  2  6  1 -1</clus>
<clus scale="  149.134">  1  3  2 -1</clus>
</clustering>
</event>
<event>
 6    0  0.4227619E+002  0.1562402E+03  0.7546771E-02  0.1193008E+00
         21   -1    0    0  504  501  0.00000000000E+00  0.00000000000E+00  0.79309752651E+03  0.79309752651E+03  0.00000000000E+00 0.  1.
         21   -1    0    0  503  502 -0.00000000000E+00 -0.00000000000E+00 -0.18726932004E+03  0.18726932004E+03  0.00000000000E+00 0. -1.
         21    1    1    2  503  506 -0.10609618658E+03  0.10507254131E+03 -0.85234990729E+02  0.17193499757E+03  0.00000000000E+00 0. -1.
         21    1    1    2  504  505  0.22645345060E+01 -0.41319436124E+02  0.35539069572E+03  0.35779179773E+03  0.00000000000E+00 0.  1.
         21    1    1    2  505  502  0.17697341191E+03 -0.82414559966E+02  0.13807704446E+03  0.23911716464E+03  0.00000000000E+00 0. -1.
         21    1    1    2  506  501 -0.73141759829E+02  0.18661454781E+02  0.19759545702E+03  0.21152288661E+03  0.00000000000E+00 0. -1.
<scales pt_clust_3="156.24017" pt_clust_4="41.38144" pt_clust_5="14000.00000" pt_clust_6="72.08395"></scales>
<clustering>
<clus scale="   41.381">  1  4  2 -1</clus>
<clus scale="   72.084">  1  6  2 -1</clus>
<clus scale="  156.240">  2  3  1 -1</clus>
<clus scale="   41.381">  1  3  2 -1</clus>
</clustering>
</event>
<event>
 6    0  0.4227619E+002  0.1051382E+03  0.7546771E-02  0.1269848E+00
         21   -1    0    0  503  501  0.00000000000E+00  0.00000000000E+00  0.71913324958E+02  0.71913324958E+02  0.00000000000E+00 0. -1.
         21   -1    0    0  505  502 -0.00000000000E+00 -0.00000000000E+00 -0.17863542049E+04  0.17863542049E+04  0.00000000000E+00 0. -1.
         21    1    1    2  503  502  0.50134706498E+02 -0.25148477451E+02 -0.34958849287E+03  0.35405938635E+03  0.00000000000E+00 0. -1.
         21    1    1    2  504  506 -0.14695789391E+03 -0.61191515638E+02 -0.13542679861E+03  0.20900105730E+03  0.00000000000E+00 0. -1.
         21    1    1    2  505  504  0.52571477473E+02  0.46757322276E+02 -0.12336786541E+04  0.12356832235E+04  0.00000000000E+00 0. -1.
         21    1    1    2  506  501  0.44251709943E+02  0.39582670812E+02  0.42530655993E+01  0.59523862682E+02  0.00000000000E+00 0.  1.
<scales pt_clust_3="56.08863" pt_clust_4="14000.00000" pt_clust_5="105.13816" pt_clust_6="59.77703"></scales>
<clustering>
<clus scale="   56.089">  2  3  1 -1</clus>
<clus scale="   59.777">  1  6  2 -1</clus>
<clus scale="  105.138">  2  5  1 -1</clus>
<clus scale="   59.777">  1  3  2 -1</clus>
</clustering>
</event>
<event>
 6    0  0.4227619E+002  0.9771757E+02  0.7546771E-02  0.1285170E+00
         21   -1    0    0  505  501  0.00000000000E+00  0.00000000000E+00  0.72292977129E+02  0.72292977129E+02  0.00000000000E+00 0. -1.
         21   -1    0    0  504  502 -0.00000000000E+00 -0.00000000000E+00 -0.47013114447E+03  0.47013114447E+03  0.00000000000E+00 0. -1.
         21    1    1    2  503  506 -0.92888778097E+02 -0.58929977718E+02 -0.28648131706E+02  0.11367401999E+03  0.00000000000E+00 0. -1.
         21    1    1    2  504  501 -0.20279461299E+02  0.57630142226E+02 -0.60930679422E+02  0.86284630951E+02  0.00000000000E+00 0. -1.
         21    1    1    2  505  503  0.22937064222E+02 -0.30911501966E+02 -0.31973846506E+02  0.50039551650E+02  0.00000000000E+00 0.  1.
         21    1    1    2  506  502  0.90231175174E+02  0.32211337458E+02 -0.27628550970E+03  0.29242591901E+03  0.00000000000E+00 0. -1.
<scales pt_clust_3="97.71757" pt_clust_4="53.77344" pt_clust_5="38.49195" pt_clust_6="14000.00000"></scales>
<clustering>
<clus scale="   38.492">  1  5  2 -1</clus>
<clus scale="   53.773">  1  4  2 -1</clus>
<clus scale="   97.718">  1  3  2 -1</clus>
<clus scale="   38.492">  1  3  2 -1</clus>
</clustering>
</event>
<event>
 6    0  0.4227619E+002  0.1757166E+03  0.7546771E-02  0.1172014E+00
         21   -1    0    0  506  501  0.00000000000E+00  0.00000000000E+00  0.36594812985E+03  0.36594812985E+03  0.00000000000E+00 0. -1.
         21   -1    0    0  505  502 -0.00000000000E+00 -0.00000000000E+00 -0.75914625098E+03  0.75914625098E+03  0.00000000000E+00 0.  1.
         21    1    1    2  503  501 -0.66361467793E+02 -0.38277641928E+02  0.15891229824E+03  0.17641468423E+03  0.00000000000E+00 0. -1.
         21    1    1    2  504  502 -0.23440793851E+02  0.25174738863E+02 -0.59290816403E+02  0.68546620653E+02  0.00000000000E+00 0.  1.
         21    1    1    2  505  503 -0.11806042671E+03 -0.11942337328E+03 -0.59129284719E+03  0.61467669354E+03  0.00000000000E+00 0.  1.
         21    1    1    2  506  504  0.20786268835E+03  0.13252627635E+03  0.98473244229E+02  0.26545638241E+03  0.00000000000E+00 0. -1.
<scales pt_clust_3="76.70796" pt_clust_4="34.39823" pt_clust_5="175.71655" pt_clust_6="14000.00000"></scales>
<clustering>
<clus scale="   34.398">  2  4  1 -1</clus>
<clus scale="   76.708">  1  3  2 -1</clus>
<clus scale="  175.717">  2  5  1 -1</clus>
<clus scale="   76.708">  1  3  2 -1</clus>
</clustering>
</event>
<event>
 6    0  0.4227619E+002  0.1987384E+03  0.7546771E-02  0.1150808E+00
         21   -1    0    0  503  501  0.00000000000E+00  0.00000000000E+00  0.84643156265E+03  0.84643156265E+03  0.00000000000E+00 0. -1.
         21   -1    0    0  505  502 -0.00000000000E+00 -0.00000000000E+00 -0.51870020017E+03  0.51870020017E+03  0.00000000000E+00 0. -1.
         21    1    1    2  503  506 -0.22251986087E+03 -0.10165275948E+02  0.72548822022E+03  0.75891473764E+03  0.00000000000E+00 0. -1.
         21    1    1    2  504  501  0.27624269321E+02 -0.28763923554E+02  0.74389160721E+02  0.84405040054E+02  0.00000000000E+00 0. -1.
         21    1    1    2  505  504  0.17200958851E+03  0.66089376174E+02 -0.42081704219E+03  0.45939317276E+03  0.00000000000E+00 0. -1.
         21    1    1    2  506  502  0.22886003042E+02 -0.27160176672E+02 -0.51328976277E+02  0.62418812370E+02  0.00000000000E+00 0. -1.
<scales pt_clust_3="14000.00000" pt_clust_4="40.26495" pt_clust_5="198.73842" pt_clust_6="35.51682"></scales>
<clustering>
<clus scale="   35.517">  2  6  1 -1</clus>
<clus scale="   40.265">  1  4  2 -1</clus>
<clus scale="  198.738">  2  5  1 -1</clus>
<clus scale="   40.265">  1  3  2 -1</clus>
</clustering>
</event>
<event>
 6    0  0.4227619E+002  0.1752028E+03  0.7546771E-02  0.1172528E+00
         21   -1    0    0  502  501  0.00000000000E+00  0.00000000000E+00  0.11104525340E+03  0.11104525340E+03  0.00000000000E+00 0. -1.
         21   -1    0    0  503  502 -0.00000000000E+00 -0.00000000000E+00 -0.44608190482E+03  0.44608190482E+03  0.00000000000E+00 0.  1.
         21    1    1    2  503  504  0.14991219723E+03 -0.16727497547E+02 -0.35016457079E+03  0.38127247827E+03  0.00000000000E+00 0.  1.
         21    1    1    2  504  505 -0.41012738880E+02  0.20149277766E+02 -0.17907006226E+02  0.49078498519E+02  0.00000000000E+00 0. -1.
         21    1    1    2  505  506 -0.45035405692E+02  0.25848492471E+02  0.17788418883E+02  0.54888616081E+02  0.00000000000E+00 0. -1.
         21    1    1    2  506  501 -0.63864052657E+02 -0.29270272690E+02  0.15246506716E+02  0.71887565351E+02  0.00000000000E+00 0. -1.
<scales pt_clust_3="150.84255" pt_clust_4="33.68056" pt_clust_5="63.65620" pt_clust_6="63.65620"></scales>
<clustering>
<clus scale="   33.681">  4  5 -1 -1</clus>
<clus scale="   63.656">  4  6 -1 -1</clus>
<clus scale="  150.843">  2  3  1 -1</clus>
<clus scale="  175.203">  1  3  2 -1</clus>
</clustering>
</event>
<event>
 6    0  0.4811048E+002  0.1359690E+03  0.7546771E-02  0.1218858E+00
         21   -1    0    0  503  501  0.00000000000E+00  0.00000000000E+00  0.13145164732E+04  0.13145164732E+04  0.00000000000E+00 0. -1.
         21   -1    0    0  504  502 -0.00000000000E+00 -0.00000000000E+00 -0.35741577475E+03  0.35741577475E+03  0.00000000000E+00 0.  1.
         21    1    1    2  503  505 -0.45746799460E+02 -0.82924336001E+02 -0.11883440980E+03  0.15195667842E+03  0.00000000000E+00 0.  1.
         21    1    1    2  504  506  0.89640885548E+02  0.67092256536E+02  0.44567624190E+03  0.45952602956E+03  0.00000000000E+00 0. -1.
         21    1    1    2  505  502 -0.39357485927E+02 -0.30075622817E+02 -0.21160374635E+03  0.21732395233E+03  0.00000000000E+00 0.  1.
         21    1    1    2  506  501 -0.45366001610E+01  0.45907702283E+02  0.84186261270E+03  0.84312558764E+03  0.00000000000E+00 0. -1.
<scales pt_clust_3="135.96904" pt_clust_4="14000.00000" pt_clust_5="49.38689" pt_clust_6="46.13131"></scales>
<clustering>
<clus scale="   46.131">  1  6  2 -1</clus>
<clus scale="   49.387">  2  5  1 -1</clus>
<clus scale="  135.969">  2  3  1 -1</clus>
<clus scale="   46.131">  1  3  2 -1</clus>
</clustering>
</event>
<event>
 6    0  0.4227619E+002  0.9232961E+02  0.7546771E-02  0.1297306E+00
         21   -1    0    0  504  501  0.00000000000E+00  0.00000000000E+00  0.79912623668E+03  0.79912623668E+03  0.00000000000E+00 0.  1.
         21   -1    0    0  505  502 -0.00000000000E+00 -0.00000000000E+00 -0.13435464397E+03  0.13435464397E+03  0.00000000000E+00 0.  1.
         21    1    1    2  503  502 -0.13968463267E+02 -0.29732205465E+02  0.28813606369E+02  0.43696062979E+02  0.00000000000E+00 0.  1.
         21    1    1    2  504  503  0.50881948581E+02  0.22036932839E+02  0.68959567334E+03  0.69182135829E+03  0.00000000000E+00 0.  1.
         21    1    1    2  505  506  0.57878029277E+02  0.58469980918E+02 -0.14563207420E+02  0.83550535318E+02  0.00000000000E+00 0.  1.
         21    1    1    2  506  501 -0.94791514591E+02 -0.50774708291E+02 -0.39074479575E+02  0.11441292407E+03  0.00000000000E+00 0.  1.
<scales pt_clust_3="32.84999" pt_clust_4="55.23339" pt_clust_5="92.32961" pt_clust_6="14000.00000"></scales>
<clustering>
<clus scale="   32.850">  2  3  1 -1</clus>
<clus scale="   55.233">  1  4  2 -1</clus>
<clus scale="   92.330">  2  5  1 -1</clus>
<clus scale="   55.233">  1  3  2 -1</clus>
</clustering>
</event>
<event>
 6    0  0.4227619E+002  0.7051353E+02  0.7546771E-02  0.1358355E+00
         21   -1    0    0  503  501  0.00000000000E+00  0.00000000000E+00  0.15138906282E+03  0.15138906282E+03  0.00000000000E+00 0.  1.
         21   -1    0    0  504  502 -0.00000000000E+00 -0.00000000000E+00 -0.30704528818E+03  0.30704528818E+03  0.00000000000E+00 0.  1.
         21    1    1    2  503  506 -0.22807616851E+02  0.67934268565E+02 -0.18432054842E+02  0.73993194806E+02  0.00000000000E+00 0. -1.
         21    1    1    2  504  505  0.50544721097E+01 -0.64257082791E+02 -0.54107098246E+02  0.84155204579E+02  0.00000000000E+00 0. -1.
         21    1    1    2  505  501  0.80836779294E+02 -0.10430438525E+02  0.86704505693E+02  0.11900021110E+03  0.00000000000E+00 0.  1.
         21    1    1    2  506  502 -0.63083634553E+02  0.67532527513E+01 -0.16982157796E+03  0.18128574051E+03  0.00000000000E+00 0.  1.
<scales pt_clust_3="14000.00000" pt_clust_4="66.89951" pt_clust_5="70.51353" pt_clust_6="63.44408"></scales>
<clustering>
<clus scale="   63.444">  2  6  1 -1</clus>
<clus scale="   66.900">  2  4  1 -1</clus>
<clus scale="   70.514">  1  5  2 -1</clus>
<clus scale="   70.514">  1  3  2 -1</clus>
</clustering>
</event>
<event>
 6    0  0.4227619E+002  0.1679721E+03  0.7546771E-02  0.1179979E+00
         21   -1    0    0  506  501  0.00000000000E+00  0.00000000000E+00  0.81989396824E+03  0.81989396824E+03  0.00000000000E+00 0.  1.
         21   -1    0    0  503  502 -0.00000000000E+00 -0.00000000000E+00 -0.61151255698E+03  0.61151255698E+03  0.00000000000E+00 0. -1.
         21    1    1    2  503  501  0.72601931301E+01 -0.16510432947E+03  0.59745097085E+03  0.61988693532E+03  0.00000000000E+00 0.  1.
         21    1    1    2  504  505 -0.45820093725E+02  0.15423961171E+03  0.47579919155E+02  0.16778911620E+03  0.00000000000E+00 0.  1.
         21    1    1    2  505  502  0.71406808242E+02  0.18332679375E+02 -0.53485319984E+03  0.53991014510E+03  0.00000000000E+00 0. -1.
         21    1    1    2  506  504 -0.32846907647E+02 -0.74679616129E+01  0.98203721093E+02  0.10382032859E+03  0.00000000000E+00 0.  1.
<scales pt_clust_3="167.97207" pt_clust_4="14000.00000" pt_clust_5="73.60415" pt_clust_6="33.68516"></scales>
<clustering>
<clus scale="   33.685">  1  6  2 -1</clus>
<clus scale="   73.604">  2  5  1 -1</clus>
<clus scale="  167.972">  1  3  2 -1</clus>
<clus scale="   33.685">  1  3  2 -1</clus>
</clustering>
</event>
<event>
 6    0  0.4227619E+002  0.7122994E+02  0.7546771E-02  0.1355960E+00
         21   -1    0    0  503  501  0.00000000000E+00  0.00000000000E+00  0.64870164500E+03  0.64870164500E+03  0.00000000000E+00 0. -1.
         21   -1    0    0  505  502 -0.00000000000E+00 -0.00000000000E+00 -0.20051353299E+03  0.20051353299E+03  0.00000000000E+00 0. -1.
         21    1    1    2  503  504 -0.11971389649E+02 -0.44047952860E+02  0.33187259514E+03  0.33499694883E+03  0.00000000000E+00 0. -1.
         21    1    1    2  504  502  0.45119370977E+02  0.10626179175E+03  0.28861157799E+03  0.31084396242E+03  0.00000000000E+00 0. -1.
         21    1    1    2  505  506  0.20945574006E+02 -0.31202289909E+02 -0.10552325245E+03  0.11201543096E+03  0.00000000000E+00 0. -1.
         21    1    1    2  506  501 -0.54093555334E+02 -0.31011548980E+02 -0.66772808669E+02  0.91358835787E+02  0.00000000000E+00 0. -1.
<scales pt_clust_3="46.06747" pt_clust_4="71.22994" pt_clust_5="37.58058" pt_clust_6="14000.00000"></scales>
<clustering>
<clus scale="   37.581">  2  5  1 -1</clus>
<clus scale="   46.067">  1  3  2 -1</clus>
<clus scale="   71.230">  1  4  2 -1</clus>
<clus scale="   46.067">  1  3  2 -1</clus>
</clustering>
</event>
<event>
 6    0  0.4227619E+002  0.3203758E+03  0.7546771E-02  0.1075476E+00
         21   -1    0    0  503  501  0.00000000000E+00  0.00000000000E+00  0.61361584204E+03  0.61361584204E+03  0.00000000000E+00 0.  1.
         21   -1    0    0  504  502 -0.00000000000E+00 -0.00000000000E+00 -0.31088159195E+03  0.31088159195E+03  0.00000000000E+00 0. -1.
         21    1    1    2  503  505 -0.41566617450E+02  0.14372621278E+03  0.20073296296E+03  0.25035720550E+03  0.00000000000E+00 0.  1.
         21    1    1    2  504  506  0.25784192567E+01  0.94221716941E+02 -0.19846252074E+02  0.96323693401E+02  0.00000000000E+00 0. -1.
         21    1    1    2  505  502  0.17521724317E+03 -0.34769998770E+03  0.95602486063E+02  0.40091919272E+03  0.00000000000E+00 0.  1.
         21    1    1    2  506  501 -0.13622904497E+03  0.10975205798E+03  0.26245053148E+02  0.17689734237E+03  0.00000000000E+00 0. -1.
<scales pt_clust_3="149.61620" pt_clust_4="90.32126" pt_clust_5="295.80345" pt_clust_6="90.32126"></scales>
<clustering>
<clus scale="   90.321">  4  6 -1 -1</clus>
<clus scale="  149.616">  1  3  2 -1</clus>
<clus scale="  295.803">  1  5  2 -1</clus>
<clus scale="  149.616">  1  3  2 -1</clus>
</clustering>
</event>
<event>
 6    0  0.4227619E+002  0.7139980E+02  0.7546771E-02  0.1355397E+00
         21   -1    0    0  505  501  0.00000000000E+00  0.00000000000E+00  0.12420903124E+03  0.12420903124E+03  0.00000000000E+00 0.  1.
         21   -1    0    0  503  502 -0.00000000000E+00 -0.00000000000E+00 -0.34632271284E+03  0.34632271284E+03  0.00000000000E+00 0.  1.
         21    1    1    2  503  501 -0.29207221836E+02  0.70296408783E+02 -0.15578042955E+03  0.17338451236E+03  0.00000000000E+00 0.  1.
         21    1    1    2  504  502  0.18913291408E+02 -0.27713740295E+02 -0.84385171407E+02  0.90810908741E+02  0.00000000000E+00 0.  1.
         21    1    1    2  505  506 -0.33483413405E-01  0.65061674069E+02  0.61752242296E+02  0.89701516054E+02  0.00000000000E+00 0.  1.
         21    1    1    2  506  504  0.10327413841E+02 -0.10764434256E+03 -0.43700322943E+02  0.11663480693E+03  0.00000000000E+00 0.  1.
<scales pt_clust_3="55.39685" pt_clust_4="33.55241" pt_clust_5="71.39980" pt_clust_6="14000.00000"></scales>
<clustering>
<clus scale="   33.552">  2  4  1 -1</clus>
<clus scale="   55.397">  2  3  1 -1</clus>
<clus scale="   71.400">  1  5  2 -1</clus>
<clus scale="   71.400">  1  3  2 -1</clus>
</clustering>
</event>
<event>
 6    0  0.4227619E+002  0.1016967E+03  0.7546771E-02  0.1276768E+00
         21   -1    0    0  503  501  0.00000000000E+00  0.00000000000E+00  0.30084067459E+02  0.30084067459E+02  0.00000000000E+00 0. -1.
         21   -1    0    0  504  502 -0.00000000000E+00 -0.00000000000E+00 -0.19858562054E+04  0.19858562054E+04  0.00000000000E+00 0. -1.
         21    1    1    2  503  506  0.49417447844E+01  0.31537965683E+02  0.14727587873E+01  0.31956738560E+02  0.00000000000E+00 0. -1.
         21    1    1    2  504  505  0.17143668353E+02 -0.25262924259E+02 -0.11145442541E+04  0.11149623379E+04  0.00000000000E+00 0. -1.
         21    1    1    2  505  501 -0.54731523643E+02 -0.86482921971E+02 -0.64661757249E+03  0.65466718302E+03  0.00000000000E+00 0. -1.
         21    1    1    2  506  502  0.32646110506E+02  0.80207880547E+02 -0.19608307014E+03  0.21435401333E+03  0.00000000000E+00 0. -1.
<scales pt_clust_3="31.53462" pt_clust_4="30.53065" pt_clust_5="101.69668" pt_clust_6="14000.00000"></scales>
<clustering>
<clus scale="   30.531">  2  4  1 -1</clus>
<clus scale="   31.535">  1  3  2 -1</clus>
<clus scale="  101.697">  2  5  1 -1</clus>
<clus scale="   31.535">  1  3  2 -1</clus>
</clustering>
</event>
<event>
 6    0  0.4227619E+002  0.1365824E+03  0.7546771E-02  0.1218003E+00
         21   -1    0    0  506  501  0.00000000000E+00  0.00000000000E+00  0.12350204741E+04  0.12350204741E+04  0.00000000000E+00 0. -1.
         21   -1    0    0  505  502 -0.00000000000E+00 -0.00000000000E+00 -0.16099342670E+04  0.16099342670E+04  0.00000000000E+00 0.  1.
         21    1    1    2  503  502  0.96611973818E+02 -0.41500073755E+02 -0.15066860436E+04  0.15103506095E+04  0.00000000000E+00 0.  1.
         21    1    1    2  504  501  0.94375738082E+01  0.98875837686E+02  0.10112164520E+04  0.10160827781E+04  0.00000000000E+00 0. -1.
         21    1    1    2  505  504  0.46646133578E+01 -0.55910488700E+02 -0.75079161338E+02  0.93726313443E+02  0.00000000000E+00 0.  1.
         21    1    1    2  506  503 -0.11071416098E+03 -0.14652752306E+01  0.19563496006E+03  0.22479504014E+03  0.00000000000E+00 0. -1.
<scales pt_clust_3="14000.00000" pt_clust_4="99.23716" pt_clust_5="56.10474" pt_clust_6="136.58235"></scales>
<clustering>
<clus scale="   56.105">  2  5  1 -1</clus>
<clus scale="   99.237">  1  4  2 -1</clus>
<clus scale="  136.582">  1  6  2 -1</clus>
<clus scale="   99.237">  1  3  2 -1</clus>
</clustering>
</event>
<event>
 6    0  0.4227619E+002  0.9621153E+02  0.7546771E-02  0.1288471E+00
         21   -1    0    0  504  501  0.00000000000E+00  0.00000000000E+00  0.75578211385E+03  0.75578211385E+03  0.00000000000E+00 0.  1.
         21   -1    0    0  505  502 -0.00000000000E+00 -0.00000000000E+00 -0.48133246855E+02  0.48133246855E+02  0.00000000000E+00 0.  1.
         21    1    1    2  503  502 -0.34663239551E+02 -0.42796946160E+01  0.99506001869E+01  0.36316255399E+02  0.00000000000E+00 0.  1.
         21    1    1    2  504  506  0.22082261400E+02  0.96859703919E+02  0.55356843583E+03  0.56241216350E+03  0.00000000000E+00 0.  1.
         21    1    1    2  505  501  0.44782579025E+02 -0.11168989808E+02  0.13784040485E+02  0.48168718994E+02  0.00000000000E+00 0.  1.
         21    1    1    2  506  503 -0.32201600874E+02 -0.81411019495E+02  0.13034579050E+03  0.15701822281E+03  0.00000000000E+00 0.  1.
<scales pt_clust_3="34.92644" pt_clust_4="96.21153" pt_clust_5="30.74477" pt_clust_6="14000.00000"></scales>
<clustering>
<clus scale="   34.926">  2  3  1 -1</clus>
<clus scale="   30.745">  2  5  1 -1</clus>
<clus scale="   96.212">  1  4  2 -1</clus>
<clus scale="   96.212">  1  3  2 -1</clus>
</clustering>
</event>
<event>
 6    0  0.4227619E+002  0.9392465E+02  0.7546771E-02  0.1293617E+00
         21   -1    0    0  506  501  0.00000000000E+00  0.00000000000E+00  0.17298167064E+03  0.17298167064E+03  0.00000000000E+00 0.  1.
         21   -1    0    0  503  502 -0.00000000000E+00 -0.00000000000E+00 -0.16520884847E+03  0.16520884847E+03  0.00000000000E+00 0.  1.
         21    1    1    2  503  505 -0.11938748590E+03  0.58552249987E+02 -0.32280481677E+02  0.13683481744E+03  0.00000000000E+00 0.  1.
         21    1    1    2  504  502  0.35098292369E+02 -0.37538209372E+02 -0.34947552356E+02  0.62147716818E+02  0.00000000000E+00 0.  1.
         21    1    1    2  505  501  0.24346300245E+02  0.28691136772E+02  0.13488480158E+02  0.39973275596E+02  0.00000000000E+00 0.  1.
         21    1    1    2  506  504  0.59942893283E+02 -0.49705177387E+02  0.61512376044E+02  0.99234709254E+02  0.00000000000E+00 0.  1.
<scales pt_clust_3="14000.00000" pt_clust_4="51.10646" pt_clust_5="37.62876" pt_clust_6="93.92465"></scales>
<clustering>
<clus scale="   37.629">  1  5  2 -1</clus>
<clus scale="   51.106">  2  4  1 -1</clus>
<clus scale="   93.925">  1  6  2 -1</clus>
<clus scale="   37.629">  1  3  2 -1</clus>
</clustering>
</event>
<event>
 6    0  0.4227619E+002  0.1159636E+03  0.7546771E-02  0.1249908E+00
         21   -1    0    0  504  501  0.00000000000E+00  0.00000000000E+00  0.49955602358E+03  0.49955602358E+03  0.00000000000E+00 0. -1.
         21   -1    0    0  503  502 -0.00000000000E+00 -0.00000000000E+00 -0.10010703876E+03  0.10010703876E+03  0.00000000000E+00 0.  1.
         21    1    1    2  503  506 -0.36684208261E+02  0.48979840104E+01 -0.17371881736E+02  0.40884026932E+02  0.00000000000E+00 0.  1.
         21    1    1    2  504  505  0.42751170619E+02  0.34589168848E+02  0.33257489159E+03  0.33709068766E+03  0.00000000000E+00 0. -1.
         21    1    1    2  505  502  0.63458158530E+02  0.21865735974E+02  0.10691060981E+03  0.12623361986E+03  0.00000000000E+00 0. -1.
         21    1    1    2  506  501 -0.69525120888E+02 -0.61352888832E+02 -0.22664634842E+02  0.95454727882E+02  0.00000000000E+00 0.  1.
<scales pt_clust_3="31.70053" pt_clust_4="54.99157" pt_clust_5="104.54567" pt_clust_6="31.70053"></scales>
<clustering>
<clus scale="   31.701">  3  6 -1 -1</clus>
<clus scale="   54.992">  1  4  2 -1</clus>
<clus scale="  104.546">  1  5  2 -1</clus>
<clus scale="   54.992">  1  3  2 -1</clus>
</clustering>
</event>
<event>
 6    0  0.4227619E+002  0.9826825E+02  0.7546771E-02  0.1283980E+00
         21   -1    0    0  506  501  0.00000000000E+00  0.00000000000E+00  0.81715404295E+03  0.81715404295E+03  0.00000000000E+00 0. -1.
         21   -1    0    0  505  502 -0.00000000000E+00 -0.00000000000E+00 -0.21184928671E+03  0.21184928671E+03  0.00000000000E+00 0.  1.
         21    1    1    2  503  502  0.43949611026E+02  0.39554953841E+01 -0.11559686252E+03  0.12373297409E+03  0.00000000000E+00 0.  1.
         21    1    1    2  504  503  0.48370234310E+02  0.44418171621E+01 -0.57104931767E+02  0.74969210607E+02  0.00000000000E+00 0. -1.
         21    1    1    2  505  501 -0.22743204338E+02 -0.97668129801E+02  0.65701245041E+03  0.66462145385E+03  0.00000000000E+00 0. -1.
         21    1    1    2  506  504 -0.69576640997E+02  0.89270817255E+02  0.12099410012E+03  0.16567969112E+03  0.00000000000E+00 0. -1.
<scales pt_clust_3="31.07821" pt_clust_4="98.26825" pt_clust_5="14000.00000" pt_clust_6="96.89465"></scales>
<clustering>
<clus scale="   31.078">  3  4 -1 -1</clus>
<clus scale="   98.268">  2  3  1 -1</clus>
<clus scale="   96.895">  2  6  1 -1</clus>
<clus scale="   98.268">  1  3  2 -1</clus>
</clustering>
</event>
<event>
 6    0  0.4227619E+002  0.1298641E+03  0.7546771E-02  0.1227657E+00
         21   -1    0    0  506  501  0.00000000000E+00  0.00000000000E+00  0.39692047724E+03  0.39692047724E+03  0.00000000000E+00 0. -1.
         21   -1    0    0  503  502 -0.00000000000E+00 -0.00000000000E+00 -0.44871551039E+03  0.44871551039E+03  0.00000000000E+00 0. -1.
         21    1    1    2  503  501 -0.14908876868E+03 -0.76302149434E+02 -0.48442919231E+02  0.17434504690E+03  0.00000000000E+00 0. -1.
         21    1    1    2  504  502  0.97914910468E+01  0.57572329570E+02 -0.30255001076E+03  0.30813463849E+03  0.00000000000E+00 0. -1.
         21    1    1    2  505  504  0.91035524219E+02  0.36462134701E+02  0.52653183391E+02  0.11130728484E+03  0.00000000000E+00 0. -1.
         21    1    1    2  506  505  0.48261753417E+02 -0.17732314836E+02  0.24654471346E+03  0.25184901740E+03  0.00000000000E+00 0. -1.
<scales pt_clust_3="129.86415" pt_clust_4="58.22939" pt_clust_5="14000.00000" pt_clust_6="51.41626"></scales>
<clustering>
<clus scale="   51.416">  1  6  2 -1</clus>
<clus scale="   58.229">  2  4  1 -1</clus>
<clus scale="  129.864">  2  3  1 -1</clus>
<clus scale="   51.416">  1  3  2 -1</clus>
</clustering>
</event>
<event>
 6    0  0.4227619E+002  0.2264067E+03  0.7546771E-02  0.1129195E+00
         21   -1    0    0  506  501  0.00000000000E+00  0.00000000000E+00  0.45580546701E+03  0.45580546701E+03  0.00000000000E+00 0.  1.
         21   -1    0    0  504  502 -0.00000000000E+00 -0.00000000000E+00 -0.43197557395E+03  0.43197557395E+03  0.00000000000E+00 0.  1.
         21    1    1    2  503  501  0.30550536736E+02  0.70755601150E+02  0.81567045392E+02  0.11221797219E+03  0.00000000000E+00 0. -1.
         21    1    1    2  504  505 -0.37961527453E+02 -0.25430263316E+03 -0.23054611624E+03  0.34534391338E+03  0.00000000000E+00 0.  1.
         21    1    1    2  505  503 -0.33645363972E+02  0.19037518533E+03 -0.53118418134E+02  0.20049011958E+03  0.00000000000E+00 0.  1.
         21    1    1    2  506  502  0.41056354689E+02 -0.68281533159E+01  0.22592738204E+03  0.22972903581E+03  0.00000000000E+00 0.  1.
<scales pt_clust_3="83.11495" pt_clust_4="226.40673" pt_clust_5="14000.00000" pt_clust_6="41.62028"></scales>
<clustering>
<clus scale="   41.620">  1  6  2 -1</clus>
<clus scale="   83.115">  1  3  2 -1</clus>
<clus scale="  226.407">  2  4  1 -1</clus>
<clus scale="   41.620">  1  3  2 -1</clus>
</clustering>
</event>
<event>
 6    0  0.4227619E+002  0.1345816E+03  0.7546771E-02  0.1220812E+00
         21   -1    0    0  506  501  0.00000000000E+00  0.00000000000E+00  0.13741171105E+04  0.13741171105E+04  0.00000000000E+00 0. -1.
         21   -1    0    0  504  502 -0.00000000000E+00 -0.00000000000E+00 -0.77498701314E+03  0.77498701314E+03  0.00000000000E+00 0.  1.
         21    1    1    2  503  501 -0.83894276588E+02 -0.28703996151E+02  0.11593473172E+04  0.11627331469E+04  0.00000000000E+00 0. -1.
         21    1    1    2  504  505 -0.11840897243E+02  0.12997697028E+03 -0.68319823222E+02  0.14731536884E+03  0.00000000000E+00 0.  1.
         21    1    1    2  505  503 -0.10452528016E+02 -0.10306805562E+03  0.15338470952E+03  0.18509227036E+03  0.00000000000E+00 0.  1.
         21    1    1    2  506  502  0.10618770185E+03  0.17950814834E+01 -0.64528210614E+03  0.65396333754E+03  0.00000000000E+00 0.  1.
<scales pt_clust_3="88.66887" pt_clust_4="14000.00000" pt_clust_5="134.58163" pt_clust_6="104.48569"></scales>
<clustering>
<clus scale="   88.669">  1  3  2 -1</clus>
<clus scale="  104.486">  2  6  1 -1</clus>
<clus scale="  134.582">  1  5  2 -1</clus>
<clus scale="   88.669">  1  3  2 -1</clus>
</clustering>
</event>
<event>
 6    0  0.4227619E+002  0.3240203E+03  0.7546771E-02  0.1073814E+00
         21   -1    0    0  506  501  0.00000000000E+00  0.00000000000E+00  0.46351637437E+03  0.46351637437E+03  0.00000000000E+00 0.  1.
         21   -1    0    0  505  502 -0.00000000000E+00 -0.00000000000E+00 -0.13234409986E+04  0.13234409986E+04  0.00000000000E+00 0.  1.
         21    1    1    2  503  501  0.47747316594E+02 -0.37517687610E+03  0.15210911317E+03  0.40764528319E+03  0.00000000000E+00 0.  1.
         21    1    1    2  504  503 -0.11854835511E+03  0.27668161528E+03 -0.15220140891E+03  0.33730060422E+03  0.00000000000E+00 0.  1.
         21    1    1    2  505  504  0.50346943551E+02  0.28785584969E+02 -0.93539438632E+03  0.93719052630E+03  0.00000000000E+00 0.  1.
         21    1    1    2  506  502  0.20454094963E+02  0.69709675844E+02  0.75562057851E+02  0.10482095923E+03  0.00000000000E+00 0.  1.
<scales pt_clust_3="14000.00000" pt_clust_4="324.02034" pt_clust_5="57.99504" pt_clust_6="74.24346"></scales>
<clustering>
<clus scale="   57.995">  2  5  1 -1</clus>
<clus scale="   74.243">  1  6  2 -1</clus>
<clus scale="  324.020">  2  4  1 -1</clus>
<clus scale="   74.243">  1  3  2 -1</clus>
</clustering>
</event>
<event>
 6    0  0.4227619E+002  0.1160679E+03  0.7546771E-02  0.1249728E+00
         21   -1    0    0  504  501  0.00000000000E+00  0.00000000000E+00  0.10384618039E+03  0.10384618039E+03  0.00000000000E+00 0. -1.
         21   -1    0    0  503  502 -0.00000000000E+00 -0.00000000000E+00 -0.22106310191E+03  0.22106310191E+03  0.00000000000E+00 0. -1.
         21    1    1    2  503  506  0.67914053083E+02  0.66614750376E+02 -0.94443173808E+02  0.13404982899E+03  0.00000000000E+00 0. -1.
         21    1    1    2  504  505 -0.95300106823E+02 -0.31530151442E+02  0.61573004872E+00  0.10038246826E+03  0.00000000000E+00 0. -1.
         21    1    1    2  505  502 -0.20272354144E+02 -0.26254659998E+02 -0.25686325153E+02  0.41953102555E+02  0.00000000000E+00 0.  1.
         21    1    1    2  506  501  0.47658407883E+02 -0.88299389362E+01  0.22968473926E+01  0.48523882486E+02  0.00000000000E+00 0. -1.
<scales pt_clust_3="102.64970" pt_clust_4="31.14153" pt_clust_5="31.14153" pt_clust_6="48.46949"></scales>
<clustering>
<clus scale="   31.142">  4  5 -1 -1</clus>
<clus scale="   48.469">  1  6  2 -1</clus>
<clus scale="  102.650">  2  3  1 -1</clus>
<clus scale="   48.469">  1  3  2 -1</clus>
</clustering>
</event>
<event>
 6    0  0.4227619E+002  0.1487820E+03  0.7546771E-02  0.1201978E+00
         21   -1    0    0  506  501  0.00000000000E+00  0.00000000000E+00  0.72040357122E+03  0.72040357122E+03  0.00000000000E+00 0. -1.
         21   -1    0    0  503  502 -0.00000000000E+00 -0.00000000000E+00 -0.57467298118E+03  0.57467298118E+03  0.00000000000E+00 0. -1.
         21    1    1    2  503  504  0.57865174744E+02  0.13423635652E+02 -0.52564362802E+03  0.52898941022E+03  0.00000000000E+00 0. -1.
         21    1    1    2  504  505 -0.29551052771E+02 -0.15445228185E+03  0.18012780227E+03  0.23911252003E+03  0.00000000000E+00 0. -1.
         21    1    1    2  505  501 -0.35843517854E+02 -0.10429411315E+02  0.71194402040E+02  0.80387643792E+02  0.00000000000E+00 0. -1.
         21    1    1    2  506  502  0.75293958818E+01  0.15145805751E+03  0.42005201375E+03  0.44658697836E+03  0.00000000000E+00 0. -1.
<scales pt_clust_3="59.30506" pt_clust_4="148.78195" pt_clust_5="37.33002" pt_clust_6="14000.00000"></scales>
<clustering>
<clus scale="   37.330">  1  5  2 -1</clus>
<clus scale="   59.305">  2  3  1 -1</clus>
<clus scale="  148.782">  2  4  1 -1</clus>
<clus scale="   37.330">  1  3  2 -1</clus>
</clustering>
</event>
<event>
 6    0  0.4227619E+002  0.7470093E+02  0.7546771E-02  0.1344800E+00
         21   -1    0    0  503  501  0.00000000000E+00  0.00000000000E+00  0.91629047376E+02  0.91629047376E+02  0.00000000000E+00 0. -1.
         21   -1    0    0  504  502 -0.00000000000E+00 -0.00000000000E+00 -0.75744964235E+03  0.75744964235E+03  0.00000000000E+00 0. -1.
         21    1    1    2  503  505  0.15944673711E+02  0.41648704794E+02  0.68818505842E+02  0.82005085068E+02  0.00000000000E+00 0. -1.
         21    1    1    2  504  506 -0.95406543664E+01  0.53353367668E+02 -0.15493763278E+03  0.16414407080E+03  0.00000000000E+00 0. -1.
         21    1    1    2  505  502  0.46924081590E+02 -0.87906995867E+02 -0.47358756171E+03  0.48395732039E+03  0.00000000000E+00 0. -1.
         21    1    1    2  506  501 -0.53328100935E+02 -0.70950765951E+01 -0.10611390633E+03  0.11897221347E+03  0.00000000000E+00 0. -1.
<scales pt_clust_3="44.59649" pt_clust_4="74.70093" pt_clust_5="14000.00000" pt_clust_6="47.94082"></scales>
<clustering>
<clus scale="   44.596">  1  3  2 -1</clus>
<clus scale="   47.941">  1  6  2 -1</clus>
<clus scale="   74.701">  2  4  1 -1</clus>
<clus scale="   44.596">  1  3  2 -1</clus>
</clustering>
</event>
<event>
 6    0  0.4227619E+002  0.2024338E+03  0.7546771E-02  0.1147702E+00
         21   -1    0    0  505  501  0.00000000000E+00  0.00000000000E+00  0.20920941217E+03  0.20920941217E+03  0.00000000000E+00 0. -1.
         21   -1    0    0  506  502 -0.00000000000E+00 -0.00000000000E+00 -0.31225941369E+04  0.31225941369E+04  0.00000000000E+00 0.  1.
         21    1    1    2  503  501  0.18770722429E+02 -0.29085083438E+03  0.33240252817E+02  0.29334529532E+03  0.00000000000E+00 0. -1.
         21    1    1    2  504  502 -0.57165512137E+02  0.22817607629E+03 -0.24977517486E+04  0.25088037020E+04  0.00000000000E+00 0.  1.
         21    1    1    2  505  504  0.29906390196E+01  0.95142236438E+02 -0.18951544669E+02  0.97057457836E+02  0.00000000000E+00 0. -1.
         21    1    1    2  506  503  0.35404150689E+02 -0.32467478345E+02 -0.42992168433E+03  0.43259709395E+03  0.00000000000E+00 0. -1.
<scales pt_clust_3="14000.00000" pt_clust_4="202.43378" pt_clust_5="94.51705" pt_clust_6="48.03739"></scales>
<clustering>
<clus scale="   48.037">  2  6  1 -1</clus>
<clus scale="   94.517">  1  5  2 -1</clus>
<clus scale="  202.434">  2  4  1 -1</clus>
<clus scale="   94.517">  1  3  2 -1</clus>
</clustering>
</event>
<event>
 6    0  0.4227619E+002  0.1236787E+03  0.7546771E-02  0.1237149E+00
         21   -1    0    0  504  501  0.00000000000E+00  0.00000000000E+00  0.16445597283E+03  0.16445597283E+03  0.00000000000E+00 0. -1.
         21   -1    0    0  503  502 -0.00000000000E+00 -0.00000000000E+00 -0.45405058075E+03  0.45405058075E+03  0.00000000000E+00 0.  1.
         21    1    1    2  503  505  0.10619304254E+03  0.31321309200E+02  0.65016003653E+02  0.12839418766E+03  0.00000000000E+00 0. -1.
         21    1    1    2  504  506 -0.22115894642E+02 -0.20790443854E+02  0.36375369706E+02  0.47376395733E+02  0.00000000000E+00 0. -1.
         21    1    1    2  505  501  0.37433624670E+02  0.18958194520E+02 -0.11980407880E+02  0.43637364361E+02  0.00000000000E+00 0. -1.
         21    1    1    2  506  502 -0.12151077256E+03 -0.29489059866E+02 -0.37900557340E+03  0.39909860583E+03  0.00000000000E+00 0.  1.
<scales pt_clust_3="123.67869" pt_clust_4="30.35384" pt_clust_5="38.21593" pt_clust_6="14000.00000"></scales>
<clustering>
<clus scale="   30.354">  1  4  2 -1</clus>
<clus scale="   38.216">  1  5  2 -1</clus>
<clus scale="  123.679">  1  3  2 -1</clus>
<clus scale="   30.354">  1  3  2 -1</clus>
</clustering>
</event>
<event>
 6    0  0.4227619E+002  0.1000751E+03  0.7546771E-02  0.1280138E+00
         21   -1    0    0  505  501  0.00000000000E+00  0.00000000000E+00  0.70909323978E+03  0.70909323978E+03  0.00000000000E+00 0. -1.
         21   -1    0    0  504  502 -0.00000000000E+00 -0.00000000000E+00 -0.71361115504E+02  0.71361115504E+02  0.00000000000E+00 0.  1.
         21    1    1    2  503  502 -0.65845788766E+02 -0.31974636122E+02  0.64103609704E+02  0.97300144041E+02  0.00000000000E+00 0.  1.
         21    1    1    2  504  506 -0.46692611158E+02  0.10544318240E+02 -0.15186194446E+02  0.50219548839E+02  0.00000000000E+00 0.  1.
         21    1    1    2  505  503  0.10943185499E+03 -0.48662048815E+02  0.52367936315E+03  0.53719959165E+03  0.00000000000E+00 0. -1.
         21    1    1    2  506  501  0.31065449378E+01  0.70092366697E+02  0.65135345868E+02  0.95735070753E+02  0.00000000000E+00 0.  1.
<scales pt_clust_3="14000.00000" pt_clust_4="47.86839" pt_clust_5="100.07509" pt_clust_6="75.83996"></scales>
<clustering>
<clus scale="   47.868">  2  4  1 -1</clus>
<clus scale="   75.840">  2  6  1 -1</clus>
<clus scale="  100.075">  1  5  2 -1</clus>
<clus scale="  100.075">  1  3  2 -1</clus>
</clustering>
</event>
<event>
 6    0  0.4227619E+002  0.1707349E+03  0.7546771E-02  0.1177084E+00
         21   -1    0    0  504  501  0.00000000000E+00  0.00000000000E+00  0.24971331085E+04  0.24971331085E+04  0.00000000000E+00 0. -1.
         21   -1    0    0  505  502 -0.00000000000E+00 -0.00000000000E+00 -0.29456415440E+02  0.29456415440E+02  0.00000000000E+00 0. -1.
         21    1    1    2  503  502 -0.17497855092E+03 -0.63876317695E+02  0.11050910897E+04  0.11206801478E+04  0.00000000000E+00 0. -1.
         21    1    1    2  504  503  0.20647464306E+02  0.32915219555E+02  0.76256465555E+03  0.76355391647E+03  0.00000000000E+00 0.  1.
         21    1    1    2  505  506  0.16827132877E+03  0.24054952093E+01  0.32963277193E+03  0.37010645877E+03  0.00000000000E+00 0. -1.
         21    1    1    2  506  501 -0.13940242151E+02  0.28555602931E+02  0.27038817586E+03  0.27224900084E+03  0.00000000000E+00 0.  1.
<scales pt_clust_3="14000.00000" pt_clust_4="45.55766" pt_clust_5="170.73493" pt_clust_6="31.77661"></scales>
<clustering>
<clus scale="   31.777">  1  6  2 -1</clus>
<clus scale="   45.558">  1  4  2 -1</clus>
<clus scale="  170.735">  2  5  1 -1</clus>
<clus scale="   31.777">  1  3  2 -1</clus>
</clustering>
</event>
<event>
 6    0  0.4227619E+002  0.1174533E+03  0.7546771E-02  0.1247358E+00
         21   -1    0    0  503  501  0.00000000000E+00  0.00000000000E+00  0.20388900697E+03  0.20388900697E+03  0.00000000000E+00 0. -1.
         21   -1    0    0  506  502 -0.00000000000E+00 -0.00000000000E+00 -0.90437795028E+03  0.90437795028E+03  0.00000000000E+00 0. -1.
         21    1    1    2  503  504 -0.14168279662E+03 -0.14123237961E+02  0.43856194612E+01  0.14245249863E+03  0.00000000000E+00 0. -1.
         21    1    1    2  504  502  0.22073009372E+02  0.29863134133E+02 -0.79737767385E+03  0.79824193029E+03  0.00000000000E+00 0. -1.
         21    1    1    2  505  501  0.24905300979E+02 -0.35070317025E+02  0.30696433243E+02  0.52843847011E+02  0.00000000000E+00 0. -1.
         21    1    1    2  506  505  0.94704486269E+02  0.19330420853E+02  0.61806677834E+02  0.11472868131E+03  0.00000000000E+00 0. -1.
<scales pt_clust_3="14000.00000" pt_clust_4="37.13522" pt_clust_5="41.97241" pt_clust_6="117.45332"></scales>
<clustering>
<clus scale="   37.135">  2  4  1 -1</clus>
<clus scale="   41.972">  1  5  2 -1</clus>
<clus scale="  117.453">  1  6  2 -1</clus>
<clus scale="   41.972">  1  3  2 -1</clus>
</clustering>
</event>
<event>
 6    0  0.4227619E+002  0.1745824E+03  0.7546771E-02  0.1173152E+00
         21   -1    0    0  506  501  0.00000000000E+00  0.00000000000E+00  0.10830822517E+04  0.10830822517E+04  0.00000000000E+00 0.  1.
         21   -1    0    0  505  502 -0.00000000000E+00 -0.00000000000E+00 -0.53335865132E+03  0.53335865132E+03  0.00000000000E+00 0. -1.
         21    1    1    2  503  502  0.49575024493E+02  0.20804591485E+02 -0.57726454510E+02  0.78885091308E+02  0.00000000000E+00 0.  1.
         21    1    1    2  504  503  0.28629107153E+02 -0.17762715994E+03 -0.43556211901E+03  0.47125936940E+03  0.00000000000E+00 0. -1.
         21    1    1    2  505  501  0.16140961107E+02  0.30898977518E+02  0.50345520270E+02  0.61236825917E+02  0.00000000000E+00 0.  1.
         21    1    1    2  506  504 -0.94345092753E+02  0.12592359094E+03  0.99266665364E+03  0.10050596164E+04  0.00000000000E+00 0.  1.
<scales pt_clust_3="54.04040" pt_clust_4="14000.00000" pt_clust_5="34.86083" pt_clust_6="174.58239"></scales>
<clustering>
<clus scale="   34.861">  1  5  2 -1</clus>
<clus scale="   54.040">  2  3  1 -1</clus>
<clus scale="  174.582">  1  6  2 -1</clus>
<clus scale="   34.861">  1  3  2 -1</clus>
</clustering>
</event>
<event>
 6    0  0.4227619E+002  0.9563418E+02  0.7546771E-02  0.1289754E+00
         21   -1    0    0  504  501  0.00000000000E+00  0.00000000000E+00  0.41052674574E+02  0.41052674574E+02  0.00000000000E+00 0. -1.
         21   -1    0    0  503  502 -0.00000000000E+00 -0.00000000000E+00 -0.14009466355E+04  0.14009466355E+04  0.00000000000E+00 0.  1.
         21    1    1    2  503  506 -0.19547832691E+02  0.52035264740E+02 -0.85646321573E+03  0.85826512596E+03  0.00000000000E+00 0.  1.
         21    1    1    2  504  505 -0.61035965320E+02  0.26139499931E+01 -0.40335515761E+02  0.73206390629E+02  0.00000000000E+00 0. -1.
         21    1    1    2  505  502 -0.24034106315E+01 -0.10830203307E+03 -0.17355800900E+03  0.20459102922E+03  0.00000000000E+00 0. -1.
         21    1    1    2  506  501  0.82987208643E+02  0.53652818333E+02 -0.28953722046E+03  0.30593676429E+03  0.00000000000E+00 0.  1.
<scales pt_clust_3="55.58585" pt_clust_4="63.58891" pt_clust_5="14000.00000" pt_clust_6="95.63418"></scales>
<clustering>
<clus scale="   55.586">  2  3  1 -1</clus>
<clus scale="   63.589">  1  4  2 -1</clus>
<clus scale="   95.634">  2  6  1 -1</clus>
<clus scale="   63.589">  1  3  2 -1</clus>
</clustering>
</event>
<event>
 6    0  0.4227619E+002  0.1161906E+03  0.7546771E-02  0.1249517E+00
         21   -1    0    0  505  501  0.00000000000E+00  0.00000000000E+00  0.16937307012E+03  0.16937307012E+03  0.00000000000E+00 0.  1.
         21   -1    0    0  506  502 -0.00000000000E+00 -0.00000000000E+00 -0.96204280547E+03  0.96204280547E+03  0.00000000000E+00 0.  1.
         21    1    1    2  503  504  0.23954624023E+02 -0.10532589723E+03  0.28822922985E+02  0.11179503356E+03  0.00000000000E+00 0.  1.
         21    1    1    2  504  502 -0.21727519968E+02 -0.21156738829E+02 -0.46563445354E+02  0.55568400778E+02  0.00000000000E+00 0.  1.
         21    1    1    2  505  503 -0.34161398966E+02 -0.10706691788E+02  0.85226300511E+02  0.92440016915E+02  0.00000000000E+00 0.  1.
         21    1    1    2  506  501  0.31934294911E+02  0.13718932785E+03 -0.86015551349E+03  0.87161242434E+03  0.00000000000E+00 0.  1.
<scales pt_clust_3="116.19061" pt_clust_4="30.32644" pt_clust_5="35.90710" pt_clust_6="14000.00000"></scales>
<clustering>
<clus scale="   30.326">  2  4  1 -1</clus>
<clus scale="   35.907">  1  5  2 -1</clus>
<clus scale="  116.191">  1  3  2 -1</clus>
<clus scale="   35.907">  1  3  2 -1</clus>
</clustering>
</event>
<event>
 6    0  0.4227619E+002  0.1407999E+03  0.7546771E-02  0.1212257E+00
         21   -1    0    0  505  501  0.00000000000E+00  0.00000000000E+00  0.20176496099E+03  0.20176496099E+03  0.00000000000E+00 0.  1.
         21   -1    0    0  506  502 -0.00000000000E+00 -0.00000000000E+00 -0.47935826854E+03  0.47935826854E+03  0.00000000000E+00 0.  1.
         21    1    1    2  503  501 -0.53098210589E+02  0.69511364621E+02 -0.35781138050E+01  0.87544575375E+02  0.00000000000E+00 0.  1.
         21    1    1    2  504  503 -0.90803549702E+02  0.61787965532E+02 -0.14284422982E+03  0.18018743385E+03  0.00000000000E+00 0.  1.
         21    1    1    2  505  502  0.17755608197E+03 -0.13417803102E+03  0.50828708297E+02  0.22828373539E+03  0.00000000000E+00 0.  1.
         21    1    1    2  506  504 -0.33654321684E+02  0.28787008714E+01 -0.18199967221E+03  0.18510748492E+03  0.00000000000E+00 0.  1.
<scales pt_clust_3="91.05185" pt_clust_4="140.79995" pt_clust_5="14000.00000" pt_clust_6="33.77722"></scales>
<clustering>
<clus scale="   33.777">  2  6  1 -1</clus>
<clus scale="   91.052">  1  3  2 -1</clus>
<clus scale="  140.800">  2  4  1 -1</clus>
<clus scale="   91.052">  1  3  2 -1</clus>
</clustering>
</event>
<event>
 6    0  0.4227619E+002  0.8598926E+02  0.7546771E-02  0.1312866E+00
         21   -1    0    0  504  501  0.00000000000E+00  0.00000000000E+00  0.68528998433E+03  0.68528998433E+03  0.00000000000E+00 0. -1.
         21   -1    0    0  506  502 -0.00000000000E+00 -0.00000000000E+00 -0.16050889963E+04  0.16050889963E+04  0.00000000000E+00 0.  1.
         21    1    1    2  503  505  0.66977281311E+02 -0.30771171762E+01  0.12165978161E+03  0.13891194090E+03  0.00000000000E+00 0. -1.
         21    1    1    2  504  503 -0.94799263096E+02 -0.92938515739E+01  0.54821167691E+03  0.55642548348E+03  0.00000000000E+00 0. -1.
         21    1    1    2  505  502  0.54162965949E+02 -0.97146873082E+01 -0.14554281353E+04  0.14564680083E+04  0.00000000000E+00 0.  1.
         21    1    1    2  506  501 -0.26340984163E+02  0.22085656058E+02 -0.13424233515E+03  0.13857354797E+03  0.00000000000E+00 0.  1.
<scales pt_clust_3="85.98926" pt_clust_4="14000.00000" pt_clust_5="30.58042" pt_clust_6="34.37475"></scales>
<clustering>
<clus scale="   34.375">  2  6  1 -1</clus>
<clus scale="   30.580">  2  5  1 -1</clus>
<clus scale="   85.989">  2  3  1 -1</clus>
<clus scale="   85.989">  1  3  2 -1</clus>
</clustering>
</event>
<event>
 6    0  0.4227619E+002  0.6825300E+02  0.7546771E-02  0.1366137E+00
         21   -1    0    0  506  501  0.00000000000E+00  0.00000000000E+00  0.85374304682E+03  0.85374304682E+03  0.00000000000E+00 0. -1.
         21   -1    0    0  505  502 -0.00000000000E+00 -0.00000000000E+00 -0.43142614051E+03  0.43142614051E+03  0.00000000000E+00 0.  1.
         21    1    1    2  503  501  0.43967644006E+02  0.98322939447E+02  0.80748537199E+03  0.81463683940E+03  0.00000000000E+00 0. -1.
         21    1    1    2  504  502 -0.64810349846E+02 -0.21178261037E+02 -0.31332326074E+03  0.32065614903E+03  0.00000000000E+00 0.  1.
         21    1    1    2  505  503  0.32367491095E+02 -0.39220172806E+02 -0.92218625222E+02  0.10530978716E+03  0.00000000000E+00 0.  1.
         21    1    1    2  506  504 -0.11524785255E+02 -0.37924505604E+02  0.20373420285E+02  0.44566411731E+02  0.00000000000E+00 0. -1.
<scales pt_clust_3="68.25300" pt_clust_4="14000.00000" pt_clust_5="51.02685" pt_clust_6="39.63696"></scales>
<clustering>
<clus scale="   39.637">  1  6  2 -1</clus>
<clus scale="   51.027">  2  5  1 -1</clus>
<clus scale="   68.253">  1  3  2 -1</clus>
<clus scale="   39.637">  1  3  2 -1</clus>
</clustering>
</event>
<event>
 6    0  0.4227619E+002  0.1231075E+03  0.7546771E-02  0.1238057E+00
         21   -1    0    0  505  501  0.00000000000E+00  0.00000000000E+00  0.18280222912E+03  0.18280222912E+03  0.00000000000E+00 0. -1.
         21   -1    0    0  504  502 -0.00000000000E+00 -0.00000000000E+00 -0.12138622897E+04  0.12138622897E+04  0.00000000000E+00 0. -1.
         21    1    1    2  503  502  0.68894400954E+02 -0.13116516934E+03 -0.14761762691E+03  0.20914517423E+03  0.00000000000E+00 0. -1.
         21    1    1    2  504  506  0.36967872530E+02  0.10259594215E+03 -0.89988074607E+03  0.90646451011E+03  0.00000000000E+00 0. -1.
         21    1    1    2  505  503 -0.29627488985E+01 -0.32549335559E+02  0.11902005962E+03  0.12342613871E+03  0.00000000000E+00 0. -1.
         21    1    1    2  506  501 -0.10289952459E+03  0.61118562742E+02 -0.10258174727E+03  0.15762869581E+03  0.00000000000E+00 0. -1.
<scales pt_clust_3="123.10754" pt_clust_4="107.36320" pt_clust_5="32.68390" pt_clust_6="14000.00000"></scales>
<clustering>
<clus scale="   32.684">  1  5  2 -1</clus>
<clus scale="  107.363">  2  4  1 -1</clus>
<clus scale="  123.108">  2  3  1 -1</clus>
<clus scale="   32.684">  1  3  2 -1</clus>
</clustering>
</event>
<event>
 6    0  0.4227619E+002  0.7627727E+02  0.7546771E-02  0.1339961E+00
         21   -1    0    0  506  501  0.00000000000E+00  0.00000000000E+00  0.34110831875E+03  0.34110831875E+03  0.00000000000E+00 0.  1.
         21   -1    0    0  504  502 -0.00000000000E+00 -0.00000000000E+00 -0.43690243191E+03  0.43690243191E+03  0.00000000000E+00 0. -1.
         21    1    1    2  503  502  0.15072756073E+02  0.53396843717E+02 -0.12767327982E+03  0.13920803595E+03  0.00000000000E+00 0. -1.
         21    1    1    2  504  501  0.42210187133E+02 -0.74310220635E+02 -0.21451886965E+03  0.23091568639E+03  0.00000000000E+00 0. -1.
         21    1    1    2  505  503 -0.11649010732E+03 -0.23813511710E+02 -0.29235115259E+02  0.12244068118E+03  0.00000000000E+00 0. -1.
         21    1    1    2  506  505  0.59207164117E+02  0.44726888628E+02  0.27563315156E+03  0.28544634713E+03  0.00000000000E+00 0.  1.
<scales pt_clust_3="55.48343" pt_clust_4="63.80785" pt_clust_5="76.27727" pt_clust_6="14000.00000"></scales>
<clustering>
<clus scale="   55.483">  2  3  1 -1</clus>
<clus scale="   63.808">  2  4  1 -1</clus>
<clus scale="   76.277">  2  5  1 -1</clus>
<clus scale="   76.277">  1  3  2 -1</clus>
</clustering>
</event>
<event>
 6    0  0.4227619E+002  0.1284836E+03  0.7546771E-02  0.1229723E+00
         21   -1    0    0  502  501  0.00000000000E+00  0.00000000000E+00  0.80339001131E+02  0.80339001131E+02  0.00000000000E+00 0. -1.
         21   -1    0    0  504  502 -0.00000000000E+00 -0.00000000000E+00 -0.54455051385E+03  0.54455051385E+03  0.00000000000E+00 0. -1.
         21    1    1    2  503  506 -0.73211952891E+02 -0.10800233078E+03 -0.67649239807E+02  0.14697249112E+03  0.00000000000E+00 0. -1.
         21    1    1    2  504  505  0.76056921382E+02  0.41277859936E+02 -0.32605218601E+03  0.33734039932E+03  0.00000000000E+00 0. -1.
         21    1    1    2  505  503  0.14463891241E+02  0.35210571359E+02 -0.91388918401E+02  0.98999610564E+02  0.00000000000E+00 0.  1.
         21    1    1    2  506  501 -0.17308859732E+02  0.31513899488E+02  0.20878831500E+02  0.41577013974E+02  0.00000000000E+00 0. -1.
<scales pt_clust_3="120.07083" pt_clust_4="30.32826" pt_clust_5="30.32826" pt_clust_6="35.95445"></scales>
<clustering>
<clus scale="   30.328">  4  5 -1 -1</clus>
<clus scale="   35.954">  1  6  2 -1</clus>
<clus scale="  120.071">  1  3  2 -1</clus>
<clus scale="   35.954">  1  3  2 -1</clus>
</clustering>
</event>
<event>
 6    0  0.4227619E+002  0.1350424E+03  0.7546771E-02  0.1220160E+00
         21   -1    0    0  504  501  0.00000000000E+00  0.00000000000E+00  0.56992090251E+03  0.56992090251E+03  0.00000000000E+00 0. -1.
         21   -1    0    0  506  502 -0.00000000000E+00 -0.00000000000E+00 -0.17090074914E+03  0.17090074914E+03  0.00000000000E+00 0. -1.
         21    1    1    2  503  501 -0.12786213195E+03 -0.53001029113E+02  0.44226373652E+03  0.46341670936E+03  0.00000000000E+00 0. -1.
         21    1    1    2  504  502 -0.42834950425E+02  0.40568724956E+02 -0.42244073187E+01  0.59148119494E+02  0.00000000000E+00 0. -1.
         21    1    1    2  505  503  0.10893616356E+03  0.49330697593E+02  0.24749867407E+02  0.12211945542E+03  0.00000000000E+00 0.  1.
         21    1    1    2  506  505  0.61760918821E+02 -0.36898393436E+02 -0.63769043239E+02  0.96137367383E+02  0.00000000000E+00 0. -1.
<scales pt_clust_3="135.04244" pt_clust_4="58.99707" pt_clust_5="14000.00000" pt_clust_6="39.57029"></scales>
<clustering>
<clus scale="   58.997">  2  4  1 -1</clus>
<clus scale="   39.570">  2  6  1 -1</clus>
<clus scale="  135.042">  1  3  2 -1</clus>
<clus scale="  135.042">  1  3  2 -1</clus>
</clustering>
</event>
<event>
 6    0  0.4227619E+002  0.1042665E+03  0.7546771E-02  0.1271572E+00
         21   -1    0    0  506  501  0.00000000000E+00  0.00000000000E+00  0.17886195139E+03  0.17886195139E+03  0.00000000000E+00 0.  1.
         21   -1    0    0  504  502 -0.00000000000E+00 -0.00000000000E+00 -0.63886135591E+03  0.63886135591E+03  0.00000000000E+00 0.  1.
         21    1    1    2  503  505 -0.19208503718E+02  0.67041106310E+02 -0.27654568952E+02  0.75021675097E+02  0.00000000000E+00 0.  1.
         21    1    1    2  504  501 -0.56544468378E+02 -0.20169215703E+02 -0.20218454849E+02  0.63347139500E+02  0.00000000000E+00 0. -1.
         21    1    1    2  505  502  0.46423756762E+00  0.54977195657E+02 -0.51392633529E+03  0.51685876762E+03  0.00000000000E+00 0.  1.
         21    1    1    2  506  503  0.75288734529E+02 -0.10184908626E+03  0.10179995457E+03  0.16249572508E+03  0.00000000000E+00 0.  1.
<scales pt_clust_3="14000.00000" pt_clust_4="56.40907" pt_clust_5="54.97916" pt_clust_6="104.26651"></scales>
<clustering>
<clus scale="   54.979">  2  5  1 -1</clus>
<clus scale="   56.409">  2  4  1 -1</clus>
<clus scale="  104.267">  1  6  2 -1</clus>
<clus scale="  104.267">  1  3  2 -1</clus>
</clustering>
</event>
<event>
 6    0  0.4227619E+002  0.1866291E+03  0.7546771E-02  0.1161537E+00
         21   -1    0    0  505  501  0.00000000000E+00  0.00000000000E+00  0.15221020885E+03  0.15221020885E+03  0.00000000000E+00 0. -1.
         21   -1    0    0  504  502 -0.00000000000E+00 -0.00000000000E+00 -0.67110684562E+03  0.67110684562E+03  0.00000000000E+00 0. -1.
         21    1    1    2  503  506  0.70974948426E+02 -0.43593557252E+02 -0.19483129343E+03  0.21188929760E+03  0.00000000000E+00 0. -1.
         21    1    1    2  504  501 -0.19992783375E+03  0.14111143840E+03 -0.47996208838E+02  0.24937364098E+03  0.00000000000E+00 0. -1.
         21    1    1    2  505  503  0.94917070157E+02 -0.10492890540E+03 -0.79242092944E+02  0.16216853792E+03  0.00000000000E+00 0. -1.
         21    1    1    2  506  502  0.34035815163E+02  0.74110242560E+01 -0.19682704155E+03  0.19988557797E+03  0.00000000000E+00 0. -1.
<scales pt_clust_3="94.67154" pt_clust_4="14000.00000" pt_clust_5="186.62906" pt_clust_6="34.83332"></scales>
<clustering>
<clus scale="   34.833">  2  6  1 -1</clus>
<clus scale="   94.672">  2  3  1 -1</clus>
<clus scale="  186.629">  1  5  2 -1</clus>
<clus scale="  186.629">  1  3  2 -1</clus>
</clustering>
</event>
<event>
 6    0  0.4227619E+002  0.3659870E+03  0.7546771E-02  0.1056238E+00
         21   -1    0    0  506  501  0.00000000000E+00  0.00000000000E+00  0.21199724630E+03  0.21199724630E+03  0.00000000000E+00 0.  1.
         21   -1    0    0  505  502 -0.00000000000E+00 -0.00000000000E+00 -0.12352299185E+04  0.12352299185E+04  0.00000000000E+00 0.  1.
         21    1    1    2  503  501 -0.25625013209E+03  0.10724985167E+02 -0.30272184466E+03  0.39676147840E+03  0.00000000000E+00 0.  1.
         21    1    1    2  504  502  0.13685724896E+03 -0.70687215108E+02 -0.84867242453E+02  0.17586653409E+03  0.00000000000E+00 0.  1.
         21    1    1    2  505  503 -0.12510112284E+03 -0.62788228827E+01 -0.60686970677E+03  0.61966164602E+03  0.00000000000E+00 0.  1.
         21    1    1    2  506  504  0.24449400598E+03  0.66241052823E+02 -0.28773878317E+02  0.25493750628E+03  0.00000000000E+00 0.  1.
<scales pt_clust_3="326.67597" pt_clust_4="126.25797" pt_clust_5="125.25859" pt_clust_6="126.25797"></scales>
<clustering>
<clus scale="  125.259">  2  5  1 -1</clus>
<clus scale="  126.258">  4  6 -1 -1</clus>
<clus scale="  326.676">  2  3  1 -1</clus>
<clus scale="  365.987">  1  3  2 -1</clus>
</clustering>
</event>
<event>
 6    0  0.4227619E+002  0.1275266E+03  0.7546771E-02  0.1231173E+00
         21   -1    0    0  504  501  0.00000000000E+00  0.00000000000E+00  0.92360923195E+03  0.92360923195E+03  0.00000000000E+00 0.  1.
         21   -1    0    0  506  502 -0.00000000000E+00 -0.00000000000E+00 -0.53250217237E+03  0.53250217237E+03  0.00000000000E+00 0.  1.
         21    1    1    2  503  501 -0.15070618644E+02  0.42445874845E+02  0.57964057176E+03  0.58138796708E+03  0.00000000000E+00 0.  1.
         21    1    1    2  504  505 -0.44732605891E+02  0.74560684218E+02  0.31418852398E+03  0.32599805254E+03  0.00000000000E+00 0.  1.
         21    1    1    2  505  502  0.20411216102E+01 -0.35783885008E+02  0.38197212631E+00  0.35844086073E+02  0.00000000000E+00 0. -1.
         21    1    1    2  506  503  0.57762102925E+02 -0.81222674054E+02 -0.50310400829E+03  0.51288129861E+03  0.00000000000E+00 0.  1.
<scales pt_clust_3="44.98354" pt_clust_4="127.52659" pt_clust_5="35.84205" pt_clust_6="14000.00000"></scales>
<clustering>
<clus scale="   35.842">  2  5  1 -1</clus>
<clus scale="   44.984">  1  3  2 -1</clus>
<clus scale="  127.527">  1  4  2 -1</clus>
<clus scale="   44.984">  1  3  2 -1</clus>
</clustering>
</event>
<event>
 6    0  0.4227619E+002  0.8436975E+02  0.7546771E-02  0.1317089E+00
         21   -1    0    0  505  501  0.00000000000E+00  0.00000000000E+00  0.20152223829E+02  0.20152223829E+02  0.00000000000E+00 0. -1.
         21   -1    0    0  504  502 -0.00000000000E+00 -0.00000000000E+00 -0.14328381875E+04  0.14328381875E+04  0.00000000000E+00 0. -1.
         21    1    1    2  503  506  0.56968206141E+02 -0.33329456681E+02 -0.16446374521E+03  0.17721329714E+03  0.00000000000E+00 0. -1.
         21    1    1    2  504  503  0.97470742502E+01 -0.33909568519E+02 -0.53911427621E+03  0.54026758843E+03  0.00000000000E+00 0.  1.
         21    1    1    2  505  502 -0.10078581852E+03  0.36121307751E+02 -0.65800159280E+03  0.66665480289E+03  0.00000000000E+00 0. -1.
         21    1    1    2  506  501  0.34070538129E+02  0.31117717449E+02 -0.51106349444E+02  0.68854722867E+02  0.00000000000E+00 0. -1.
<scales pt_clust_3="14000.00000" pt_clust_4="35.28263" pt_clust_5="84.36975" pt_clust_6="45.13986"></scales>
<clustering>
<clus scale="   35.283">  2  4  1 -1</clus>
<clus scale="   45.140">  1  6  2 -1</clus>
<clus scale="   84.370">  2  5  1 -1</clus>
<clus scale="   45.140">  1  3  2 -1</clus>
</clustering>
</event>
<event>
 6    0  0.4227619E+002  0.6215021E+02  0.7546771E-02  0.1389024E+00
         21   -1    0    0  505  501  0.00000000000E+00  0.00000000000E+00  0.74769231471E+02  0.74769231471E+02  0.00000000000E+00 0.  1.
         21   -1    0    0  503  502 -0.00000000000E+00 -0.00000000000E+00 -0.31739833022E+03  0.31739833022E+03  0.00000000000E+00 0. -1.
         21    1    1    2  503  504  0.45167170423E+02 -0.22242805774E+02 -0.70135557818E+02  0.86335462952E+02  0.00000000000E+00 0.  1.
         21    1    1    2  504  506  0.56110531078E+02 -0.51216152280E+02  0.39944279978E+01  0.76075235177E+02  0.00000000000E+00 0.  1.
         21    1    1    2  505  502 -0.79105552036E+02  0.53200615778E+02 -0.17548440314E+03  0.19970670902E+03  0.00000000000E+00 0. -1.
         21    1    1    2  506  501 -0.22172149465E+02  0.20258342276E+02 -0.10035657870E+01  0.30050154541E+02  0.00000000000E+00 0. -1.
<scales pt_clust_3="46.48299" pt_clust_4="14000.00000" pt_clust_5="62.15021" pt_clust_6="30.03339"></scales>
<clustering>
<clus scale="   30.033">  1  6  2 -1</clus>
<clus scale="   46.483">  2  3  1 -1</clus>
<clus scale="   62.150">  2  5  1 -1</clus>
<clus scale="   30.033">  1  3  2 -1</clus>
</clustering>
</event>
<event>
 6    0  0.4227619E+002  0.7451340E+02  0.7546771E-02  0.1345385E+00
         21   -1    0    0  502  501  0.00000000000E+00  0.00000000000E+00  0.14795525088E+03  0.14795525088E+03  0.00000000000E+00 0.  1.
         21   -1    0    0  503  502 -0.00000000000E+00 -0.00000000000E+00 -0.10664514576E+04  0.10664514576E+04  0.00000000000E+00 0. -1.
         21    1    1    2  503  504 -0.57104694270E+02 -0.45269916344E+02 -0.92176849991E+03  0.92464451486E+03  0.00000000000E+00 0. -1.
         21    1    1    2  504  506  0.11456843435E+03  0.46289596324E+02 -0.59508315038E+02  0.13714916126E+03  0.00000000000E+00 0.  1.
         21    1    1    2  505  501  0.32429193330E+02 -0.30300822325E+02  0.23683836000E+02  0.50306227262E+02  0.00000000000E+00 0.  1.
         21    1    1    2  506  505 -0.89892933408E+02  0.29281142345E+02  0.39096772216E+02  0.10230680511E+03  0.00000000000E+00 0.  1.
<scales pt_clust_3="74.51340" pt_clust_4="14000.00000" pt_clust_5="44.38234" pt_clust_6="69.94445"></scales>
<clustering>
<clus scale="   44.382">  1  5  2 -1</clus>
<clus scale="   69.944">  1  6  2 -1</clus>
<clus scale="   74.513">  2  3  1 -1</clus>
<clus scale="   44.382">  1  3  2 -1</clus>
</clustering>
</event>
<event>
 6    0  0.4227619E+002  0.1778084E+03  0.7546771E-02  0.1169941E+00
         21   -1    0    0  503  501  0.00000000000E+00  0.00000000000E+00  0.35314911136E+03  0.35314911136E+03  0.00000000000E+00 0. -1.
         21   -1    0    0  506  502 -0.00000000000E+00 -0.00000000000E+00 -0.28855882466E+03  0.28855882466E+03  0.00000000000E+00 0. -1.
         21    1    1    2  503  505 -0.37706858364E+01  0.13891834784E+03 -0.84265128088E+02  0.16252119016E+03  0.00000000000E+00 0. -1.
         21    1    1    2  504  502 -0.34685377126E+02 -0.43798166787E+02 -0.95265423889E+02  0.11043937608E+03  0.00000000000E+00 0.  1.
         21    1    1    2  505  504 -0.25956072088E+02  0.57922541362E+02 -0.10932294880E+02  0.64406937106E+02  0.00000000000E+00 0. -1.
         21    1    1    2  506  501  0.64412135050E+02 -0.15304272241E+03  0.25505313356E+03  0.30434043268E+03  0.00000000000E+00 0. -1.
<scales pt_clust_3="35.78547" pt_clust_4="55.86909" pt_clust_5="35.78547" pt_clust_6="169.74101"></scales>
<clustering>
<clus scale="   35.785">  3  5 -1 -1</clus>
<clus scale="   55.869">  2  4  1 -1</clus>
<clus scale="  169.741">  1  6  2 -1</clus>
<clus scale="  169.741">  1  3  2 -1</clus>
</clustering>
</event>
<event>
 6    0  0.4227619E+002  0.1381188E+03  0.7546771E-02  0.1215883E+00
         21   -1    0    0  504  501  0.00000000000E+00  0.00000000000E+00  0.39388506739E+03  0.39388506739E+03  0.00000000000E+00 0. -1.
         21   -1    0    0  506  502 -0.00000000000E+00 -0.00000000000E+00 -0.72015180598E+03  0.72015180598E+03  0.00000000000E+00 0.  1.
         21    1    1    2  503  505 -0.84160948998E+02  0.18262286732E+01  0.11997685072E+03  0.14656345096E+03  0.00000000000E+00 0. -1.
         21    1    1    2  504  502  0.24862871970E+01 -0.45672288575E+02  0.19077845478E+03  0.19618501058E+03  0.00000000000E+00 0. -1.
         21    1    1    2  505  501 -0.24982664894E+02 -0.29838162864E+02  0.54918600193E+02  0.67309005010E+02  0.00000000000E+00 0. -1.
         21    1    1    2  506  503  0.10665732670E+03  0.73684222767E+02 -0.69194064428E+03  0.70397940683E+03  0.00000000000E+00 0.  1.
<scales pt_clust_3="33.69555" pt_clust_4="45.73991" pt_clust_5="33.69555" pt_clust_6="128.92170"></scales>
<clustering>
<clus scale="   33.696">  3  5 -1 -1</clus>
<clus scale="   45.740">  1  4  2 -1</clus>
<clus scale="  128.922">  2  6  1 -1</clus>
<clus scale="   45.740">  1  3  2 -1</clus>
</clustering>
</event>
<event>
 6    0  0.4227619E+002  0.1061042E+03  0.7546771E-02  0.1267959E+00
         21   -1    0    0  505  501  0.00000000000E+00  0.00000000000E+00  0.33884956331E+03  0.33884956331E+03  0.00000000000E+00 0. -1.
         21   -1    0    0  504  502 -0.00000000000E+00 -0.00000000000E+00 -0.36763837397E+03  0.36763837397E+03  0.00000000000E+00 0. -1.
         21    1    1    2  503  502  0.16711838548E+02 -0.80707322871E+02 -0.20171388554E+03  0.21790238441E+03  0.00000000000E+00 0. -1.
         21    1    1    2  504  506 -0.20505679203E+02  0.24074797538E+02 -0.11867268995E+03  0.12281403053E+03  0.00000000000E+00 0. -1.
         21    1    1    2  505  503 -0.69282221008E+01  0.13701929554E+03  0.20907526154E+03  0.25006949554E+03  0.00000000000E+00 0. -1.
         21    1    1    2  506  501  0.10722062755E+02 -0.80386770212E+02  0.82522503290E+02  0.11570202679E+03  0.00000000000E+00 0. -1.
<scales pt_clust_3="60.25310" pt_clust_4="31.62402" pt_clust_5="106.10424" pt_clust_6="14000.00000"></scales>
<clustering>
<clus scale="   31.624">  2  4  1 -1</clus>
<clus scale="   60.253">  2  3  1 -1</clus>
<clus scale="  106.104">  2  5  1 -1</clus>
<clus scale="  106.104">  1  3  2 -1</clus>
</clustering>
</event>
<event>
 6    0  0.4227619E+002  0.9032903E+02  0.7546771E-02  0.1302057E+00
         21   -1    0    0  503  501  0.00000000000E+00  0.00000000000E+00  0.27188167477E+02  0.27188167477E+02  0.00000000000E+00 0. -1.
         21   -1    0    0  504  502 -0.00000000000E+00 -0.00000000000E+00 -0.21176622098E+04  0.21176622098E+04  0.00000000000E+00 0.  1.
         21    1    1    2  503  506  0.44352070026E+02 -0.17423660148E+01 -0.28214912246E+02  0.52594897357E+02  0.00000000000E+00 0. -1.
         21    1    1    2  504  505 -0.12017071643E+02 -0.36973693364E+02 -0.98906331038E+03  0.98982710407E+03  0.00000000000E+00 0.  1.
         21    1    1    2  505  501 -0.96574897894E+02  0.75945868894E+02 -0.28004525038E+03  0.30581011783E+03  0.00000000000E+00 0. -1.
         21    1    1    2  506  502  0.64239899511E+02 -0.37229809515E+02 -0.79315056935E+03  0.79661825806E+03  0.00000000000E+00 0.  1.
<scales pt_clust_3="44.02862" pt_clust_4="38.87755" pt_clust_5="14000.00000" pt_clust_6="90.32903"></scales>
<clustering>
<clus scale="   38.878">  2  4  1 -1</clus>
<clus scale="   44.029">  1  3  2 -1</clus>
<clus scale="   90.329">  2  6  1 -1</clus>
<clus scale="   44.029">  1  3  2 -1</clus>
</clustering>
</event>
<event>
 6    0  0.4227619E+002  0.9113062E+02  0.7546771E-02  0.1300137E+00
         21   -1    0    0  506  501  0.00000000000E+00  0.00000000000E+00  0.11232429331E+04  0.11232429331E+04  0.00000000000E+00 0. -1.
         21   -1    0    0  505  502 -0.00000000000E+00 -0.00000000000E+00 -0.13354409516E+03  0.13354409516E+03  0.00000000000E+00 0. -1.
         21    1    1    2  503  501  0.53671670166E+02 -0.24109815747E+02  0.17752437665E+03  0.18702094989E+03  0.00000000000E+00 0.  1.
         21    1    1    2  504  503  0.42198877109E+02  0.44771000483E+02  0.18564456608E+03  0.19557375240E+03  0.00000000000E+00 0.  1.
         21    1    1    2  505  504 -0.32208071230E+02 -0.88797309352E+02 -0.10240533738E+03  0.13931681566E+03  0.00000000000E+00 0. -1.
         21    1    1    2  506  502 -0.63662476045E+02  0.68136124616E+02  0.72893523263E+03  0.73487551034E+03  0.00000000000E+00 0. -1.
<scales pt_clust_3="58.83818" pt_clust_4="14000.00000" pt_clust_5="91.13062" pt_clust_6="54.02755"></scales>
<clustering>
<clus scale="   58.838">  1  3  2 -1</clus>
<clus scale="   54.028">  1  6  2 -1</clus>
<clus scale="   91.131">  2  5  1 -1</clus>
<clus scale="   58.838">  1  3  2 -1</clus>
</clustering>
</event>
<event>
 6    0  0.4227619E+002  0.8115969E+02  0.7546771E-02  0.1325792E+00
         21   -1    0    0  506  501  0.00000000000E+00  0.00000000000E+00  0.11971738057E+03  0.11971738057E+03  0.00000000000E+00 0. -1.
         21   -1    0    0  504  502 -0.00000000000E+00 -0.00000000000E+00 -0.39812705076E+03  0.39812705076E+03  0.00000000000E+00 0. -1.
         21    1    1    2  503  505 -0.10638201524E+02 -0.89426052752E+02 -0.16261387386E+02  0.91512966088E+02  0.00000000000E+00 0. -1.
         21    1    1    2  504  503 -0.50902430386E+02  0.13730978651E+02 -0.25473332300E+03  0.26013201079E+03  0.00000000000E+00 0. -1.
         21    1    1    2  505  501  0.95829649281E+02  0.30028576469E+02  0.20718099006E+02  0.10253914722E+03  0.00000000000E+00 0. -1.
         21    1    1    2  506  502 -0.34289017371E+02  0.45666497632E+02 -0.28133058822E+02  0.63660307232E+02  0.00000000000E+00 0. -1.
<scales pt_clust_3="14000.00000" pt_clust_4="52.72189" pt_clust_5="81.15969" pt_clust_6="71.44798"></scales>
<clustering>
<clus scale="   52.722">  2  4  1 -1</clus>
<clus scale="   71.448">  2  6  1 -1</clus>
<clus scale="   81.160">  1  5  2 -1</clus>
<clus scale="   81.160">  1  3  2 -1</clus>
</clustering>
</event>
<event>
 6    0  0.5270802E+002  0.1040997E+03  0.7546771E-02  0.1271904E+00
         21   -1    0    0  504  501  0.00000000000E+00  0.00000000000E+00  0.46735646762E+03  0.46735646762E+03  0.00000000000E+00 0.  1.
         21   -1    0    0  505  502 -0.00000000000E+00 -0.00000000000E+00 -0.68842674137E+03  0.68842674137E+03  0.00000000000E+00 0.  1.
         21    1    1    2  503  506  0.53049663845E+02  0.45825535431E+02  0.16658772042E+03  0.18073659045E+03  0.00000000000E+00 0.  1.
         21    1    1    2  504  503  0.14061704112E+02  0.37856912592E+02  0.26788994173E+03  0.27091677363E+03  0.00000000000E+00 0.  1.
         21    1    1    2  505  501  0.36444263039E+02 -0.12185064939E+02 -0.51115192224E+03  0.51259433057E+03  0.00000000000E+00 0.  1.
         21    1    1    2  506  502 -0.10355563100E+03 -0.71497383084E+02 -0.14439601365E+03  0.19153551435E+03  0.00000000000E+00 0.  1.
<scales pt_clust_3="14000.00000" pt_clust_4="40.39633" pt_clust_5="38.42734" pt_clust_6="104.09967"></scales>
<clustering>
<clus scale="   38.427">  2  5  1 -1</clus>
<clus scale="   40.396">  1  4  2 -1</clus>
<clus scale="  104.100">  2  6  1 -1</clus>
<clus scale="   40.396">  1  3  2 -1</clus>
</clustering>
</event>
<event>
 6    0  0.4227619E+002  0.1308078E+03  0.7546771E-02  0.1226262E+00
         21   -1    0    0  504  501  0.00000000000E+00  0.00000000000E+00  0.85762572699E+03  0.85762572699E+03  0.00000000000E+00 0. -1.
         21   -1    0    0  505  502 -0.00000000000E+00 -0.00000000000E+00 -0.14200181882E+03  0.14200181882E+03  0.00000000000E+00 0.  1.
         21    1    1    2  503  502 -0.32993237964E+02  0.48832035987E+02 -0.39959250844E+02  0.71202971974E+02  0.00000000000E+00 0.  1.
         21    1    1    2  504  503  0.25430212451E+02  0.23833117078E+02  0.92864269337E+02  0.99189141011E+02  0.00000000000E+00 0.  1.
         21    1    1    2  505  506  0.11044509528E+03 -0.14675623143E+03  0.32667989223E+02  0.18655483927E+03  0.00000000000E+00 0.  1.
         21    1    1    2  506  501 -0.10288206977E+03  0.74091078364E+02  0.63005090045E+03  0.64268059356E+03  0.00000000000E+00 0. -1.
<scales pt_clust_3="59.05046" pt_clust_4="34.85274" pt_clust_5="14000.00000" pt_clust_6="130.80779"></scales>
<clustering>
<clus scale="   34.853">  1  4  2 -1</clus>
<clus scale="   59.050">  2  3  1 -1</clus>
<clus scale="  130.808">  1  6  2 -1</clus>
<clus scale="   34.853">  1  3  2 -1</clus>
</clustering>
</event>
<event>
 6    0  0.4227619E+002  0.1099031E+03  0.7546771E-02  0.1260750E+00
         21   -1    0    0  504  501  0.00000000000E+00  0.00000000000E+00  0.37494814262E+02  0.37494814262E+02  0.00000000000E+00 0. -1.
         21   -1    0    0  506  502 -0.00000000000E+00 -0.00000000000E+00 -0.17515062797E+04  0.17515062797E+04  0.00000000000E+00 0.  1.
         21    1    1    2  503  505 -0.89846497424E+02 -0.11866645439E+02 -0.11747656286E+03  0.14837099850E+03  0.00000000000E+00 0. -1.
         21    1    1    2  504  503 -0.28681732643E+02 -0.31526011715E+02 -0.15297498583E+02  0.45282940109E+02  0.00000000000E+00 0. -1.
         21    1    1    2  505  502  0.11389440589E+03 -0.42853352099E+02 -0.77484169399E+03  0.78433920992E+03  0.00000000000E+00 0.  1.
         21    1    1    2  506  501  0.46338241770E+01  0.86246009254E+02 -0.80639571002E+03  0.81100794545E+03  0.00000000000E+00 0.  1.
<scales pt_clust_3="14000.00000" pt_clust_4="42.62078" pt_clust_5="109.90306" pt_clust_6="83.03237"></scales>
<clustering>
<clus scale="   42.621">  1  4  2 -1</clus>
<clus scale="   83.032">  2  6  1 -1</clus>
<clus scale="  109.903">  2  5  1 -1</clus>
<clus scale="   42.621">  1  3  2 -1</clus>
</clustering>
</event>
<event>
 6    0  0.4227619E+002  0.8751494E+02  0.7546771E-02  0.1308984E+00
         21   -1    0    0  503  501  0.00000000000E+00  0.00000000000E+00  0.35659783591E+03  0.35659783591E+03  0.00000000000E+00 0. -1.
         21   -1    0    0  505  502 -0.00000000000E+00 -0.00000000000E+00 -0.11563488540E+03  0.11563488540E+03  0.00000000000E+00 0. -1.
         21    1    1    2  503  504 -0.77024427752E+01  0.48262226218E+02  0.57181850045E+02  0.75221898931E+02  0.00000000000E+00 0. -1.
         21    1    1    2  504  502  0.74812681477E+02 -0.29889683623E+02 -0.29493659100E+02  0.85791645421E+02  0.00000000000E+00 0. -1.
         21    1    1    2  505  506 -0.95107289148E+02  0.37009339988E+02  0.14618637542E+02  0.10309603416E+03  0.00000000000E+00 0. -1.
         21    1    1    2  506  501  0.27997050445E+02 -0.55381882583E+02  0.19865612203E+03  0.20812314280E+03  0.00000000000E+00 0. -1.
<scales pt_clust_3="48.87300" pt_clust_4="87.51494" pt_clust_5="14000.00000" pt_clust_6="31.24975"></scales>
<clustering>
<clus scale="   48.873">  1  3  2 -1</clus>
<clus scale="   31.250">  1  6  2 -1</clus>
<clus scale="   87.515">  2  4  1 -1</clus>
<clus scale="   48.873">  1  3  2 -1</clus>
</clustering>
</event>
<event>
 6    0  0.4227619E+002  0.1349911E+03  0.7546771E-02  0.1220232E+00
         21   -1    0    0  503  501  0.00000000000E+00  0.00000000000E+00  0.87023425490E+03  0.87023425490E+03  0.00000000000E+00 0.  1.
         21   -1    0    0  504  502 -0.00000000000E+00 -0.00000000000E+00 -0.29601030082E+03  0.29601030082E+03  0.00000000000E+00 0.  1.
         21    1    1    2  503  506 -0.46676460747E+02  0.10104261080E+02  0.39111419879E+03  0.39401916778E+03  0.00000000000E+00 0.  1.
         21    1    1    2  504  505  0.53969957623E+02  0.18088588046E+02 -0.25253944985E+03  0.25887473240E+03  0.00000000000E+00 0.  1.
         21    1    1    2  505  501  0.12354106137E+03 -0.75259916840E+01  0.12629383292E+03  0.17683089840E+03  0.00000000000E+00 0. -1.
         21    1    1    2  506  502 -0.13083455824E+03 -0.20666857442E+02  0.30935537221E+03  0.33651975714E+03  0.00000000000E+00 0.  1.
<scales pt_clust_3="47.75760" pt_clust_4="56.64862" pt_clust_5="134.99108" pt_clust_6="14000.00000"></scales>
<clustering>
<clus scale="   47.758">  1  3  2 -1</clus>
<clus scale="   56.649">  2  4  1 -1</clus>
<clus scale="  134.991">  1  5  2 -1</clus>
<clus scale="   47.758">  1  3  2 -1</clus>
</clustering>
</event>
<event>
 6    0  0.4227619E+002  0.1443837E+03  0.7546771E-02  0.1207549E+00
         21   -1    0    0  504  501  0.00000000000E+00  0.00000000000E+00  0.10713221978E+04  0.10713221978E+04  0.00000000000E+00 0. -1.
         21   -1    0    0  506  502 -0.00000000000E+00 -0.00000000000E+00 -0.83460672497E+03  0.83460672497E+03  0.00000000000E+00 0.  1.
         21    1    1    2  503  501 -0.98093610779E+01  0.81870734274E+02  0.17814447889E+03  0.19630205311E+03  0.00000000000E+00 0.  1.
         21    1    1    2  504  505  0.12765779345E+03  0.12529216366E+02  0.79568127963E+03  0.80595421226E+03  0.00000000000E+00 0. -1.
         21    1    1    2  505  502 -0.14063905398E+03 -0.36638404368E+02  0.17615446354E+02  0.14639679003E+03  0.00000000000E+00 0.  1.
         21    1    1    2  506  503  0.22790621607E+02 -0.57761546271E+02 -0.75472573206E+03  0.75727586737E+03  0.00000000000E+00 0.  1.
<scales pt_clust_3="75.54114" pt_clust_4="144.38367" pt_clust_5="14000.00000" pt_clust_6="62.09516"></scales>
<clustering>
<clus scale="   62.095">  2  6  1 -1</clus>
<clus scale="   75.541">  1  3  2 -1</clus>
<clus scale="  144.384">  1  4  2 -1</clus>
<clus scale="   75.541">  1  3  2 -1</clus>
</clustering>
</event>
<event>
 6    0  0.4227619E+002  0.1212183E+03  0.7546771E-02  0.1241101E+00
         21   -1    0    0  504  501  0.00000000000E+00  0.00000000000E+00  0.52297056716E+03  0.52297056716E+03  0.00000000000E+00 0. -1.
         21   -1    0    0  506  502 -0.00000000000E+00 -0.00000000000E+00 -0.19063385468E+03  0.19063385468E+03  0.00000000000E+00 0. -1.
         21    1    1    2  503  502 -0.40667051703E+01  0.52273198549E+02 -0.95299132948E+02  0.10877017109E+03  0.00000000000E+00 0. -1.
         21    1    1    2  504  503 -0.13409032180E+03 -0.46666136825E+02  0.14389670243E+03  0.20214896413E+03  0.00000000000E+00 0. -1.
         21    1    1    2  505  501  0.20126071180E+02  0.33435847603E+02  0.27532825565E+03  0.27808031754E+03  0.00000000000E+00 0. -1.
         21    1    1    2  506  505  0.11803095580E+03 -0.39042909326E+02  0.84108873483E+01  0.12460496908E+03  0.00000000000E+00 0. -1.
<scales pt_clust_3="53.30379" pt_clust_4="14000.00000" pt_clust_5="39.02582" pt_clust_6="121.21825"></scales>
<clustering>
<clus scale="   39.026">  1  5  2 -1</clus>
<clus scale="   53.304">  2  3  1 -1</clus>
<clus scale="  121.218">  2  6  1 -1</clus>
<clus scale="   39.026">  1  3  2 -1</clus>
</clustering>
</event>
<event>
 6    0  0.4227619E+002  0.1550518E+03  0.7546771E-02  0.1194399E+00
         21   -1    0    0  505  501  0.00000000000E+00  0.00000000000E+00  0.27559950444E+03  0.27559950444E+03  0.00000000000E+00 0.  1.
         21   -1    0    0  504  502 -0.00000000000E+00 -0.00000000000E+00 -0.37429220131E+03  0.37429220131E+03  0.00000000000E+00 0. -1.
         21    1    1    2  503  506 -0.89406983675E+02  0.15284429712E+03  0.13931468327E+03  0.22530772038E+03  0.00000000000E+00 0.  1.
         21    1    1    2  504  503 -0.32028661135E+02 -0.41185554673E+02 -0.83090274200E+02  0.98112581836E+02  0.00000000000E+00 0. -1.
         21    1    1    2  505  502  0.13494788313E+03 -0.72644788133E+02 -0.20853730221E+03  0.25879722335E+03  0.00000000000E+00 0. -1.
         21    1    1    2  506  501 -0.13512238316E+02 -0.39013954309E+02  0.53620196273E+02  0.67674180184E+02  0.00000000000E+00 0.  1.
<scales pt_clust_3="14000.00000" pt_clust_4="53.54164" pt_clust_5="155.05181" pt_clust_6="41.28764"></scales>
<clustering>
<clus scale="   41.288">  1  6  2 -1</clus>
<clus scale="   53.542">  2  4  1 -1</clus>
<clus scale="  155.052">  2  5  1 -1</clus>
<clus scale="   41.288">  1  3  2 -1</clus>
</clustering>
</event>
<event>
 6    0  0.4227619E+002  0.6828464E+02  0.7546771E-02  0.1366025E+00
         21   -1    0    0  503  501  0.00000000000E+00  0.00000000000E+00  0.49630301258E+02  0.49630301258E+02  0.00000000000E+00 0.  1.
         21   -1    0    0  506  502 -0.00000000000E+00 -0.00000000000E+00 -0.91861839459E+03  0.91861839459E+03  0.00000000000E+00 0. -1.
         21    1    1    2  503  505  0.59368083514E+02 -0.56447920388E+02 -0.52440479815E+02  0.97267368523E+02  0.00000000000E+00 0.  1.
         21    1    1    2  504  502  0.22129282802E+02 -0.40756390399E+02 -0.56309584299E+03  0.56500240434E+03  0.00000000000E+00 0. -1.
         21    1    1    2  505  504 -0.28674536722E+02  0.66937973528E+02 -0.22912550911E+03  0.24041925938E+03  0.00000000000E+00 0.  1.
         21    1    1    2  506  501 -0.52822829594E+02  0.30266337259E+02 -0.24326261415E+02  0.65559663603E+02  0.00000000000E+00 0.  1.
<scales pt_clust_3="14000.00000" pt_clust_4="46.37659" pt_clust_5="42.34101" pt_clust_6="68.28464"></scales>
<clustering>
<clus scale="   46.377">  2  4  1 -1</clus>
<clus scale="   42.341">  2  5  1 -1</clus>
<clus scale="   68.285">  1  6  2 -1</clus>
<clus scale="   68.285">  1  3  2 -1</clus>
</clustering>
</event>
<event>
 6    0  0.4227619E+002  0.2671902E+03  0.7546771E-02  0.1102899E+00
         21   -1    0    0  504  501  0.00000000000E+00  0.00000000000E+00  0.71221193076E+03  0.71221193076E+03  0.00000000000E+00 0.  1.
         21   -1    0    0  506  502 -0.00000000000E+00 -0.00000000000E+00 -0.14289152933E+04  0.14289152933E+04  0.00000000000E+00 0. -1.
         21    1    1    2  503  501  0.38647621634E+02  0.30247451866E+03  0.22686690901E+03  0.38006981925E+03  0.00000000000E+00 0.  1.
         21    1    1    2  504  505 -0.19704457883E+02 -0.34430529239E+02  0.36622728238E+03  0.36836958257E+03  0.00000000000E+00 0.  1.
         21    1    1    2  505  502 -0.14481927976E+03 -0.14975147166E+03 -0.11063870622E+04  0.11258287874E+04  0.00000000000E+00 0. -1.
         21    1    1    2  506  503  0.12587611601E+03 -0.11829251776E+03 -0.20341049166E+03  0.26685903481E+03  0.00000000000E+00 0. -1.
<scales pt_clust_3="267.19023" pt_clust_4="39.67023" pt_clust_5="14000.00000" pt_clust_6="173.62082"></scales>
<clustering>
<clus scale="   39.670">  1  4  2 -1</clus>
<clus scale="  173.621">  2  6  1 -1</clus>
<clus scale="  267.190">  1  3  2 -1</clus>
<clus scale="   39.670">  1  3  2 -1</clus>
</clustering>
</event>
<event>
 6    0  0.4227619E+002  0.7244493E+02  0.7546771E-02  0.1351971E+00
         21   -1    0    0  506  501  0.00000000000E+00  0.00000000000E+00  0.85218475902E+02  0.85218475902E+02  0.00000000000E+00 0.  1.
         21   -1    0    0  503  502 -0.00000000000E+00 -0.00000000000E+00 -0.37609022037E+03  0.37609022037E+03  0.00000000000E+00 0.  1.
         21    1    1    2  503  505 -0.33662455078E+02  0.43100043078E+01 -0.52175259162E+02  0.62241422603E+02  0.00000000000E+00 0.  1.
         21    1    1    2  504  502  0.91299531068E+02  0.19982379625E+01 -0.23629467577E+03  0.25332739909E+03  0.00000000000E+00 0.  1.
         21    1    1    2  505  501 -0.97180295595E+02 -0.81684861242E+01 -0.24293152150E+02  0.10050319029E+03  0.00000000000E+00 0.  1.
         21    1    1    2  506  504  0.39543219605E+02  0.18602438539E+01  0.21891342619E+02  0.45236684290E+02  0.00000000000E+00 0.  1.
<scales pt_clust_3="33.93725" pt_clust_4="14000.00000" pt_clust_5="72.44493" pt_clust_6="38.36412"></scales>
<clustering>
<clus scale="   33.937">  2  3  1 -1</clus>
<clus scale="   38.364">  1  6  2 -1</clus>
<clus scale="   72.445">  1  5  2 -1</clus>
<clus scale="   38.364">  1  3  2 -1</clus>
</clustering>
</event>
<event>
 6    0  0.4227619E+002  0.1103374E+03  0.7546771E-02  0.1259946E+00
         21   -1    0    0  505  501  0.00000000000E+00  0.00000000000E+00  0.12936239731E+04  0.12936239731E+04  0.00000000000E+00 0.  1.
         21   -1    0    0  503  502 -0.00000000000E+00 -0.00000000000E+00 -0.18692912746E+03  0.18692912746E+03  0.00000000000E+00 0.  1.
         21    1    1    2  503  504 -0.14028442202E+03  0.73054434371E+02 -0.10943447592E+03  0.19233453659E+03  0.00000000000E+00 0.  1.
         21    1    1    2  504  501  0.85868864021E+02 -0.37133459074E+02  0.49883023475E+03  0.50752729847E+03  0.00000000000E+00 0.  1.
         21    1    1    2  505  506  0.24214763322E+02  0.21046571334E+02  0.71546849721E+03  0.71618746389E+03  0.00000000000E+00 0.  1.
         21    1    1    2  506  502  0.30200794681E+02 -0.56967546630E+02  0.18305896372E+01  0.64503801646E+02  0.00000000000E+00 0.  1.
<scales pt_clust_3="110.33744" pt_clust_4="14000.00000" pt_clust_5="32.08291" pt_clust_6="64.08658"></scales>
<clustering>
<clus scale="   32.083">  1  5  2 -1</clus>
<clus scale="   64.087">  2  6  1 -1</clus>
<clus scale="  110.337">  2  3  1 -1</clus>
<clus scale="   32.083">  1  3  2 -1</clus>
</clustering>
</event>
<event>
 6    0  0.4227619E+002  0.1023390E+03  0.7546771E-02  0.1275453E+00
         21   -1    0    0  503  501  0.00000000000E+00  0.00000000000E+00  0.18744907117E+03  0.18744907117E+03  0.00000000000E+00 0.  1.
         21   -1    0    0  504  502 -0.00000000000E+00 -0.00000000000E+00 -0.39051209143E+03  0.39051209143E+03  0.00000000000E+00 0.  1.
         21    1    1    2  503  505  0.26753658561E+02 -0.14592567227E+02  0.13875785448E+03  0.14206492686E+03  0.00000000000E+00 0.  1.
         21    1    1    2  504  506  0.89013705883E+02  0.35694636663E+01 -0.12536274032E+03  0.15379205950E+03  0.00000000000E+00 0.  1.
         21    1    1    2  505  502 -0.59425696542E+00  0.51844183758E+02 -0.32272200711E+02  0.61071003509E+02  0.00000000000E+00 0.  1.
         21    1    1    2  506  501 -0.11517310748E+03 -0.40821080197E+02 -0.18418593370E+03  0.22103317273E+03  0.00000000000E+00 0.  1.
<scales pt_clust_3="30.47460" pt_clust_4="14000.00000" pt_clust_5="47.98206" pt_clust_6="102.33903"></scales>
<clustering>
<clus scale="   30.475">  1  3  2 -1</clus>
<clus scale="   47.982">  1  5  2 -1</clus>
<clus scale="  102.339">  1  6  2 -1</clus>
<clus scale="   30.475">  1  3  2 -1</clus>
</clustering>
</event>
<event>
 6    0  0.4227619E+002  0.2181305E+03  0.7546771E-02  0.1135285E+00
         21   -1    0    0  504  501  0.00000000000E+00  0.00000000000E+00  0.16264984391E+03  0.16264984391E+03  0.00000000000E+00 0. -1.
         21   -1    0    0  503  502 -0.00000000000E+00 -0.00000000000E+00 -0.19410081495E+04  0.19410081495E+04  0.00000000000E+00 0. -1.
         21    1    1    2  503  505 -0.23847227265E+01 -0.34245594280E+02 -0.46994160472E+03  0.47119376001E+03  0.00000000000E+00 0.  1.
         21    1    1    2  504  502 -0.20408413618E+03 -0.99987332642E+02  0.47877343920E+02  0.23224995455E+03  0.00000000000E+00 0. -1.
         21    1    1    2  505  506  0.92382830079E+02 -0.17987129024E+02 -0.91286888171E+03  0.91770786163E+03  0.00000000000E+00 0. -1.
         21    1    1    2  506  501  0.11408602883E+03  0.15222005595E+03 -0.44342516310E+03  0.48250641724E+03  0.00000000000E+00 0. -1.
<scales pt_clust_3="34.32853" pt_clust_4="218.13048" pt_clust_5="99.03181" pt_clust_6="14000.00000"></scales>
<clustering>
<clus scale="   34.329">  2  3  1 -1</clus>
<clus scale="   99.032">  2  5  1 -1</clus>
<clus scale="  218.130">  1  4  2 -1</clus>
<clus scale="  218.130">  1  3  2 -1</clus>
</clustering>
</event>
<event>
 6    0  0.4227619E+002  0.1065083E+03  0.7546771E-02  0.1267176E+00
         21   -1    0    0  503  501  0.00000000000E+00  0.00000000000E+00  0.74094111966E+03  0.74094111966E+03  0.00000000000E+00 0. -1.
         21   -1    0    0  505  502 -0.00000000000E+00 -0.00000000000E+00 -0.22849916297E+03  0.22849916297E+03  0.00000000000E+00 0.  1.
         21    1    1    2  503  504 -0.48661042185E+02 -0.79110657870E+02  0.61646920389E+03  0.62342655748E+03  0.00000000000E+00 0. -1.
         21    1    1    2  504  506  0.41018233343E+02  0.40352527003E+01  0.11195582691E+02  0.42709715554E+02  0.00000000000E+00 0. -1.
         21    1    1    2  505  501 -0.50926356735E+02  0.16014865967E+02 -0.18635985382E+03  0.19385552574E+03  0.00000000000E+00 0.  1.
         21    1    1    2  506  502  0.58569165577E+02  0.59060539203E+02  0.71137023923E+02  0.10944848386E+03  0.00000000000E+00 0.  1.
<scales pt_clust_3="94.17688" pt_clust_4="35.01832" pt_clust_5="53.38511" pt_clust_6="35.01832"></scales>
<clustering>
<clus scale="   35.018">  4  6 -1 -1</clus>
<clus scale="   53.385">  2  5  1 -1</clus>
<clus scale="   94.177">  1  3  2 -1</clus>
<clus scale="   94.177">  1  3  2 -1</clus>
</clustering>
</event>
<event>
 6    0  0.4227619E+002  0.1054950E+03  0.7546771E-02  0.1269147E+00
         21   -1    0    0  504  501  0.00000000000E+00  0.00000000000E+00  0.14820325285E+04  0.14820325285E+04  0.00000000000E+00 0. -1.
         21   -1    0    0  505  502 -0.00000000000E+00 -0.00000000000E+00 -0.50523308586E+02  0.50523308586E+02  0.00000000000E+00 0. -1.
         21    1    1    2  503  501  0.64947988932E+02  0.67238717296E+02  0.25400680471E+03  0.27066352397E+03  0.00000000000E+00 0. -1.
         21    1    1    2  504  506 -0.58237152093E+02 -0.92946052567E+02  0.11712528036E+04  0.11763773479E+04  0.00000000000E+00 0. -1.
         21    1    1    2  505  503  0.35788183236E+02  0.11829886372E+01 -0.15010910875E+01  0.35839179621E+02  0.00000000000E+00 0. -1.
         21    1    1    2  506  502 -0.42499020075E+02  0.24524346634E+02  0.77507026580E+01  0.49675785619E+02  0.00000000000E+00 0. -1.
<scales pt_clust_3="14000.00000" pt_clust_4="105.49496" pt_clust_5="35.80773" pt_clust_6="31.61042"></scales>
<clustering>
<clus scale="   35.808">  2  5  1 -1</clus>
<clus scale="   31.610">  2  6  1 -1</clus>
<clus scale="  105.495">  1  4  2 -1</clus>
<clus scale="  105.495">  1  3  2 -1</clus>
</clustering>
</event>
<event>
 6    0  0.4227619E+002  0.1524409E+03  0.7546771E-02  0.1197505E+00
         21   -1    0    0  505  501  0.00000000000E+00  0.00000000000E+00  0.16371963217E+03  0.16371963217E+03  0.00000000000E+00 0.  1.
         21   -1    0    0  503  502 -0.00000000000E+00 -0.00000000000E+00 -0.20782667365E+03  0.20782667365E+03  0.00000000000E+00 0.  1.
         21    1    1    2  503  506  0.42372970508E+02  0.36374495170E+02 -0.35070139644E+02  0.65943060463E+02  0.00000000000E+00 0.  1.
         21    1    1    2  504  502 -0.27367538508E+01  0.30551128422E+02 -0.53582740592E+01  0.31137957069E+02  0.00000000000E+00 0.  1.
         21    1    1    2  505  504 -0.13021622423E+03 -0.69053859134E+02  0.64685369590E+02  0.16096241037E+03  0.00000000000E+00 0.  1.
         21    1    1    2  506  501  0.90580007571E+02  0.21282355421E+01 -0.68363997367E+02  0.11350287791E+03  0.00000000000E+00 0.  1.
<scales pt_clust_3="39.65550" pt_clust_4="30.67346" pt_clust_5="144.55087" pt_clust_6="39.65550"></scales>
<clustering>
<clus scale="   30.673">  2  4  1 -1</clus>
<clus scale="   39.656">  3  6 -1 -1</clus>
<clus scale="  144.551">  1  5  2 -1</clus>
<clus scale="  144.551">  1  3  2 -1</clus>
</clustering>
</event>
<event>
 6    0  0.4227619E+002  0.1975862E+03  0.7546771E-02  0.1151792E+00
         21   -1    0    0  504  501  0.00000000000E+00  0.00000000000E+00  0.10909343127E+04  0.10909343127E+04  0.00000000000E+00 0.  1.
         21   -1    0    0  505  502 -0.00000000000E+00 -0.00000000000E+00 -0.16927799557E+03  0.16927799557E+03  0.00000000000E+00 0.  1.
         21    1    1    2  503  502  0.77735102809E+02  0.46833684598E+02  0.62971685238E+03  0.63622280248E+03  0.00000000000E+00 0.  1.
         21    1    1    2  504  503 -0.19675666356E+02  0.24703331509E+02  0.15888419893E+03  0.16199251558E+03  0.00000000000E+00 0.  1.
         21    1    1    2  505  506  0.17753774434E+03  0.12227558024E+02 -0.16702982415E+01  0.17796615897E+03  0.00000000000E+00 0.  1.
         21    1    1    2  506  501 -0.23559718080E+03 -0.83764574131E+02  0.13472556406E+03  0.28403083123E+03  0.00000000000E+00 0.  1.
<scales pt_clust_3="90.50319" pt_clust_4="31.58143" pt_clust_5="14000.00000" pt_clust_6="197.58616"></scales>
<clustering>
<clus scale="   31.581">  1  4  2 -1</clus>
<clus scale="   90.503">  1  3  2 -1</clus>
<clus scale="  197.586">  1  6  2 -1</clus>
<clus scale="   31.581">  1  3  2 -1</clus>
</clustering>
</event>
<event>
 6    0  0.4227619E+002  0.8701534E+02  0.7546771E-02  0.1310245E+00
         21   -1    0    0  503  501  0.00000000000E+00  0.00000000000E+00  0.82110161940E+03  0.82110161940E+03  0.00000000000E+00 0. -1.
         21   -1    0    0  504  502 -0.00000000000E+00 -0.00000000000E+00 -0.13713518425E+04  0.13713518425E+04  0.00000000000E+00 0. -1.
         21    1    1    2  503  502  0.40483006886E+02 -0.41064395609E+02 -0.16824958309E+03  0.17785691058E+03  0.00000000000E+00 0. -1.
         21    1    1    2  504  505 -0.35833657496E+02  0.86467117997E+02 -0.11793148833E+04  0.11830233335E+04  0.00000000000E+00 0. -1.
         21    1    1    2  505  506  0.81862382102E+02 -0.22750605297E+02  0.11268200077E+03  0.14112502592E+03  0.00000000000E+00 0. -1.
         21    1    1    2  506  501 -0.86511731492E+02 -0.22652117091E+02  0.68463224258E+03  0.69044819188E+03  0.00000000000E+00 0. -1.
<scales pt_clust_3="57.66419" pt_clust_4="46.16953" pt_clust_5="14000.00000" pt_clust_6="87.01534"></scales>
<clustering>
<clus scale="   57.664">  2  3  1 -1</clus>
<clus scale="   46.170">  2  4  1 -1</clus>
<clus scale="   87.015">  1  6  2 -1</clus>
<clus scale="   87.015">  1  3  2 -1</clus>
</clustering>
</event>
<event>
 6    0  0.4227619E+002  0.1163654E+03  0.7546771E-02  0.1249216E+00
         21   -1    0    0  506  501  0.00000000000E+00  0.00000000000E+00  0.84905559658E+03  0.84905559658E+03  0.00000000000E+00 0. -1.
         21   -1    0    0  504  502 -0.00000000000E+00 -0.00000000000E+00 -0.17891712049E+03  0.17891712049E+03  0.00000000000E+00 0.  1.
         21    1    1    2  503  502 -0.35159740630E+02 -0.30674531895E+02 -0.28063900798E+02  0.54449212999E+02  0.00000000000E+00 0.  1.
         21    1    1    2  504  505 -0.62021771013E+02  0.95119713865E+02 -0.10276463024E+03  0.15315034859E+03  0.00000000000E+00 0.  1.
         21    1    1    2  505  501  0.12284856718E+03 -0.45744561227E+02  0.74110146334E+03  0.75260594889E+03  0.00000000000E+00 0. -1.
         21    1    1    2  506  503 -0.25667055533E+02 -0.18700620743E+02  0.59865543796E+02  0.67767206596E+02  0.00000000000E+00 0.  1.
<scales pt_clust_3="47.19129" pt_clust_4="116.36542" pt_clust_5="14000.00000" pt_clust_6="31.75706"></scales>
<clustering>
<clus scale="   31.757">  1  6  2 -1</clus>
<clus scale="   47.191">  2  3  1 -1</clus>
<clus scale="  116.365">  2  4  1 -1</clus>
<clus scale="   31.757">  1  3  2 -1</clus>
</clustering>
</event>
<event>
 6    0  0.4227619E+002  0.6790091E+02  0.7546771E-02  0.1367380E+00
         21   -1    0    0  503  501  0.00000000000E+00  0.00000000000E+00  0.21067325702E+03  0.21067325702E+03  0.00000000000E+00 0.  1.
         21   -1    0    0  504  502 -0.00000000000E+00 -0.00000000000E+00 -0.14246366404E+04  0.14246366404E+04  0.00000000000E+00 0.  1.
         21    1    1    2  503  506 -0.46601128881E+01 -0.77019755626E+02  0.12198813736E+03  0.14434287327E+03  0.00000000000E+00 0.  1.
         21    1    1    2  504  505  0.97592194763E+02  0.81467573570E+02  0.13443995667E+01  0.12713382489E+03  0.00000000000E+00 0.  1.
         21    1    1    2  505  501 -0.38389620764E+02  0.34644404991E+02 -0.41508955104E+02  0.66309811743E+02  0.00000000000E+00 0. -1.
         21    1    1    2  506  502 -0.54542461112E+02 -0.39092222935E+02 -0.12957869652E+04  0.12975233875E+04  0.00000000000E+00 0.  1.
<scales pt_clust_3="61.77420" pt_clust_4="14000.00000" pt_clust_5="51.71071" pt_clust_6="67.90091"></scales>
<clustering>
<clus scale="   51.711">  1  5  2 -1</clus>
<clus scale="   61.774">  1  3  2 -1</clus>
<clus scale="   67.901">  2  6  1 -1</clus>
<clus scale="   51.711">  1  3  2 -1</clus>
</clustering>
</event>
<event>
 6    0  0.4227619E+002  0.8244564E+02  0.7546771E-02  0.1322251E+00
         21   -1    0    0  503  501  0.00000000000E+00  0.00000000000E+00  0.77540976365E+02  0.77540976365E+02  0.00000000000E+00 0.  1.
         21   -1    0    0  506  502 -0.00000000000E+00 -0.00000000000E+00 -0.36074770332E+03  0.36074770332E+03  0.00000000000E+00 0. -1.
         21    1    1    2  503  505 -0.26857172709E+02 -0.21790405761E+02  0.19904585164E+02  0.39903909830E+02  0.00000000000E+00 0.  1.
         21    1    1    2  504  502 -0.10545941494E+02 -0.96142620346E+02 -0.97742337178E+02  0.13750703548E+03  0.00000000000E+00 0. -1.
         21    1    1    2  505  504  0.28087051704E+02  0.41327427161E+02 -0.10190121992E+02  0.50996836131E+02  0.00000000000E+00 0.  1.
         21    1    1    2  506  501  0.93160624990E+01  0.76605598946E+02 -0.19517885295E+03  0.20988089825E+03  0.00000000000E+00 0.  1.
<scales pt_clust_3="34.58511" pt_clust_4="82.44564" pt_clust_5="36.03694" pt_clust_6="14000.00000"></scales>
<clustering>
<clus scale="   34.585">  1  3  2 -1</clus>
<clus scale="   36.037">  1  5  2 -1</clus>
<clus scale="   82.446">  1  4  2 -1</clus>
<clus scale="   34.585">  1  3  2 -1</clus>
</clustering>
</event>
<event>
 6    0  0.4227619E+002  0.1074135E+03  0.7546771E-02  0.1265436E+00
         21   -1    0    0  505  501  0.00000000000E+00  0.00000000000E+00  0.78043612458E+02  0.78043612458E+02  0.00000000000E+00 0.  1.
         21   -1    0    0  503  502 -0.00000000000E+00 -0.00000000000E+00 -0.11144488606E+04  0.11144488606E+04  0.00000000000E+00 0.  1.
         21    1    1    2  503  506  0.30423159911E+02 -0.53549381431E+01 -0.30572535385E+03  0.30728201380E+03  0.00000000000E+00 0.  1.
         21    1    1    2  504  501 -0.89543120403E+02  0.67874279524E+01 -0.36107086327E+03  0.37207016528E+03  0.00000000000E+00 0.  1.
         21    1    1    2  505  502  0.99981749898E+02  0.47935427890E+02  0.24750354239E+02  0.11360781485E+03  0.00000000000E+00 0.  1.
         21    1    1    2  506  504 -0.40861789405E+02 -0.49367917700E+02 -0.39435938522E+03  0.39953247908E+03  0.00000000000E+00 0.  1.
<scales pt_clust_3="30.89084" pt_clust_4="107.41349" pt_clust_5="14000.00000" pt_clust_6="58.09865"></scales>
<clustering>
<clus scale="   30.891">  2  3  1 -1</clus>
<clus scale="   58.099">  2  6  1 -1</clus>
<clus scale="  107.413">  2  4  1 -1</clus>
<clus scale="  107.413">  1  3  2 -1</clus>
</clustering>
</event>
<event>
 6    0  0.4227619E+002  0.6192590E+02  0.7546771E-02  0.1389923E+00
         21   -1    0    0  504  501  0.00000000000E+00  0.00000000000E+00  0.46786414953E+02  0.46786414953E+02  0.00000000000E+00 0. -1.
         21   -1    0    0  505  502 -0.00000000000E+00 -0.00000000000E+00 -0.71539951614E+03  0.71539951614E+03  0.00000000000E+00 0. -1.
         21    1    1    2  503  501 -0.80532231629E+02 -0.18804364906E+02 -0.81117155924E+02  0.11584056913E+03  0.00000000000E+00 0. -1.
         21    1    1    2  504  506  0.40233425070E+02 -0.46483269341E+01  0.20052184198E+01  0.40550663830E+02  0.00000000000E+00 0. -1.
         21    1    1    2  505  503 -0.44629821016E+02  0.29310935505E+02 -0.26399094490E+03  0.26933653829E+03  0.00000000000E+00 0. -1.
         21    1    1    2  506  502  0.84928627575E+02 -0.58582436656E+01 -0.32551021878E+03  0.33645815985E+03  0.00000000000E+00 0. -1.
<scales pt_clust_3="61.92590" pt_clust_4="40.50105" pt_clust_5="49.63989" pt_clust_6="14000.00000"></scales>
<clustering>
<clus scale="   40.501">  1  4  2 -1</clus>
<clus scale="   49.640">  2  5  1 -1</clus>
<clus scale="   61.926">  1  3  2 -1</clus>
<clus scale="   40.501">  1  3  2 -1</clus>
</clustering>
</event>
<event>
 6    0  0.4227619E+002  0.1452723E+03  0.7546771E-02  0.1206406E+00
         21   -1    0    0  503  501  0.00000000000E+00  0.00000000000E+00  0.18728936539E+03  0.18728936539E+03  0.00000000000E+00 0.  1.
         21   -1    0    0  506  502 -0.00000000000E+00 -0.00000000000E+00 -0.46994254575E+03  0.46994254575E+03  0.00000000000E+00 0.  1.
         21    1    1    2  503  504  0.57716976483E+02 -0.63543328199E+02  0.80750341283E+02  0.11785423858E+03  0.00000000000E+00 0.  1.
         21    1    1    2  504  502  0.10037010514E+03  0.13169905899E+03 -0.24243422011E+03  0.29358670137E+03  0.00000000000E+00 0.  1.
         21    1    1    2  505  501 -0.14324758437E+02 -0.47786616793E+02  0.92686221234E+01  0.50741174650E+02  0.00000000000E+00 0.  1.
         21    1    1    2  506  505 -0.14376232319E+03 -0.20369113993E+02 -0.13023792365E+03  0.19504979654E+03  0.00000000000E+00 0.  1.
<scales pt_clust_3="105.59973" pt_clust_4="145.27229" pt_clust_5="49.88747" pt_clust_6="14000.00000"></scales>
<clustering>
<clus scale="   49.887">  1  5  2 -1</clus>
<clus scale="  105.600">  1  3  2 -1</clus>
<clus scale="  145.272">  2  4  1 -1</clus>
<clus scale="   49.887">  1  3  2 -1</clus>
</clustering>
</event>
<event>
 6    0  0.4227619E+002  0.1956349E+03  0.7546771E-02  0.1153475E+00
         21   -1    0    0  506  501  0.00000000000E+00  0.00000000000E+00  0.84369132691E+03  0.84369132691E+03  0.00000000000E+00 0.  1.
         21   -1    0    0  504  502 -0.00000000000E+00 -0.00000000000E+00 -0.14292468426E+03  0.14292468426E+03  0.00000000000E+00 0.  1.
         21    1    1    2  503  505 -0.59164852383E+02  0.18236552099E+03  0.12926192731E+03  0.23122782889E+03  0.00000000000E+00 0.  1.
         21    1    1    2  504  503 -0.42758938905E+02  0.39426907013E+02 -0.32048801614E+02  0.66407330452E+02  0.00000000000E+00 0.  1.
         21    1    1    2  505  501  0.15720194571E+03 -0.13099862196E+03  0.26924858108E+03  0.33818321824E+03  0.00000000000E+00 0.  1.
         21    1    1    2  506  502 -0.55278154421E+02 -0.90793806040E+02  0.33430493588E+03  0.35079763358E+03  0.00000000000E+00 0.  1.
<scales pt_clust_3="14000.00000" pt_clust_4="58.16191" pt_clust_5="195.63492" pt_clust_6="105.41032"></scales>
<clustering>
<clus scale="   58.162">  2  4  1 -1</clus>
<clus scale="  105.410">  1  6  2 -1</clus>
<clus scale="  195.635">  1  5  2 -1</clus>
<clus scale="  105.410">  1  3  2 -1</clus>
</clustering>
</event>
<event>
 6    0  0.4227619E+002  0.9065155E+02  0.7546771E-02  0.1301282E+00
         21   -1    0    0  504  501  0.00000000000E+00  0.00000000000E+00  0.95168110177E+02  0.95168110177E+02  0.00000000000E+00 0.  1.
         21   -1    0    0  503  502 -0.00000000000E+00 -0.00000000000E+00 -0.95077570202E+03  0.95077570202E+03  0.00000000000E+00 0.  1.
         21    1    1    2  503  505 -0.60047496755E+02  0.79819123362E+02 -0.82521609223E+03  0.83123907103E+03  0.00000000000E+00 0.  1.
         21    1    1    2  504  506  0.54257975231E+02 -0.33031772300E+02  0.45772950122E+02  0.78295522351E+02  0.00000000000E+00 0.  1.
         21    1    1    2  505  501 -0.46584285362E+02 -0.20636031275E+02 -0.18408727844E+02  0.54174003824E+02  0.00000000000E+00 0.  1.
         21    1    1    2  506  502  0.52373806887E+02 -0.26151319787E+02 -0.57755721885E+02  0.82235214993E+02  0.00000000000E+00 0.  1.
<scales pt_clust_3="14000.00000" pt_clust_4="52.38509" pt_clust_5="50.95038" pt_clust_6="90.65155"></scales>
<clustering>
<clus scale="   50.950">  1  5  2 -1</clus>
<clus scale="   52.385">  1  4  2 -1</clus>
<clus scale="   90.652">  1  6  2 -1</clus>
<clus scale="   50.950">  1  3  2 -1</clus>
</clustering>
</event>
<event>
 6    0  0.4227619E+002  0.1272096E+03  0.7546771E-02  0.1231656E+00
         21   -1    0    0  504  501  0.00000000000E+00  0.00000000000E+00  0.43445805224E+03  0.43445805224E+03  0.00000000000E+00 0.  1.
         21   -1    0    0  506  502 -0.00000000000E+00 -0.00000000000E+00 -0.13547396053E+03  0.13547396053E+03  0.00000000000E+00 0. -1.
         21    1    1    2  503  505 -0.30141726843E+02  0.45145861383E+02 -0.47773607588E+02  0.72311756160E+02  0.00000000000E+00 0. -1.
         21    1    1    2  504  503 -0.24261982290E+02 -0.14766046953E+03  0.15697082711E+03  0.21686885117E+03  0.00000000000E+00 0.  1.
         21    1    1    2  505  502 -0.12856696065E+02  0.63200535980E+02 -0.10957723207E+02  0.65419217969E+02  0.00000000000E+00 0. -1.
         21    1    1    2  506  501  0.67260405198E+02  0.39314072166E+02  0.20074459540E+03  0.21533218747E+03  0.00000000000E+00 0.  1.
<scales pt_clust_3="40.33166" pt_clust_4="119.37186" pt_clust_5="40.33166" pt_clust_6="77.90737"></scales>
<clustering>
<clus scale="   40.332">  3  5 -1 -1</clus>
<clus scale="   77.907">  1  6  2 -1</clus>
<clus scale="  119.372">  1  4  2 -1</clus>
<clus scale="   77.907">  1  3  2 -1</clus>
</clustering>
</event>
<event>
 6    0  0.4227619E+002  0.6140070E+02  0.7546771E-02  0.1392046E+00
         21   -1    0    0  505  501  0.00000000000E+00  0.00000000000E+00  0.11107617881E+04  0.11107617881E+04  0.00000000000E+00 0. -1.
         21   -1    0    0  503  502 -0.00000000000E+00 -0.00000000000E+00 -0.13377047450E+03  0.13377047450E+03  0.00000000000E+00 0. -1.
         21    1    1    2  503  501  0.12970236678E+02  0.50370496094E+02  0.23628407441E+02  0.57128937977E+02  0.00000000000E+00 0. -1.
         21    1    1    2  504  506 -0.60647563822E+02 -0.41192095632E+02  0.71108715978E+02  0.10213405518E+03  0.00000000000E+00 0. -1.
         21    1    1    2  505  504 -0.28103221708E+00  0.60986034169E+02  0.96483917062E+03  0.96676470793E+03  0.00000000000E+00 0. -1.
         21    1    1    2  506  502  0.47958359361E+02 -0.70164434630E+02 -0.82584980405E+02  0.11850456155E+03  0.00000000000E+00 0. -1.
<scales pt_clust_3="52.01359" pt_clust_4="59.14772" pt_clust_5="61.40070" pt_clust_6="14000.00000"></scales>
<clustering>
<clus scale="   52.014">  2  3  1 -1</clus>
<clus scale="   61.401">  1  5  2 -1</clus>
<clus scale="   59.148">  1  4  2 -1</clus>
<clus scale="   61.401">  1  3  2 -1</clus>
</clustering>
</event>
<event>
 6    0  0.4227619E+002  0.9316782E+02  0.7546771E-02  0.1295357E+00
         21   -1    0    0  503  501  0.00000000000E+00  0.00000000000E+00  0.36125274491E+03  0.36125274491E+03  0.00000000000E+00 0.  1.
         21   -1    0    0  506  502 -0.00000000000E+00 -0.00000000000E+00 -0.25688452529E+03  0.25688452529E+03  0.00000000000E+00 0. -1.
         21    1    1    2  503  504 -0.63687602422E+01 -0.85161488111E+02  0.27475803831E+03  0.28772386030E+03  0.00000000000E+00 0.  1.
         21    1    1    2  504  502  0.73186921279E+02  0.64601649381E+02 -0.97252039762E+02  0.13779571034E+03  0.00000000000E+00 0. -1.
         21    1    1    2  505  501 -0.39151263294E+02  0.20682727260E+01  0.50868559908E+02  0.64223901756E+02  0.00000000000E+00 0.  1.
         21    1    1    2  506  505 -0.27666897742E+02  0.18491566005E+02 -0.12400633885E+03  0.12839379782E+03  0.00000000000E+00 0. -1.
<scales pt_clust_3="14000.00000" pt_clust_4="93.16782" pt_clust_5="40.67673" pt_clust_6="33.27755"></scales>
<clustering>
<clus scale="   33.278">  2  6  1 -1</clus>
<clus scale="   40.677">  1  5  2 -1</clus>
<clus scale="   93.168">  2  4  1 -1</clus>
<clus scale="   40.677">  1  3  2 -1</clus>
</clustering>
</event>
<event>
 6    0  0.4227619E+002  0.9467139E+02  0.7546771E-02  0.1291918E+00
         21   -1    0    0  505  501  0.00000000000E+00  0.00000000000E+00  0.15115548989E+03  0.15115548989E+03  0.00000000000E+00 0.  1.
         21   -1    0    0  503  502 -0.00000000000E+00 -0.00000000000E+00 -0.54194463591E+03  0.54194463591E+03  0.00000000000E+00 0.  1.
         21    1    1    2  503  504 -0.31238230792E+02 -0.44212752508E+02 -0.38694747104E+03  0.39071593248E+03  0.00000000000E+00 0.  1.
         21    1    1    2  504  501  0.14064654738E+02  0.56572196079E+02 -0.28767520565E+02  0.65006139107E+02  0.00000000000E+00 0.  1.
         21    1    1    2  505  506  0.42918415330E+02  0.83556870506E+02  0.80381687363E+02  0.12363234466E+03  0.00000000000E+00 0.  1.
         21    1    1    2  506  502 -0.25744839277E+02 -0.95916314077E+02 -0.55455841767E+02  0.11374570955E+03  0.00000000000E+00 0.  1.
<scales pt_clust_3="54.13497" pt_clust_4="43.26771" pt_clust_5="14000.00000" pt_clust_6="94.67139"></scales>
<clustering>
<clus scale="   54.135">  2  3  1 -1</clus>
<clus scale="   43.268">  2  4  1 -1</clus>
<clus scale="   94.671">  2  6  1 -1</clus>
<clus scale="   94.671">  1  3  2 -1</clus>
</clustering>
</event>
<event>
 6    0  0.4227619E+002  0.9210773E+02  0.7546771E-02  0.1297826E+00
         21   -1    0    0  504  501  0.00000000000E+00  0.00000000000E+00  0.15673660273E+03  0.15673660273E+03  0.00000000000E+00 0. -1.
         21   -1    0    0  503  502 -0.00000000000E+00 -0.00000000000E+00 -0.69993331436E+03  0.69993331436E+03  0.00000000000E+00 0.  1.
         21    1    1    2  503  506  0.76248079067E+02  0.61260178161E+02 -0.62746259688E+02  0.11620530149E+03  0.00000000000E+00 0. -1.
         21    1    1    2  504  502  0.32029557271E+02 -0.32751647712E+02 -0.57777928638E+03  0.57959250059E+03  0.00000000000E+00 0.  1.
         21    1    1    2  505  501 -0.29931114285E+02 -0.31720350713E+02  0.59606630742E+02  0.73857989955E+02  0.00000000000E+00 0.  1.
         21    1    1    2  506  505 -0.78346522053E+02  0.32118202646E+01  0.37722203699E+02  0.87014125055E+02  0.00000000000E+00 0. -1.
<scales pt_clust_3="92.10773" pt_clust_4="45.82981" pt_clust_5="43.61252" pt_clust_6="14000.00000"></scales>
<clustering>
<clus scale="   43.613">  1  5  2 -1</clus>
<clus scale="   45.830">  2  4  1 -1</clus>
<clus scale="   92.108">  2  3  1 -1</clus>
<clus scale="   43.613">  1  3  2 -1</clus>
</clustering>
</event>
<event>
 6    0  0.4227619E+002  0.1015847E+03  0.7546771E-02  0.1276998E+00
         21   -1    0    0  505  501  0.00000000000E+00  0.00000000000E+00  0.32716805600E+03  0.32716805600E+03  0.00000000000E+00 0.  1.
         21   -1    0    0  503  502 -0.00000000000E+00 -0.00000000000E+00 -0.46895425741E+03  0.46895425741E+03  0.00000000000E+00 0.  1.
         21    1    1    2  503  504  0.68547305136E+02 -0.14428980705E+02  0.53173558758E+02  0.87945186774E+02  0.00000000000E+00 0.  1.
         21    1    1    2  504  501 -0.36442768011E+02 -0.23499958023E+02  0.33494943088E+02  0.54792650783E+02  0.00000000000E+00 0. -1.
         21    1    1    2  505  506  0.28007255665E+02 -0.45708377549E+02  0.20292130436E+03  0.20988262890E+03  0.00000000000E+00 0.  1.
         21    1    1    2  506  502 -0.60111792790E+02  0.83637316277E+02 -0.43137600762E+03  0.44350184696E+03  0.00000000000E+00 0.  1.
<scales pt_clust_3="62.82763" pt_clust_4="43.36270" pt_clust_5="14000.00000" pt_clust_6="101.58469"></scales>
<clustering>
<clus scale="   43.363">  1  4  2 -1</clus>
<clus scale="   62.828">  1  3  2 -1</clus>
<clus scale="  101.585">  2  6  1 -1</clus>
<clus scale="   43.363">  1  3  2 -1</clus>
</clustering>
</event>
<event>
 6    0  0.4227619E+002  0.1416546E+03  0.7546771E-02  0.1211120E+00
         21   -1    0    0  505  501  0.00000000000E+00  0.00000000000E+00  0.71184940935E+02  0.71184940935E+02  0.00000000000E+00 0.  1.
         21   -1    0    0  504  502 -0.00000000000E+00 -0.00000000000E+00 -0.76549947059E+03  0.76549947059E+03  0.00000000000E+00 0.  1.
         21    1    1    2  503  501  0.13880273714E+02 -0.46491980440E+02  0.27228665698E+02  0.55637815192E+02  0.00000000000E+00 0.  1.
         21    1    1    2  504  506  0.54577251346E+02  0.33315907774E+01 -0.12108062337E+03  0.13285440609E+03  0.00000000000E+00 0.  1.
         21    1    1    2  505  502 -0.13730007620E+03  0.41032063171E+02 -0.53244796851E+03  0.55139439633E+03  0.00000000000E+00 0.  1.
         21    1    1    2  506  503  0.68842551142E+02  0.21283264917E+01 -0.68014603472E+02  0.96797793915E+02  0.00000000000E+00 0.  1.
<scales pt_clust_3="48.51975" pt_clust_4="36.96166" pt_clust_5="135.44430" pt_clust_6="36.96166"></scales>
<clustering>
<clus scale="   36.962">  4  6 -1 -1</clus>
<clus scale="   48.520">  1  3  2 -1</clus>
<clus scale="  135.444">  2  5  1 -1</clus>
<clus scale="   48.520">  1  3  2 -1</clus>
</clustering>
</event>
<event>
 6    0  0.4227619E+002  0.8628715E+02  0.7546771E-02  0.1312100E+00
         21   -1    0    0  503  501  0.00000000000E+00  0.00000000000E+00  0.83176133121E+03  0.83176133121E+03  0.00000000000E+00 0.  1.
         21   -1    0    0  504  502 -0.00000000000E+00 -0.00000000000E+00 -0.21402662230E+02  0.21402662230E+02  0.00000000000E+00 0. -1.
         21    1    1    2  503  506  0.15866638900E+02 -0.38607768571E+02  0.20872299360E+03  0.21285581524E+03  0.00000000000E+00 0. -1.
         21    1    1    2  504  505  0.71232051824E+02  0.33964628955E+02  0.15934701527E+03  0.17781752586E+03  0.00000000000E+00 0. -1.
         21    1    1    2  505  501  0.99260964471E+01  0.31218811517E+02  0.14457655367E+03  0.14824142961E+03  0.00000000000E+00 0. -1.
         21    1    1    2  506  502 -0.97024787171E+02 -0.26575671901E+02  0.29771210644E+03  0.31424922273E+03  0.00000000000E+00 0.  1.
<scales pt_clust_3="34.63087" pt_clust_4="86.28715" pt_clust_5="32.75884" pt_clust_6="14000.00000"></scales>
<clustering>
<clus scale="   32.759">  1  5  2 -1</clus>
<clus scale="   34.631">  1  3  2 -1</clus>
<clus scale="   86.287">  2  4  1 -1</clus>
<clus scale="   32.759">  1  3  2 -1</clus>
</clustering>
</event>
<event>
 6    0  0.4227619E+002  0.1143309E+03  0.7546771E-02  0.1252754E+00
         21   -1    0    0  506  501  0.00000000000E+00  0.00000000000E+00  0.10200859031E+04  0.10200859031E+04  0.00000000000E+00 0. -1.
         21   -1    0    0  504  502 -0.00000000000E+00 -0.00000000000E+00 -0.79528467535E+02  0.79528467535E+02  0.00000000000E+00 0.  1.
         21    1    1    2  503  505 -0.11071253341E+03 -0.53296161988E+02  0.15079914520E+03  0.19452025120E+03  0.00000000000E+00 0.  1.
         21    1    1    2  504  503  0.11514205778E+03 -0.39241649476E+02  0.26609851066E+02  0.12452182418E+03  0.00000000000E+00 0.  1.
         21    1    1    2  505  501 -0.55081570721E+02  0.98198948865E+02  0.55119094095E+03  0.56257307647E+03  0.00000000000E+00 0. -1.
         21    1    1    2  506  502  0.50652046347E+02 -0.56611374012E+01  0.21195749833E+03  0.21799921875E+03  0.00000000000E+00 0. -1.
<scales pt_clust_3="14000.00000" pt_clust_4="114.33088" pt_clust_5="96.39075" pt_clust_6="50.96742"></scales>
<clustering>
<clus scale="   50.967">  1  6  2 -1</clus>
<clus scale="   96.391">  1  5  2 -1</clus>
<clus scale="  114.331">  2  4  1 -1</clus>
<clus scale="   50.967">  1  3  2 -1</clus>
</clustering>
</event>
<event>
 6    0  0.4227619E+002  0.1462450E+03  0.7546771E-02  0.1205165E+00
         21   -1    0    0  504  501  0.00000000000E+00  0.00000000000E+00  0.27249215928E+03  0.27249215928E+03  0.00000000000E+00 0.  1.
         21   -1    0    0  503  502 -0.00000000000E+00 -0.00000000000E+00 -0.14461545029E+04  0.14461545029E+04  0.00000000000E+00 0. -1.
         21    1    1    2  503  501 -0.63870397691E+02  0.13331190925E+03  0.23898228055E+03  0.28100537942E+03  0.00000000000E+00 0.  1.
         21    1    1    2  504  505  0.12899573728E+03 -0.51878487583E+02 -0.55953111691E+03  0.57654691787E+03  0.00000000000E+00 0. -1.
         21    1    1    2  505  506 -0.34111704049E+02 -0.77023024843E+02 -0.55796459536E+03  0.56428773191E+03  0.00000000000E+00 0. -1.
         21    1    1    2  506  502 -0.31013635545E+02 -0.44103968271E+01 -0.29514891190E+03  0.29680663299E+03  0.00000000000E+00 0.  1.
<scales pt_clust_3="14000.00000" pt_clust_4="146.24499" pt_clust_5="93.23845" pt_clust_6="31.32566"></scales>
<clustering>
<clus scale="   31.326">  2  6  1 -1</clus>
<clus scale="   93.238">  2  5  1 -1</clus>
<clus scale="  146.245">  2  4  1 -1</clus>
<clus scale="  146.245">  1  3  2 -1</clus>
</clustering>
</event>
<event>
 6    0  0.4227619E+002  0.1253354E+03  0.7546771E-02  0.1234546E+00
         21   -1    0    0  503  501  0.00000000000E+00  0.00000000000E+00  0.10363540575E+04  0.10363540575E+04  0.00000000000E+00 0. -1.
         21   -1    0    0  505  502 -0.00000000000E+00 -0.00000000000E+00 -0.27577196663E+03  0.27577196663E+03  0.00000000000E+00 0. -1.
         21    1    1    2  503  506  0.34055414272E+02  0.74602848857E+02 -0.40962674755E+02  0.91669498864E+02  0.00000000000E+00 0. -1.
         21    1    1    2  504  501  0.28612990974E+02 -0.78582019761E+02  0.95844481864E+03  0.96208643451E+03  0.00000000000E+00 0. -1.
         21    1    1    2  505  504 -0.31090948336E+02 -0.86703778308E+02 -0.12874892696E+03  0.15830501709E+03  0.00000000000E+00 0. -1.
         21    1    1    2  506  502 -0.31577456910E+02  0.90682949211E+02 -0.28151126081E+02  0.10006507364E+03  0.00000000000E+00 0. -1.
<scales pt_clust_3="63.08525" pt_clust_4="83.62916" pt_clust_5="105.11451" pt_clust_6="63.08525"></scales>
<clustering>
<clus scale="   63.085">  3  6 -1 -1</clus>
<clus scale="   83.629">  1  4  2 -1</clus>
<clus scale="  105.115">  2  5  1 -1</clus>
<clus scale="   83.629">  1  3  2 -1</clus>
</clustering>
</event>
<event>
 6    0  0.4227619E+002  0.2440095E+03  0.7546771E-02  0.1117150E+00
         21   -1    0    0  503  501  0.00000000000E+00  0.00000000000E+00  0.14106305120E+04  0.14106305120E+04  0.00000000000E+00 0. -1.
         21   -1    0    0  504  502 -0.00000000000E+00 -0.00000000000E+00 -0.12502750998E+03  0.12502750998E+03  0.00000000000E+00 0. -1.
         21    1    1    2  503  505  0.10846581728E+03 -0.15217095401E+01  0.43647898559E+03  0.44975666085E+03  0.00000000000E+00 0. -1.
         21    1    1    2  504  506  0.23152695422E+02  0.23558723534E+03  0.23587328848E+03  0.33417600300E+03  0.00000000000E+00 0. -1.
         21    1    1    2  505  502 -0.79989011948E+02  0.13775606961E+02 -0.73263035975E+01  0.81496528171E+02  0.00000000000E+00 0. -1.
         21    1    1    2  506  501 -0.51629500755E+02 -0.24784113276E+03  0.62057703157E+03  0.67022882999E+03  0.00000000000E+00 0. -1.
<scales pt_clust_3="101.87936" pt_clust_4="244.00950" pt_clust_5="81.16655" pt_clust_6="14000.00000"></scales>
<clustering>
<clus scale="   81.167">  2  5  1 -1</clus>
<clus scale="  101.879">  1  3  2 -1</clus>
<clus scale="  244.009">  2  4  1 -1</clus>
<clus scale="  101.879">  1  3  2 -1</clus>
</clustering>
</event>
<event>
 6    0  0.4227619E+002  0.8164522E+02  0.7546771E-02  0.1324446E+00
         21   -1    0    0  503  501  0.00000000000E+00  0.00000000000E+00  0.29176624837E+03  0.29176624837E+03  0.00000000000E+00 0. -1.
         21   -1    0    0  504  502 -0.00000000000E+00 -0.00000000000E+00 -0.71425285606E+03  0.71425285606E+03  0.00000000000E+00 0. -1.
         21    1    1    2  503  506  0.44998609668E+02 -0.23956627321E+01  0.10377825702E+02  0.46241900246E+02  0.00000000000E+00 0. -1.
         21    1    1    2  504  505  0.36376203383E+02  0.25933428617E+02 -0.55200625971E+03  0.55381105230E+03  0.00000000000E+00 0. -1.
         21    1    1    2  505  501  0.44016988388E+02  0.10286708469E+02 -0.12308275053E+03  0.13112084165E+03  0.00000000000E+00 0. -1.
         21    1    1    2  506  502 -0.12539180144E+03 -0.33824474354E+02  0.24222457684E+03  0.27484531023E+03  0.00000000000E+00 0. -1.
<scales pt_clust_3="49.04393" pt_clust_4="44.67405" pt_clust_5="14000.00000" pt_clust_6="81.64522"></scales>
<clustering>
<clus scale="   44.674">  2  4  1 -1</clus>
<clus scale="   49.044">  1  3  2 -1</clus>
<clus scale="   81.645">  1  6  2 -1</clus>
<clus scale="   49.044">  1  3  2 -1</clus>
</clustering>
</event>
<event>
 6    0  0.4227619E+002  0.1076328E+03  0.7546771E-02  0.1265017E+00
         21   -1    0    0  505  501  0.00000000000E+00  0.00000000000E+00  0.18530686653E+03  0.18530686653E+03  0.00000000000E+00 0.  1.
         21   -1    0    0  506  502 -0.00000000000E+00 -0.00000000000E+00 -0.46977156187E+03  0.46977156187E+03  0.00000000000E+00 0. -1.
         21    1    1    2  503  501  0.10710356035E+03 -0.41331463352E+02  0.59795628132E-01  0.11480185573E+03  0.00000000000E+00 0.  1.
         21    1    1    2  504  502  0.25028513142E+02 -0.19552264841E+02 -0.42883989154E+02  0.53364351924E+02  0.00000000000E+00 0. -1.
         21    1    1    2  505  504 -0.76008702458E+02  0.76027726550E+02  0.96105269020E+02  0.14420041882E+03  0.00000000000E+00 0.  1.
         21    1    1    2  506  503 -0.56123371036E+02 -0.15143998357E+02 -0.33774577084E+03  0.34271180193E+03  0.00000000000E+00 0. -1.
<scales pt_clust_3="107.63276" pt_clust_4="31.76031" pt_clust_5="14000.00000" pt_clust_6="47.40148"></scales>
<clustering>
<clus scale="   31.760">  2  4  1 -1</clus>
<clus scale="   47.401">  2  6  1 -1</clus>
<clus scale="  107.633">  2  3  1 -1</clus>
<clus scale="  107.633">  1  3  2 -1</clus>
</clustering>
</event>
<event>
 6    0  0.4227619E+002  0.7292182E+02  0.7546771E-02  0.1350430E+00
         21   -1    0    0  505  501  0.00000000000E+00  0.00000000000E+00  0.10918583453E+03  0.10918583453E+03  0.00000000000E+00 0. -1.
         21   -1    0    0  504  502 -0.00000000000E+00 -0.00000000000E+00 -0.52979379664E+03  0.52979379664E+03  0.00000000000E+00 0.  1.
         21    1    1    2  503  502 -0.40060098435E+02 -0.15683808032E+02 -0.10859247088E+03  0.11680375873E+03  0.00000000000E+00 0. -1.
         21    1    1    2  504  506  0.80650103385E+02  0.21626326670E+02 -0.10186370081E+03  0.13171313801E+03  0.00000000000E+00 0.  1.
         21    1    1    2  505  503 -0.42163860915E+02  0.61953874009E+02 -0.28188695551E+03  0.29167846914E+03  0.00000000000E+00 0.  1.
         21    1    1    2  506  501  0.15738559654E+01 -0.67896392646E+02  0.71735165101E+02  0.98784265291E+02  0.00000000000E+00 0. -1.
<scales pt_clust_3="43.02085" pt_clust_4="72.92182" pt_clust_5="14000.00000" pt_clust_6="68.40550"></scales>
<clustering>
<clus scale="   43.021">  2  3  1 -1</clus>
<clus scale="   68.406">  1  6  2 -1</clus>
<clus scale="   72.922">  1  4  2 -1</clus>
<clus scale="   68.406">  1  3  2 -1</clus>
</clustering>
</event>
<event>
 6    0  0.4227619E+002  0.8098147E+02  0.7546771E-02  0.1326289E+00
         21   -1    0    0  505  501  0.00000000000E+00  0.00000000000E+00  0.18058236923E+04  0.18058236923E+04  0.00000000000E+00 0. -1.
         21   -1    0    0  504  502 -0.00000000000E+00 -0.00000000000E+00 -0.24635876684E+03  0.24635876684E+03  0.00000000000E+00 0. -1.
         21    1    1    2  503  501  0.38302826820E+02 -0.31912683773E+02  0.87001206958E+03  0.87143934220E+03  0.00000000000E+00 0. -1.
         21    1    1    2  504  506 -0.67075577110E+02  0.91138761578E+01 -0.22827114702E+03  0.23809643497E+03  0.00000000000E+00 0. -1.
         21    1    1    2  505  502  0.53349161554E+02  0.80598873643E+02  0.19949540828E+03  0.22167708361E+03  0.00000000000E+00 0. -1.
         21    1    1    2  506  503 -0.24576411265E+02 -0.57800066028E+02  0.71822859467E+03  0.72096959841E+03  0.00000000000E+00 0. -1.
<scales pt_clust_3="49.85505" pt_clust_4="67.47009" pt_clust_5="14000.00000" pt_clust_6="80.98147"></scales>
<clustering>
<clus scale="   49.855">  1  3  2 -1</clus>
<clus scale="   67.470">  2  4  1 -1</clus>
<clus scale="   80.981">  1  6  2 -1</clus>
<clus scale="   49.855">  1  3  2 -1</clus>
</clustering>
</event>
<event>
 6    0  0.4227619E+002  0.2133769E+03  0.7546771E-02  0.1138919E+00
         21   -1    0    0  505  501  0.00000000000E+00  0.00000000000E+00  0.48581124264E+03  0.48581124264E+03  0.00000000000E+00 0. -1.
         21   -1    0    0  504  502 -0.00000000000E+00 -0.00000000000E+00 -0.71426633183E+03  0.71426633183E+03  0.00000000000E+00 0.  1.
         21    1    1    2  503  501 -0.14158029097E+02 -0.12498256553E+03  0.18806743018E+03  0.22625306577E+03  0.00000000000E+00 0. -1.
         21    1    1    2  504  506 -0.34992590493E+02  0.18801362177E+03 -0.57319665362E+03  0.60425822881E+03  0.00000000000E+00 0.  1.
         21    1    1    2  505  502  0.36767505078E+02  0.10746959264E+02 -0.97424115635E+02  0.10468431053E+03  0.00000000000E+00 0.  1.
         21    1    1    2  506  503  0.12383114513E+02 -0.73778015512E+02  0.25409824988E+03  0.26488196936E+03  0.00000000000E+00 0.  1.
<scales pt_clust_3="60.79116" pt_clust_4="198.33171" pt_clust_5="38.30596" pt_clust_6="60.79116"></scales>
<clustering>
<clus scale="   38.306">  2  5  1 -1</clus>
<clus scale="   60.791">  3  6 -1 -1</clus>
<clus scale="  198.332">  2  4  1 -1</clus>
<clus scale="  213.377">  1  3  2 -1</clus>
</clustering>
</event>
<event>
 6    0  0.4227619E+002  0.8100707E+02  0.7546771E-02  0.1326218E+00
         21   -1    0    0  504  501  0.00000000000E+00  0.00000000000E+00  0.82461021118E+02  0.82461021118E+02  0.00000000000E+00 0.  1.
         21   -1    0    0  506  502 -0.00000000000E+00 -0.00000000000E+00 -0.84754522424E+03  0.84754522424E+03  0.00000000000E+00 0.  1.
         21    1    1    2  503  505  0.50965964858E+02  0.36851017401E+02 -0.21669668441E+03  0.22563904824E+03  0.00000000000E+00 0.  1.
         21    1    1    2  504  503  0.22690641524E+02  0.77742581300E+02  0.72174054702E+01  0.81307226626E+02  0.00000000000E+00 0.  1.
         21    1    1    2  505  502 -0.82637819096E+02 -0.54101690558E+02 -0.55310374065E+03  0.56185385110E+03  0.00000000000E+00 0.  1.
         21    1    1    2  506  501  0.89812127137E+01 -0.60491908143E+02 -0.25011835320E+01  0.61206119397E+02  0.00000000000E+00 0.  1.
<scales pt_clust_3="14000.00000" pt_clust_4="40.71037" pt_clust_5="81.00707" pt_clust_6="61.15499"></scales>
<clustering>
<clus scale="   61.155">  1  6  2 -1</clus>
<clus scale="   40.710">  1  4  2 -1</clus>
<clus scale="   81.007">  2  5  1 -1</clus>
<clus scale="   61.155">  1  3  2 -1</clus>
</clustering>
</event>
<event>
 6    0  0.4227619E+002  0.1021144E+03  0.7546771E-02  0.1275911E+00
         21   -1    0    0  504  501  0.00000000000E+00  0.00000000000E+00  0.26327452934E+02  0.26327452934E+02  0.00000000000E+00 0. -1.
         21   -1    0    0  505  502 -0.00000000000E+00 -0.00000000000E+00 -0.16225525923E+04  0.16225525923E+04  0.00000000000E+00 0. -1.
         21    1    1    2  503  502 -0.73242903761E+01 -0.30077951276E+02 -0.50950838213E+03  0.51044795997E+03  0.00000000000E+00 0. -1.
         21    1    1    2  504  503  0.99388132077E+02  0.79735009094E+01 -0.31391230669E+03  0.32936683775E+03  0.00000000000E+00 0. -1.
         21    1    1    2  505  506 -0.84494978163E+02  0.91050823543E+02 -0.68980405296E+03  0.70089891231E+03  0.00000000000E+00 0. -1.
         21    1    1    2  506  501 -0.75688635377E+01 -0.68946373177E+02 -0.83000397551E+02  0.10816633517E+03  0.00000000000E+00 0. -1.
<scales pt_clust_3="30.95688" pt_clust_4="102.11441" pt_clust_5="14000.00000" pt_clust_6="71.99869"></scales>
<clustering>
<clus scale="   30.957">  2  3  1 -1</clus>
<clus scale="   71.999">  1  6  2 -1</clus>
<clus scale="  102.114">  1  4  2 -1</clus>
<clus scale="   71.999">  1  3  2 -1</clus>
</clustering>
</event>
<event>
 6    0  0.4227619E+002  0.1290381E+03  0.7546771E-02  0.1228890E+00
         21   -1    0    0  504  501  0.00000000000E+00  0.00000000000E+00  0.76093900714E+03  0.76093900714E+03  0.00000000000E+00 0.  1.
         21   -1    0    0  506  502 -0.00000000000E+00 -0.00000000000E+00 -0.13466950680E+03  0.13466950680E+03  0.00000000000E+00 0. -1.
         21    1    1    2  503  505  0.10696410741E+03 -0.99985846241E+01  0.20803698300E+03  0.23413816063E+03  0.00000000000E+00 0.  1.
         21    1    1    2  504  503 -0.14476903784E+03 -0.42797205269E+02  0.51662805523E+03  0.53823249860E+03  0.00000000000E+00 0.  1.
         21    1    1    2  505  502  0.88058889064E+01  0.30429803685E+02 -0.22152728231E+02  0.38655659350E+02  0.00000000000E+00 0. -1.
         21    1    1    2  506  501  0.28999041527E+02  0.22365986209E+02 -0.76242809657E+02  0.84582195366E+02  0.00000000000E+00 0. -1.
<scales pt_clust_3="14000.00000" pt_clust_4="129.03811" pt_clust_5="31.67833" pt_clust_6="58.15274"></scales>
<clustering>
<clus scale="   31.678">  2  5  1 -1</clus>
<clus scale="   58.153">  2  6  1 -1</clus>
<clus scale="  129.038">  1  4  2 -1</clus>
<clus scale="  129.038">  1  3  2 -1</clus>
</clustering>
</event>
<event>
 6    0  0.6095645E+002  0.1151282E+03  0.7546771E-02  0.1251357E+00
         21   -1    0    0  506  501  0.00000000000E+00  0.00000000000E+00  0.11496681527E+04  0.11496681527E+04  0.00000000000E+00 0.  1.
         21   -1    0    0  504  502 -0.00000000000E+00 -0.00000000000E+00 -0.27702822887E+03  0.27702822887E+03  0.00000000000E+00 0.  1.
         21    1    1    2  503  501  0.44038647892E+01 -0.85240142869E+02  0.97123815897E+03  0.97498145492E+03  0.00000000000E+00 0.  1.
         21    1    1    2  504  503 -0.37677607916E+01 -0.71891600136E+02  0.77178876586E+02  0.10554230044E+03  0.00000000000E+00 0. -1.
         21    1    1    2  505  502 -0.23675472380E+02  0.12009630998E+03 -0.23949048273E+03  0.26895974231E+03  0.00000000000E+00 0.  1.
         21    1    1    2  506  505  0.23039368382E+02  0.37035433024E+02  0.63713370958E+02  0.77212883857E+02  0.00000000000E+00 0. -1.
<scales pt_clust_3="57.63604" pt_clust_4="115.12820" pt_clust_5="14000.00000" pt_clust_6="43.61692"></scales>
<clustering>
<clus scale="   43.617">  1  6  2 -1</clus>
<clus scale="   57.636">  1  3  2 -1</clus>
<clus scale="  115.128">  1  4  2 -1</clus>
<clus scale="   43.617">  1  3  2 -1</clus>
</clustering>
</event>
<event>
 6    0  0.4227619E+002  0.1723478E+03  0.7546771E-02  0.1175421E+00
         21   -1    0    0  503  501  0.00000000000E+00  0.00000000000E+00  0.38169414385E+03  0.38169414385E+03  0.00000000000E+00 0. -1.
         21   -1    0    0  505  502 -0.00000000000E+00 -0.00000000000E+00 -0.34849234772E+03  0.34849234772E+03  0.00000000000E+00 0.  1.
         21    1    1    2  503  506  0.79087269577E+02 -0.78977449161E+01  0.27335802823E+03  0.28467838376E+03  0.00000000000E+00 0. -1.
         21    1    1    2  504  501 -0.36374568732E+02  0.32435241184E+02  0.15477601095E+02  0.51134237618E+02  0.00000000000E+00 0. -1.
         21    1    1    2  505  504 -0.13916024896E+02  0.12656004650E+03 -0.48218267656E+02  0.13614735567E+03  0.00000000000E+00 0.  1.
         21    1    1    2  506  502 -0.28796675949E+02 -0.15109754277E+03 -0.20741556554E+03  0.25822651452E+03  0.00000000000E+00 0.  1.
<scales pt_clust_3="79.48063" pt_clust_4="48.69096" pt_clust_5="48.69096" pt_clust_6="153.32964"></scales>
<clustering>
<clus scale="   48.691">  4  5 -1 -1</clus>
<clus scale="   79.481">  1  3  2 -1</clus>
<clus scale="  153.330">  2  6  1 -1</clus>
<clus scale="   79.481">  1  3  2 -1</clus>
</clustering>
</event>
<event>
 6    0  0.4227619E+002  0.8314693E+02  0.7546771E-02  0.1320351E+00
         21   -1    0    0  504  501  0.00000000000E+00  0.00000000000E+00  0.91288959827E+02  0.91288959827E+02  0.00000000000E+00 0.  1.
         21   -1    0    0  503  502 -0.00000000000E+00 -0.00000000000E+00 -0.53050212672E+03  0.53050212672E+03  0.00000000000E+00 0.  1.
         21    1    1    2  503  505  0.15653472626E+02  0.58006017707E+02 -0.41133827571E+02  0.72812918264E+02  0.00000000000E+00 0.  1.
         21    1    1    2  504  506 -0.13375622116E+01 -0.96042860051E+02 -0.42396688127E+01  0.96145695853E+02  0.00000000000E+00 0.  1.
         21    1    1    2  505  501  0.44056173126E+02 -0.22843855389E+02  0.44411744114E+00  0.49628473277E+02  0.00000000000E+00 0.  1.
         21    1    1    2  506  502 -0.58372083540E+02  0.60880697732E+02 -0.39428378795E+03  0.40320399916E+03  0.00000000000E+00 0.  1.
<scales pt_clust_3="58.70821" pt_clust_4="14000.00000" pt_clust_5="49.62649" pt_clust_6="83.14693"></scales>
<clustering>
<clus scale="   49.626">  1  5  2 -1</clus>
<clus scale="   58.708">  1  3  2 -1</clus>
<clus scale="   83.147">  2  6  1 -1</clus>
<clus scale="   49.626">  1  3  2 -1</clus>
</clustering>
</event>
<event>
 6    0  0.4227619E+002  0.3393311E+03  0.7546771E-02  0.1067081E+00
         21   -1    0    0  506  501  0.00000000000E+00  0.00000000000E+00  0.85958070020E+03  0.85958070020E+03  0.00000000000E+00 0.  1.
         21   -1    0    0  504  502 -0.00000000000E+00 -0.00000000000E+00 -0.37067867511E+03  0.37067867511E+03  0.00000000000E+00 0.  1.
         21    1    1    2  503  502  0.20339949170E+03 -0.21359485083E+03 -0.16744496843E+02  0.29542256464E+03  0.00000000000E+00 0.  1.
         21    1    1    2  504  501 -0.43709306548E+03  0.16116530509E+03  0.13286645750E+03  0.48443585642E+03  0.00000000000E+00 0.  1.
         21    1    1    2  505  503  0.21588201469E+03  0.26863093703E+02  0.29442356099E+03  0.36607636271E+03  0.00000000000E+00 0.  1.
         21    1    1    2  506  505  0.17811559097E+02  0.25566452030E+02  0.78356503438E+02  0.84324591537E+02  0.00000000000E+00 0. -1.
<scales pt_clust_3="339.33115" pt_clust_4="14000.00000" pt_clust_5="252.77667" pt_clust_6="30.59305"></scales>
<clustering>
<clus scale="   30.593">  5  6 -1 -1</clus>
<clus scale="  252.777">  1  5  2 -1</clus>
<clus scale="  339.331">  2  3  1 -1</clus>
<clus scale="  252.777">  1  3  2 -1</clus>
</clustering>
</event>
<event>
 6    0  0.4227619E+002  0.1129429E+03  0.7546771E-02  0.1255215E+00
         21   -1    0    0  506  501  0.00000000000E+00  0.00000000000E+00  0.16617779763E+03  0.16617779763E+03  0.00000000000E+00 0.  1.
         21   -1    0    0  505  502 -0.00000000000E+00 -0.00000000000E+00 -0.21911119696E+04  0.21911119696E+04  0.00000000000E+00 0.  1.
         21    1    1    2  503  502  0.36117526795E+02 -0.23783584246E+02 -0.11306310745E+04  0.11314578036E+04  0.00000000000E+00 0.  1.
         21    1    1    2  504  503 -0.97041819423E+02 -0.64887219643E+02 -0.85981776461E+03  0.86770620277E+03  0.00000000000E+00 0.  1.
         21    1    1    2  505  501 -0.40589465179E+02 -0.16918824053E+02  0.13037802911E+03  0.13759426501E+03  0.00000000000E+00 0.  1.
         21    1    1    2  506  504  0.10151375781E+03  0.10558962794E+03 -0.16486336198E+03  0.22053149588E+03  0.00000000000E+00 0.  1.
<scales pt_clust_3="43.24505" pt_clust_4="14000.00000" pt_clust_5="43.89228" pt_clust_6="112.94293"></scales>
<clustering>
<clus scale="   43.245">  2  3  1 -1</clus>
<clus scale="   43.892">  1  5  2 -1</clus>
<clus scale="  112.943">  1  6  2 -1</clus>
<clus scale="   43.892">  1  3  2 -1</clus>
</clustering>
</event>
<event>
 6    0  0.4227619E+002  0.1461952E+03  0.7546771E-02  0.1205228E+00
         21   -1    0    0  504  501  0.00000000000E+00  0.00000000000E+00  0.54025814571E+03  0.54025814571E+03  0.00000000000E+00 0.  1.
         21   -1    0    0  506  502 -0.00000000000E+00 -0.00000000000E+00 -0.18506075623E+03  0.18506075623E+03  0.00000000000E+00 0.  1.
         21    1    1    2  503  501 -0.12694854582E+03  0.58586223332E+01  0.23108290733E+03  0.26372251857E+03  0.00000000000E+00 0.  1.
         21    1    1    2  504  505 -0.10270974829E+02 -0.55502460850E+02  0.17357753250E+03  0.18252445281E+03  0.00000000000E+00 0.  1.
         21    1    1    2  505  502  0.17185010060E+03  0.38830974964E+02  0.41617987847E+02  0.18103137464E+03  0.00000000000E+00 0.  1.
         21    1    1    2  506  503 -0.34630579952E+02  0.10812863553E+02 -0.91081038194E+02  0.98040555917E+02  0.00000000000E+00 0.  1.
<scales pt_clust_3="146.19519" pt_clust_4="56.25891" pt_clust_5="14000.00000" pt_clust_6="36.27940"></scales>
<clustering>
<clus scale="   36.279">  2  6  1 -1</clus>
<clus scale="   56.259">  1  4  2 -1</clus>
<clus scale="  146.195">  1  3  2 -1</clus>
<clus scale="   56.259">  1  3  2 -1</clus>
</clustering>
</event>
<event>
 6    0  0.4227619E+002  0.8306345E+02  0.7546771E-02  0.1320576E+00
         21   -1    0    0  504  501  0.00000000000E+00  0.00000000000E+00  0.15768222481E+03  0.15768222481E+03  0.00000000000E+00 0. -1.
         21   -1    0    0  503  502 -0.00000000000E+00 -0.00000000000E+00 -0.42875506361E+03  0.42875506361E+03  0.00000000000E+00 0. -1.
         21    1    1    2  503  506 -0.85678568180E+02 -0.12063692753E+02 -0.15750971314E+03  0.17970993145E+03  0.00000000000E+00 0. -1.
         21    1    1    2  504  505  0.85824384206E+01 -0.47252728908E+02  0.38409904754E+02  0.61496336653E+02  0.00000000000E+00 0. -1.
         21    1    1    2  505  502  0.72509860910E+02 -0.63082164950E+02 -0.19337210575E+03  0.21593936822E+03  0.00000000000E+00 0. -1.
         21    1    1    2  506  501  0.45862688495E+01  0.12239858661E+03  0.41399075335E+02  0.12929165211E+03  0.00000000000E+00 0. -1.
<scales pt_clust_3="14000.00000" pt_clust_4="48.02581" pt_clust_5="83.06345" pt_clust_6="85.72339"></scales>
<clustering>
<clus scale="   48.026">  1  4  2 -1</clus>
<clus scale="   85.723">  1  6  2 -1</clus>
<clus scale="   83.063">  1  5  2 -1</clus>
<clus scale="   48.026">  1  3  2 -1</clus>
</clustering>
</event>
<event>
 6    0  0.4227619E+002  0.1032991E+03  0.7546771E-02  0.1273507E+00
         21   -1    0    0  503  501  0.00000000000E+00  0.00000000000E+00  0.30738014764E+03  0.30738014764E+03  0.00000000000E+00 0. -1.
         21   -1    0    0  504  502 -0.00000000000E+00 -0.00000000000E+00 -0.41625167989E+03  0.41625167989E+03  0.00000000000E+00 0.  1.
         21    1    1    2  503  506 -0.54355826737E+02  0.20929793279E+02  0.19803057049E+03  0.20641879516E+03  0.00000000000E+00 0. -1.
         21    1    1    2  504  505 -0.39194503675E+02 -0.51416861874E+02  0.34618313877E+02  0.73337101518E+02  0.00000000000E+00 0. -1.
         21    1    1    2  505  501 -0.11473578135E+02  0.30094136455E+02  0.38161622562E+02  0.49936053917E+02  0.00000000000E+00 0. -1.
         21    1    1    2  506  502  0.10502390855E+03  0.39293213989E+00 -0.37968203918E+03  0.39393987693E+03  0.00000000000E+00 0.  1.
<scales pt_clust_3="103.29909" pt_clust_4="61.42879" pt_clust_5="32.20714" pt_clust_6="14000.00000"></scales>
<clustering>
<clus scale="   32.207">  1  5  2 -1</clus>
<clus scale="   61.429">  1  4  2 -1</clus>
<clus scale="  103.299">  1  3  2 -1</clus>
<clus scale="   32.207">  1  3  2 -1</clus>
</clustering>
</event>
<event>
 6    0  0.4227619E+002  0.2191093E+03  0.7546771E-02  0.1134549E+00
         21   -1    0    0  506  501  0.00000000000E+00  0.00000000000E+00  0.30771301946E+03  0.30771301946E+03  0.00000000000E+00 0. -1.
         21   -1    0    0  505  502 -0.00000000000E+00 -0.00000000000E+00 -0.80209285590E+03  0.80209285590E+03  0.00000000000E+00 0. -1.
         21    1    1    2  503  501  0.36734212066E+02 -0.14845381703E+02  0.83430848818E+02  0.92360674686E+02  0.00000000000E+00 0. -1.
         21    1    1    2  504  502  0.65618347840E+02  0.24536857024E+03 -0.43339146724E+03  0.50233421814E+03  0.00000000000E+00 0. -1.
         21    1    1    2  505  503  0.48593901385E+02 -0.64282919118E+02 -0.25312056309E+03  0.26563825102E+03  0.00000000000E+00 0. -1.
         21    1    1    2  506  504 -0.15094646129E+03 -0.16624026942E+03  0.10870134508E+03  0.24947273153E+03  0.00000000000E+00 0. -1.
<scales pt_clust_3="39.62055" pt_clust_4="219.10934" pt_clust_5="81.55323" pt_clust_6="14000.00000"></scales>
<clustering>
<clus scale="   39.621">  1  3  2 -1</clus>
<clus scale="   81.553">  2  5  1 -1</clus>
<clus scale="  219.109">  2  4  1 -1</clus>
<clus scale="   39.621">  1  3  2 -1</clus>
</clustering>
</event>
<event>
 6    0  0.4227619E+002  0.8704876E+02  0.7546771E-02  0.1310160E+00
         21   -1    0    0  503  501  0.00000000000E+00  0.00000000000E+00  0.37929510900E+03  0.37929510900E+03  0.00000000000E+00 0.  1.
         21   -1    0    0  505  502 -0.00000000000E+00 -0.00000000000E+00 -0.36870628057E+03  0.36870628057E+03  0.00000000000E+00 0.  1.
         21    1    1    2  503  504 -0.10040276012E+02  0.86075247245E+02  0.34200161630E+03  0.35280995009E+03  0.00000000000E+00 0.  1.
         21    1    1    2  504  502 -0.44247669699E+02 -0.76603090853E+01 -0.11493920931E+02  0.46353498546E+02  0.00000000000E+00 0. -1.
         21    1    1    2  505  506  0.21937457644E+02  0.21941515440E+02 -0.10431774228E+03  0.10883415596E+03  0.00000000000E+00 0.  1.
         21    1    1    2  506  501  0.32350488068E+02 -0.10035645360E+03 -0.21560112465E+03  0.24000378499E+03  0.00000000000E+00 0.  1.
<scales pt_clust_3="14000.00000" pt_clust_4="42.15393" pt_clust_5="31.02712" pt_clust_6="87.04876"></scales>
<clustering>
<clus scale="   31.027">  2  5  1 -1</clus>
<clus scale="   42.154">  2  4  1 -1</clus>
<clus scale="   87.049">  2  6  1 -1</clus>
<clus scale="   87.049">  1  3  2 -1</clus>
</clustering>
</event>
<event>
 6    0  0.4227619E+002  0.1332367E+03  0.7546771E-02  0.1222731E+00
         21   -1    0    0  504  501  0.00000000000E+00  0.00000000000E+00  0.14136576913E+04  0.14136576913E+04  0.00000000000E+00 0. -1.
         21   -1    0    0  503  502 -0.00000000000E+00 -0.00000000000E+00 -0.23515041296E+03  0.23515041296E+03  0.00000000000E+00 0. -1.
         21    1    1    2  503  505  0.27525537983E+02 -0.13564103169E+03  0.66865962947E+02  0.15371142352E+03  0.00000000000E+00 0. -1.
         21    1    1    2  504  506  0.30908119364E+02 -0.28041102124E+02  0.14823743777E+03  0.15399984808E+03  0.00000000000E+00 0. -1.
         21    1    1    2  505  501  0.43223837385E+02  0.71651521737E+02  0.11255977741E+04  0.11287039424E+04  0.00000000000E+00 0. -1.
         21    1    1    2  506  502 -0.10165749473E+03  0.92030612080E+02 -0.16219389642E+03  0.21239289025E+03  0.00000000000E+00 0. -1.
<scales pt_clust_3="133.23674" pt_clust_4="41.73266" pt_clust_5="84.78387" pt_clust_6="14000.00000"></scales>
<clustering>
<clus scale="   41.733">  1  4  2 -1</clus>
<clus scale="   84.784">  1  5  2 -1</clus>
<clus scale="  133.237">  1  3  2 -1</clus>
<clus scale="   41.733">  1  3  2 -1</clus>
</clustering>
</event>
<event>
 6    0  0.4227619E+002  0.1275054E+03  0.7546771E-02  0.1231205E+00
         21   -1    0    0  505  501  0.00000000000E+00  0.00000000000E+00  0.60622936126E+02  0.60622936126E+02  0.00000000000E+00 0.  1.
         21   -1    0    0  503  502 -0.00000000000E+00 -0.00000000000E+00 -0.16530458079E+04  0.16530458079E+04  0.00000000000E+00 0. -1.
         21    1    1    2  503  506 -0.25719954094E+02  0.21033935398E+02 -0.25066974849E+03  0.25286214680E+03  0.00000000000E+00 0.  1.
         21    1    1    2  504  501 -0.65813138995E+02  0.10848607819E+03 -0.72735087296E+02  0.14625659421E+03  0.00000000000E+00 0.  1.
         21    1    1    2  505  502  0.57282480362E+02 -0.20820238732E+01 -0.10932884971E+04  0.10947900964E+04  0.00000000000E+00 0. -1.
         21    1    1    2  506  504  0.34250612727E+02 -0.12743798972E+03 -0.17572953886E+03  0.21975990654E+03  0.00000000000E+00 0. -1.
<scales pt_clust_3="33.22563" pt_clust_4="127.50539" pt_clust_5="39.86994" pt_clust_6="14000.00000"></scales>
<clustering>
<clus scale="   33.226">  2  3  1 -1</clus>
<clus scale="   39.870">  2  5  1 -1</clus>
<clus scale="  127.505">  1  4  2 -1</clus>
<clus scale="  127.505">  1  3  2 -1</clus>
</clustering>
</event>
<event>
 6    0  0.4227619E+002  0.1231572E+03  0.7546771E-02  0.1237978E+00
         21   -1    0    0  506  501  0.00000000000E+00  0.00000000000E+00  0.17811608701E+04  0.17811608701E+04  0.00000000000E+00 0. -1.
         21   -1    0    0  503  502 -0.00000000000E+00 -0.00000000000E+00 -0.13926554356E+03  0.13926554356E+03  0.00000000000E+00 0.  1.
         21    1    1    2  503  501  0.11666495936E+03  0.53180688706E+02  0.99808623940E+03  0.10062877519E+04  0.00000000000E+00 0. -1.
         21    1    1    2  504  505 -0.33249211021E+01  0.53022003874E+02  0.98670342038E+02  0.11206348376E+03  0.00000000000E+00 0.  1.
         21    1    1    2  505  502 -0.90912889333E+02 -0.83124950226E+02 -0.98443027414E+02  0.15768937961E+03  0.00000000000E+00 0.  1.
         21    1    1    2  506  504 -0.22427148924E+02 -0.23077742354E+02  0.64358177249E+03  0.64438579833E+03  0.00000000000E+00 0. -1.
<scales pt_clust_3="123.15723" pt_clust_4="51.16974" pt_clust_5="14000.00000" pt_clust_6="32.18011"></scales>
<clustering>
<clus scale="   32.180">  1  6  2 -1</clus>
<clus scale="   51.170">  1  4  2 -1</clus>
<clus scale="  123.157">  1  3  2 -1</clus>
<clus scale="   32.180">  1  3  2 -1</clus>
</clustering>
</event>
<event>
 6    0  0.4227619E+002  0.1710943E+03  0.7546771E-02  0.1176711E+00
         21   -1    0    0  505  501  0.00000000000E+00  0.00000000000E+00  0.89742473889E+02  0.89742473889E+02  0.00000000000E+00 0. -1.
         21   -1    0    0  506  502 -0.00000000000E+00 -0.00000000000E+00 -0.17094479264E+04  0.17094479264E+04  0.00000000000E+00 0. -1.
         21    1    1    2  503  504 -0.21176584337E+03  0.22671341594E+02 -0.29720890167E+03  0.36563902059E+03  0.00000000000E+00 0. -1.
         21    1    1    2  504  502  0.50326566403E+02 -0.21759112568E+02 -0.12318943897E+04  0.12331139483E+04  0.00000000000E+00 0. -1.
         21    1    1    2  505  503  0.17624441763E+02  0.26503402200E+02 -0.10285316799E+02  0.33449051067E+02  0.00000000000E+00 0.  1.
         21    1    1    2  506  501  0.14381483520E+03 -0.27415631227E+02 -0.80316844332E+02  0.16698838026E+03  0.00000000000E+00 0. -1.
<scales pt_clust_3="14000.00000" pt_clust_4="54.87372" pt_clust_5="31.82847" pt_clust_6="171.09430"></scales>
<clustering>
<clus scale="   31.828">  1  5  2 -1</clus>
<clus scale="   54.874">  2  4  1 -1</clus>
<clus scale="  171.094">  1  6  2 -1</clus>
<clus scale="   31.828">  1  3  2 -1</clus>
</clustering>
</event>
<event>
 6    0  0.4227619E+002  0.1938368E+03  0.7546771E-02  0.1155046E+00
         21   -1    0    0  503  501  0.00000000000E+00  0.00000000000E+00  0.11885433968E+04  0.11885433968E+04  0.00000000000E+00 0.  1.
         21   -1    0    0  506  502 -0.00000000000E+00 -0.00000000000E+00 -0.11060639659E+03  0.11060639659E+03  0.00000000000E+00 0.  1.
         21    1    1    2  503  502 -0.95843754350E+01  0.20027351072E+03  0.54133338219E+02  0.20768186646E+03  0.00000000000E+00 0.  1.
         21    1    1    2  504  505  0.70324088357E+02 -0.16767607811E+03  0.33070386936E+03  0.37739342043E+03  0.00000000000E+00 0.  1.
         21    1    1    2  505  501 -0.17361834562E+02 -0.27881231993E+02  0.65594029090E+03  0.65676210428E+03  0.00000000000E+00 0.  1.
         21    1    1    2  506  504 -0.43377878360E+02 -0.47162006110E+01  0.37159501733E+02  0.57312402220E+02  0.00000000000E+00 0. -1.
<scales pt_clust_3="14000.00000" pt_clust_4="193.83684" pt_clust_5="32.84504" pt_clust_6="45.49080"></scales>
<clustering>
<clus scale="   32.845">  1  5  2 -1</clus>
<clus scale="   45.491">  2  6  1 -1</clus>
<clus scale="  193.837">  1  4  2 -1</clus>
<clus scale="   32.845">  1  3  2 -1</clus>
</clustering>
</event>
<event>
 6    0  0.4227619E+002  0.5918002E+02  0.7546771E-02  0.1401305E+00
         21   -1    0    0  504  501  0.00000000000E+00  0.00000000000E+00  0.81983760714E+03  0.81983760714E+03  0.00000000000E+00 0. -1.
         21   -1    0    0  505  502 -0.00000000000E+00 -0.00000000000E+00 -0.14780908485E+03  0.14780908485E+03  0.00000000000E+00 0.  1.
         21    1    1    2  503  502 -0.47223532912E+02 -0.42112519258E+02  0.27838241401E+02  0.69126652047E+02  0.00000000000E+00 0. -1.
         21    1    1    2  504  503 -0.50546158586E+02  0.20983818545E+02  0.17193412829E+03  0.18043441817E+03  0.00000000000E+00 0. -1.
         21    1    1    2  505  506  0.15227810823E+02  0.58000576903E+02 -0.11191101409E+03  0.12696467311E+03  0.00000000000E+00 0.  1.
         21    1    1    2  506  501  0.82541880675E+02 -0.36871876191E+02  0.58416716669E+03  0.59112094867E+03  0.00000000000E+00 0. -1.
<scales pt_clust_3="59.18002" pt_clust_4="54.72874" pt_clust_5="14000.00000" pt_clust_6="40.47616"></scales>
<clustering>
<clus scale="   54.729">  1  4  2 -1</clus>
<clus scale="   40.476">  1  6  2 -1</clus>
<clus scale="   59.180">  1  3  2 -1</clus>
<clus scale="   54.729">  1  3  2 -1</clus>
</clustering>
</event>
<event>
 6    0  0.4227619E+002  0.1190435E+03  0.7546771E-02  0.1244683E+00
         21   -1    0    0  506  501  0.00000000000E+00  0.00000000000E+00  0.16233295924E+04  0.16233295924E+04  0.00000000000E+00 0.  1.
         21   -1    0    0  504  502 -0.00000000000E+00 -0.00000000000E+00 -0.49430957258E+03  0.49430957258E+03  0.00000000000E+00 0.  1.
         21    1    1    2  503  501 -0.14800864971E+03 -0.30957721374E+02  0.10022353584E+04  0.10135781443E+04  0.00000000000E+00 0.  1.
         21    1    1    2  504  505 -0.10274654905E+02  0.11848983445E+03 -0.44912250630E+03  0.46460352459E+03  0.00000000000E+00 0.  1.
         21    1    1    2  505  503  0.12139528434E+03 -0.91509472493E+02  0.15567340524E+03  0.21758907995E+03  0.00000000000E+00 0.  1.
         21    1    1    2  506  502  0.36888020272E+02  0.39773594173E+01  0.42023376248E+03  0.42186841616E+03  0.00000000000E+00 0.  1.
<scales pt_clust_3="119.04354" pt_clust_4="118.93971" pt_clust_5="14000.00000" pt_clust_6="37.10183"></scales>
<clustering>
<clus scale="   37.102">  1  6  2 -1</clus>
<clus scale="  118.940">  2  4  1 -1</clus>
<clus scale="  119.044">  1  3  2 -1</clus>
<clus scale="   37.102">  1  3  2 -1</clus>
</clustering>
</event>
<event>
 6    0  0.4227619E+002  0.1144428E+03  0.7546771E-02  0.1252557E+00
         21   -1    0    0  502  501  0.00000000000E+00  0.00000000000E+00  0.11779616322E+04  0.11779616322E+04  0.00000000000E+00 0.  1.
         21   -1    0    0  504  502 -0.00000000000E+00 -0.00000000000E+00 -0.79800067855E+02  0.79800067855E+02  0.00000000000E+00 0. -1.
         21    1    1    2  503  501 -0.22546114862E+02  0.46257226466E+02  0.53494686921E+03  0.53741623643E+03  0.00000000000E+00 0.  1.
         21    1    1    2  504  505  0.37229905763E+02  0.93728591699E+02 -0.32668814386E+02  0.10601116082E+03  0.00000000000E+00 0. -1.
         21    1    1    2  505  506 -0.21212989800E+01 -0.63035462920E+02  0.16893212482E+03  0.18032202386E+03  0.00000000000E+00 0.  1.
         21    1    1    2  506  503 -0.12562491921E+02 -0.76950355244E+02  0.42695138469E+03  0.43401227893E+03  0.00000000000E+00 0.  1.
<scales pt_clust_3="51.45929" pt_clust_4="102.85577" pt_clust_5="45.13027" pt_clust_6="45.13027"></scales>
<clustering>
<clus scale="   45.130">  5  6 -1 -1</clus>
<clus scale="   51.459">  1  3  2 -1</clus>
<clus scale="  102.856">  2  4  1 -1</clus>
<clus scale="   51.459">  1  3  2 -1</clus>
</clustering>
</event>
<event>
 6    0  0.4227619E+002  0.1239307E+03  0.7546771E-02  0.1236750E+00
         21   -1    0    0  502  501  0.00000000000E+00  0.00000000000E+00  0.70527108088E+02  0.70527108088E+02  0.00000000000E+00 0. -1.
         21   -1    0    0  505  502 -0.00000000000E+00 -0.00000000000E+00 -0.21890375219E+04  0.21890375219E+04  0.00000000000E+00 0.  1.
         21    1    1    2  503  504  0.59176998219E+02 -0.73533304308E+02 -0.26284149816E+03  0.27927534284E+03  0.00000000000E+00 0. -1.
         21    1    1    2  504  506 -0.49666713274E+02  0.25602040022E+02  0.13542521096E+02  0.57494754008E+02  0.00000000000E+00 0. -1.
         21    1    1    2  505  503  0.42287184197E+02  0.42508286005E+00 -0.18492466406E+04  0.18497301220E+04  0.00000000000E+00 0.  1.
         21    1    1    2  506  501 -0.51797469141E+02  0.47506181426E+02 -0.19964796142E+02  0.73064411091E+02  0.00000000000E+00 0. -1.
<scales pt_clust_3="118.29691" pt_clust_4="32.93829" pt_clust_5="42.28932" pt_clust_6="32.93829"></scales>
<clustering>
<clus scale="   32.938">  4  6 -1 -1</clus>
<clus scale="   42.289">  2  5  1 -1</clus>
<clus scale="  118.297">  2  3  1 -1</clus>
<clus scale="  123.931">  1  3  2 -1</clus>
</clustering>
</event>
<event>
 6    0  0.4227619E+002  0.1261847E+03  0.7546771E-02  0.1233229E+00
         21   -1    0    0  503  501  0.00000000000E+00  0.00000000000E+00  0.12932889690E+03  0.12932889690E+03  0.00000000000E+00 0.  1.
         21   -1    0    0  504  502 -0.00000000000E+00 -0.00000000000E+00 -0.46642539783E+03  0.46642539783E+03  0.00000000000E+00 0.  1.
         21    1    1    2  503  506 -0.19148067814E+02  0.23558916841E+02  0.40279753908E+02  0.50439365962E+02  0.00000000000E+00 0. -1.
         21    1    1    2  504  501  0.15994777249E+02 -0.38584989171E+02 -0.13348181515E+03  0.13986432449E+03  0.00000000000E+00 0.  1.
         21    1    1    2  505  502  0.66941254538E+02  0.12633474586E+03 -0.23723456443E+03  0.27698707214E+03  0.00000000000E+00 0.  1.
         21    1    1    2  506  505 -0.63787963973E+02 -0.11130867353E+03 -0.66598752570E+01  0.12846353214E+03  0.00000000000E+00 0.  1.
<scales pt_clust_3="30.35904" pt_clust_4="40.66437" pt_clust_5="126.18468" pt_clust_6="14000.00000"></scales>
<clustering>
<clus scale="   30.359">  1  3  2 -1</clus>
<clus scale="   40.664">  2  4  1 -1</clus>
<clus scale="  126.185">  2  5  1 -1</clus>
<clus scale="   30.359">  1  3  2 -1</clus>
</clustering>
</event>
<event>
 6    0  0.4227619E+002  0.1959861E+03  0.7546771E-02  0.1153170E+00
         21   -1    0    0  506  501  0.00000000000E+00  0.00000000000E+00  0.36041736884E+03  0.36041736884E+03  0.00000000000E+00 0.  1.
         21   -1    0    0  505  502 -0.00000000000E+00 -0.00000000000E+00 -0.74740130140E+03  0.74740130140E+03  0.00000000000E+00 0. -1.
         21    1    1    2  503  504 -0.32845481481E+02 -0.36684330919E+02 -0.28386551000E+02  0.56836274213E+02  0.00000000000E+00 0.  1.
         21    1    1    2  504  501 -0.95183266427E+02  0.20598531556E+03  0.24223135649E+02  0.22820290255E+03  0.00000000000E+00 0.  1.
         21    1    1    2  505  503  0.43760822671E+02 -0.54079349626E+01 -0.56318967936E+03  0.56491315288E+03  0.00000000000E+00 0. -1.
         21    1    1    2  506  502  0.84267925237E+02 -0.16389304968E+03  0.18036916215E+03  0.25786634060E+03  0.00000000000E+00 0.  1.
<scales pt_clust_3="44.20066" pt_clust_4="14000.00000" pt_clust_5="44.09371" pt_clust_6="195.98610"></scales>
<clustering>
<clus scale="   44.094">  2  5  1 -1</clus>
<clus scale="   44.201">  2  3  1 -1</clus>
<clus scale="  195.986">  1  6  2 -1</clus>
<clus scale="  195.986">  1  3  2 -1</clus>
</clustering>
</event>
<event>
 6    0  0.4227619E+002  0.8176657E+02  0.7546771E-02  0.1324112E+00
         21   -1    0    0  505  501  0.00000000000E+00  0.00000000000E+00  0.16647473463E+04  0.16647473463E+04  0.00000000000E+00 0.  1.
         21   -1    0    0  503  502 -0.00000000000E+00 -0.00000000000E+00 -0.74607116901E+02  0.74607116901E+02  0.00000000000E+00 0.  1.
         21    1    1    2  503  504 -0.33820474326E+02 -0.52079129872E+02  0.37382301577E+02  0.72481009396E+02  0.00000000000E+00 0.  1.
         21    1    1    2  504  501 -0.71819988080E+02  0.11686871427E+02 -0.23806940950E+02  0.76560199118E+02  0.00000000000E+00 0.  1.
         21    1    1    2  505  506  0.81198954259E+02  0.11697479064E+02  0.15207599995E+04  0.15229711347E+04  0.00000000000E+00 0.  1.
         21    1    1    2  506  502  0.24441508147E+02  0.28694779381E+02  0.55804869296E+02  0.67342119965E+02  0.00000000000E+00 0. -1.
<scales pt_clust_3="52.58306" pt_clust_4="14000.00000" pt_clust_5="81.76657" pt_clust_6="37.69320"></scales>
<clustering>
<clus scale="   37.693">  2  6  1 -1</clus>
<clus scale="   52.583">  2  3  1 -1</clus>
<clus scale="   81.767">  1  5  2 -1</clus>
<clus scale="   81.767">  1  3  2 -1</clus>
</clustering>
</event>
<event>
 6    0  0.4227619E+002  0.1225996E+03  0.7546771E-02  0.1238869E+00
         21   -1    0    0  506  501  0.00000000000E+00  0.00000000000E+00  0.10251593534E+04  0.10251593534E+04  0.00000000000E+00 0. -1.
         21   -1    0    0  504  502 -0.00000000000E+00 -0.00000000000E+00 -0.19215256172E+03  0.19215256172E+03  0.00000000000E+00 0. -1.
         21    1    1    2  503  502 -0.37800778063E+02 -0.22269329385E+02 -0.81519144161E+02  0.92575335366E+02  0.00000000000E+00 0. -1.
         21    1    1    2  504  501  0.83109683406E+02  0.12791475577E+03  0.59048295153E+02  0.16357293596E+03  0.00000000000E+00 0. -1.
         21    1    1    2  505  503 -0.63529184079E+02 -0.71072617196E+02 -0.90475727047E+01  0.95755588436E+02  0.00000000000E+00 0. -1.
         21    1    1    2  506  505  0.18220278736E+02 -0.34572809189E+02  0.86452521343E+03  0.86540805540E+03  0.00000000000E+00 0. -1.
<scales pt_clust_3="43.95729" pt_clust_4="122.59965" pt_clust_5="14000.00000" pt_clust_6="39.08014"></scales>
<clustering>
<clus scale="   39.080">  1  6  2 -1</clus>
<clus scale="   43.957">  2  3  1 -1</clus>
<clus scale="  122.600">  1  4  2 -1</clus>
<clus scale="   39.080">  1  3  2 -1</clus>
</clustering>
</event>
<event>
 6    0  0.4227619E+002  0.1581432E+03  0.7546771E-02  0.1190809E+00
         21   -1    0    0  503  501  0.00000000000E+00  0.00000000000E+00  0.36176996028E+03  0.36176996028E+03  0.00000000000E+00 0. -1.
         21   -1    0    0  504  502 -0.00000000000E+00 -0.00000000000E+00 -0.32273888882E+03  0.32273888882E+03  0.00000000000E+00 0. -1.
         21    1    1    2  503  505  0.13725372567E+03 -0.54984397440E+02  0.10656236875E+03  0.18225643364E+03  0.00000000000E+00 0. -1.
         21    1    1    2  504  506 -0.18751223859E+03  0.36081436530E+02 -0.10952467289E+03  0.22013260470E+03  0.00000000000E+00 0. -1.
         21    1    1    2  505  502  0.12260265857E+03 -0.51548648633E+02 -0.53293762090E+02  0.14327909876E+03  0.00000000000E+00 0. -1.
         21    1    1    2  506  501 -0.72344145651E+02  0.70451609543E+02  0.95287137692E+02  0.13884071199E+03  0.00000000000E+00 0. -1.
<scales pt_clust_3="95.50688" pt_clust_4="14000.00000" pt_clust_5="158.14321" pt_clust_6="100.98071"></scales>
<clustering>
<clus scale="  100.981">  1  6  2 -1</clus>
<clus scale="   95.507">  1  3  2 -1</clus>
<clus scale="  158.143">  2  5  1 -1</clus>
<clus scale="  100.981">  1  3  2 -1</clus>
</clustering>
</event>
<event>
 6    0  0.4227619E+002  0.1911227E+03  0.7546771E-02  0.1157453E+00
         21   -1    0    0  505  501  0.00000000000E+00  0.00000000000E+00  0.61739348713E+03  0.61739348713E+03  0.00000000000E+00 0. -1.
         21   -1    0    0  504  502 -0.00000000000E+00 -0.00000000000E+00 -0.61144273055E+03  0.61144273055E+03  0.00000000000E+00 0.  1.
         21    1    1    2  503  501 -0.17115610099E+03 -0.11308194677E+02  0.33875334892E+03  0.37970530360E+03  0.00000000000E+00 0. -1.
         21    1    1    2  504  506 -0.92013880347E+01  0.49720394352E+02 -0.51952823774E+03  0.52198311559E+03  0.00000000000E+00 0.  1.
         21    1    1    2  505  502 -0.21140164500E+02  0.42796504098E+02  0.14414003885E+02  0.49861917594E+02  0.00000000000E+00 0. -1.
         21    1    1    2  506  503  0.20149765353E+03 -0.81208703773E+02  0.17231164151E+03  0.27728588090E+03  0.00000000000E+00 0. -1.
<scales pt_clust_3="191.12274" pt_clust_4="50.66098" pt_clust_5="47.73308" pt_clust_6="14000.00000"></scales>
<clustering>
<clus scale="   47.733">  1  5  2 -1</clus>
<clus scale="   50.661">  2  4  1 -1</clus>
<clus scale="  191.123">  1  3  2 -1</clus>
<clus scale="   47.733">  1  3  2 -1</clus>
</clustering>
</event>
<event>
 6    0  0.4227619E+002  0.1309701E+03  0.7546771E-02  0.1226023E+00
         21   -1    0    0  506  501  0.00000000000E+00  0.00000000000E+00  0.70318443756E+02  0.70318443756E+02  0.00000000000E+00 0.  1.
         21   -1    0    0  503  502 -0.00000000000E+00 -0.00000000000E+00 -0.54119640497E+03  0.54119640497E+03  0.00000000000E+00 0.  1.
         21    1    1    2  503  504  0.29312092797E+02  0.30956128360E+02 -0.89357706904E+02  0.99006466710E+02  0.00000000000E+00 0.  1.
         21    1    1    2  504  501  0.85848083134E+02 -0.10845277431E+03 -0.63770655744E+02  0.15231084718E+03  0.00000000000E+00 0.  1.
         21    1    1    2  505  502 -0.49660380401E+02 -0.14500855144E+02 -0.62869257138E+02  0.81418497128E+02  0.00000000000E+00 0. -1.
         21    1    1    2  506  505 -0.65499795531E+02  0.91997501093E+02 -0.25488034143E+03  0.27877903771E+03  0.00000000000E+00 0.  1.
<scales pt_clust_3="42.63192" pt_clust_4="14000.00000" pt_clust_5="45.92405" pt_clust_6="130.97014"></scales>
<clustering>
<clus scale="   42.632">  2  3  1 -1</clus>
<clus scale="   45.924">  2  5  1 -1</clus>
<clus scale="  130.970">  2  6  1 -1</clus>
<clus scale="  130.970">  1  3  2 -1</clus>
</clustering>
</event>
<event>
 6    0  0.4227619E+002  0.1238703E+03  0.7546771E-02  0.1236845E+00
         21   -1    0    0  504  501  0.00000000000E+00  0.00000000000E+00  0.17424593564E+04  0.17424593564E+04  0.00000000000E+00 0. -1.
         21   -1    0    0  506  502 -0.00000000000E+00 -0.00000000000E+00 -0.38861440448E+02  0.38861440448E+02  0.00000000000E+00 0.  1.
         21    1    1    2  503  501 -0.59566902851E+02  0.12076775335E+03  0.13745339670E+04  0.13811142939E+04  0.00000000000E+00 0. -1.
         21    1    1    2  504  502  0.35915279087E+02 -0.42821627296E+02  0.15674911051E+03  0.16641479105E+03  0.00000000000E+00 0.  1.
         21    1    1    2  505  503 -0.33864610788E+02 -0.90739088701E+02  0.12555667615E+03  0.15857134990E+03  0.00000000000E+00 0.  1.
         21    1    1    2  506  505  0.57516234552E+02  0.12792962647E+02  0.46758162304E+02  0.75220362086E+02  0.00000000000E+00 0.  1.
<scales pt_clust_3="123.87028" pt_clust_4="55.88917" pt_clust_5="14000.00000" pt_clust_6="72.71652"></scales>
<clustering>
<clus scale="   55.889">  2  4  1 -1</clus>
<clus scale="   72.717">  2  6  1 -1</clus>
<clus scale="  123.870">  1  3  2 -1</clus>
<clus scale="  123.870">  1  3  2 -1</clus>
</clustering>
</event>
<event>
 6    0  0.4227619E+002  0.1830381E+03  0.7546771E-02  0.1164895E+00
         21   -1    0    0  503  501  0.00000000000E+00  0.00000000000E+00  0.14202946014E+03  0.14202946014E+03  0.00000000000E+00 0.  1.
         21   -1    0    0  505  502 -0.00000000000E+00 -0.00000000000E+00 -0.30564473621E+04  0.30564473621E+04  0.00000000000E+00 0.  1.
         21    1    1    2  503  506  0.97251905142E+01 -0.20901103310E+03 -0.42915811783E+03  0.47744830232E+03  0.00000000000E+00 0.  1.
         21    1    1    2  504  502 -0.15182654173E+02  0.11908873135E+03 -0.22607318309E+04  0.22639171916E+04  0.00000000000E+00 0.  1.
         21    1    1    2  505  501  0.11746351317E+02  0.14596469790E+03  0.66385989327E+02  0.16078174455E+03  0.00000000000E+00 0.  1.
         21    1    1    2  506  504 -0.62888876580E+01 -0.56042396149E+02 -0.29091394253E+03  0.29632958380E+03  0.00000000000E+00 0.  1.
<scales pt_clust_3="51.82026" pt_clust_4="120.05265" pt_clust_5="153.42631" pt_clust_6="51.82026"></scales>
<clustering>
<clus scale="   51.820">  3  6 -1 -1</clus>
<clus scale="  120.053">  2  4  1 -1</clus>
<clus scale="  153.426">  1  5  2 -1</clus>
<clus scale="  153.426">  1  3  2 -1</clus>
</clustering>
</event>
<event>
 6    0  0.4227619E+002  0.1783569E+03  0.7546771E-02  0.1169403E+00
         21   -1    0    0  505  501  0.00000000000E+00  0.00000000000E+00  0.24924615175E+03  0.24924615175E+03  0.00000000000E+00 0.  1.
         21   -1    0    0  504  502 -0.00000000000E+00 -0.00000000000E+00 -0.60849698865E+03  0.60849698865E+03  0.00000000000E+00 0.  1.
         21    1    1    2  503  506  0.72436871569E+02  0.30290848761E+02 -0.81456953189E+02  0.11313651534E+03  0.00000000000E+00 0.  1.
         21    1    1    2  504  503 -0.11847125959E+02 -0.77109558460E+02 -0.14253568282E+03  0.16248895125E+03  0.00000000000E+00 0.  1.
         21    1    1    2  505  502 -0.22908455056E+03  0.91791556528E+01 -0.27640573244E+03  0.35911574336E+03  0.00000000000E+00 0.  1.
         21    1    1    2  506  501  0.16849480495E+03  0.37639554046E+02  0.14114753155E+03  0.22300193046E+03  0.00000000000E+00 0.  1.
<scales pt_clust_3="71.26526" pt_clust_4="78.01435" pt_clust_5="178.35688" pt_clust_6="14000.00000"></scales>
<clustering>
<clus scale="   78.014">  2  4  1 -1</clus>
<clus scale="   71.265">  2  3  1 -1</clus>
<clus scale="  178.357">  2  5  1 -1</clus>
<clus scale="  178.357">  1  3  2 -1</clus>
</clustering>
</event>
<event>
 6    0  0.4227619E+002  0.8733137E+02  0.7546771E-02  0.1309446E+00
         21   -1    0    0  506  501  0.00000000000E+00  0.00000000000E+00  0.64175877919E+03  0.64175877919E+03  0.00000000000E+00 0. -1.
         21   -1    0    0  503  502 -0.00000000000E+00 -0.00000000000E+00 -0.97532812088E+03  0.97532812088E+03  0.00000000000E+00 0. -1.
         21    1    1    2  503  504 -0.71423362239E+02 -0.16639742390E+02 -0.80913860491E+03  0.81245520470E+03  0.00000000000E+00 0. -1.
         21    1    1    2  504  501 -0.29443345778E+02 -0.19717661454E+02  0.21988072798E+02  0.41703382706E+02  0.00000000000E+00 0.  1.
         21    1    1    2  505  502  0.15243005077E+03  0.38059774268E+02 -0.11330164029E+03  0.19370268064E+03  0.00000000000E+00 0.  1.
         21    1    1    2  506  505 -0.51563342757E+02 -0.17023704237E+01  0.56688283072E+03  0.56922563201E+03  0.00000000000E+00 0. -1.
<scales pt_clust_3="73.42620" pt_clust_4="35.43581" pt_clust_5="14000.00000" pt_clust_6="87.33137"></scales>
<clustering>
<clus scale="   35.436">  1  4  2 -1</clus>
<clus scale="   73.426">  2  3  1 -1</clus>
<clus scale="   87.331">  1  6  2 -1</clus>
<clus scale="   35.436">  1  3  2 -1</clus>
</clustering>
</event>
<event>
 6    0  0.4227619E+002  0.8994335E+02  0.7546771E-02  0.1302989E+00
         21   -1    0    0  503  501  0.00000000000E+00  0.00000000000E+00  0.27020583551E+03  0.27020583551E+03  0.00000000000E+00 0.  1.
         21   -1    0    0  505  502 -0.00000000000E+00 -0.00000000000E+00 -0.23659911890E+03  0.23659911890E+03  0.00000000000E+00 0.  1.
         21    1    1    2  503  506  0.10312193369E+03  0.44742649892E+02  0.16800727146E+03  0.20214470359E+03  0.00000000000E+00 0.  1.
         21    1    1    2  504  501 -0.56177398029E+02 -0.40016507021E+02  0.54845186938E+02  0.88120459678E+02  0.00000000000E+00 0.  1.
         21    1    1    2  505  504 -0.16443628143E+01 -0.40247196429E+02 -0.40849655254E+02  0.57369286938E+02  0.00000000000E+00 0.  1.
         21    1    1    2  506  502 -0.45300172842E+02  0.35521053559E+02 -0.14839608654E+03  0.15917050419E+03  0.00000000000E+00 0.  1.
<scales pt_clust_3="14000.00000" pt_clust_4="89.94335" pt_clust_5="40.28077" pt_clust_6="46.71636"></scales>
<clustering>
<clus scale="   40.281">  2  5  1 -1</clus>
<clus scale="   46.716">  2  6  1 -1</clus>
<clus scale="   89.943">  1  4  2 -1</clus>
<clus scale="   89.943">  1  3  2 -1</clus>
</clustering>
</event>
<event>
 6    0  0.4227619E+002  0.8261533E+02  0.7546771E-02  0.1321789E+00
         21   -1    0    0  505  501  0.00000000000E+00  0.00000000000E+00  0.13698696895E+03  0.13698696895E+03  0.00000000000E+00 0.  1.
         21   -1    0    0  506  502 -0.00000000000E+00 -0.00000000000E+00 -0.14842127167E+04  0.14842127167E+04  0.00000000000E+00 0. -1.
         21    1    1    2  503  502 -0.20724109580E+02  0.66570386056E+02 -0.97080656480E+03  0.97330698717E+03  0.00000000000E+00 0. -1.
         21    1    1    2  504  501 -0.10679031404E+02 -0.14377778867E+03 -0.24118005551E+03  0.28098739011E+03  0.00000000000E+00 0. -1.
         21    1    1    2  505  503 -0.11905820892E+02  0.78620937923E+02  0.99969993709E+02  0.12773801350E+03  0.00000000000E+00 0.  1.
         21    1    1    2  506  504  0.43308961876E+02 -0.14135353119E+01 -0.23520912120E+03  0.23916729491E+03  0.00000000000E+00 0. -1.
<scales pt_clust_3="66.75363" pt_clust_4="82.61533" pt_clust_5="14000.00000" pt_clust_6="43.33202"></scales>
<clustering>
<clus scale="   43.332">  2  6  1 -1</clus>
<clus scale="   66.754">  2  3  1 -1</clus>
<clus scale="   82.615">  2  4  1 -1</clus>
<clus scale="   82.615">  1  3  2 -1</clus>
</clustering>
</event>
<event>
 6    0  0.4227619E+002  0.8879183E+02  0.7546771E-02  0.1305804E+00
         21   -1    0    0  504  501  0.00000000000E+00  0.00000000000E+00  0.41451774683E+03  0.41451774683E+03  0.00000000000E+00 0.  1.
         21   -1    0    0  505  502 -0.00000000000E+00 -0.00000000000E+00 -0.62607113964E+03  0.62607113964E+03  0.00000000000E+00 0.  1.
         21    1    1    2  503  506  0.23932567801E+02  0.58327645059E+02 -0.98717114068E+02  0.11713219280E+03  0.00000000000E+00 0.  1.
         21    1    1    2  504  502  0.56789139156E+02 -0.19718802375E+02  0.32996193899E+03  0.33539337899E+03  0.00000000000E+00 0.  1.
         21    1    1    2  505  503 -0.77049313093E+02 -0.74014844974E+02 -0.50511829506E+03  0.51629379808E+03  0.00000000000E+00 0.  1.
         21    1    1    2  506  501 -0.36723938630E+01  0.35406002289E+02  0.62320077335E+02  0.71769516606E+02  0.00000000000E+00 0.  1.
<scales pt_clust_3="88.79183" pt_clust_4="55.12791" pt_clust_5="14000.00000" pt_clust_6="35.59595"></scales>
<clustering>
<clus scale="   35.596">  1  6  2 -1</clus>
<clus scale="   55.128">  1  4  2 -1</clus>
<clus scale="   88.792">  1  3  2 -1</clus>
<clus scale="   35.596">  1  3  2 -1</clus>
</clustering>
</event>
<event>
 6    0  0.4227619E+002  0.1541593E+03  0.7546771E-02  0.1195453E+00
         21   -1    0    0  505  501  0.00000000000E+00  0.00000000000E+00  0.49504519483E+03  0.49504519483E+03  0.00000000000E+00 0.  1.
         21   -1    0    0  503  502 -0.00000000000E+00 -0.00000000000E+00 -0.19101760671E+03  0.19101760671E+03  0.00000000000E+00 0.  1.
         21    1    1    2  503  501 -0.14997636274E+03 -0.55417386698E+02  0.39498645689E+03  0.42612005029E+03  0.00000000000E+00 0.  1.
         21    1    1    2  504  502  0.18572758897E+02 -0.32669220857E+02 -0.58007440165E+02  0.69116484857E+02  0.00000000000E+00 0.  1.
         21    1    1    2  505  506  0.12387153837E+03  0.27543875858E+02 -0.24379145141E+02  0.12921751365E+03  0.00000000000E+00 0.  1.
         21    1    1    2  506  504  0.75320654660E+01  0.60542731696E+02 -0.85722834619E+01  0.61608752748E+02  0.00000000000E+00 0.  1.
<scales pt_clust_3="14000.00000" pt_clust_4="37.57959" pt_clust_5="154.15929" pt_clust_6="53.07677"></scales>
<clustering>
<clus scale="   37.580">  2  4  1 -1</clus>
<clus scale="   53.077">  2  6  1 -1</clus>
<clus scale="  154.159">  2  5  1 -1</clus>
<clus scale="  154.159">  1  3  2 -1</clus>
</clustering>
</event>
<event>
 6    0  0.4227619E+002  0.1266077E+03  0.7546771E-02  0.1232578E+00
         21   -1    0    0  505  501  0.00000000000E+00  0.00000000000E+00  0.10983501383E+04  0.10983501383E+04  0.00000000000E+00 0. -1.
         21   -1    0    0  506  502 -0.00000000000E+00 -0.00000000000E+00 -0.19305958667E+03  0.19305958667E+03  0.00000000000E+00 0.  1.
         21    1    1    2  503  502 -0.14169179359E+02  0.42368221744E+02 -0.11849253308E+03  0.12663456185E+03  0.00000000000E+00 0.  1.
         21    1    1    2  504  501  0.11390592040E+03 -0.40354060433E+02  0.62599448819E+03  0.63755165135E+03  0.00000000000E+00 0. -1.
         21    1    1    2  505  503 -0.98628161148E+02  0.13389678224E+03  0.34202826276E+03  0.38031460003E+03  0.00000000000E+00 0.  1.
         21    1    1    2  506  504 -0.11085798914E+01 -0.13591094355E+03  0.55760333756E+02  0.14690891174E+03  0.00000000000E+00 0.  1.
<scales pt_clust_3="44.67473" pt_clust_4="126.60774" pt_clust_5="14000.00000" pt_clust_6="109.00548"></scales>
<clustering>
<clus scale="   44.675">  2  3  1 -1</clus>
<clus scale="  109.005">  2  6  1 -1</clus>
<clus scale="  126.608">  1  4  2 -1</clus>
<clus scale="  126.608">  1  3  2 -1</clus>
</clustering>
</event>
<event>
 6    0  0.4227619E+002  0.1034039E+03  0.7546771E-02  0.1273297E+00
         21   -1    0    0  503  501  0.00000000000E+00  0.00000000000E+00  0.56443739787E+03  0.56443739787E+03  0.00000000000E+00 0.  1.
         21   -1    0    0  505  502 -0.00000000000E+00 -0.00000000000E+00 -0.10441811233E+03  0.10441811233E+03  0.00000000000E+00 0. -1.
         21    1    1    2  503  502 -0.11388878757E+03  0.54404125333E+02  0.40628888143E+03  0.42544226396E+03  0.00000000000E+00 0.  1.
         21    1    1    2  504  501  0.74041975893E+01 -0.42946173893E+02  0.97662841339E+02  0.10694496983E+03  0.00000000000E+00 0. -1.
         21    1    1    2  505  506  0.21336077545E+02 -0.21223267048E+02 -0.40808224670E+02  0.50704698696E+02  0.00000000000E+00 0. -1.
         21    1    1    2  506  504  0.85148512436E+02  0.97653156077E+01 -0.31242125565E+01  0.85763577719E+02  0.00000000000E+00 0. -1.
<scales pt_clust_3="14000.00000" pt_clust_4="45.54210" pt_clust_5="30.09411" pt_clust_6="103.40386"></scales>
<clustering>
<clus scale="   30.094">  2  5  1 -1</clus>
<clus scale="   45.542">  1  4  2 -1</clus>
<clus scale="  103.404">  2  6  1 -1</clus>
<clus scale="   45.542">  1  3  2 -1</clus>
</clustering>
</event>
<event>
 6    0  0.4227619E+002  0.1165436E+03  0.7546771E-02  0.1248910E+00
         21   -1    0    0  506  501  0.00000000000E+00  0.00000000000E+00  0.25377039391E+03  0.25377039391E+03  0.00000000000E+00 0. -1.
         21   -1    0    0  504  502 -0.00000000000E+00 -0.00000000000E+00 -0.57441309753E+03  0.57441309753E+03  0.00000000000E+00 0.  1.
         21    1    1    2  503  505 -0.30261201796E+02 -0.71135142302E+02 -0.57978448095E+02  0.96630477842E+02  0.00000000000E+00 0.  1.
         21    1    1    2  504  503 -0.29428087416E+02  0.32838183024E+02 -0.10052746279E+03  0.10977308125E+03  0.00000000000E+00 0.  1.
         21    1    1    2  505  501 -0.49326014120E+02  0.10597215548E+03  0.20327943654E+03  0.23449026147E+03  0.00000000000E+00 0. -1.
         21    1    1    2  506  502  0.10901530333E+03 -0.67675196203E+02 -0.36541622928E+03  0.38728967087E+03  0.00000000000E+00 0.  1.
<scales pt_clust_3="74.51503" pt_clust_4="44.09488" pt_clust_5="116.54358" pt_clust_6="14000.00000"></scales>
<clustering>
<clus scale="   44.095">  2  4  1 -1</clus>
<clus scale="   74.515">  2  3  1 -1</clus>
<clus scale="  116.544">  1  5  2 -1</clus>
<clus scale="  116.544">  1  3  2 -1</clus>
</clustering>
</event>
<event>
 6    0  0.4227619E+002  0.6454167E+02  0.7546771E-02  0.1379704E+00
         21   -1    0    0  505  501  0.00000000000E+00  0.00000000000E+00  0.83649114077E+03  0.83649114077E+03  0.00000000000E+00 0. -1.
         21   -1    0    0  504  502 -0.00000000000E+00 -0.00000000000E+00 -0.77895654430E+02  0.77895654430E+02  0.00000000000E+00 0.  1.
         21    1    1    2  503  506 -0.65143360436E+02 -0.42742730437E+02  0.26680843076E+01  0.77959714520E+02  0.00000000000E+00 0.  1.
         21    1    1    2  504  501  0.37016716629E+02 -0.24946045239E+02  0.27261519569E+02  0.52304234362E+02  0.00000000000E+00 0.  1.
         21    1    1    2  505  503  0.64462014671E+02  0.10582312574E+01  0.70005136745E+03  0.70301378952E+03  0.00000000000E+00 0. -1.
         21    1    1    2  506  502 -0.36335370864E+02  0.66630544419E+02  0.28614515018E+02  0.81109056801E+02  0.00000000000E+00 0.  1.
<scales pt_clust_3="14000.00000" pt_clust_4="44.63790" pt_clust_5="64.54167" pt_clust_6="60.55044"></scales>
<clustering>
<clus scale="   44.638">  2  4  1 -1</clus>
<clus scale="   60.550">  2  6  1 -1</clus>
<clus scale="   64.542">  1  5  2 -1</clus>
<clus scale="   64.542">  1  3  2 -1</clus>
</clustering>
</event>
<event>
 6    0  0.4227619E+002  0.1268074E+03  0.7546771E-02  0.1232271E+00
         21   -1    0    0  506  501  0.00000000000E+00  0.00000000000E+00  0.88954516665E+02  0.88954516665E+02  0.00000000000E+00 0. -1.
         21   -1    0    0  503  502 -0.00000000000E+00 -0.00000000000E+00 -0.13443304477E+04  0.13443304477E+04  0.00000000000E+00 0. -1.
         21    1    1    2  503  504 -0.14887816759E+02  0.33706366236E+02 -0.49091715319E+03  0.49229809822E+03  0.00000000000E+00 0. -1.
         21    1    1    2  504  501  0.45643592044E+02  0.13319486926E+03 -0.27273572937E+03  0.30693482821E+03  0.00000000000E+00 0. -1.
         21    1    1    2  505  502  0.14736191567E+02 -0.51372616334E+02 -0.50623123901E+03  0.50904456426E+03  0.00000000000E+00 0. -1.
         21    1    1    2  506  505 -0.45491966852E+02 -0.11552861917E+03  0.14508190495E+02  0.12500747372E+03  0.00000000000E+00 0. -1.
<scales pt_clust_3="36.84788" pt_clust_4="126.80743" pt_clust_5="31.85290" pt_clust_6="14000.00000"></scales>
<clustering>
<clus scale="   36.848">  2  3  1 -1</clus>
<clus scale="   31.853">  2  5  1 -1</clus>
<clus scale="  126.807">  2  4  1 -1</clus>
<clus scale="  126.807">  1  3  2 -1</clus>
</clustering>
</event>
<event>
 6    0  0.4227619E+002  0.1074326E+03  0.7546771E-02  0.1265400E+00
         21   -1    0    0  502  501  0.00000000000E+00  0.00000000000E+00  0.10330942726E+03  0.10330942726E+03  0.00000000000E+00 0.  1.
         21   -1    0    0  506  502 -0.00000000000E+00 -0.00000000000E+00 -0.21326093766E+04  0.21326093766E+04  0.00000000000E+00 0.  1.
         21    1    1    2  503  504 -0.81376370215E+02  0.53743701645E+01 -0.13415331966E+03  0.15699716768E+03  0.00000000000E+00 0. -1.
         21    1    1    2  504  501 -0.31674138760E+02 -0.47885697356E+02  0.75438966327E+02  0.94801522762E+02  0.00000000000E+00 0.  1.
         21    1    1    2  505  503  0.10183685822E+03  0.10481375199E+03 -0.91117431674E+03  0.92281921512E+03  0.00000000000E+00 0.  1.
         21    1    1    2  506  505  0.11213650751E+02 -0.62302424796E+02 -0.10594112792E+04  0.10613008983E+04  0.00000000000E+00 0.  1.
<scales pt_clust_3="14000.00000" pt_clust_4="57.41334" pt_clust_5="107.43261" pt_clust_6="65.49251"></scales>
<clustering>
<clus scale="   57.413">  1  4  2 -1</clus>
<clus scale="   65.493">  2  6  1 -1</clus>
<clus scale="  107.433">  2  5  1 -1</clus>
<clus scale="   57.413">  1  3  2 -1</clus>
</clustering>
</event>
<event>
 6    0  0.4227619E+002  0.1339628E+03  0.7546771E-02  0.1221691E+00
         21   -1    0    0  505  501  0.00000000000E+00  0.00000000000E+00  0.22056741866E+03  0.22056741866E+03  0.00000000000E+00 0. -1.
         21   -1    0    0  506  502 -0.00000000000E+00 -0.00000000000E+00 -0.10804530229E+03  0.10804530229E+03  0.00000000000E+00 0. -1.
         21    1    1    2  503  504  0.60829551341E+02 -0.12049937500E+02  0.17339305167E+02  0.64390114255E+02  0.00000000000E+00 0. -1.
         21    1    1    2  504  502  0.35862868196E+02  0.45647632208E+02  0.32679042599E+00  0.58051343080E+02  0.00000000000E+00 0. -1.
         21    1    1    2  505  503  0.30556952260E+02  0.17970037581E+02  0.50856568602E+02  0.61992258807E+02  0.00000000000E+00 0.  1.
         21    1    1    2  506  501 -0.12724937180E+03 -0.51567732289E+02  0.43999452178E+02  0.14417900481E+03  0.00000000000E+00 0. -1.
<scales pt_clust_3="62.47388" pt_clust_4="62.47388" pt_clust_5="35.44925" pt_clust_6="117.23671"></scales>
<clustering>
<clus scale="   35.449">  1  5  2 -1</clus>
<clus scale="   62.474">  3  4 -1 -1</clus>
<clus scale="  117.237">  1  6  2 -1</clus>
<clus scale="   35.449">  1  3  2 -1</clus>
</clustering>
</event>
<event>
 6    0  0.4227619E+002  0.1176575E+03  0.7546771E-02  0.1247012E+00
         21   -1    0    0  505  501  0.00000000000E+00  0.00000000000E+00  0.20418616588E+04  0.20418616588E+04  0.00000000000E+00 0. -1.
         21   -1    0    0  506  502 -0.00000000000E+00 -0.00000000000E+00 -0.19145393910E+03  0.19145393910E+03  0.00000000000E+00 0. -1.
         21    1    1    2  503  502 -0.75028478721E+02 -0.10011924115E+03  0.90061768871E+02  0.15415659986E+03  0.00000000000E+00 0.  1.
         21    1    1    2  504  501  0.12943325180E+03 -0.52666645802E+00  0.22225092744E+02  0.13132859093E+03  0.00000000000E+00 0. -1.
         21    1    1    2  505  503 -0.63452325766E+02  0.67546557149E+02  0.18389699036E+04  0.18413036255E+04  0.00000000000E+00 0. -1.
         21    1    1    2  506  504  0.90475526908E+01  0.33099350461E+02 -0.10084904552E+03  0.10652678157E+03  0.00000000000E+00 0. -1.
<scales pt_clust_3="117.65750" pt_clust_4="14000.00000" pt_clust_5="92.91462" pt_clust_6="34.31363"></scales>
<clustering>
<clus scale="   34.314">  2  6  1 -1</clus>
<clus scale="   92.915">  1  5  2 -1</clus>
<clus scale="  117.658">  1  3  2 -1</clus>
<clus scale="   92.915">  1  3  2 -1</clus>
</clustering>
</event>
<event>
 6    0  0.4227619E+002  0.2358231E+03  0.7546771E-02  0.1122607E+00
         21   -1    0    0  505  501  0.00000000000E+00  0.00000000000E+00  0.71877389469E+03  0.71877389469E+03  0.00000000000E+00 0. -1.
         21   -1    0    0  506  502 -0.00000000000E+00 -0.00000000000E+00 -0.11373320168E+04  0.11373320168E+04  0.00000000000E+00 0.  1.
         21    1    1    2  503  502  0.23502192206E+03 -0.36075393521E+02 -0.76444262042E+03  0.80056808441E+03  0.00000000000E+00 0.  1.
         21    1    1    2  504  503  0.34229830854E+02  0.30536132110E+02 -0.47918855992E+02  0.66335159939E+02  0.00000000000E+00 0.  1.
         21    1    1    2  505  504 -0.35882376107E+02  0.10683721869E+02  0.64511940522E+03  0.64620486985E+03  0.00000000000E+00 0. -1.
         21    1    1    2  506  501 -0.23336937680E+03 -0.51444604573E+01 -0.25131605094E+03  0.34299779732E+03  0.00000000000E+00 0. -1.
<scales pt_clust_3="235.82305" pt_clust_4="43.57937" pt_clust_5="37.43911" pt_clust_6="14000.00000"></scales>
<clustering>
<clus scale="   37.439">  1  5  2 -1</clus>
<clus scale="   43.579">  1  4  2 -1</clus>
<clus scale="  235.823">  2  3  1 -1</clus>
<clus scale="   37.439">  1  3  2 -1</clus>
</clustering>
</event>
<event>
 6    0  0.4227619E+002  0.1031720E+03  0.7546771E-02  0.1273764E+00
         21   -1    0    0  503  501  0.00000000000E+00  0.00000000000E+00  0.33704775277E+03  0.33704775277E+03  0.00000000000E+00 0.  1.
         21   -1    0    0  504  502 -0.00000000000E+00 -0.00000000000E+00 -0.13397584861E+04  0.13397584861E+04  0.00000000000E+00 0.  1.
         21    1    1    2  503  502  0.27824588743E+02 -0.75633284046E+02 -0.64627021452E+03  0.65127551126E+03  0.00000000000E+00 0.  1.
         21    1    1    2  504  505 -0.10324945419E+02  0.66753325581E+02 -0.37957855029E+03  0.38554180943E+03  0.00000000000E+00 0.  1.
         21    1    1    2  505  506 -0.10201510251E+02  0.86901114546E+02 -0.29740367962E+03  0.31000777921E+03  0.00000000000E+00 0.  1.
         21    1    1    2  506  501 -0.72981330730E+01 -0.78021156081E+02  0.32054171109E+03  0.32998113899E+03  0.00000000000E+00 0.  1.
<scales pt_clust_3="95.87071" pt_clust_4="33.49481" pt_clust_5="33.49481" pt_clust_6="78.36175"></scales>
<clustering>
<clus scale="   33.495">  4  5 -1 -1</clus>
<clus scale="   78.362">  1  6  2 -1</clus>
<clus scale="   95.871">  2  3  1 -1</clus>
<clus scale="   78.362">  1  3  2 -1</clus>
</clustering>
</event>
<event>
 6    0  0.4227619E+002  0.8485664E+02  0.7546771E-02  0.1315808E+00
         21   -1    0    0  503  501  0.00000000000E+00  0.00000000000E+00  0.55657303646E+03  0.55657303646E+03  0.00000000000E+00 0. -1.
         21   -1    0    0  504  502 -0.00000000000E+00 -0.00000000000E+00 -0.75970369456E+02  0.75970369456E+02  0.00000000000E+00 0. -1.
         21    1    1    2  503  506 -0.78977668184E+02  0.44310968943E+02  0.37215139628E+03  0.38301122150E+03  0.00000000000E+00 0. -1.
         21    1    1    2  504  505  0.10517513157E+03 -0.20640953564E+02  0.18449557109E+02  0.10875772810E+03  0.00000000000E+00 0. -1.
         21    1    1    2  505  501 -0.42994243691E+00 -0.54234534242E+02  0.84517659925E+02  0.10042312679E+03  0.00000000000E+00 0. -1.
         21    1    1    2  506  502 -0.25767520950E+02  0.30564518863E+02  0.54840536868E+01  0.40351329520E+02  0.00000000000E+00 0. -1.
<scales pt_clust_3="14000.00000" pt_clust_4="84.85664" pt_clust_5="50.23609" pt_clust_6="39.97693"></scales>
<clustering>
<clus scale="   39.977">  2  6  1 -1</clus>
<clus scale="   50.236">  1  5  2 -1</clus>
<clus scale="   84.857">  2  4  1 -1</clus>
<clus scale="   50.236">  1  3  2 -1</clus>
</clustering>
</event>
<event>
 6    0  0.4227619E+002  0.8288246E+02  0.7546771E-02  0.1321065E+00
         21   -1    0    0  503  501  0.00000000000E+00  0.00000000000E+00  0.50873010376E+02  0.50873010376E+02  0.00000000000E+00 0. -1.
         21   -1    0    0  506  502 -0.00000000000E+00 -0.00000000000E+00 -0.52933456948E+03  0.52933456948E+03  0.00000000000E+00 0. -1.
         21    1    1    2  503  504 -0.17693549487E+01  0.58650801965E+02 -0.48407768814E+02  0.76068122559E+02  0.00000000000E+00 0. -1.
         21    1    1    2  504  502 -0.17672307544E+02  0.39498182745E+02 -0.24954610392E+03  0.25326996441E+03  0.00000000000E+00 0. -1.
         21    1    1    2  505  501 -0.31595514807E+02  0.16425567395E+02 -0.62327906629E+01  0.36151396925E+02  0.00000000000E+00 0. -1.
         21    1    1    2  506  505  0.51037177300E+02 -0.11457455211E+03 -0.17427489571E+03  0.21471809596E+03  0.00000000000E+00 0. -1.
<scales pt_clust_3="82.88246" pt_clust_4="44.73246" pt_clust_5="35.61005" pt_clust_6="14000.00000"></scales>
<clustering>
<clus scale="   35.610">  1  5  2 -1</clus>
<clus scale="   44.732">  2  4  1 -1</clus>
<clus scale="   82.882">  1  3  2 -1</clus>
<clus scale="   35.610">  1  3  2 -1</clus>
</clustering>
</event>
<event>
 6    0  0.4227619E+002  0.1353399E+03  0.7546771E-02  0.1219741E+00
         21   -1    0    0  503  501  0.00000000000E+00  0.00000000000E+00  0.24575560792E+03  0.24575560792E+03  0.00000000000E+00 0. -1.
         21   -1    0    0  506  502 -0.00000000000E+00 -0.00000000000E+00 -0.26944257403E+03  0.26944257403E+03  0.00000000000E+00 0. -1.
         21    1    1    2  503  502  0.16471534432E+03  0.20797955163E+02 -0.14511446389E+02  0.16665617801E+03  0.00000000000E+00 0. -1.
         21    1    1    2  504  501 -0.12411423166E+03  0.32690306626E+02  0.11486054960E+03  0.17223804603E+03  0.00000000000E+00 0. -1.
         21    1    1    2  505  504 -0.13860533724E+02 -0.39865002969E+02  0.61964713885E+01  0.42658283070E+02  0.00000000000E+00 0.  1.
         21    1    1    2  506  505 -0.26740578939E+02 -0.13623258819E+02 -0.13023254071E+03  0.13364567484E+03  0.00000000000E+00 0. -1.
<scales pt_clust_3="14000.00000" pt_clust_4="135.33990" pt_clust_5="45.16037" pt_clust_6="30.01086"></scales>
<clustering>
<clus scale="   30.011">  2  6  1 -1</clus>
<clus scale="   45.160">  2  5  1 -1</clus>
<clus scale="  135.340">  1  4  2 -1</clus>
<clus scale="  135.340">  1  3  2 -1</clus>
</clustering>
</event>
<event>
 6    0  0.4227619E+002  0.1015022E+03  0.7546771E-02  0.1277168E+00
         21   -1    0    0  503  501  0.00000000000E+00  0.00000000000E+00  0.37804980923E+03  0.37804980923E+03  0.00000000000E+00 0. -1.
         21   -1    0    0  505  502 -0.00000000000E+00 -0.00000000000E+00 -0.35966030928E+03  0.35966030928E+03  0.00000000000E+00 0.  1.
         21    1    1    2  503  504 -0.22708732664E+02  0.34050648214E+02  0.13004809906E+03  0.13633650008E+03  0.00000000000E+00 0. -1.
         21    1    1    2  504  502 -0.27810302047E+02 -0.52928661893E+02  0.25996579197E+02  0.65197226012E+02  0.00000000000E+00 0. -1.
         21    1    1    2  505  506  0.84879166181E+01  0.10206035701E+03 -0.31750494618E+03  0.33361317727E+03  0.00000000000E+00 0.  1.
         21    1    1    2  506  501  0.42031118092E+02 -0.83182343326E+02  0.17984976787E+03  0.20256321515E+03  0.00000000000E+00 0. -1.
<scales pt_clust_3="40.92839" pt_clust_4="56.54137" pt_clust_5="14000.00000" pt_clust_6="101.50219"></scales>
<clustering>
<clus scale="   40.928">  1  3  2 -1</clus>
<clus scale="   56.541">  1  4  2 -1</clus>
<clus scale="  101.502">  1  6  2 -1</clus>
<clus scale="   40.928">  1  3  2 -1</clus>
</clustering>
</event>
<event>
 6    0  0.4227619E+002  0.1367778E+03  0.7546771E-02  0.1217732E+00
         21   -1    0    0  504  501  0.00000000000E+00  0.00000000000E+00  0.36217984281E+03  0.36217984281E+03  0.00000000000E+00 0.  1.
         21   -1    0    0  505  502 -0.00000000000E+00 -0.00000000000E+00 -0.44921318918E+03  0.44921318918E+03  0.00000000000E+00 0. -1.
         21    1    1    2  503  501 -0.33623152944E+02  0.12388435863E+03  0.29753165369E+03  0.32404156473E+03  0.00000000000E+00 0.  1.
         21    1    1    2  504  506 -0.37220511560E+02 -0.26044004045E+01  0.21940162850E+02  0.43284178728E+02  0.00000000000E+00 0. -1.
         21    1    1    2  505  503  0.39065342444E+02 -0.89560660701E+02 -0.37904482580E+03  0.39143606488E+03  0.00000000000E+00 0. -1.
         21    1    1    2  506  502  0.31778322060E+02 -0.31719297528E+02 -0.27460337104E+02  0.52631223646E+02  0.00000000000E+00 0.  1.
<scales pt_clust_3="14000.00000" pt_clust_4="37.31152" pt_clust_5="136.77778" pt_clust_6="43.97701"></scales>
<clustering>
<clus scale="   37.312">  1  4  2 -1</clus>
<clus scale="   43.977">  2  6  1 -1</clus>
<clus scale="  136.778">  2  5  1 -1</clus>
<clus scale="   37.312">  1  3  2 -1</clus>
</clustering>
</event>
<event>
 6    0  0.4227619E+002  0.1158265E+03  0.7546771E-02  0.1250145E+00
         21   -1    0    0  506  501  0.00000000000E+00  0.00000000000E+00  0.26222136308E+02  0.26222136308E+02  0.00000000000E+00 0.  1.
         21   -1    0    0  505  502 -0.00000000000E+00 -0.00000000000E+00 -0.19102473286E+04  0.19102473286E+04  0.00000000000E+00 0.  1.
         21    1    1    2  503  504  0.44297550492E+02  0.72474247025E+02 -0.13265297267E+03  0.15751698517E+03  0.00000000000E+00 0.  1.
         21    1    1    2  504  502  0.10373354053E+02 -0.57695219787E+02 -0.12050210315E+04  0.12064460333E+04  0.00000000000E+00 0.  1.
         21    1    1    2  505  501 -0.53545118648E+02 -0.50276336194E+02 -0.52693684969E+03  0.53203123336E+03  0.00000000000E+00 0.  1.
         21    1    1    2  506  503 -0.11257858969E+01  0.35497308955E+02 -0.19414338417E+02  0.40475213071E+02  0.00000000000E+00 0.  1.
<scales pt_clust_3="32.68347" pt_clust_4="58.62035" pt_clust_5="104.21606" pt_clust_6="32.68347"></scales>
<clustering>
<clus scale="   32.683">  3  6 -1 -1</clus>
<clus scale="   58.620">  2  4  1 -1</clus>
<clus scale="  104.216">  2  5  1 -1</clus>
<clus scale="  115.826">  1  3  2 -1</clus>
</clustering>
</event>
<event>
 6    0  0.4227619E+002  0.9671369E+02  0.7546771E-02  0.1287362E+00
         21   -1    0    0  506  501  0.00000000000E+00  0.00000000000E+00  0.54355371478E+03  0.54355371478E+03  0.00000000000E+00 0.  1.
         21   -1    0    0  504  502 -0.00000000000E+00 -0.00000000000E+00 -0.16914040213E+03  0.16914040213E+03  0.00000000000E+00 0.  1.
         21    1    1    2  503  501 -0.11413128531E+03 -0.11398228249E+02  0.24483773146E+03  0.27037267732E+03  0.00000000000E+00 0.  1.
         21    1    1    2  504  503  0.97048011666E+02  0.15417348285E+01  0.34300663587E+01  0.97120846732E+02  0.00000000000E+00 0.  1.
         21    1    1    2  505  502 -0.11768381608E+02  0.39339879628E+02 -0.10377769167E+03  0.11160613882E+03  0.00000000000E+00 0.  1.
         21    1    1    2  506  505  0.28851655256E+02 -0.29483386208E+02  0.22992320649E+03  0.23359445404E+03  0.00000000000E+00 0.  1.
<scales pt_clust_3="96.71369" pt_clust_4="14000.00000" pt_clust_5="41.06240" pt_clust_6="40.16977"></scales>
<clustering>
<clus scale="   41.062">  2  5  1 -1</clus>
<clus scale="   40.170">  1  6  2 -1</clus>
<clus scale="   96.714">  1  3  2 -1</clus>
<clus scale="   40.170">  1  3  2 -1</clus>
</clustering>
</event>
<event>
 6    0  0.4227619E+002  0.1397690E+03  0.7546771E-02  0.1213640E+00
         21   -1    0    0  503  501  0.00000000000E+00  0.00000000000E+00  0.23836410132E+03  0.23836410132E+03  0.00000000000E+00 0.  1.
         21   -1    0    0  506  502 -0.00000000000E+00 -0.00000000000E+00 -0.13233132694E+04  0.13233132694E+04  0.00000000000E+00 0. -1.
         21    1    1    2  503  505  0.14462021933E+03 -0.22995186812E+02  0.87565819021E+02  0.17062109810E+03  0.00000000000E+00 0.  1.
         21    1    1    2  504  501 -0.50841392430E+02 -0.21291881718E+02  0.50255999512E+01  0.55348424243E+02  0.00000000000E+00 0.  1.
         21    1    1    2  505  502 -0.10751269894E+03 -0.92649086424E+02 -0.11891559702E+04  0.11975954054E+04  0.00000000000E+00 0. -1.
         21    1    1    2  506  504  0.13733872037E+02  0.13693615495E+03  0.11615383133E+02  0.13811244296E+03  0.00000000000E+00 0. -1.
<scales pt_clust_3="118.74474" pt_clust_4="55.11979" pt_clust_5="139.76901" pt_clust_6="14000.00000"></scales>
<clustering>
<clus scale="   55.120">  1  4  2 -1</clus>
<clus scale="  118.745">  1  3  2 -1</clus>
<clus scale="  139.769">  2  5  1 -1</clus>
<clus scale="   55.120">  1  3  2 -1</clus>
</clustering>
</event>
<event>
 6    0  0.4227619E+002  0.1739120E+03  0.7546771E-02  0.1173829E+00
         21   -1    0    0  503  501  0.00000000000E+00  0.00000000000E+00  0.11958412466E+04  0.11958412466E+04  0.00000000000E+00 0.  1.
         21   -1    0    0  504  502 -0.00000000000E+00 -0.00000000000E+00 -0.19200910359E+03  0.19200910359E+03  0.00000000000E+00 0. -1.
         21    1    1    2  503  505  0.11031514491E+03  0.11470562475E+03  0.69507541707E+03  0.71306146086E+03  0.00000000000E+00 0.  1.
         21    1    1    2  504  506 -0.51182312605E+02  0.36232316707E+02 -0.99617376155E+02  0.11771164568E+03  0.00000000000E+00 0.  1.
         21    1    1    2  505  502 -0.12575971381E+03 -0.93491696273E+02  0.18956765200E+02  0.15784664024E+03  0.00000000000E+00 0. -1.
         21    1    1    2  506  501  0.66626881498E+02 -0.57446245185E+02  0.38941733685E+03  0.39923060337E+03  0.00000000000E+00 0. -1.
<scales pt_clust_3="173.91197" pt_clust_4="62.70893" pt_clust_5="14000.00000" pt_clust_6="84.29858"></scales>
<clustering>
<clus scale="   62.709">  2  4  1 -1</clus>
<clus scale="   84.299">  1  6  2 -1</clus>
<clus scale="  173.912">  1  3  2 -1</clus>
<clus scale="   84.299">  1  3  2 -1</clus>
</clustering>
</event>
<event>
 6    0  0.4227619E+002  0.9272130E+02  0.7546771E-02  0.1296392E+00
         21   -1    0    0  505  501  0.00000000000E+00  0.00000000000E+00  0.12031122655E+03  0.12031122655E+03  0.00000000000E+00 0.  1.
         21   -1    0    0  506  502 -0.00000000000E+00 -0.00000000000E+00 -0.34928471385E+03  0.34928471385E+03  0.00000000000E+00 0.  1.
         21    1    1    2  503  502  0.14944857343E+02 -0.11779907891E+03 -0.97767632092E+02  0.15381313870E+03  0.00000000000E+00 0.  1.
         21    1    1    2  504  503  0.14549678960E+02  0.38408481932E+02  0.22646014857E+02  0.46901456598E+02  0.00000000000E+00 0.  1.
         21    1    1    2  505  504  0.31623561996E+02  0.14410392061E+02  0.41497675298E+02  0.54127314064E+02  0.00000000000E+00 0. -1.
         21    1    1    2  506  501 -0.61118098298E+02  0.64980204918E+02 -0.19534954537E+03  0.21475403104E+03  0.00000000000E+00 0.  1.
<scales pt_clust_3="92.72130" pt_clust_4="78.05382" pt_clust_5="31.47182" pt_clust_6="14000.00000"></scales>
<clustering>
<clus scale="   31.472">  4  5 -1 -1</clus>
<clus scale="   78.054">  1  4  2 -1</clus>
<clus scale="   92.721">  1  3  2 -1</clus>
<clus scale="   78.054">  1  3  2 -1</clus>
</clustering>
</event>
<event>
 6    0  0.4227619E+002  0.8454971E+02  0.7546771E-02  0.1316614E+00
         21   -1    0    0  505  501  0.00000000000E+00  0.00000000000E+00  0.96899850701E+02  0.96899850701E+02  0.00000000000E+00 0.  1.
         21   -1    0    0  501  502 -0.00000000000E+00 -0.00000000000E+00 -0.40780164829E+03  0.40780164829E+03  0.00000000000E+00 0.  1.
         21    1    1    2  503  502 -0.33589842706E+02  0.62452515520E+02 -0.82067736654E+02  0.10846062708E+03  0.00000000000E+00 0.  1.
         21    1    1    2  504  506  0.11202452723E+03  0.19127381903E+02 -0.31929326740E+02  0.11804589508E+03  0.00000000000E+00 0.  1.
         21    1    1    2  505  504 -0.35288380425E+02 -0.82513065593E+01  0.22646956424E+02  0.42734511676E+02  0.00000000000E+00 0.  1.
         21    1    1    2  506  503 -0.43146304099E+02 -0.73328590863E+02 -0.21955169062E+03  0.23546046515E+03  0.00000000000E+00 0.  1.
<scales pt_clust_3="73.20845" pt_clust_4="14000.00000" pt_clust_5="36.24022" pt_clust_6="84.54971"></scales>
<clustering>
<clus scale="   36.240">  1  5  2 -1</clus>
<clus scale="   73.208">  2  3  1 -1</clus>
<clus scale="   84.550">  2  6  1 -1</clus>
<clus scale="   36.240">  1  3  2 -1</clus>
</clustering>
</event>
<event>
 6    0  0.4227619E+002  0.6945720E+02  0.7546771E-02  0.1361949E+00
         21   -1    0    0  506  501  0.00000000000E+00  0.00000000000E+00  0.10291762688E+04  0.10291762688E+04  0.00000000000E+00 0. -1.
         21   -1    0    0  503  502 -0.00000000000E+00 -0.00000000000E+00 -0.43874642086E+03  0.43874642086E+03  0.00000000000E+00 0. -1.
         21    1    1    2  503  505  0.37762097023E+02 -0.56080299259E+01 -0.41410053228E+03  0.41585655797E+03  0.00000000000E+00 0. -1.
         21    1    1    2  504  501  0.66339298325E+01  0.54924871884E+02  0.73604524563E+03  0.73812150367E+03  0.00000000000E+00 0. -1.
         21    1    1    2  505  504  0.52016236642E+02 -0.37169480971E+02  0.12865954784E+03  0.14366815388E+03  0.00000000000E+00 0. -1.
         21    1    1    2  506  502 -0.96412263498E+02 -0.12147360987E+02  0.13982558679E+03  0.17027647416E+03  0.00000000000E+00 0. -1.
<scales pt_clust_3="38.17625" pt_clust_4="55.30377" pt_clust_5="69.45720" pt_clust_6="14000.00000"></scales>
<clustering>
<clus scale="   38.176">  2  3  1 -1</clus>
<clus scale="   55.304">  1  4  2 -1</clus>
<clus scale="   69.457">  1  5  2 -1</clus>
<clus scale="   55.304">  1  3  2 -1</clus>
</clustering>
</event>
<event>
 6    0  0.4227619E+002  0.1872267E+03  0.7546771E-02  0.1160987E+00
         21   -1    0    0  504  501  0.00000000000E+00  0.00000000000E+00  0.12572911527E+03  0.12572911527E+03  0.00000000000E+00 0. -1.
         21   -1    0    0  506  502 -0.00000000000E+00 -0.00000000000E+00 -0.20065201220E+04  0.20065201220E+04  0.00000000000E+00 0. -1.
         21    1    1    2  503  501  0.91728424067E+02 -0.78453341112E+02  0.29871784483E+02  0.12434369313E+03  0.00000000000E+00 0. -1.
         21    1    1    2  504  502 -0.64315613147E+02  0.12043701613E+03 -0.14016561635E+03  0.19567312783E+03  0.00000000000E+00 0. -1.
         21    1    1    2  505  503  0.49804375390E+02 -0.53004522195E+02 -0.46184812933E+02  0.86156788048E+02  0.00000000000E+00 0. -1.
         21    1    1    2  506  505 -0.77217186310E+02  0.11020847179E+02 -0.17243123620E+04  0.17260756283E+04  0.00000000000E+00 0. -1.
<scales pt_clust_3="63.68917" pt_clust_4="168.29205" pt_clust_5="63.68917" pt_clust_6="77.99970"></scales>
<clustering>
<clus scale="   63.689">  3  5 -1 -1</clus>
<clus scale="   78.000">  2  6  1 -1</clus>
<clus scale="  168.292">  2  4  1 -1</clus>
<clus scale="  187.227">  1  3  2 -1</clus>
</clustering>
</event>
<event>
 6    0  0.4227620E+002  0.8916043E+02  0.7546771E-02  0.1304898E+00
         21   -1    0    0  503  501  0.00000000000E+00  0.00000000000E+00  0.42108689739E+03  0.42108689739E+03  0.00000000000E+00 0.  1.
         21   -1    0    0  506  502 -0.00000000000E+00 -0.00000000000E+00 -0.13338624288E+04  0.13338624288E+04  0.00000000000E+00 0. -1.
         21    1    1    2  503  504  0.34638669390E+02  0.71121342578E+02 -0.77737533388E+03  0.78139010264E+03  0.00000000000E+00 0. -1.
         21    1    1    2  504  502  0.47392238890E+02  0.10076312428E+02 -0.58535162595E+02  0.75986325344E+02  0.00000000000E+00 0.  1.
         21    1    1    2  505  501  0.27274237339E+02 -0.65793614374E+02  0.40092256197E+03  0.40719968617E+03  0.00000000000E+00 0.  1.
         21    1    1    2  506  505 -0.10930514562E+03 -0.15404040632E+02 -0.47778759690E+03  0.49037321204E+03  0.00000000000E+00 0. -1.
<scales pt_clust_3="14000.00000" pt_clust_4="48.45159" pt_clust_5="71.24478" pt_clust_6="89.16043"></scales>
<clustering>
<clus scale="   48.452">  2  4  1 -1</clus>
<clus scale="   71.245">  1  5  2 -1</clus>
<clus scale="   89.160">  1  6  2 -1</clus>
<clus scale="   71.245">  1  3  2 -1</clus>
</clustering>
</event>
<event>
 6    0  0.4227619E+002  0.3158582E+03  0.7546771E-02  0.1077571E+00
         21   -1    0    0  505  501  0.00000000000E+00  0.00000000000E+00  0.11661395408E+04  0.11661395408E+04  0.00000000000E+00 0.  1.
         21   -1    0    0  506  502 -0.00000000000E+00 -0.00000000000E+00 -0.65617060511E+03  0.65617060511E+03  0.00000000000E+00 0. -1.
         21    1    1    2  503  501 -0.28254169960E+03 -0.11115470183E+03  0.46280861215E+03  0.55351331622E+03  0.00000000000E+00 0.  1.
         21    1    1    2  504  503  0.29010540359E+03  0.97970120404E+01 -0.18584960844E+03  0.34466970217E+03  0.00000000000E+00 0. -1.
         21    1    1    2  505  502 -0.40235779366E+02  0.59644936035E+02  0.57427950305E+03  0.57876885193E+03  0.00000000000E+00 0.  1.
         21    1    1    2  506  504  0.32672075378E+02  0.41712753757E+02 -0.34126957110E+03  0.34535827555E+03  0.00000000000E+00 0. -1.
<scales pt_clust_3="315.85822" pt_clust_4="14000.00000" pt_clust_5="72.06537" pt_clust_6="52.98508"></scales>
<clustering>
<clus scale="   52.985">  2  6  1 -1</clus>
<clus scale="   72.065">  1  5  2 -1</clus>
<clus scale="  315.858">  1  3  2 -1</clus>
<clus scale="   72.065">  1  3  2 -1</clus>
</clustering>
</event>
<event>
 6    0  0.4227619E+002  0.1359793E+03  0.7546771E-02  0.1218844E+00
         21   -1    0    0  503  501  0.00000000000E+00  0.00000000000E+00  0.31245332386E+03  0.31245332386E+03  0.00000000000E+00 0. -1.
         21   -1    0    0  506  502 -0.00000000000E+00 -0.00000000000E+00 -0.15563199678E+03  0.15563199678E+03  0.00000000000E+00 0.  1.
         21    1    1    2  503  505 -0.29955704590E+02 -0.19443503001E+01  0.19808486318E+03  0.20034654416E+03  0.00000000000E+00 0. -1.
         21    1    1    2  504  502 -0.46402920762E+02 -0.45837946098E+02  0.69861663778E+01  0.65598436554E+02  0.00000000000E+00 0.  1.
         21    1    1    2  505  504 -0.55522359530E+02  0.48798551186E+01 -0.13900392176E+01  0.55753722770E+02  0.00000000000E+00 0.  1.
         21    1    1    2  506  501  0.13188098488E+03  0.42902441280E+02 -0.46859663258E+02  0.14638661715E+03  0.00000000000E+00 0.  1.
<scales pt_clust_3="30.01874" pt_clust_4="47.65610" pt_clust_5="47.65610" pt_clust_6="125.94313"></scales>
<clustering>
<clus scale="   30.019">  1  3  2 -1</clus>
<clus scale="   47.656">  4  5 -1 -1</clus>
<clus scale="  125.943">  2  6  1 -1</clus>
<clus scale="   30.019">  1  3  2 -1</clus>
</clustering>
</event>
<event>
 6    0  0.4227619E+002  0.9312605E+02  0.7546771E-02  0.1295453E+00
         21   -1    0    0  506  501  0.00000000000E+00  0.00000000000E+00  0.56123933033E+03  0.56123933033E+03  0.00000000000E+00 0. -1.
         21   -1    0    0  504  502 -0.00000000000E+00 -0.00000000000E+00 -0.32356931034E+03  0.32356931034E+03  0.00000000000E+00 0.  1.
         21    1    1    2  503  505 -0.80655181595E+01  0.70329792466E+02 -0.39861435752E+02  0.81242023311E+02  0.00000000000E+00 0.  1.
         21    1    1    2  504  503 -0.52197021326E+02  0.33576920575E+01 -0.17121468549E+03  0.17902589661E+03  0.00000000000E+00 0.  1.
         21    1    1    2  505  501  0.63650596451E+02 -0.11260069242E+03 -0.39105460270E+02  0.13512790750E+03  0.00000000000E+00 0.  1.
         21    1    1    2  506  502 -0.33880569651E+01  0.38913207896E+02  0.48785160150E+03  0.48941281324E+03  0.00000000000E+00 0. -1.
<scales pt_clust_3="14000.00000" pt_clust_4="52.66213" pt_clust_5="93.12605" pt_clust_6="39.06042"></scales>
<clustering>
<clus scale="   39.060">  1  6  2 -1</clus>
<clus scale="   52.662">  2  4  1 -1</clus>
<clus scale="   93.126">  1  5  2 -1</clus>
<clus scale="   39.060">  1  3  2 -1</clus>
</clustering>
</event>
<event>
 6    0  0.4227619E+002  0.9725835E+02  0.7546771E-02  0.1286169E+00
         21   -1    0    0  504  501  0.00000000000E+00  0.00000000000E+00  0.37177996816E+03  0.37177996816E+03  0.00000000000E+00 0.  1.
         21   -1    0    0  506  502 -0.00000000000E+00 -0.00000000000E+00 -0.44510728563E+03  0.44510728563E+03  0.00000000000E+00 0.  1.
         21    1    1    2  503  502 -0.17465090726E+02 -0.37791529888E+02 -0.92027900144E+02  0.10100674992E+03  0.00000000000E+00 0.  1.
         21    1    1    2  504  505 -0.63125231901E+02 -0.73503208034E+02  0.31531710053E+03  0.32986723145E+03  0.00000000000E+00 0.  1.
         21    1    1    2  505  503  0.97455766711E+02  0.48244816024E+02 -0.31836885560E+02  0.11330832282E+03  0.00000000000E+00 0.  1.
         21    1    1    2  506  501 -0.16865444083E+02  0.63049921898E+02 -0.26477963230E+03  0.27270494960E+03  0.00000000000E+00 0.  1.
<scales pt_clust_3="41.63207" pt_clust_4="14000.00000" pt_clust_5="97.25835" pt_clust_6="45.49866"></scales>
<clustering>
<clus scale="   41.632">  2  3  1 -1</clus>
<clus scale="   45.499">  2  6  1 -1</clus>
<clus scale="   97.258">  2  5  1 -1</clus>
<clus scale="   97.258">  1  3  2 -1</clus>
</clustering>
</event>
<event>
 6    0  0.4227619E+002  0.1693999E+03  0.7546771E-02  0.1178475E+00
         21   -1    0    0  504  501  0.00000000000E+00  0.00000000000E+00  0.94985998199E+02  0.94985998199E+02  0.00000000000E+00 0.  1.
         21   -1    0    0  506  502 -0.00000000000E+00 -0.00000000000E+00 -0.10374112784E+04  0.10374112784E+04  0.00000000000E+00 0.  1.
         21    1    1    2  503  502 -0.13426124752E+03 -0.95378750637E+02 -0.57596486156E+03  0.59904817036E+03  0.00000000000E+00 0.  1.
         21    1    1    2  504  505 -0.17373502294E+02  0.76095236338E+02  0.89504254159E+01  0.78564837494E+02  0.00000000000E+00 0.  1.
         21    1    1    2  505  503  0.20076804955E+03  0.12597926414E+02 -0.33526161052E+03  0.39098192409E+03  0.00000000000E+00 0.  1.
         21    1    1    2  506  501 -0.49133299741E+02  0.66855878852E+01 -0.40149233488E+02  0.63802344616E+02  0.00000000000E+00 0.  1.
<scales pt_clust_3="169.39985" pt_clust_4="90.59148" pt_clust_5="14000.00000" pt_clust_6="49.58607"></scales>
<clustering>
<clus scale="   49.586">  1  6  2 -1</clus>
<clus scale="   90.591">  1  4  2 -1</clus>
<clus scale="  169.400">  2  3  1 -1</clus>
<clus scale="   49.586">  1  3  2 -1</clus>
</clustering>
</event>
<event>
 6    0  0.4227619E+002  0.1100754E+03  0.7546771E-02  0.1260430E+00
         21   -1    0    0  503  501  0.00000000000E+00  0.00000000000E+00  0.26518055626E+03  0.26518055626E+03  0.00000000000E+00 0.  1.
         21   -1    0    0  505  502 -0.00000000000E+00 -0.00000000000E+00 -0.43409054416E+03  0.43409054416E+03  0.00000000000E+00 0.  1.
         21    1    1    2  503  506 -0.10142580028E+03 -0.25961679466E+02  0.16311141042E+03  0.19382088116E+03  0.00000000000E+00 0.  1.
         21    1    1    2  504  502 -0.61110432380E+01 -0.69684567120E+02 -0.16399089997E+03  0.17828712521E+03  0.00000000000E+00 0.  1.
         21    1    1    2  505  501 -0.39180387875E+02  0.10344643134E+03 -0.13858152813E+03  0.17731640333E+03  0.00000000000E+00 0.  1.
         21    1    1    2  506  504  0.14671723140E+03 -0.78001847560E+01 -0.29448970221E+02  0.14984669071E+03  0.00000000000E+00 0.  1.
<scales pt_clust_3="110.07538" pt_clust_4="69.95201" pt_clust_5="75.02910" pt_clust_6="14000.00000"></scales>
<clustering>
<clus scale="   69.952">  2  4  1 -1</clus>
<clus scale="   75.029">  2  5  1 -1</clus>
<clus scale="  110.075">  1  3  2 -1</clus>
<clus scale="  110.075">  1  3  2 -1</clus>
</clustering>
</event>
<event>
 6    0  0.4227619E+002  0.5750378E+02  0.7546771E-02  0.1408616E+00
         21   -1    0    0  504  501  0.00000000000E+00  0.00000000000E+00  0.38818831667E+03  0.38818831667E+03  0.00000000000E+00 0.  1.
         21   -1    0    0  506  502 -0.00000000000E+00 -0.00000000000E+00 -0.26827277474E+03  0.26827277474E+03  0.00000000000E+00 0.  1.
         21    1    1    2  503  502  0.42624749010E+02 -0.54847740420E+01 -0.31776997728E+01  0.43093500094E+02  0.00000000000E+00 0.  1.
         21    1    1    2  504  503  0.56412643799E+02  0.54088184079E+01  0.33901799999E+03  0.34372204761E+03  0.00000000000E+00 0.  1.
         21    1    1    2  505  501 -0.10824527686E+03 -0.41197337359E+02 -0.13157493927E+03  0.17528897630E+03  0.00000000000E+00 0.  1.
         21    1    1    2  506  505  0.92078840528E+01  0.41273292993E+02 -0.84349819016E+02  0.94356567399E+02  0.00000000000E+00 0.  1.
<scales pt_clust_3="43.81564" pt_clust_4="14000.00000" pt_clust_5="57.50378" pt_clust_6="42.28794"></scales>
<clustering>
<clus scale="   42.288">  2  6  1 -1</clus>
<clus scale="   43.816">  2  3  1 -1</clus>
<clus scale="   57.504">  2  5  1 -1</clus>
<clus scale="   57.504">  1  3  2 -1</clus>
</clustering>
</event>
<event>
 6    0  0.4227619E+002  0.8898478E+02  0.7546771E-02  0.1305329E+00
         21   -1    0    0  504  501  0.00000000000E+00  0.00000000000E+00  0.73071283702E+03  0.73071283702E+03  0.00000000000E+00 0. -1.
         21   -1    0    0  505  502 -0.00000000000E+00 -0.00000000000E+00 -0.10340026538E+04  0.10340026538E+04  0.00000000000E+00 0. -1.
         21    1    1    2  503  501 -0.21311862927E+02 -0.34134402612E+02 -0.30128146428E+03  0.30395702601E+03  0.00000000000E+00 0. -1.
         21    1    1    2  504  506 -0.70350563836E+02 -0.44819980612E+02  0.55738397227E+03  0.56359109737E+03  0.00000000000E+00 0. -1.
         21    1    1    2  505  503 -0.36266386117E+02  0.83389524931E+01 -0.69608225361E+03  0.69707624596E+03  0.00000000000E+00 0. -1.
         21    1    1    2  506  502  0.12792881288E+03  0.70615430731E+02  0.13668992888E+03  0.20009112144E+03  0.00000000000E+00 0. -1.
<scales pt_clust_3="60.07491" pt_clust_4="14000.00000" pt_clust_5="37.21275" pt_clust_6="88.98478"></scales>
<clustering>
<clus scale="   37.213">  2  5  1 -1</clus>
<clus scale="   60.075">  2  3  1 -1</clus>
<clus scale="   88.985">  2  6  1 -1</clus>
<clus scale="   88.985">  1  3  2 -1</clus>
</clustering>
</event>
<event>
 6    0  0.4227619E+002  0.9146846E+02  0.7546771E-02  0.1299334E+00
         21   -1    0    0  503  501  0.00000000000E+00  0.00000000000E+00  0.71163969651E+02  0.71163969651E+02  0.00000000000E+00 0.  1.
         21   -1    0    0  506  502 -0.00000000000E+00 -0.00000000000E+00 -0.14378143037E+04  0.14378143037E+04  0.00000000000E+00 0. -1.
         21    1    1    2  503  505 -0.33583005858E+02 -0.83484917432E+02  0.22907858736E+02  0.92856446804E+02  0.00000000000E+00 0.  1.
         21    1    1    2  504  502 -0.11759736973E+02  0.32854437371E+02 -0.37246976122E+03  0.37410082664E+03  0.00000000000E+00 0. -1.
         21    1    1    2  505  504 -0.37467503712E+02 -0.54577164426E+02 -0.14107905347E+03  0.15583895546E+03  0.00000000000E+00 0. -1.
         21    1    1    2  506  501  0.82810246543E+02  0.10520764449E+03 -0.87600937805E+03  0.88618204441E+03  0.00000000000E+00 0. -1.
<scales pt_clust_3="91.46846" pt_clust_4="34.89564" pt_clust_5="63.47383" pt_clust_6="14000.00000"></scales>
<clustering>
<clus scale="   34.896">  2  4  1 -1</clus>
<clus scale="   63.474">  2  5  1 -1</clus>
<clus scale="   91.468">  1  3  2 -1</clus>
<clus scale="   91.468">  1  3  2 -1</clus>
</clustering>
</event>
<event>
 6    0  0.4227619E+002  0.6511420E+02  0.7546771E-02  0.1377542E+00
         21   -1    0    0  505  501  0.00000000000E+00  0.00000000000E+00  0.16715772812E+04  0.16715772812E+04  0.00000000000E+00 0.  1.
         21   -1    0    0  506  502 -0.00000000000E+00 -0.00000000000E+00 -0.23545937212E+03  0.23545937212E+03  0.00000000000E+00 0.  1.
         21    1    1    2  503  504 -0.71756478101E+02 -0.48184335226E+01  0.35881867522E+03  0.36595498513E+03  0.00000000000E+00 0.  1.
         21    1    1    2  504  501  0.35939339858E+02  0.57647466546E+01  0.10357494492E+04  0.10363888218E+04  0.00000000000E+00 0.  1.
         21    1    1    2  505  502  0.97096753286E+02 -0.21155302409E+02  0.25924353900E+03  0.27763742333E+03  0.00000000000E+00 0.  1.
         21    1    1    2  506  503 -0.61279615044E+02  0.20208989277E+02 -0.21769375433E+03  0.22705542306E+03  0.00000000000E+00 0.  1.
<scales pt_clust_3="51.28559" pt_clust_4="36.39874" pt_clust_5="65.11420" pt_clust_6="14000.00000"></scales>
<clustering>
<clus scale="   36.399">  1  4  2 -1</clus>
<clus scale="   51.286">  1  3  2 -1</clus>
<clus scale="   65.114">  1  5  2 -1</clus>
<clus scale="   36.399">  1  3  2 -1</clus>
</clustering>
</event>
<event>
 6    0  0.4227619E+002  0.9308240E+02  0.7546771E-02  0.1295554E+00
         21   -1    0    0  503  501  0.00000000000E+00  0.00000000000E+00  0.87745188098E+03  0.87745188098E+03  0.00000000000E+00 0.  1.
         21   -1    0    0  504  502 -0.00000000000E+00 -0.00000000000E+00 -0.69657017282E+02  0.69657017282E+02  0.00000000000E+00 0. -1.
         21    1    1    2  503  505  0.26888389172E+02 -0.21574344060E+02  0.59989744567E+02  0.69189646965E+02  0.00000000000E+00 0.  1.
         21    1    1    2  504  506 -0.11594709986E+03  0.39099446136E+02  0.44801945114E+03  0.46442860081E+03  0.00000000000E+00 0.  1.
         21    1    1    2  505  502  0.77925302891E+02 -0.46850402480E+02 -0.19230442905E+02  0.92936123104E+02  0.00000000000E+00 0. -1.
         21    1    1    2  506  501  0.11133407792E+02  0.29325300404E+02  0.31901611090E+03  0.32055452738E+03  0.00000000000E+00 0.  1.
<scales pt_clust_3="33.53247" pt_clust_4="93.08240" pt_clust_5="14000.00000" pt_clust_6="31.36759"></scales>
<clustering>
<clus scale="   31.368">  1  6  2 -1</clus>
<clus scale="   33.532">  1  3  2 -1</clus>
<clus scale="   93.082">  1  4  2 -1</clus>
<clus scale="   31.368">  1  3  2 -1</clus>
</clustering>
</event>
<event>
 6    0  0.4227619E+002  0.8100757E+02  0.7546771E-02  0.1326216E+00
         21   -1    0    0  504  501  0.00000000000E+00  0.00000000000E+00  0.19053268110E+04  0.19053268110E+04  0.00000000000E+00 0.  1.
         21   -1    0    0  506  502 -0.00000000000E+00 -0.00000000000E+00 -0.69869130598E+03  0.69869130598E+03  0.00000000000E+00 0.  1.
         21    1    1    2  503  502  0.19364713972E+02  0.38407577155E+02 -0.23713748738E+03  0.24100689213E+03  0.00000000000E+00 0.  1.
         21    1    1    2  504  505 -0.42359205212E+02 -0.15955427836E+02  0.18508967225E+04  0.18514501223E+04  0.00000000000E+00 0.  1.
         21    1    1    2  505  503  0.70710896763E+02  0.81122913934E+02 -0.21910741667E+02  0.10982276033E+03  0.00000000000E+00 0.  1.
         21    1    1    2  506  501 -0.47716405523E+02 -0.10357506325E+03 -0.38521298848E+03  0.40173834218E+03  0.00000000000E+00 0.  1.
<scales pt_clust_3="43.01319" pt_clust_4="45.24548" pt_clust_5="81.00757" pt_clust_6="14000.00000"></scales>
<clustering>
<clus scale="   43.013">  2  3  1 -1</clus>
<clus scale="   45.245">  1  4  2 -1</clus>
<clus scale="   81.008">  1  5  2 -1</clus>
<clus scale="   45.245">  1  3  2 -1</clus>
</clustering>
</event>
<event>
 6    0  0.4227619E+002  0.1029948E+03  0.7546771E-02  0.1274121E+00
         21   -1    0    0  505  501  0.00000000000E+00  0.00000000000E+00  0.96530730594E+02  0.96530730594E+02  0.00000000000E+00 0. -1.
         21   -1    0    0  501  502 -0.00000000000E+00 -0.00000000000E+00 -0.15696985208E+04  0.15696985208E+04  0.00000000000E+00 0.  1.
         21    1    1    2  503  504  0.27803614128E+02 -0.85567763948E+02 -0.13795154193E+03  0.16469824257E+03  0.00000000000E+00 0.  1.
         21    1    1    2  504  506 -0.51923727907E+02  0.81807997425E+02 -0.49913804602E+03  0.50845590856E+03  0.00000000000E+00 0.  1.
         21    1    1    2  505  503  0.53125847671E+02 -0.63011309641E+01  0.69092858224E+02  0.87383539639E+02  0.00000000000E+00 0. -1.
         21    1    1    2  506  502 -0.29005733893E+02  0.10060897486E+02 -0.90517106051E+03  0.90569156065E+03  0.00000000000E+00 0.  1.
<scales pt_clust_3="14000.00000" pt_clust_4="102.99482" pt_clust_5="53.08543" pt_clust_6="30.70105"></scales>
<clustering>
<clus scale="   30.701">  2  6  1 -1</clus>
<clus scale="   53.085">  1  5  2 -1</clus>
<clus scale="  102.995">  2  4  1 -1</clus>
<clus scale="   53.085">  1  3  2 -1</clus>
</clustering>
</event>
<event>
 6    0  0.4227619E+002  0.1805310E+03  0.7546771E-02  0.1167290E+00
         21   -1    0    0  505  501  0.00000000000E+00  0.00000000000E+00  0.83873425013E+03  0.83873425013E+03  0.00000000000E+00 0. -1.
         21   -1    0    0  503  502 -0.00000000000E+00 -0.00000000000E+00 -0.15245093127E+04  0.15245093127E+04  0.00000000000E+00 0.  1.
         21    1    1    2  503  501  0.10852761887E+03 -0.21948991072E+02 -0.13525280856E+04  0.13570527715E+04  0.00000000000E+00 0.  1.
         21    1    1    2  504  502  0.51964959721E+02 -0.68042259093E+02 -0.14222071255E+03  0.16600252149E+03  0.00000000000E+00 0.  1.
         21    1    1    2  505  506 -0.58403049422E+02 -0.38744057663E+01  0.47459643923E+03  0.47819212387E+03  0.00000000000E+00 0. -1.
         21    1    1    2  506  504 -0.10208952917E+03  0.93865655931E+02  0.33437729640E+03  0.36199614594E+03  0.00000000000E+00 0. -1.
<scales pt_clust_3="180.53095" pt_clust_4="84.56894" pt_clust_5="58.53142" pt_clust_6="14000.00000"></scales>
<clustering>
<clus scale="   58.531">  1  5  2 -1</clus>
<clus scale="   84.569">  2  4  1 -1</clus>
<clus scale="  180.531">  2  3  1 -1</clus>
<clus scale="   58.531">  1  3  2 -1</clus>
</clustering>
</event>
<event>
 6    0  0.4227619E+002  0.6535527E+02  0.7546771E-02  0.1376640E+00
         21   -1    0    0  504  501  0.00000000000E+00  0.00000000000E+00  0.40564047257E+03  0.40564047257E+03  0.00000000000E+00 0. -1.
         21   -1    0    0  506  502 -0.00000000000E+00 -0.00000000000E+00 -0.68097590858E+03  0.68097590858E+03  0.00000000000E+00 0. -1.
         21    1    1    2  503  502  0.35167236290E+02  0.52996074211E+02 -0.42520456167E+03  0.42993515518E+03  0.00000000000E+00 0. -1.
         21    1    1    2  504  505 -0.80624713123E+02  0.25581849745E+02  0.32295811813E+03  0.33385134637E+03  0.00000000000E+00 0. -1.
         21    1    1    2  505  503 -0.11635380094E+02 -0.73379269640E+02 -0.23020963965E+03  0.24190158633E+03  0.00000000000E+00 0. -1.
         21    1    1    2  506  501  0.57092856927E+02 -0.51986543162E+01  0.57120647180E+02  0.80928293279E+02  0.00000000000E+00 0. -1.
<scales pt_clust_3="14000.00000" pt_clust_4="32.27838" pt_clust_5="65.35527" pt_clust_6="57.32905"></scales>
<clustering>
<clus scale="   57.329">  1  6  2 -1</clus>
<clus scale="   32.278">  1  4  2 -1</clus>
<clus scale="   65.355">  1  5  2 -1</clus>
<clus scale="   57.329">  1  3  2 -1</clus>
</clustering>
</event>
<event>
 6    0  0.4227619E+002  0.1503406E+03  0.7546771E-02  0.1200055E+00
         21   -1    0    0  505  501  0.00000000000E+00  0.00000000000E+00  0.57650833016E+03  0.57650833016E+03  0.00000000000E+00 0.  1.
         21   -1    0    0  504  502 -0.00000000000E+00 -0.00000000000E+00 -0.58201335873E+03  0.58201335873E+03  0.00000000000E+00 0.  1.
         21    1    1    2  503  501  0.10619739493E+03 -0.56719057302E+01  0.35138967566E+03  0.36713044189E+03  0.00000000000E+00 0.  1.
         21    1    1    2  504  503 -0.20379814054E+03 -0.96412625759E+02  0.90883383297E+02  0.24308201466E+03  0.00000000000E+00 0.  1.
         21    1    1    2  505  506 -0.29799645411E+02  0.31867430584E+02  0.27294456487E+02  0.51463961697E+02  0.00000000000E+00 0.  1.
         21    1    1    2  506  502  0.12740039102E+03  0.70217100906E+02 -0.47507254401E+03  0.49684527065E+03  0.00000000000E+00 0.  1.
<scales pt_clust_3="87.67262" pt_clust_4="150.34064" pt_clust_5="43.62971" pt_clust_6="14000.00000"></scales>
<clustering>
<clus scale="   43.630">  1  5  2 -1</clus>
<clus scale="   87.673">  1  3  2 -1</clus>
<clus scale="  150.341">  1  4  2 -1</clus>
<clus scale="   43.630">  1  3  2 -1</clus>
</clustering>
</event>
<event>
 6    0  0.4227619E+002  0.1420453E+03  0.7546771E-02  0.1210603E+00
         21   -1    0    0  506  501  0.00000000000E+00  0.00000000000E+00  0.30118346566E+03  0.30118346566E+03  0.00000000000E+00 0. -1.
         21   -1    0    0  503  502 -0.00000000000E+00 -0.00000000000E+00 -0.20422830354E+03  0.20422830354E+03  0.00000000000E+00 0. -1.
         21    1    1    2  503  501 -0.14442338803E+03 -0.70377622746E+02  0.18464947941E+03  0.24475815623E+03  0.00000000000E+00 0. -1.
         21    1    1    2  504  502  0.65298280713E+02  0.12764978195E+02 -0.10811358598E+03  0.12694627842E+03  0.00000000000E+00 0. -1.
         21    1    1    2  505  504  0.49574846341E+02  0.37665444075E+02 -0.32241161246E+02  0.70113076851E+02  0.00000000000E+00 0. -1.
         21    1    1    2  506  505  0.29550260977E+02  0.19947200476E+02  0.52660429934E+02  0.63594257693E+02  0.00000000000E+00 0. -1.
<scales pt_clust_3="129.54915" pt_clust_4="57.05268" pt_clust_5="57.05268" pt_clust_6="35.65261"></scales>
<clustering>
<clus scale="   35.653">  1  6  2 -1</clus>
<clus scale="   57.053">  4  5 -1 -1</clus>
<clus scale="  129.549">  1  3  2 -1</clus>
<clus scale="   35.653">  1  3  2 -1</clus>
</clustering>
</event>
<event>
 6    0  0.4227619E+002  0.7549660E+02  0.7546771E-02  0.1342340E+00
         21   -1    0    0  504  501  0.00000000000E+00  0.00000000000E+00  0.12235158567E+03  0.12235158567E+03  0.00000000000E+00 0.  1.
         21   -1    0    0  503  502 -0.00000000000E+00 -0.00000000000E+00 -0.10163584538E+04  0.10163584538E+04  0.00000000000E+00 0.  1.
         21    1    1    2  503  506  0.37163345875E+02 -0.11834355561E+03 -0.26305845598E+03  0.29083683173E+03  0.00000000000E+00 0.  1.
         21    1    1    2  504  505 -0.31661129621E+02  0.17007483135E+02 -0.21898387448E+02  0.42085876304E+02  0.00000000000E+00 0.  1.
         21    1    1    2  505  502 -0.35330723888E+02  0.60145344742E+02 -0.69899136575E+03  0.70246327444E+03  0.00000000000E+00 0.  1.
         21    1    1    2  506  501  0.29828507634E+02  0.41190727731E+02  0.89941341060E+02  0.10332405698E+03  0.00000000000E+00 0.  1.
<scales pt_clust_3="75.49660" pt_clust_4="35.93997" pt_clust_5="14000.00000" pt_clust_6="55.89026"></scales>
<clustering>
<clus scale="   35.940">  1  4  2 -1</clus>
<clus scale="   55.890">  1  6  2 -1</clus>
<clus scale="   75.497">  1  3  2 -1</clus>
<clus scale="   35.940">  1  3  2 -1</clus>
</clustering>
</event>
<event>
 6    0  0.4227619E+002  0.1308062E+03  0.7546771E-02  0.1226264E+00
         21   -1    0    0  503  501  0.00000000000E+00  0.00000000000E+00  0.16626561069E+03  0.16626561069E+03  0.00000000000E+00 0. -1.
         21   -1    0    0  504  502 -0.00000000000E+00 -0.00000000000E+00 -0.90051229331E+03  0.90051229331E+03  0.00000000000E+00 0.  1.
         21    1    1    2  503  505 -0.34527989863E+02 -0.40517827469E+02  0.58280929440E+02  0.78933789743E+02  0.00000000000E+00 0. -1.
         21    1    1    2  504  501  0.62221218320E+02  0.12605112070E+03 -0.22329497405E+03  0.26385793616E+03  0.00000000000E+00 0.  1.
         21    1    1    2  505  506  0.40954561108E+01 -0.74825712457E+02  0.58679643232E+02  0.95178571829E+02  0.00000000000E+00 0. -1.
         21    1    1    2  506  502 -0.31788684568E+02 -0.10707580778E+02 -0.62791228124E+03  0.62880760626E+03  0.00000000000E+00 0.  1.
<scales pt_clust_3="41.58241" pt_clust_4="121.26496" pt_clust_5="41.58241" pt_clust_6="33.54359"></scales>
<clustering>
<clus scale="   33.544">  2  6  1 -1</clus>
<clus scale="   41.582">  3  5 -1 -1</clus>
<clus scale="  121.265">  2  4  1 -1</clus>
<clus scale="  130.806">  1  3  2 -1</clus>
</clustering>
</event>
<event>
 6    0  0.4227619E+002  0.1732598E+03  0.7546771E-02  0.1174490E+00
         21   -1    0    0  505  501  0.00000000000E+00  0.00000000000E+00  0.12841341072E+03  0.12841341072E+03  0.00000000000E+00 0. -1.
         21   -1    0    0  504  502 -0.00000000000E+00 -0.00000000000E+00 -0.73886429303E+03  0.73886429303E+03  0.00000000000E+00 0. -1.
         21    1    1    2  503  501 -0.18188492224E+03  0.45374981920E+02 -0.35557648997E+03  0.40196474241E+03  0.00000000000E+00 0. -1.
         21    1    1    2  504  503 -0.31326926915E+02 -0.19148357868E+02 -0.22024113956E+03  0.22328053098E+03  0.00000000000E+00 0. -1.
         21    1    1    2  505  506  0.84690456847E+02  0.13411212628E+02  0.32518935633E+02  0.91705045008E+02  0.00000000000E+00 0. -1.
         21    1    1    2  506  502  0.12852139231E+03 -0.39637836681E+02 -0.67152188422E+02  0.15032738535E+03  0.00000000000E+00 0. -1.
<scales pt_clust_3="173.25976" pt_clust_4="36.71561" pt_clust_5="83.80747" pt_clust_6="14000.00000"></scales>
<clustering>
<clus scale="   36.716">  2  4  1 -1</clus>
<clus scale="   83.807">  1  5  2 -1</clus>
<clus scale="  173.260">  2  3  1 -1</clus>
<clus scale="   83.807">  1  3  2 -1</clus>
</clustering>
</event>
<event>
 6    0  0.4227619E+002  0.1690798E+03  0.7546771E-02  0.1178811E+00
         21   -1    0    0  506  501  0.00000000000E+00  0.00000000000E+00  0.10236459831E+03  0.10236459831E+03  0.00000000000E+00 0.  1.
         21   -1    0    0  504  502 -0.00000000000E+00 -0.00000000000E+00 -0.13028311611E+04  0.13028311611E+04  0.00000000000E+00 0. -1.
         21    1    1    2  503  502  0.12634395426E+03 -0.10825899095E+03 -0.45880521425E+02  0.17259150079E+03  0.00000000000E+00 0.  1.
         21    1    1    2  504  505 -0.53595774174E+02 -0.29845282173E+02 -0.24207541056E+03  0.24972735588E+03  0.00000000000E+00 0. -1.
         21    1    1    2  505  501 -0.90788200404E+00  0.19298869686E+03 -0.85319286800E+03  0.87474769583E+03  0.00000000000E+00 0. -1.
         21    1    1    2  506  503 -0.71840298084E+02 -0.54884423735E+02 -0.59317762767E+02  0.10812920686E+03  0.00000000000E+00 0.  1.
<scales pt_clust_3="14000.00000" pt_clust_4="61.34532" pt_clust_5="169.07983" pt_clust_6="95.21793"></scales>
<clustering>
<clus scale="   61.345">  2  4  1 -1</clus>
<clus scale="   95.218">  1  6  2 -1</clus>
<clus scale="  169.080">  2  5  1 -1</clus>
<clus scale="   95.218">  1  3  2 -1</clus>
</clustering>
</event>
<event>
 6    0  0.4227619E+002  0.1294380E+03  0.7546771E-02  0.1228292E+00
         21   -1    0    0  505  501  0.00000000000E+00  0.00000000000E+00  0.36379823309E+03  0.36379823309E+03  0.00000000000E+00 0. -1.
         21   -1    0    0  506  502 -0.00000000000E+00 -0.00000000000E+00 -0.35858422095E+03  0.35858422095E+03  0.00000000000E+00 0. -1.
         21    1    1    2  503  502 -0.39860540629E+02  0.59313259482E+02 -0.13735450879E+03  0.15483276957E+03  0.00000000000E+00 0. -1.
         21    1    1    2  504  501  0.13019037725E+03  0.15832680752E+02 -0.45162129454E+02  0.13870770002E+03  0.00000000000E+00 0. -1.
         21    1    1    2  505  503 -0.12189450947E+03 -0.44068996964E+02  0.28985999771E+03  0.31752033983E+03  0.00000000000E+00 0. -1.
         21    1    1    2  506  504  0.31564672852E+02 -0.31076943270E+02 -0.10212934733E+03  0.11132164462E+03  0.00000000000E+00 0. -1.
<scales pt_clust_3="46.57297" pt_clust_4="129.43797" pt_clust_5="14000.00000" pt_clust_6="44.29565"></scales>
<clustering>
<clus scale="   44.296">  2  6  1 -1</clus>
<clus scale="   46.573">  2  3  1 -1</clus>
<clus scale="  129.438">  2  4  1 -1</clus>
<clus scale="  129.438">  1  3  2 -1</clus>
</clustering>
</event>
<event>
 6    0  0.4227619E+002  0.9762624E+02  0.7546771E-02  0.1285368E+00
         21   -1    0    0  506  501  0.00000000000E+00  0.00000000000E+00  0.77431256978E+02  0.77431256978E+02  0.00000000000E+00 0.  1.
         21   -1    0    0  503  502 -0.00000000000E+00 -0.00000000000E+00 -0.93984733956E+03  0.93984733956E+03  0.00000000000E+00 0.  1.
         21    1    1    2  503  505 -0.34040329263E+02  0.48466501072E+02 -0.65526867381E+03  0.65793980015E+03  0.00000000000E+00 0.  1.
         21    1    1    2  504  501  0.62134204404E+02 -0.12399517979E+03 -0.10807827065E+02  0.13911244766E+03  0.00000000000E+00 0.  1.
         21    1    1    2  505  504 -0.95200513788E+00  0.58758212318E+02 -0.16640566025E+03  0.17647741383E+03  0.00000000000E+00 0.  1.
         21    1    1    2  506  502 -0.27141870003E+02  0.16770466404E+02 -0.29933921452E+02  0.43748934891E+02  0.00000000000E+00 0.  1.
<scales pt_clust_3="59.78202" pt_clust_4="97.62624" pt_clust_5="14000.00000" pt_clust_6="31.90501"></scales>
<clustering>
<clus scale="   31.905">  1  6  2 -1</clus>
<clus scale="   59.782">  2  3  1 -1</clus>
<clus scale="   97.626">  1  4  2 -1</clus>
<clus scale="   31.905">  1  3  2 -1</clus>
</clustering>
</event>
<event>
 6    0  0.4227619E+002  0.1170312E+03  0.7546771E-02  0.1248076E+00
         21   -1    0    0  505  501  0.00000000000E+00  0.00000000000E+00  0.87434553157E+03  0.87434553157E+03  0.00000000000E+00 0.  1.
         21   -1    0    0  503  502 -0.00000000000E+00 -0.00000000000E+00 -0.11631594715E+03  0.11631594715E+03  0.00000000000E+00 0.  1.
         21    1    1    2  503  506  0.27711512399E+02  0.18122705550E+02 -0.35517203006E+02  0.48557513170E+02  0.00000000000E+00 0.  1.
         21    1    1    2  504  502  0.93252265454E+01  0.94717660830E+02 -0.31976235541E+02  0.10040355951E+03  0.00000000000E+00 0.  1.
         21    1    1    2  505  504 -0.23977817675E+02  0.19671192310E+02  0.16517444230E+03  0.16806096494E+03  0.00000000000E+00 0.  1.
         21    1    1    2  506  501 -0.13058921270E+02 -0.13251155869E+03  0.66034858067E+03  0.67363944110E+03  0.00000000000E+00 0.  1.
<scales pt_clust_3="33.02677" pt_clust_4="117.03124" pt_clust_5="31.01438" pt_clust_6="14000.00000"></scales>
<clustering>
<clus scale="   31.014">  1  5  2 -1</clus>
<clus scale="   33.027">  2  3  1 -1</clus>
<clus scale="  117.031">  2  4  1 -1</clus>
<clus scale="   31.014">  1  3  2 -1</clus>
</clustering>
</event>
<event>
 6    0  0.4227619E+002  0.1045721E+03  0.7546771E-02  0.1270965E+00
         21   -1    0    0  503  501  0.00000000000E+00  0.00000000000E+00  0.21150352822E+04  0.21150352822E+04  0.00000000000E+00 0.  1.
         21   -1    0    0  504  502 -0.00000000000E+00 -0.00000000000E+00 -0.85202744156E+02  0.85202744156E+02  0.00000000000E+00 0.  1.
         21    1    1    2  503  506  0.15317578618E+02 -0.26725427384E+02  0.92234103117E+03  0.92285527276E+03  0.00000000000E+00 0.  1.
         21    1    1    2  504  505  0.34296971499E+02  0.53449792169E+01 -0.42296263977E+02  0.54715856964E+02  0.00000000000E+00 0.  1.
         21    1    1    2  505  501 -0.13340736311E+03  0.28675927161E+02  0.99162636843E+02  0.16868035415E+03  0.00000000000E+00 0.  1.
         21    1    1    2  506  502  0.83792812993E+02 -0.72954789942E+01  0.10506251340E+04  0.10539865425E+04  0.00000000000E+00 0.  1.
<scales pt_clust_3="30.80384" pt_clust_4="34.76867" pt_clust_5="104.57210" pt_clust_6="14000.00000"></scales>
<clustering>
<clus scale="   30.804">  1  3  2 -1</clus>
<clus scale="   34.769">  2  4  1 -1</clus>
<clus scale="  104.572">  2  5  1 -1</clus>
<clus scale="   30.804">  1  3  2 -1</clus>
</clustering>
</event>
<event>
 6    0  0.4227619E+002  0.9703709E+02  0.7546771E-02  0.1286653E+00
         21   -1    0    0  505  501  0.00000000000E+00  0.00000000000E+00  0.22577693511E+04  0.22577693511E+04  0.00000000000E+00 0.  1.
         21   -1    0    0  503  502 -0.00000000000E+00 -0.00000000000E+00 -0.16623126243E+04  0.16623126243E+04  0.00000000000E+00 0. -1.
         21    1    1    2  503  506  0.96409736252E+02  0.10847152299E+03 -0.40984933551E+03  0.43478429866E+03  0.00000000000E+00 0. -1.
         21    1    1    2  504  502 -0.99253974125E+01  0.30347730876E+02 -0.36821594856E+03  0.36959773140E+03  0.00000000000E+00 0. -1.
         21    1    1    2  505  504 -0.59846214582E+02 -0.45597252001E+02 -0.86841470900E+03  0.87166781838E+03  0.00000000000E+00 0. -1.
         21    1    1    2  506  501 -0.26638124258E+02 -0.93222001870E+02  0.22419367198E+04  0.22440321270E+04  0.00000000000E+00 0.  1.
<scales pt_clust_3="14000.00000" pt_clust_4="31.92958" pt_clust_5="71.12994" pt_clust_6="97.03709"></scales>
<clustering>
<clus scale="   31.930">  2  4  1 -1</clus>
<clus scale="   71.130">  2  5  1 -1</clus>
<clus scale="   97.037">  1  6  2 -1</clus>
<clus scale="   97.037">  1  3  2 -1</clus>
</clustering>
</event>
<event>
 6    0  0.4227619E+002  0.1482483E+03  0.7546771E-02  0.1202642E+00
         21   -1    0    0  503  501  0.00000000000E+00  0.00000000000E+00  0.63818020274E+03  0.63818020274E+03  0.00000000000E+00 0. -1.
         21   -1    0    0  506  502 -0.00000000000E+00 -0.00000000000E+00 -0.11852658829E+04  0.11852658829E+04  0.00000000000E+00 0.  1.
         21    1    1    2  503  502  0.74619808287E+02  0.82067074358E+02  0.48749287967E+03  0.49995242594E+03  0.00000000000E+00 0. -1.
         21    1    1    2  504  501  0.56616235253E+02 -0.48527224891E+01  0.12854604418E+03  0.14054548190E+03  0.00000000000E+00 0. -1.
         21    1    1    2  505  504 -0.84579070913E+02 -0.58328028520E+02 -0.27773904086E+03  0.29613299878E+03  0.00000000000E+00 0.  1.
         21    1    1    2  506  505 -0.46656972627E+02 -0.18886323349E+02 -0.88538556311E+03  0.88681517898E+03  0.00000000000E+00 0.  1.
<scales pt_clust_3="148.24830" pt_clust_4="55.92576" pt_clust_5="14000.00000" pt_clust_6="50.33454"></scales>
<clustering>
<clus scale="   50.335">  2  6  1 -1</clus>
<clus scale="   55.926">  1  4  2 -1</clus>
<clus scale="  148.248">  1  3  2 -1</clus>
<clus scale="   55.926">  1  3  2 -1</clus>
</clustering>
</event>
<event>
 6    0  0.4227619E+002  0.8300284E+02  0.7546771E-02  0.1320739E+00
         21   -1    0    0  505  501  0.00000000000E+00  0.00000000000E+00  0.16983752766E+03  0.16983752766E+03  0.00000000000E+00 0.  1.
         21   -1    0    0  503  502 -0.00000000000E+00 -0.00000000000E+00 -0.18759122776E+03  0.18759122776E+03  0.00000000000E+00 0.  1.
         21    1    1    2  503  501 -0.65611008761E+02 -0.19142712734E+02 -0.26284906245E+02  0.73226663298E+02  0.00000000000E+00 0.  1.
         21    1    1    2  504  502  0.74852201152E+02 -0.79986220157E+01 -0.65540893365E+02  0.99812016684E+02  0.00000000000E+00 0.  1.
         21    1    1    2  505  506 -0.66862347162E+02  0.67177636281E+02  0.61830268128E+02  0.11316532305E+03  0.00000000000E+00 0.  1.
         21    1    1    2  506  504  0.57621154771E+02 -0.40036301532E+02  0.12241831383E+02  0.71224752391E+02  0.00000000000E+00 0.  1.
<scales pt_clust_3="68.34653" pt_clust_4="40.49157" pt_clust_5="14000.00000" pt_clust_6="83.00284"></scales>
<clustering>
<clus scale="   68.347">  2  3  1 -1</clus>
<clus scale="   40.492">  2  4  1 -1</clus>
<clus scale="   83.003">  2  6  1 -1</clus>
<clus scale="   83.003">  1  3  2 -1</clus>
</clustering>
</event>
<event>
 6    0  0.4227619E+002  0.1581363E+03  0.7546771E-02  0.1190817E+00
         21   -1    0    0  505  501  0.00000000000E+00  0.00000000000E+00  0.69285121454E+02  0.69285121454E+02  0.00000000000E+00 0. -1.
         21   -1    0    0  503  502 -0.00000000000E+00 -0.00000000000E+00 -0.15645365471E+04  0.15645365471E+04  0.00000000000E+00 0. -1.
         21    1    1    2  503  504 -0.13862813034E+03 -0.73810560286E+02 -0.11586426091E+04  0.11692384072E+04  0.00000000000E+00 0. -1.
         21    1    1    2  504  501 -0.33000834262E+02 -0.41892533659E+01 -0.72171860992E+02  0.79469380423E+02  0.00000000000E+00 0. -1.
         21    1    1    2  505  506  0.43629938425E+02 -0.26388632541E+02  0.21151556468E+02  0.55202534320E+02  0.00000000000E+00 0. -1.
         21    1    1    2  506  502  0.12799902618E+03  0.10438844619E+03 -0.28558851204E+03  0.32991134659E+03  0.00000000000E+00 0. -1.
<scales pt_clust_3="158.13630" pt_clust_4="33.26567" pt_clust_5="37.78856" pt_clust_6="14000.00000"></scales>
<clustering>
<clus scale="   33.266">  1  4  2 -1</clus>
<clus scale="   37.789">  1  5  2 -1</clus>
<clus scale="  158.136">  2  3  1 -1</clus>
<clus scale="   33.266">  1  3  2 -1</clus>
</clustering>
</event>
<event>
 6    0  0.4227619E+002  0.1227843E+03  0.7546771E-02  0.1238573E+00
         21   -1    0    0  503  501  0.00000000000E+00  0.00000000000E+00  0.70450886572E+03  0.70450886572E+03  0.00000000000E+00 0.  1.
         21   -1    0    0  505  502 -0.00000000000E+00 -0.00000000000E+00 -0.61797639258E+03  0.61797639258E+03  0.00000000000E+00 0. -1.
         21    1    1    2  503  506 -0.16238409064E+02  0.39925321382E+02  0.50362798440E+03  0.50546895442E+03  0.00000000000E+00 0.  1.
         21    1    1    2  504  501  0.31603195799E+02  0.16972209920E+03  0.11261324504E+03  0.20612155613E+03  0.00000000000E+00 0.  1.
         21    1    1    2  505  504 -0.35520981007E+02 -0.11520965996E+03 -0.49309830257E+03  0.50762283424E+03  0.00000000000E+00 0. -1.
         21    1    1    2  506  502  0.20156194272E+02 -0.94437760627E+02 -0.36610453729E+02  0.10327191352E+03  0.00000000000E+00 0.  1.
<scales pt_clust_3="43.10124" pt_clust_4="14000.00000" pt_clust_5="122.78431" pt_clust_6="89.50024"></scales>
<clustering>
<clus scale="   43.101">  1  3  2 -1</clus>
<clus scale="   89.500">  1  6  2 -1</clus>
<clus scale="  122.784">  2  5  1 -1</clus>
<clus scale="   43.101">  1  3  2 -1</clus>
</clustering>
</event>
<event>
 6    0  0.4227619E+002  0.9133705E+02  0.7546771E-02  0.1299646E+00
         21   -1    0    0  505  501  0.00000000000E+00  0.00000000000E+00  0.14143527322E+04  0.14143527322E+04  0.00000000000E+00 0.  1.
         21   -1    0    0  503  502 -0.00000000000E+00 -0.00000000000E+00 -0.19438074462E+03  0.19438074462E+03  0.00000000000E+00 0.  1.
         21    1    1    2  503  506 -0.76419540837E+02  0.25237874755E+02  0.51122447480E+03  0.51752039591E+03  0.00000000000E+00 0.  1.
         21    1    1    2  504  502  0.74739018556E+02 -0.53040090636E+02 -0.17782098134E+03  0.20004867787E+03  0.00000000000E+00 0.  1.
         21    1    1    2  505  504  0.24276067108E+02 -0.23200155717E+02  0.40054856209E+03  0.40195363570E+03  0.00000000000E+00 0.  1.
         21    1    1    2  506  501 -0.22595544826E+02  0.51002371598E+02  0.48601993202E+03  0.48921076733E+03  0.00000000000E+00 0.  1.
<scales pt_clust_3="91.33705" pt_clust_4="14000.00000" pt_clust_5="33.57938" pt_clust_6="41.30322"></scales>
<clustering>
<clus scale="   33.579">  1  5  2 -1</clus>
<clus scale="   41.303">  1  6  2 -1</clus>
<clus scale="   91.337">  1  3  2 -1</clus>
<clus scale="   33.579">  1  3  2 -1</clus>
</clustering>
</event>
<event>
 6    0  0.4227619E+002  0.1054545E+03  0.7546771E-02  0.1269227E+00
         21   -1    0    0  505  501  0.00000000000E+00  0.00000000000E+00  0.50440033008E+03  0.50440033008E+03  0.00000000000E+00 0.  1.
         21   -1    0    0  504  502 -0.00000000000E+00 -0.00000000000E+00 -0.19470183671E+03  0.19470183671E+03  0.00000000000E+00 0. -1.
         21    1    1    2  503  502  0.71774288759E+02  0.84250497553E+02  0.88359861424E+01  0.11103048913E+03  0.00000000000E+00 0. -1.
         21    1    1    2  504  506 -0.76622463635E+02  0.50132549346E+01 -0.63620952347E+02  0.99718404700E+02  0.00000000000E+00 0. -1.
         21    1    1    2  505  503  0.44834920730E+02  0.54133349491E+01  0.38151336390E+03  0.38417693990E+03  0.00000000000E+00 0.  1.
         21    1    1    2  506  501 -0.39986745855E+02 -0.94677087437E+02 -0.17029904322E+02  0.10417633306E+03  0.00000000000E+00 0. -1.
<scales pt_clust_3="105.45452" pt_clust_4="70.20670" pt_clust_5="45.16054" pt_clust_6="14000.00000"></scales>
<clustering>
<clus scale="   45.161">  1  5  2 -1</clus>
<clus scale="   70.207">  2  4  1 -1</clus>
<clus scale="  105.455">  2  3  1 -1</clus>
<clus scale="   45.161">  1  3  2 -1</clus>
</clustering>
</event>
<event>
 6    0  0.4227619E+002  0.9118942E+02  0.7546771E-02  0.1299997E+00
         21   -1    0    0  505  501  0.00000000000E+00  0.00000000000E+00  0.30891956436E+03  0.30891956436E+03  0.00000000000E+00 0. -1.
         21   -1    0    0  504  502 -0.00000000000E+00 -0.00000000000E+00 -0.30559931967E+03  0.30559931967E+03  0.00000000000E+00 0. -1.
         21    1    1    2  503  506  0.82108946294E+02 -0.53138132908E+02 -0.25524786842E+03  0.27334413212E+03  0.00000000000E+00 0. -1.
         21    1    1    2  504  501 -0.35107305463E+02  0.63744322994E+02  0.87273173628E+02  0.11363304293E+03  0.00000000000E+00 0. -1.
         21    1    1    2  505  503 -0.62046394195E+02 -0.40647198465E+02  0.17839563101E+03  0.19320183990E+03  0.00000000000E+00 0. -1.
         21    1    1    2  506  502  0.15044753363E+02  0.30041008380E+02 -0.71006915270E+01  0.34339869080E+02  0.00000000000E+00 0. -1.
<scales pt_clust_3="91.18942" pt_clust_4="14000.00000" pt_clust_5="73.42160" pt_clust_6="33.59772"></scales>
<clustering>
<clus scale="   33.598">  2  6  1 -1</clus>
<clus scale="   73.422">  1  5  2 -1</clus>
<clus scale="   91.189">  2  3  1 -1</clus>
<clus scale="   73.422">  1  3  2 -1</clus>
</clustering>
</event>
<event>
 6    0  0.4227619E+002  0.1054806E+03  0.7546771E-02  0.1269176E+00
         21   -1    0    0  505  501  0.00000000000E+00  0.00000000000E+00  0.14680116492E+03  0.14680116492E+03  0.00000000000E+00 0. -1.
         21   -1    0    0  503  502 -0.00000000000E+00 -0.00000000000E+00 -0.18372716202E+04  0.18372716202E+04  0.00000000000E+00 0.  1.
         21    1    1    2  503  506  0.90408684116E+02 -0.69537867440E+02 -0.13503035869E+04  0.13551121806E+04  0.00000000000E+00 0.  1.
         21    1    1    2  504  502 -0.34170589345E+02 -0.39762231779E+01 -0.78163814927E+02  0.85399189053E+02  0.00000000000E+00 0.  1.
         21    1    1    2  505  504 -0.55375984533E+02  0.10961305873E+03 -0.39088187173E+03  0.40971961138E+03  0.00000000000E+00 0.  1.
         21    1    1    2  506  501 -0.86211023735E+00 -0.36098968115E+02  0.12887881826E+03  0.13384180412E+03  0.00000000000E+00 0. -1.
<scales pt_clust_3="14000.00000" pt_clust_4="34.40116" pt_clust_5="105.48060" pt_clust_6="36.11607"></scales>
<clustering>
<clus scale="   34.401">  2  4  1 -1</clus>
<clus scale="   36.116">  1  6  2 -1</clus>
<clus scale="  105.481">  1  5  2 -1</clus>
<clus scale="   36.116">  1  3  2 -1</clus>
</clustering>
</event>
<event>
 6    0  0.4227619E+002  0.1539195E+03  0.7546771E-02  0.1195738E+00
         21   -1    0    0  506  501  0.00000000000E+00  0.00000000000E+00  0.33527380554E+03  0.33527380554E+03  0.00000000000E+00 0. -1.
         21   -1    0    0  503  502 -0.00000000000E+00 -0.00000000000E+00 -0.11801479507E+03  0.11801479507E+03  0.00000000000E+00 0. -1.
         21    1    1    2  503  501  0.17244185605E+02  0.75496342676E+02  0.10150687446E+03  0.12767421532E+03  0.00000000000E+00 0.  1.
         21    1    1    2  504  502  0.11302410122E+03 -0.31412565547E+02  0.48115387876E+02  0.12679229977E+03  0.00000000000E+00 0. -1.
         21    1    1    2  505  504  0.15003281087E+02 -0.37841540525E+02  0.71171963418E+01  0.41324751862E+02  0.00000000000E+00 0.  1.
         21    1    1    2  506  505 -0.14527156791E+03 -0.62422366046E+01  0.60519551795E+02  0.15749733366E+03  0.00000000000E+00 0. -1.
<scales pt_clust_3="77.44069" pt_clust_4="37.37534" pt_clust_5="37.37534" pt_clust_6="140.23428"></scales>
<clustering>
<clus scale="   37.375">  4  5 -1 -1</clus>
<clus scale="   77.441">  1  3  2 -1</clus>
<clus scale="  140.234">  1  6  2 -1</clus>
<clus scale="   77.441">  1  3  2 -1</clus>
</clustering>
</event>
<event>
 6    0  0.4227619E+002  0.1286616E+03  0.7546771E-02  0.1229455E+00
         21   -1    0    0  505  501  0.00000000000E+00  0.00000000000E+00  0.44511696148E+03  0.44511696148E+03  0.00000000000E+00 0. -1.
         21   -1    0    0  506  502 -0.00000000000E+00 -0.00000000000E+00 -0.12013888716E+04  0.12013888716E+04  0.00000000000E+00 0. -1.
         21    1    1    2  503  501 -0.32830142754E+02 -0.33535675987E+02  0.34174561323E+03  0.34495293012E+03  0.00000000000E+00 0. -1.
         21    1    1    2  504  503 -0.99353925794E+02  0.30525490539E+02  0.66367723184E+02  0.12331943409E+03  0.00000000000E+00 0. -1.
         21    1    1    2  505  502  0.20473164826E+02 -0.50143879567E+02 -0.44561107215E+03  0.44889061782E+03  0.00000000000E+00 0.  1.
         21    1    1    2  506  504  0.11171090372E+03  0.53154065015E+02 -0.71877417438E+03  0.72934285106E+03  0.00000000000E+00 0. -1.
<scales pt_clust_3="46.93037" pt_clust_4="128.66160" pt_clust_5="54.46707" pt_clust_6="14000.00000"></scales>
<clustering>
<clus scale="   46.930">  1  3  2 -1</clus>
<clus scale="   54.467">  2  5  1 -1</clus>
<clus scale="  128.662">  1  4  2 -1</clus>
<clus scale="   46.930">  1  3  2 -1</clus>
</clustering>
</event>
<event>
 6    0  0.4227619E+002  0.1469069E+03  0.7546771E-02  0.1204326E+00
         21   -1    0    0  506  501  0.00000000000E+00  0.00000000000E+00  0.25576044346E+04  0.25576044346E+04  0.00000000000E+00 0.  1.
         21   -1    0    0  504  502 -0.00000000000E+00 -0.00000000000E+00 -0.45596546087E+02  0.45596546087E+02  0.00000000000E+00 0. -1.
         21    1    1    2  503  501  0.69547528804E+01  0.34560706526E+02  0.22481081257E+03  0.22755815185E+03  0.00000000000E+00 0.  1.
         21    1    1    2  504  503  0.52463735506E+02  0.14283399118E+03  0.13228005792E+03  0.20162342697E+03  0.00000000000E+00 0. -1.
         21    1    1    2  505  502 -0.16655930614E+01 -0.13634104697E+03  0.52037261898E+03  0.53793988314E+03  0.00000000000E+00 0.  1.
         21    1    1    2  506  505 -0.57752895325E+02 -0.41053650741E+02  0.16345443990E+04  0.16360795187E+04  0.00000000000E+00 0.  1.
<scales pt_clust_3="35.25352" pt_clust_4="146.90691" pt_clust_5="14000.00000" pt_clust_6="55.48309"></scales>
<clustering>
<clus scale="   35.254">  1  3  2 -1</clus>
<clus scale="   55.483">  1  6  2 -1</clus>
<clus scale="  146.907">  2  4  1 -1</clus>
<clus scale="   35.254">  1  3  2 -1</clus>
</clustering>
</event>
<event>
 6    0  0.4227619E+002  0.1382698E+03  0.7546771E-02  0.1215676E+00
         21   -1    0    0  504  501  0.00000000000E+00  0.00000000000E+00  0.10393711356E+04  0.10393711356E+04  0.00000000000E+00 0.  1.
         21   -1    0    0  505  502 -0.00000000000E+00 -0.00000000000E+00 -0.11087875892E+03  0.11087875892E+03  0.00000000000E+00 0. -1.
         21    1    1    2  503  501 -0.53195967174E+02 -0.65007002526E+02  0.72840552899E+03  0.73323279794E+03  0.00000000000E+00 0.  1.
         21    1    1    2  504  502  0.24300538482E+02  0.62344279527E+02 -0.79000871138E+02  0.10353001015E+03  0.00000000000E+00 0. -1.
         21    1    1    2  505  506  0.28347091917E+02  0.53346665954E+02  0.48718122472E+02  0.77607215166E+02  0.00000000000E+00 0.  1.
         21    1    1    2  506  503  0.54833677525E+00 -0.50683942955E+02  0.23036959640E+03  0.23587987132E+03  0.00000000000E+00 0.  1.
<scales pt_clust_3="47.71800" pt_clust_4="123.87523" pt_clust_5="60.41047" pt_clust_6="47.71800"></scales>
<clustering>
<clus scale="   47.718">  3  6 -1 -1</clus>
<clus scale="   60.410">  2  5  1 -1</clus>
<clus scale="  123.875">  2  4  1 -1</clus>
<clus scale="  138.270">  1  3  2 -1</clus>
</clustering>
</event>
<event>
 6    0  0.4227619E+002  0.7674222E+02  0.7546771E-02  0.1338559E+00
         21   -1    0    0  503  501  0.00000000000E+00  0.00000000000E+00  0.51985149516E+02  0.51985149516E+02  0.00000000000E+00 0. -1.
         21   -1    0    0  505  502 -0.00000000000E+00 -0.00000000000E+00 -0.76612974458E+03  0.76612974458E+03  0.00000000000E+00 0. -1.
         21    1    1    2  503  504  0.11181914270E+02 -0.29406961978E+02 -0.22532176791E+02  0.38697591791E+02  0.00000000000E+00 0. -1.
         21    1    1    2  504  506  0.88376955793E+02 -0.68418924939E+01 -0.19097236834E+03  0.21054154763E+03  0.00000000000E+00 0. -1.
         21    1    1    2  505  501 -0.40986962076E+02  0.90906624061E+02 -0.50716564920E+02  0.11187544554E+03  0.00000000000E+00 0. -1.
         21    1    1    2  506  502 -0.58571907987E+02 -0.54657769589E+02 -0.44992348501E+03  0.45700030913E+03  0.00000000000E+00 0. -1.
<scales pt_clust_3="31.46116" pt_clust_4="76.74222" pt_clust_5="77.85652" pt_clust_6="14000.00000"></scales>
<clustering>
<clus scale="   31.461">  1  3  2 -1</clus>
<clus scale="   77.857">  1  5  2 -1</clus>
<clus scale="   76.742">  1  4  2 -1</clus>
<clus scale="   31.461">  1  3  2 -1</clus>
</clustering>
</event>
<event>
 6    0  0.4227619E+002  0.7561010E+02  0.7546771E-02  0.1341992E+00
         21   -1    0    0  503  501  0.00000000000E+00  0.00000000000E+00  0.97043043811E+03  0.97043043811E+03  0.00000000000E+00 0.  1.
         21   -1    0    0  506  502 -0.00000000000E+00 -0.00000000000E+00 -0.62482595497E+02  0.62482595497E+02  0.00000000000E+00 0.  1.
         21    1    1    2  503  504  0.66957781373E+02  0.32854608714E+02  0.73422332678E+03  0.73800180446E+03  0.00000000000E+00 0.  1.
         21    1    1    2  504  505 -0.75935563858E+02 -0.70818443608E+02  0.16798132883E+02  0.10518383470E+03  0.00000000000E+00 0.  1.
         21    1    1    2  505  502 -0.40393137081E+02 -0.40455247738E+01  0.74730840287E+02  0.85045107349E+02  0.00000000000E+00 0.  1.
         21    1    1    2  506  501  0.49370919566E+02  0.42009359667E+02  0.82195542662E+02  0.10468228710E+03  0.00000000000E+00 0.  1.
<scales pt_clust_3="75.61010" pt_clust_4="14000.00000" pt_clust_5="40.59522" pt_clust_6="58.45281"></scales>
<clustering>
<clus scale="   40.595">  2  5  1 -1</clus>
<clus scale="   58.453">  2  6  1 -1</clus>
<clus scale="   75.610">  1  3  2 -1</clus>
<clus scale="   75.610">  1  3  2 -1</clus>
</clustering>
</event>
<event>
 6    0  0.4227619E+002  0.2746663E+03  0.7546771E-02  0.1098638E+00
         21   -1    0    0  506  501  0.00000000000E+00  0.00000000000E+00  0.70358130982E+03  0.70358130982E+03  0.00000000000E+00 0. -1.
         21   -1    0    0  505  502 -0.00000000000E+00 -0.00000000000E+00 -0.46127166297E+03  0.46127166297E+03  0.00000000000E+00 0.  1.
         21    1    1    2  503  501  0.24012712913E+03  0.10090273319E+03 -0.14802364566E+03  0.29958871705E+03  0.00000000000E+00 0.  1.
         21    1    1    2  504  502 -0.39015282174E+02  0.14782320748E+02 -0.89292146585E+02  0.98558595219E+02  0.00000000000E+00 0. -1.
         21    1    1    2  505  503  0.71012422568E+02 -0.62033640621E+02 -0.91752643987E+02  0.13156551374E+03  0.00000000000E+00 0.  1.
         21    1    1    2  506  504 -0.27212426953E+03 -0.53651413316E+02  0.57137808308E+03  0.63514014677E+03  0.00000000000E+00 0. -1.
<scales pt_clust_3="14000.00000" pt_clust_4="41.72181" pt_clust_5="82.52277" pt_clust_6="274.66626"></scales>
<clustering>
<clus scale="   41.722">  2  4  1 -1</clus>
<clus scale="   82.523">  2  5  1 -1</clus>
<clus scale="  274.666">  1  6  2 -1</clus>
<clus scale="  274.666">  1  3  2 -1</clus>
</clustering>
</event>
<event>
 6    0  0.4227619E+002  0.9443998E+02  0.7546771E-02  0.1292442E+00
         21   -1    0    0  503  501  0.00000000000E+00  0.00000000000E+00  0.18063221725E+04  0.18063221725E+04  0.00000000000E+00 0.  1.
         21   -1    0    0  505  502 -0.00000000000E+00 -0.00000000000E+00 -0.11137828605E+03  0.11137828605E+03  0.00000000000E+00 0.  1.
         21    1    1    2  503  506 -0.21013510641E+02 -0.91975642720E+02  0.16479843240E+04  0.16506827129E+04  0.00000000000E+00 0.  1.
         21    1    1    2  504  501  0.61784545101E+02 -0.19794032824E+02  0.81616231687E+02  0.10426093719E+03  0.00000000000E+00 0.  1.
         21    1    1    2  505  504 -0.51052067148E+02  0.11759215077E+02  0.89885353492E+01  0.53154364515E+02  0.00000000000E+00 0.  1.
         21    1    1    2  506  502  0.10281032688E+02  0.10001046047E+03 -0.43645204592E+02  0.10960244395E+03  0.00000000000E+00 0.  1.
<scales pt_clust_3="94.43998" pt_clust_4="58.26098" pt_clust_5="52.38886" pt_clust_6="14000.00000"></scales>
<clustering>
<clus scale="   52.389">  2  5  1 -1</clus>
<clus scale="   58.261">  2  4  1 -1</clus>
<clus scale="   94.440">  1  3  2 -1</clus>
<clus scale="   94.440">  1  3  2 -1</clus>
</clustering>
</event>
<event>
 6    0  0.4227619E+002  0.9927203E+02  0.7546771E-02  0.1281834E+00
         21   -1    0    0  505  501  0.00000000000E+00  0.00000000000E+00  0.93440726040E+03  0.93440726040E+03  0.00000000000E+00 0.  1.
         21   -1    0    0  506  502 -0.00000000000E+00 -0.00000000000E+00 -0.50909527660E+02  0.50909527660E+02  0.00000000000E+00 0. -1.
         21    1    1    2  503  501  0.22230503168E+02  0.27473170003E+02  0.17476618822E+03  0.17830364798E+03  0.00000000000E+00 0.  1.
         21    1    1    2  504  503  0.46526315995E+02  0.12046327030E+01  0.18610397687E+03  0.19183544883E+03  0.00000000000E+00 0.  1.
         21    1    1    2  505  502 -0.86351202120E+02 -0.10301814260E+03  0.52174036670E+03  0.53877850556E+03  0.00000000000E+00 0.  1.
         21    1    1    2  506  504  0.17594382957E+02  0.74340339894E+02  0.88720094981E+00  0.76399185681E+02  0.00000000000E+00 0. -1.
<scales pt_clust_3="30.50833" pt_clust_4="30.50833" pt_clust_5="92.89336" pt_clust_6="76.39403"></scales>
<clustering>
<clus scale="   30.508">  3  4 -1 -1</clus>
<clus scale="   76.394">  2  6  1 -1</clus>
<clus scale="   92.893">  2  5  1 -1</clus>
<clus scale="   99.272">  1  3  2 -1</clus>
</clustering>
</event>
<event>
 6    0  0.4227619E+002  0.2116324E+03  0.7546771E-02  0.1140280E+00
         21   -1    0    0  504  501  0.00000000000E+00  0.00000000000E+00  0.40417063666E+03  0.40417063666E+03  0.00000000000E+00 0. -1.
         21   -1    0    0  501  502 -0.00000000000E+00 -0.00000000000E+00 -0.30779736739E+03  0.30779736739E+03  0.00000000000E+00 0. -1.
         21    1    1    2  503  502 -0.85509238246E+01  0.38282836933E+02 -0.10083906247E+03  0.10819986331E+03  0.00000000000E+00 0. -1.
         21    1    1    2  504  505 -0.13220664019E+03 -0.14839613107E+03  0.18177911920E+03  0.26933929458E+03  0.00000000000E+00 0. -1.
         21    1    1    2  505  506  0.18284925915E+03  0.15413871668E+03  0.73587771723E+02  0.25021541858E+03  0.00000000000E+00 0. -1.
         21    1    1    2  506  503 -0.42091695135E+02 -0.44025422534E+02 -0.58154559184E+02  0.84213427567E+02  0.00000000000E+00 0. -1.
<scales pt_clust_3="39.22619" pt_clust_4="211.63244" pt_clust_5="14000.00000" pt_clust_6="54.50053"></scales>
<clustering>
<clus scale="   39.226">  2  3  1 -1</clus>
<clus scale="   54.501">  2  6  1 -1</clus>
<clus scale="  211.632">  1  4  2 -1</clus>
<clus scale="  211.632">  1  3  2 -1</clus>
</clustering>
</event>
<event>
 6    0  0.4227619E+002  0.7529926E+02  0.7546771E-02  0.1342947E+00
         21   -1    0    0  505  501  0.00000000000E+00  0.00000000000E+00  0.63750857417E+02  0.63750857417E+02  0.00000000000E+00 0. -1.
         21   -1    0    0  506  502 -0.00000000000E+00 -0.00000000000E+00 -0.33511543631E+03  0.33511543631E+03  0.00000000000E+00 0. -1.
         21    1    1    2  503  501  0.39100776192E+02  0.78043620491E+02 -0.32652158536E+02  0.93197858641E+02  0.00000000000E+00 0. -1.
         21    1    1    2  504  502 -0.85218997253E+02 -0.41225244565E+02 -0.14157817999E+03  0.17031200583E+03  0.00000000000E+00 0. -1.
         21    1    1    2  505  504  0.49620253487E+00 -0.34917035521E+02 -0.89462787364E+01  0.36048321594E+02  0.00000000000E+00 0.  1.
         21    1    1    2  506  503  0.45622018526E+02 -0.19013404051E+01 -0.88187961640E+02  0.99308107665E+02  0.00000000000E+00 0. -1.
<scales pt_clust_3="75.29926" pt_clust_4="14000.00000" pt_clust_5="34.92056" pt_clust_6="46.03981"></scales>
<clustering>
<clus scale="   34.921">  1  5  2 -1</clus>
<clus scale="   46.040">  2  6  1 -1</clus>
<clus scale="   75.299">  1  3  2 -1</clus>
<clus scale="   34.921">  1  3  2 -1</clus>
</clustering>
</event>
<event>
 6    0  0.4227619E+002  0.9708246E+02  0.7546771E-02  0.1286554E+00
         21   -1    0    0  503  501  0.00000000000E+00  0.00000000000E+00  0.11169319982E+04  0.11169319982E+04  0.00000000000E+00 0.  1.
         21   -1    0    0  505  502 -0.00000000000E+00 -0.00000000000E+00 -0.37871488969E+03  0.37871488969E+03  0.00000000000E+00 0. -1.
         21    1    1    2  503  502 -0.46609793580E+02  0.11357418440E+03  0.40430153415E+03  0.42252964244E+03  0.00000000000E+00 0.  1.
         21    1    1    2  504  506  0.35498970595E+02  0.16065072251E+02  0.30075942570E+03  0.30327297211E+03  0.00000000000E+00 0.  1.
         21    1    1    2  505  504 -0.61577631727E+01 -0.96677675631E+02 -0.36108338113E+03  0.37385250988E+03  0.00000000000E+00 0. -1.
         21    1    1    2  506  501  0.17268586158E+02 -0.32961581025E+02  0.39423952977E+03  0.39599176345E+03  0.00000000000E+00 0. -1.
<scales pt_clust_3="14000.00000" pt_clust_4="42.78480" pt_clust_5="97.08246" pt_clust_6="37.21115"></scales>
<clustering>
<clus scale="   37.211">  1  6  2 -1</clus>
<clus scale="   42.785">  1  4  2 -1</clus>
<clus scale="   97.082">  2  5  1 -1</clus>
<clus scale="   37.211">  1  3  2 -1</clus>
</clustering>
</event>
<event>
 6    0  0.4227619E+002  0.1102918E+03  0.7546771E-02  0.1260030E+00
         21   -1    0    0  503  501  0.00000000000E+00  0.00000000000E+00  0.49469435194E+03  0.49469435194E+03  0.00000000000E+00 0.  1.
         21   -1    0    0  506  502 -0.00000000000E+00 -0.00000000000E+00 -0.95047805173E+03  0.95047805173E+03  0.00000000000E+00 0.  1.
         21    1    1    2  503  505 -0.22957725256E+02  0.33051945238E+02  0.43181276310E+03  0.43368392939E+03  0.00000000000E+00 0.  1.
         21    1    1    2  504  501  0.54146818892E+02 -0.13045925572E+02  0.31530742815E+02  0.64002046160E+02  0.00000000000E+00 0.  1.
         21    1    1    2  505  502 -0.97421244157E+02 -0.77264235443E+02 -0.70946359189E+03  0.72027720296E+03  0.00000000000E+00 0.  1.
         21    1    1    2  506  504  0.66232150521E+02  0.57258215777E+02 -0.20966361382E+03  0.22720922516E+03  0.00000000000E+00 0. -1.
<scales pt_clust_3="40.24287" pt_clust_4="38.50896" pt_clust_5="110.29179" pt_clust_6="14000.00000"></scales>
<clustering>
<clus scale="   40.243">  1  3  2 -1</clus>
<clus scale="   38.509">  1  4  2 -1</clus>
<clus scale="  110.292">  2  5  1 -1</clus>
<clus scale="   40.243">  1  3  2 -1</clus>
</clustering>
</event>
<event>
 6    0  0.4227619E+002  0.1015757E+03  0.7546771E-02  0.1277017E+00
         21   -1    0    0  506  501  0.00000000000E+00  0.00000000000E+00  0.30387711220E+03  0.30387711220E+03  0.00000000000E+00 0. -1.
         21   -1    0    0  505  502 -0.00000000000E+00 -0.00000000000E+00 -0.24519092656E+03  0.24519092656E+03  0.00000000000E+00 0. -1.
         21    1    1    2  503  501  0.46261784566E+02 -0.27855821053E+02  0.12403045907E+03  0.13527621467E+03  0.00000000000E+00 0. -1.
         21    1    1    2  504  503  0.44902937449E+02 -0.95697461508E+02  0.72499843459E+02  0.12818153234E+03  0.00000000000E+00 0. -1.
         21    1    1    2  505  504 -0.49361283400E+02  0.32746757315E+02 -0.17045855329E+03  0.18045776460E+03  0.00000000000E+00 0. -1.
         21    1    1    2  506  502 -0.41803438616E+02  0.90806525245E+02  0.32614436405E+02  0.10515252717E+03  0.00000000000E+00 0. -1.
<scales pt_clust_3="54.00092" pt_clust_4="101.57569" pt_clust_5="57.68774" pt_clust_6="14000.00000"></scales>
<clustering>
<clus scale="   54.001">  1  3  2 -1</clus>
<clus scale="   57.688">  2  5  1 -1</clus>
<clus scale="  101.576">  2  4  1 -1</clus>
<clus scale="   54.001">  1  3  2 -1</clus>
</clustering>
</event>
<event>
 6    0  0.4227619E+002  0.1242362E+03  0.7546771E-02  0.1236268E+00
         21   -1    0    0  505  501  0.00000000000E+00  0.00000000000E+00  0.29712329092E+03  0.29712329092E+03  0.00000000000E+00 0. -1.
         21   -1    0    0  506  502 -0.00000000000E+00 -0.00000000000E+00 -0.78045649951E+03  0.78045649951E+03  0.00000000000E+00 0. -1.
         21    1    1    2  503  502 -0.29698091936E+02 -0.75418568660E+02 -0.20677006705E+02  0.83650916132E+02  0.00000000000E+00 0. -1.
         21    1    1    2  504  501  0.40925510856E+02 -0.12681442923E+02  0.17687258144E+03  0.18198798449E+03  0.00000000000E+00 0. -1.
         21    1    1    2  505  503 -0.69003945808E+02 -0.31497949216E+02  0.61988432954E+02  0.97960355053E+02  0.00000000000E+00 0. -1.
         21    1    1    2  506  504  0.57776526888E+02  0.11959796080E+03 -0.70151721628E+03  0.71398053476E+03  0.00000000000E+00 0. -1.
<scales pt_clust_3="124.23623" pt_clust_4="42.84526" pt_clust_5="57.49961" pt_clust_6="14000.00000"></scales>
<clustering>
<clus scale="   42.845">  1  4  2 -1</clus>
<clus scale="   57.500">  1  5  2 -1</clus>
<clus scale="  124.236">  1  3  2 -1</clus>
<clus scale="   42.845">  1  3  2 -1</clus>
</clustering>
</event>
<event>
 6    0  0.4227619E+002  0.9072855E+02  0.7546771E-02  0.1301097E+00
         21   -1    0    0  506  501  0.00000000000E+00  0.00000000000E+00  0.18509179772E+03  0.18509179772E+03  0.00000000000E+00 0.  1.
         21   -1    0    0  505  502 -0.00000000000E+00 -0.00000000000E+00 -0.21736353655E+03  0.21736353655E+03  0.00000000000E+00 0.  1.
         21    1    1    2  503  502  0.30687807640E+02 -0.90961616957E+02 -0.15539803446E+03  0.18265898941E+03  0.00000000000E+00 0.  1.
         21    1    1    2  504  503 -0.51100523459E+02  0.56172888202E+02  0.24270802850E+02  0.79722824446E+02  0.00000000000E+00 0.  1.
         21    1    1    2  505  501  0.72799421310E+01 -0.31112056330E+02  0.34661229914E+02  0.47141897137E+02  0.00000000000E+00 0.  1.
         21    1    1    2  506  504  0.13132773687E+02  0.65900785084E+02  0.64194262865E+02  0.92931623273E+02  0.00000000000E+00 0. -1.
<scales pt_clust_3="14000.00000" pt_clust_4="90.72855" pt_clust_5="31.95243" pt_clust_6="51.84987"></scales>
<clustering>
<clus scale="   31.952">  1  5  2 -1</clus>
<clus scale="   51.850">  1  6  2 -1</clus>
<clus scale="   90.729">  1  4  2 -1</clus>
<clus scale="   31.952">  1  3  2 -1</clus>
</clustering>
</event>
<event>
 6    0  0.4227619E+002  0.1067658E+03  0.7546771E-02  0.1266679E+00
         21   -1    0    0  504  501  0.00000000000E+00  0.00000000000E+00  0.91084315958E+02  0.91084315958E+02  0.00000000000E+00 0. -1.
         21   -1    0    0  505  502 -0.00000000000E+00 -0.00000000000E+00 -0.20157853351E+04  0.20157853351E+04  0.00000000000E+00 0. -1.
         21    1    1    2  503  501 -0.30564458231E+02 -0.12188046609E+03 -0.97769357641E+02  0.15921018000E+03  0.00000000000E+00 0.  1.
         21    1    1    2  504  506 -0.42993383020E+02  0.31620859797E+02  0.45018895011E+02  0.69821276598E+02  0.00000000000E+00 0. -1.
         21    1    1    2  505  503  0.63878642482E+02  0.36601253664E+02 -0.56843095739E+03  0.57317875576E+03  0.00000000000E+00 0. -1.
         21    1    1    2  506  502  0.96791987697E+01  0.53658352631E+02 -0.13035195991E+04  0.13046594387E+04  0.00000000000E+00 0. -1.
<scales pt_clust_3="106.76583" pt_clust_4="53.36956" pt_clust_5="14000.00000" pt_clust_6="54.92797"></scales>
<clustering>
<clus scale="   53.370">  1  4  2 -1</clus>
<clus scale="   54.928">  2  6  1 -1</clus>
<clus scale="  106.766">  1  3  2 -1</clus>
<clus scale="   53.370">  1  3  2 -1</clus>
</clustering>
</event>
<event>
 6    0  0.4227619E+002  0.8512938E+02  0.7546771E-02  0.1315095E+00
         21   -1    0    0  504  501  0.00000000000E+00  0.00000000000E+00  0.86379405511E+03  0.86379405511E+03  0.00000000000E+00 0.  1.
         21   -1    0    0  505  502 -0.00000000000E+00 -0.00000000000E+00 -0.19618350614E+03  0.19618350614E+03  0.00000000000E+00 0.  1.
         21    1    1    2  503  502 -0.28202326685E+02 -0.26877325714E+02 -0.16691979195E+03  0.17140588909E+03  0.00000000000E+00 0.  1.
         21    1    1    2  504  506  0.67467354285E+02 -0.42096761975E+02  0.54738301162E+03  0.55312940862E+03  0.00000000000E+00 0.  1.
         21    1    1    2  505  501  0.30139005224E+02 -0.15606987011E+02  0.69548135184E+01  0.34645448626E+02  0.00000000000E+00 0.  1.
         21    1    1    2  506  503 -0.69404032824E+02  0.84581074700E+02  0.28019251577E+03  0.30079681492E+03  0.00000000000E+00 0.  1.
<scales pt_clust_3="41.35729" pt_clust_4="85.12938" pt_clust_5="33.94021" pt_clust_6="14000.00000"></scales>
<clustering>
<clus scale="   33.940">  2  5  1 -1</clus>
<clus scale="   41.357">  2  3  1 -1</clus>
<clus scale="   85.129">  1  4  2 -1</clus>
<clus scale="   85.129">  1  3  2 -1</clus>
</clustering>
</event>
<event>
 6    0  0.4227619E+002  0.9632110E+02  0.7546771E-02  0.1288228E+00
         21   -1    0    0  503  501  0.00000000000E+00  0.00000000000E+00  0.11022609798E+04  0.11022609798E+04  0.00000000000E+00 0.  1.
         21   -1    0    0  506  502 -0.00000000000E+00 -0.00000000000E+00 -0.71093101137E+02  0.71093101137E+02  0.00000000000E+00 0. -1.
         21    1    1    2  503  505 -0.44713640811E+02 -0.17249290984E+02  0.21134839087E+03  0.21671407438E+03  0.00000000000E+00 0.  1.
         21    1    1    2  504  502 -0.10647529934E+03 -0.15216114724E+00 -0.58960680628E+01  0.10663853028E+03  0.00000000000E+00 0. -1.
         21    1    1    2  505  504  0.63787680041E+02 -0.33492916877E+02  0.14606635845E+03  0.16286812051E+03  0.00000000000E+00 0.  1.
         21    1    1    2  506  501  0.87401260110E+02  0.50894369008E+02  0.67964919744E+03  0.68713335580E+03  0.00000000000E+00 0.  1.
<scales pt_clust_3="47.92544" pt_clust_4="14000.00000" pt_clust_5="96.32110" pt_clust_6="64.99545"></scales>
<clustering>
<clus scale="   47.925">  1  3  2 -1</clus>
<clus scale="   64.995">  1  6  2 -1</clus>
<clus scale="   96.321">  1  5  2 -1</clus>
<clus scale="   47.925">  1  3  2 -1</clus>
</clustering>
</event>
<event>
 6    0  0.4227619E+002  0.1902968E+03  0.7546771E-02  0.1158194E+00
         21   -1    0    0  505  501  0.00000000000E+00  0.00000000000E+00  0.13928798642E+03  0.13928798642E+03  0.00000000000E+00 0.  1.
         21   -1    0    0  506  502 -0.00000000000E+00 -0.00000000000E+00 -0.11935312381E+04  0.11935312381E+04  0.00000000000E+00 0.  1.
         21    1    1    2  503  501  0.39498469876E+02  0.18097882862E+03 -0.47704220725E+02  0.19128292712E+03  0.00000000000E+00 0.  1.
         21    1    1    2  504  503 -0.66283615047E+02  0.99924801413E+01 -0.47398269450E+03  0.47869923958E+03  0.00000000000E+00 0.  1.
         21    1    1    2  505  502  0.11073462302E+03 -0.20704655419E+03 -0.16881185561E+03  0.28918484562E+03  0.00000000000E+00 0.  1.
         21    1    1    2  506  504 -0.83949477848E+02  0.16075245427E+02 -0.36374448089E+03  0.37365221226E+03  0.00000000000E+00 0.  1.
<scales pt_clust_3="190.29679" pt_clust_4="33.91487" pt_clust_5="14000.00000" pt_clust_6="157.21379"></scales>
<clustering>
<clus scale="   33.915">  4  6 -1 -1</clus>
<clus scale="  157.214">  2  4  1 -1</clus>
<clus scale="  190.297">  1  3  2 -1</clus>
<clus scale="  190.297">  1  3  2 -1</clus>
</clustering>
</event>
<event>
 6    0  0.4227619E+002  0.1198694E+03  0.7546771E-02  0.1243313E+00
         21   -1    0    0  504  501  0.00000000000E+00  0.00000000000E+00  0.32586734415E+03  0.32586734415E+03  0.00000000000E+00 0.  1.
         21   -1    0    0  505  502 -0.00000000000E+00 -0.00000000000E+00 -0.22230340941E+03  0.22230340941E+03  0.00000000000E+00 0.  1.
         21    1    1    2  503  502 -0.41934700139E+02 -0.12717528836E+03 -0.85266042469E+02  0.15875254658E+03  0.00000000000E+00 0.  1.
         21    1    1    2  504  503  0.10426639068E+03 -0.39283761902E+02  0.46440434123E+02  0.12071208761E+03  0.00000000000E+00 0.  1.
         21    1    1    2  505  506  0.86243399628E+00  0.10286233239E+03  0.29221244551E+01  0.10290744399E+03  0.00000000000E+00 0.  1.
         21    1    1    2  506  501 -0.63194124536E+02  0.63596717875E+02  0.13946741863E+03  0.16579867538E+03  0.00000000000E+00 0.  1.
<scales pt_clust_3="119.86939" pt_clust_4="74.27835" pt_clust_5="14000.00000" pt_clust_6="89.65512"></scales>
<clustering>
<clus scale="   89.655">  1  6  2 -1</clus>
<clus scale="   74.278">  1  4  2 -1</clus>
<clus scale="  119.869">  2  3  1 -1</clus>
<clus scale="   89.655">  1  3  2 -1</clus>
</clustering>
</event>
<event>
 6    0  0.4227619E+002  0.1182366E+03  0.7546771E-02  0.1246035E+00
         21   -1    0    0  506  501  0.00000000000E+00  0.00000000000E+00  0.24687622547E+03  0.24687622547E+03  0.00000000000E+00 0.  1.
         21   -1    0    0  505  502 -0.00000000000E+00 -0.00000000000E+00 -0.32076149198E+03  0.32076149198E+03  0.00000000000E+00 0.  1.
         21    1    1    2  503  502  0.51663818140E+02 -0.13406526629E+02 -0.18561739799E+03  0.19313907812E+03  0.00000000000E+00 0.  1.
         21    1    1    2  504  501  0.72279701329E+02  0.10338902227E+03  0.15496649729E+03  0.19982057059E+03  0.00000000000E+00 0.  1.
         21    1    1    2  505  504 -0.85811558936E+02 -0.44968159374E+02 -0.59232668014E+02  0.11355293023E+03  0.00000000000E+00 0.  1.
         21    1    1    2  506  503 -0.38131960533E+02 -0.45014336265E+02  0.15998302203E+02  0.61125138502E+02  0.00000000000E+00 0.  1.
<scales pt_clust_3="53.37495" pt_clust_4="118.23663" pt_clust_5="14000.00000" pt_clust_6="55.63257"></scales>
<clustering>
<clus scale="   53.375">  2  3  1 -1</clus>
<clus scale="   55.633">  2  6  1 -1</clus>
<clus scale="  118.237">  1  4  2 -1</clus>
<clus scale="  118.237">  1  3  2 -1</clus>
</clustering>
</event>
<event>
 6    0  0.4227619E+002  0.9970964E+02  0.7546771E-02  0.1280908E+00
         21   -1    0    0  506  501  0.00000000000E+00  0.00000000000E+00  0.22384967176E+03  0.22384967176E+03  0.00000000000E+00 0. -1.
         21   -1    0    0  505  502 -0.00000000000E+00 -0.00000000000E+00 -0.26564005074E+03  0.26564005074E+03  0.00000000000E+00 0. -1.
         21    1    1    2  503  502 -0.12145897948E+02  0.70454359925E+02 -0.16220410461E+03  0.17726113850E+03  0.00000000000E+00 0. -1.
         21    1    1    2  504  501  0.56429964749E+02  0.57208327504E+02  0.44977123167E+02  0.92087324131E+02  0.00000000000E+00 0. -1.
         21    1    1    2  505  504  0.38477549978E+02 -0.35931545285E+02 -0.27441071854E+02  0.59368427833E+02  0.00000000000E+00 0. -1.
         21    1    1    2  506  503 -0.82761616779E+02 -0.91731142143E+02  0.10287767431E+03  0.16077283204E+03  0.00000000000E+00 0. -1.
<scales pt_clust_3="46.33855" pt_clust_4="14000.00000" pt_clust_5="52.64597" pt_clust_6="99.70964"></scales>
<clustering>
<clus scale="   52.646">  2  5  1 -1</clus>
<clus scale="   46.339">  2  3  1 -1</clus>
<clus scale="   99.710">  2  6  1 -1</clus>
<clus scale="   99.710">  1  3  2 -1</clus>
</clustering>
</event>
<event>
 6    0  0.4227619E+002  0.1549054E+03  0.7546771E-02  0.1194572E+00
         21   -1    0    0  504  501  0.00000000000E+00  0.00000000000E+00  0.10318750686E+03  0.10318750686E+03  0.00000000000E+00 0. -1.
         21   -1    0    0  506  502 -0.00000000000E+00 -0.00000000000E+00 -0.14041033678E+04  0.14041033678E+04  0.00000000000E+00 0. -1.
         21    1    1    2  503  501 -0.11530694401E+03  0.53158280292E+02 -0.51278302363E+02  0.13693413889E+03  0.00000000000E+00 0. -1.
         21    1    1    2  504  505  0.11311179752E+03 -0.46207938278E+02 -0.54133868037E+02  0.13364104148E+03  0.00000000000E+00 0. -1.
         21    1    1    2  505  502  0.41649330776E+02  0.14922379389E+02 -0.11905064611E+04  0.11913282411E+04  0.00000000000E+00 0. -1.
         21    1    1    2  506  503 -0.39454184285E+02 -0.21872721404E+02 -0.49972293995E+01  0.45387453121E+02  0.00000000000E+00 0. -1.
<scales pt_clust_3="42.75247" pt_clust_4="137.29980" pt_clust_5="44.24188" pt_clust_6="42.75247"></scales>
<clustering>
<clus scale="   42.752">  3  6 -1 -1</clus>
<clus scale="   44.242">  2  5  1 -1</clus>
<clus scale="  137.300">  1  4  2 -1</clus>
<clus scale="  137.300">  1  3  2 -1</clus>
</clustering>
</event>
<event>
 6    0  0.4227619E+002  0.9315925E+02  0.7546771E-02  0.1295377E+00
         21   -1    0    0  506  501  0.00000000000E+00  0.00000000000E+00  0.47091422416E+03  0.47091422416E+03  0.00000000000E+00 0. -1.
         21   -1    0    0  505  502 -0.00000000000E+00 -0.00000000000E+00 -0.12229553377E+03  0.12229553377E+03  0.00000000000E+00 0.  1.
         21    1    1    2  503  501  0.20391595618E+02  0.28557838215E+02  0.15734227633E+03  0.16120781376E+03  0.00000000000E+00 0. -1.
         21    1    1    2  504  502 -0.33208828229E+02  0.68320128794E+02 -0.81716244412E+02  0.11157065417E+03  0.00000000000E+00 0.  1.
         21    1    1    2  505  503  0.24397515891E+02  0.23084628529E+02  0.17351003192E+02  0.37804710920E+02  0.00000000000E+00 0.  1.
         21    1    1    2  506  504 -0.11580283279E+02 -0.11996259554E+03  0.25564165528E+03  0.28262657908E+03  0.00000000000E+00 0. -1.
<scales pt_clust_3="35.65953" pt_clust_4="14000.00000" pt_clust_5="33.58778" pt_clust_6="93.15925"></scales>
<clustering>
<clus scale="   33.588">  2  5  1 -1</clus>
<clus scale="   35.660">  1  3  2 -1</clus>
<clus scale="   93.159">  1  6  2 -1</clus>
<clus scale="   35.660">  1  3  2 -1</clus>
</clustering>
</event>
<event>
 6    0  0.4227619E+002  0.1042747E+03  0.7546771E-02  0.1271555E+00
         21   -1    0    0  503  501  0.00000000000E+00  0.00000000000E+00  0.34745496217E+03  0.34745496217E+03  0.00000000000E+00 0. -1.
         21   -1    0    0  506  502 -0.00000000000E+00 -0.00000000000E+00 -0.14675900773E+04  0.14675900773E+04  0.00000000000E+00 0. -1.
         21    1    1    2  503  502  0.74646296099E+02 -0.27852934034E+02  0.47300553330E+02  0.92656342475E+02  0.00000000000E+00 0. -1.
         21    1    1    2  504  501  0.20447363809E+02 -0.29545770155E+02  0.25943651289E+03  0.26191286995E+03  0.00000000000E+00 0. -1.
         21    1    1    2  505  504 -0.10816693919E+03  0.27111833611E+02 -0.17085734129E+03  0.20402786410E+03  0.00000000000E+00 0.  1.
         21    1    1    2  506  505  0.13073279280E+02  0.30286870577E+02 -0.12560148401E+04  0.12564479630E+04  0.00000000000E+00 0. -1.
<scales pt_clust_3="14000.00000" pt_clust_4="35.82921" pt_clust_5="104.27466" pt_clust_6="32.98795"></scales>
<clustering>
<clus scale="   32.988">  2  6  1 -1</clus>
<clus scale="   35.829">  1  4  2 -1</clus>
<clus scale="  104.275">  2  5  1 -1</clus>
<clus scale="   35.829">  1  3  2 -1</clus>
</clustering>
</event>
<event>
 6    0  0.4227619E+002  0.1233125E+03  0.7546771E-02  0.1237730E+00
         21   -1    0    0  506  501  0.00000000000E+00  0.00000000000E+00  0.17703705645E+03  0.17703705645E+03  0.00000000000E+00 0. -1.
         21   -1    0    0  503  502 -0.00000000000E+00 -0.00000000000E+00 -0.77501202373E+03  0.77501202373E+03  0.00000000000E+00 0.  1.
         21    1    1    2  503  505  0.51678514811E+02 -0.22847066004E+02 -0.10107124137E+03  0.11579314812E+03  0.00000000000E+00 0. -1.
         21    1    1    2  504  502  0.82096962054E+02 -0.24792153082E+02 -0.54541652365E+03  0.55211751132E+03  0.00000000000E+00 0.  1.
         21    1    1    2  505  501 -0.86344711880E+02  0.87208868691E+02 -0.76559304555E+02  0.14464481727E+03  0.00000000000E+00 0.  1.
         21    1    1    2  506  504 -0.47430764985E+02 -0.39569649606E+02  0.12507210230E+03  0.13949360348E+03  0.00000000000E+00 0. -1.
<scales pt_clust_3="56.50360" pt_clust_4="123.31254" pt_clust_5="14000.00000" pt_clust_6="61.50070"></scales>
<clustering>
<clus scale="   56.504">  2  3  1 -1</clus>
<clus scale="   61.501">  1  6  2 -1</clus>
<clus scale="  123.313">  2  4  1 -1</clus>
<clus scale="   61.501">  1  3  2 -1</clus>
</clustering>
</event>
<event>
 6    0  0.4227619E+002  0.1543499E+03  0.7546771E-02  0.1195227E+00
         21   -1    0    0  506  501  0.00000000000E+00  0.00000000000E+00  0.11586966756E+03  0.11586966756E+03  0.00000000000E+00 0.  1.
         21   -1    0    0  505  502 -0.00000000000E+00 -0.00000000000E+00 -0.93746053892E+03  0.93746053892E+03  0.00000000000E+00 0. -1.
         21    1    1    2  503  501 -0.27750911618E+02  0.14129275217E+03  0.42627311321E+02  0.15016937964E+03  0.00000000000E+00 0.  1.
         21    1    1    2  504  502  0.20130179099E+02 -0.81394939886E+02 -0.24660852763E+03  0.26047288966E+03  0.00000000000E+00 0.  1.
         21    1    1    2  505  503 -0.25035239728E+02  0.18239886567E+02 -0.48074070738E+03  0.48173756800E+03  0.00000000000E+00 0. -1.
         21    1    1    2  506  504  0.32655972246E+02 -0.78137698846E+02 -0.13686894767E+03  0.16095036918E+03  0.00000000000E+00 0.  1.
<scales pt_clust_3="146.69134" pt_clust_4="46.51394" pt_clust_5="30.97510" pt_clust_6="46.51394"></scales>
<clustering>
<clus scale="   30.975">  2  5  1 -1</clus>
<clus scale="   46.514">  4  6 -1 -1</clus>
<clus scale="  146.691">  1  3  2 -1</clus>
<clus scale="  146.691">  1  3  2 -1</clus>
</clustering>
</event>
<event>
 6    0  0.4227619E+002  0.1205188E+03  0.7546771E-02  0.1242244E+00
         21   -1    0    0  503  501  0.00000000000E+00  0.00000000000E+00  0.13937604256E+04  0.13937604256E+04  0.00000000000E+00 0.  1.
         21   -1    0    0  506  502 -0.00000000000E+00 -0.00000000000E+00 -0.41475905793E+03  0.41475905793E+03  0.00000000000E+00 0. -1.
         21    1    1    2  503  505 -0.14223101026E+02 -0.86844886579E+02  0.13717739336E+03  0.16297842857E+03  0.00000000000E+00 0. -1.
         21    1    1    2  504  501 -0.30666901783E+02 -0.30148207042E+02  0.12211124538E+04  0.12218694685E+04  0.00000000000E+00 0.  1.
         21    1    1    2  505  502  0.16090186628E+02  0.12804266708E+03 -0.36937753777E+03  0.39127175225E+03  0.00000000000E+00 0. -1.
         21    1    1    2  506  504  0.28799816181E+02 -0.11049573462E+02 -0.99109417814E+01  0.32399834147E+02  0.00000000000E+00 0. -1.
<scales pt_clust_3="14000.00000" pt_clust_4="42.99205" pt_clust_5="120.51882" pt_clust_6="30.84676"></scales>
<clustering>
<clus scale="   30.847">  2  6  1 -1</clus>
<clus scale="   42.992">  1  4  2 -1</clus>
<clus scale="  120.519">  2  5  1 -1</clus>
<clus scale="   42.992">  1  3  2 -1</clus>
</clustering>
</event>
<event>
 6    0  0.4227619E+002  0.1087699E+03  0.7546771E-02  0.1262865E+00
         21   -1    0    0  504  501  0.00000000000E+00  0.00000000000E+00  0.43725927821E+03  0.43725927821E+03  0.00000000000E+00 0. -1.
         21   -1    0    0  503  502 -0.00000000000E+00 -0.00000000000E+00 -0.88357228947E+03  0.88357228947E+03  0.00000000000E+00 0.  1.
         21    1    1    2  503  505 -0.79665351091E+01 -0.72997499323E+02 -0.83542359010E+03  0.83864454657E+03  0.00000000000E+00 0.  1.
         21    1    1    2  504  506  0.36719666974E+02  0.19717976207E+02  0.26832812935E+03  0.27154579269E+03  0.00000000000E+00 0. -1.
         21    1    1    2  505  501 -0.36542196847E+02  0.91795810486E+02  0.13634158703E+03  0.16837705107E+03  0.00000000000E+00 0. -1.
         21    1    1    2  506  502  0.77890649829E+01 -0.38516287369E+02 -0.15559137530E+02  0.42264177346E+02  0.00000000000E+00 0. -1.
<scales pt_clust_3="14000.00000" pt_clust_4="41.65760" pt_clust_5="108.76994" pt_clust_6="39.29598"></scales>
<clustering>
<clus scale="   39.296">  2  6  1 -1</clus>
<clus scale="   41.658">  1  4  2 -1</clus>
<clus scale="  108.770">  1  5  2 -1</clus>
<clus scale="   41.658">  1  3  2 -1</clus>
</clustering>
</event>
<event>
 6    0  0.4227619E+002  0.1583815E+03  0.7546771E-02  0.1190536E+00
         21   -1    0    0  503  501  0.00000000000E+00  0.00000000000E+00  0.23692970463E+03  0.23692970463E+03  0.00000000000E+00 0. -1.
         21   -1    0    0  505  502 -0.00000000000E+00 -0.00000000000E+00 -0.34517133293E+04  0.34517133293E+04  0.00000000000E+00 0. -1.
         21    1    1    2  503  502 -0.76771661355E+02  0.14134409911E+03 -0.23823354090E+04  0.23877592097E+04  0.00000000000E+00 0. -1.
         21    1    1    2  504  501  0.99606448871E+02 -0.67384156132E+02  0.13479921311E+03  0.18064577773E+03  0.00000000000E+00 0. -1.
         21    1    1    2  505  506 -0.57298594057E+02 -0.81403431828E+02 -0.10371660702E+04  0.10419323897E+04  0.00000000000E+00 0. -1.
         21    1    1    2  506  504  0.34463806541E+02  0.74434888490E+01  0.69918641359E+02  0.78305656865E+02  0.00000000000E+00 0. -1.
<scales pt_clust_3="146.64909" pt_clust_4="32.39205" pt_clust_5="99.54721" pt_clust_6="32.39205"></scales>
<clustering>
<clus scale="   32.392">  4  6 -1 -1</clus>
<clus scale="   99.547">  2  5  1 -1</clus>
<clus scale="  146.649">  2  3  1 -1</clus>
<clus scale="  158.381">  1  3  2 -1</clus>
</clustering>
</event>
<event>
 6    0  0.4227619E+002  0.1204911E+03  0.7546771E-02  0.1242289E+00
         21   -1    0    0  504  501  0.00000000000E+00  0.00000000000E+00  0.15977698190E+03  0.15977698190E+03  0.00000000000E+00 0. -1.
         21   -1    0    0  506  502 -0.00000000000E+00 -0.00000000000E+00 -0.62066041494E+03  0.62066041494E+03  0.00000000000E+00 0. -1.
         21    1    1    2  503  502  0.36404571039E+02 -0.21497420576E+02 -0.35067512417E+02  0.54928702070E+02  0.00000000000E+00 0. -1.
         21    1    1    2  504  503 -0.97339869478E+02  0.19595151134E+02 -0.46066795497E+02  0.10945852998E+03  0.00000000000E+00 0. -1.
         21    1    1    2  505  501  0.49191809129E+02  0.10340788962E+03  0.83463409987E+02  0.14170097574E+03  0.00000000000E+00 0. -1.
         21    1    1    2  506  505  0.11743489311E+02 -0.10150562017E+03 -0.46321253511E+03  0.47434918905E+03  0.00000000000E+00 0. -1.
<scales pt_clust_3="42.27803" pt_clust_4="93.91730" pt_clust_5="120.49110" pt_clust_6="14000.00000"></scales>
<clustering>
<clus scale="   42.278">  2  3  1 -1</clus>
<clus scale="   93.917">  1  4  2 -1</clus>
<clus scale="  120.491">  1  5  2 -1</clus>
<clus scale="   93.917">  1  3  2 -1</clus>
</clustering>
</event>
<event>
 6    0  0.4227619E+002  0.7917364E+02  0.7546771E-02  0.1331413E+00
         21   -1    0    0  504  501  0.00000000000E+00  0.00000000000E+00  0.71731804172E+02  0.71731804172E+02  0.00000000000E+00 0. -1.
         21   -1    0    0  503  502 -0.00000000000E+00 -0.00000000000E+00 -0.32127974227E+03  0.32127974227E+03  0.00000000000E+00 0. -1.
         21    1    1    2  503  505  0.33935667119E+02  0.12505657659E+02 -0.94556808709E+02  0.10123739946E+03  0.00000000000E+00 0. -1.
         21    1    1    2  504  506 -0.80169904376E+02  0.20935035405E+02 -0.20257657995E+01  0.82883007921E+02  0.00000000000E+00 0. -1.
         21    1    1    2  505  501  0.43049745072E+02 -0.80433784303E+02 -0.76385388223E+02  0.11898572075E+03  0.00000000000E+00 0. -1.
         21    1    1    2  506  502  0.31844921843E+01  0.46993091239E+02 -0.76579975370E+02  0.89905418315E+02  0.00000000000E+00 0. -1.
<scales pt_clust_3="36.16657" pt_clust_4="79.17364" pt_clust_5="14000.00000" pt_clust_6="54.02467"></scales>
<clustering>
<clus scale="   36.167">  2  3  1 -1</clus>
<clus scale="   54.025">  2  6  1 -1</clus>
<clus scale="   79.174">  1  4  2 -1</clus>
<clus scale="   79.174">  1  3  2 -1</clus>
</clustering>
</event>
<event>
 6    0  0.4227619E+002  0.7134310E+02  0.7546771E-02  0.1355584E+00
         21   -1    0    0  504  501  0.00000000000E+00  0.00000000000E+00  0.23240097820E+03  0.23240097820E+03  0.00000000000E+00 0.  1.
         21   -1    0    0  506  502 -0.00000000000E+00 -0.00000000000E+00 -0.19027697328E+03  0.19027697328E+03  0.00000000000E+00 0. -1.
         21    1    1    2  503  502  0.56803502298E+02 -0.62450470142E+02 -0.87192051930E+02  0.12136372198E+03  0.00000000000E+00 0. -1.
         21    1    1    2  504  503  0.47660798014E+02  0.46521335479E+01  0.11676704744E+03  0.12620514008E+03  0.00000000000E+00 0.  1.
         21    1    1    2  505  501 -0.40816804712E+02  0.41785361432E+02  0.67675678714E+02  0.89398128987E+02  0.00000000000E+00 0.  1.
         21    1    1    2  506  505 -0.63647495601E+02  0.16012975162E+02 -0.55126669308E+02  0.85710960436E+02  0.00000000000E+00 0. -1.
<scales pt_clust_3="71.34310" pt_clust_4="47.88731" pt_clust_5="45.63035" pt_clust_6="14000.00000"></scales>
<clustering>
<clus scale="   47.887">  1  4  2 -1</clus>
<clus scale="   45.630">  1  5  2 -1</clus>
<clus scale="   71.343">  1  3  2 -1</clus>
<clus scale="   47.887">  1  3  2 -1</clus>
</clustering>
</event>
<event>
 6    0  0.5528750E+002  0.1240992E+03  0.7546771E-02  0.1236484E+00
         21   -1    0    0  502  501  0.00000000000E+00  0.00000000000E+00  0.36328878832E+03  0.36328878832E+03  0.00000000000E+00 0. -1.
         21   -1    0    0  506  502 -0.00000000000E+00 -0.00000000000E+00 -0.76226544345E+03  0.76226544345E+03  0.00000000000E+00 0.  1.
         21    1    1    2  503  504  0.38345157703E+02  0.33044396096E+02  0.43698110245E+02  0.66871578952E+02  0.00000000000E+00 0. -1.
         21    1    1    2  504  501 -0.11799366235E+03 -0.71071049420E+02  0.27379276716E+03  0.30648993094E+03  0.00000000000E+00 0. -1.
         21    1    1    2  505  503  0.33302812254E+02  0.68723863629E+01 -0.45679022393E+00  0.34007582326E+02  0.00000000000E+00 0.  1.
         21    1    1    2  506  505  0.46345692394E+02  0.31154266961E+02 -0.71601074231E+03  0.71818513954E+03  0.00000000000E+00 0.  1.
<scales pt_clust_3="32.57930" pt_clust_4="117.56108" pt_clust_5="32.57930" pt_clust_6="55.84363"></scales>
<clustering>
<clus scale="   32.579">  3  5 -1 -1</clus>
<clus scale="   55.844">  2  6  1 -1</clus>
<clus scale="  117.561">  1  4  2 -1</clus>
<clus scale="  117.561">  1  3  2 -1</clus>
</clustering>
</event>
<event>
 6    0  0.4227619E+002  0.6037381E+02  0.7546771E-02  0.1396270E+00
         21   -1    0    0  505  501  0.00000000000E+00  0.00000000000E+00  0.11696769797E+04  0.11696769797E+04  0.00000000000E+00 0. -1.
         21   -1    0    0  506  502 -0.00000000000E+00 -0.00000000000E+00 -0.25038714647E+03  0.25038714647E+03  0.00000000000E+00 0.  1.
         21    1    1    2  503  501 -0.44773800348E+02  0.40444550350E+02  0.89791221869E+03  0.89993711298E+03  0.00000000000E+00 0. -1.
         21    1    1    2  504  503  0.59782872790E+02  0.64651263790E+02 -0.66974193814E+02  0.11063146219E+03  0.00000000000E+00 0.  1.
         21    1    1    2  505  502  0.38147938077E+01 -0.80783508343E+02  0.24077895030E+03  0.25399809208E+03  0.00000000000E+00 0. -1.
         21    1    1    2  506  504 -0.18823866250E+02 -0.24312305798E+02 -0.15242714191E+03  0.15549745896E+03  0.00000000000E+00 0.  1.
<scales pt_clust_3="60.37381" pt_clust_4="59.89754" pt_clust_5="14000.00000" pt_clust_6="30.74778"></scales>
<clustering>
<clus scale="   30.748">  2  6  1 -1</clus>
<clus scale="   59.898">  2  4  1 -1</clus>
<clus scale="   60.374">  1  3  2 -1</clus>
<clus scale="   60.374">  1  3  2 -1</clus>
</clustering>
</event>
<event>
 6    0  0.4227619E+002  0.8335278E+02  0.7546771E-02  0.1319797E+00
         21   -1    0    0  506  501  0.00000000000E+00  0.00000000000E+00  0.12253805355E+03  0.12253805355E+03  0.00000000000E+00 0. -1.
         21   -1    0    0  504  502 -0.00000000000E+00 -0.00000000000E+00 -0.26059052373E+03  0.26059052373E+03  0.00000000000E+00 0.  1.
         21    1    1    2  503  501  0.60285729474E+02 -0.35515546182E+02  0.72321761812E+01  0.70342217560E+02  0.00000000000E+00 0. -1.
         21    1    1    2  504  503  0.63581859658E+02 -0.23657470500E+02 -0.68066851588E+02  0.96101119000E+02  0.00000000000E+00 0. -1.
         21    1    1    2  505  502 -0.94489663844E+02  0.46185117642E+02 -0.12231746395E+03  0.16131622253E+03  0.00000000000E+00 0.  1.
         21    1    1    2  506  505 -0.29377925288E+02  0.12987899040E+02  0.45099669177E+02  0.55369018192E+02  0.00000000000E+00 0.  1.
<scales pt_clust_3="52.89201" pt_clust_4="83.35278" pt_clust_5="14000.00000" pt_clust_6="32.12083"></scales>
<clustering>
<clus scale="   32.121">  1  6  2 -1</clus>
<clus scale="   52.892">  1  3  2 -1</clus>
<clus scale="   83.353">  2  4  1 -1</clus>
<clus scale="   32.121">  1  3  2 -1</clus>
</clustering>
</event>
<event>
 6    0  0.4227619E+002  0.1683291E+03  0.7546771E-02  0.1179602E+00
         21   -1    0    0  503  501  0.00000000000E+00  0.00000000000E+00  0.61604992411E+03  0.61604992411E+03  0.00000000000E+00 0.  1.
         21   -1    0    0  504  502 -0.00000000000E+00 -0.00000000000E+00 -0.12476006911E+03  0.12476006911E+03  0.00000000000E+00 0.  1.
         21    1    1    2  503  502 -0.12114562901E+02 -0.48081213269E+02  0.47097671416E+02  0.68386814201E+02  0.00000000000E+00 0.  1.
         21    1    1    2  504  506 -0.27247548377E+02  0.35386096805E+02 -0.42433568753E+02  0.61605296012E+02  0.00000000000E+00 0. -1.
         21    1    1    2  505  501  0.89452646935E+02 -0.90008264338E+02  0.47985418753E+03  0.49634998235E+03  0.00000000000E+00 0.  1.
         21    1    1    2  506  505 -0.50090535657E+02  0.10270338080E+03  0.67715648087E+01  0.11446790065E+03  0.00000000000E+00 0.  1.
<scales pt_clust_3="49.58393" pt_clust_4="42.76918" pt_clust_5="153.80049" pt_clust_6="42.76918"></scales>
<clustering>
<clus scale="   42.769">  4  6 -1 -1</clus>
<clus scale="   49.584">  1  3  2 -1</clus>
<clus scale="  153.800">  1  5  2 -1</clus>
<clus scale="   49.584">  1  3  2 -1</clus>
</clustering>
</event>
<event>
 6    0  0.4227619E+002  0.1280668E+03  0.7546771E-02  0.1230353E+00
         21   -1    0    0  504  501  0.00000000000E+00  0.00000000000E+00  0.35280926699E+03  0.35280926699E+03  0.00000000000E+00 0.  1.
         21   -1    0    0  503  502 -0.00000000000E+00 -0.00000000000E+00 -0.96421238059E+03  0.96421238059E+03  0.00000000000E+00 0. -1.
         21    1    1    2  503  505 -0.31792515675E+02 -0.15129641718E+01 -0.99568015028E+02  0.10453153940E+03  0.00000000000E+00 0.  1.
         21    1    1    2  504  502 -0.50545236776E+02  0.10486258066E+03 -0.82801978723E+03  0.83616251400E+03  0.00000000000E+00 0. -1.
         21    1    1    2  505  506  0.79909128597E+02 -0.54201242225E+02  0.56188534871E+02  0.11171568799E+03  0.00000000000E+00 0.  1.
         21    1    1    2  506  501  0.24286238537E+01 -0.49148374259E+02  0.25999615379E+03  0.26461190618E+03  0.00000000000E+00 0.  1.
<scales pt_clust_3="31.82850" pt_clust_4="128.06679" pt_clust_5="14000.00000" pt_clust_6="49.20826"></scales>
<clustering>
<clus scale="   31.828">  2  3  1 -1</clus>
<clus scale="   49.208">  1  6  2 -1</clus>
<clus scale="  128.067">  2  4  1 -1</clus>
<clus scale="   49.208">  1  3  2 -1</clus>
</clustering>
</event>
<event>
 6    0  0.4227619E+002  0.9286731E+02  0.7546771E-02  0.1296053E+00
         21   -1    0    0  506  501  0.00000000000E+00  0.00000000000E+00  0.39631785984E+03  0.39631785984E+03  0.00000000000E+00 0.  1.
         21   -1    0    0  504  502 -0.00000000000E+00 -0.00000000000E+00 -0.19036514943E+03  0.19036514943E+03  0.00000000000E+00 0. -1.
         21    1    1    2  503  505  0.95202137279E+02  0.15664208447E+02  0.27640632192E+02  0.10036343416E+03  0.00000000000E+00 0. -1.
         21    1    1    2  504  501 -0.11215478113E+03 -0.23270129327E+02 -0.72483234542E+00  0.11454570804E+03  0.00000000000E+00 0.  1.
         21    1    1    2  505  502  0.52859087441E+02  0.13345630398E+01 -0.87781846700E+02  0.10247690859E+03  0.00000000000E+00 0. -1.
         21    1    1    2  506  503 -0.35906443592E+02  0.62713578403E+01  0.26681875727E+03  0.26929695849E+03  0.00000000000E+00 0.  1.
<scales pt_clust_3="14000.00000" pt_clust_4="92.86731" pt_clust_5="50.83037" pt_clust_6="36.45000"></scales>
<clustering>
<clus scale="   36.450">  1  6  2 -1</clus>
<clus scale="   50.830">  2  5  1 -1</clus>
<clus scale="   92.867">  2  4  1 -1</clus>
<clus scale="   36.450">  1  3  2 -1</clus>
</clustering>
</event>
<event>
 6    0  0.4227619E+002  0.1398583E+03  0.7546771E-02  0.1213520E+00
         21   -1    0    0  505  501  0.00000000000E+00  0.00000000000E+00  0.51534825260E+03  0.51534825260E+03  0.00000000000E+00 0. -1.
         21   -1    0    0  506  502 -0.00000000000E+00 -0.00000000000E+00 -0.76956912471E+02  0.76956912471E+02  0.00000000000E+00 0. -1.
         21    1    1    2  503  502 -0.12950781240E+02  0.89852218731E+02  0.13204232978E+03  0.16023832500E+03  0.00000000000E+00 0. -1.
         21    1    1    2  504  501  0.19946037113E+02 -0.11639634633E+03  0.18992067502E+03  0.22364216203E+03  0.00000000000E+00 0. -1.
         21    1    1    2  505  503 -0.35274294822E+02  0.42848307257E+02  0.15100061504E+03  0.16087709300E+03  0.00000000000E+00 0. -1.
         21    1    1    2  506  504  0.28279038949E+02 -0.16304179663E+02 -0.34572279716E+02  0.47547585040E+02  0.00000000000E+00 0. -1.
<scales pt_clust_3="43.42272" pt_clust_4="128.42755" pt_clust_5="43.42272" pt_clust_6="32.64246"></scales>
<clustering>
<clus scale="   32.642">  2  6  1 -1</clus>
<clus scale="   43.423">  3  5 -1 -1</clus>
<clus scale="  128.428">  1  4  2 -1</clus>
<clus scale="  128.428">  1  3  2 -1</clus>
</clustering>
</event>
<event>
 6    0  0.4227619E+002  0.6385995E+02  0.7546771E-02  0.1382312E+00
         21   -1    0    0  504  501  0.00000000000E+00  0.00000000000E+00  0.77404608295E+03  0.77404608295E+03  0.00000000000E+00 0.  1.
         21   -1    0    0  506  502 -0.00000000000E+00 -0.00000000000E+00 -0.14362532741E+03  0.14362532741E+03  0.00000000000E+00 0.  1.
         21    1    1    2  503  501 -0.14206187486E+02  0.55423214182E+02  0.39961803105E+03  0.40369310023E+03  0.00000000000E+00 0.  1.
         21    1    1    2  504  505 -0.21479286821E+02 -0.88620414394E+02  0.32898908765E+03  0.34139238041E+03  0.00000000000E+00 0.  1.
         21    1    1    2  505  502  0.67529410157E+02  0.87339993774E+01 -0.11118500338E+03  0.13037871359E+03  0.00000000000E+00 0.  1.
         21    1    1    2  506  503 -0.31843935851E+02  0.24463200835E+02  0.12998640226E+02  0.42207216128E+02  0.00000000000E+00 0.  1.
<scales pt_clust_3="14000.00000" pt_clust_4="63.85995" pt_clust_5="49.22902" pt_clust_6="40.15575"></scales>
<clustering>
<clus scale="   40.156">  2  6  1 -1</clus>
<clus scale="   49.229">  2  5  1 -1</clus>
<clus scale="   63.860">  2  4  1 -1</clus>
<clus scale="   63.860">  1  3  2 -1</clus>
</clustering>
</event>
<event>
 6    0  0.4690635E+002  0.7862679E+02  0.7546771E-02  0.1332994E+00
         21   -1    0    0  503  501  0.00000000000E+00  0.00000000000E+00  0.62487028748E+03  0.62487028748E+03  0.00000000000E+00 0. -1.
         21   -1    0    0  506  502 -0.00000000000E+00 -0.00000000000E+00 -0.65832775111E+03  0.65832775111E+03  0.00000000000E+00 0.  1.
         21    1    1    2  503  504 -0.85690836207E+01 -0.78700466459E+02  0.58875798386E+03  0.59405652608E+03  0.00000000000E+00 0. -1.
         21    1    1    2  504  505 -0.64847196810E+02  0.62463342382E+02 -0.94055293991E+02  0.13020455600E+03  0.00000000000E+00 0. -1.
         21    1    1    2  505  502  0.61573595595E+02 -0.36419730812E+02 -0.79125365189E+02  0.10667018273E+03  0.00000000000E+00 0. -1.
         21    1    1    2  506  501  0.11842684835E+02  0.52656854888E+02 -0.44903478831E+03  0.45226677378E+03  0.00000000000E+00 0.  1.
<scales pt_clust_3="78.62679" pt_clust_4="14000.00000" pt_clust_5="68.09739" pt_clust_6="53.97216"></scales>
<clustering>
<clus scale="   53.972">  2  6  1 -1</clus>
<clus scale="   68.097">  2  5  1 -1</clus>
<clus scale="   78.627">  1  3  2 -1</clus>
<clus scale="   78.627">  1  3  2 -1</clus>
</clustering>
</event>
<event>
 6    0  0.4227619E+002  0.2452642E+03  0.7546771E-02  0.1116335E+00
         21   -1    0    0  506  501  0.00000000000E+00  0.00000000000E+00  0.26527583549E+04  0.26527583549E+04  0.00000000000E+00 0. -1.
         21   -1    0    0  501  502 -0.00000000000E+00 -0.00000000000E+00 -0.23070967262E+03  0.23070967262E+03  0.00000000000E+00 0. -1.
         21    1    1    2  503  505  0.17161230772E+01 -0.32193462581E+03  0.19233838248E+04  0.19501410682E+04  0.00000000000E+00 0. -1.
         21    1    1    2  504  502 -0.14388072411E+01  0.57130171728E+02 -0.15492200653E+03  0.16512648121E+03  0.00000000000E+00 0. -1.
         21    1    1    2  505  504 -0.64485628984E+02  0.96696568692E+02  0.31229765462E+02  0.12034916283E+03  0.00000000000E+00 0. -1.
         21    1    1    2  506  503  0.64208313148E+02  0.16810788539E+03  0.62235709855E+03  0.64785131529E+03  0.00000000000E+00 0. -1.
<scales pt_clust_3="14000.00000" pt_clust_4="57.14829" pt_clust_5="147.94741" pt_clust_6="245.26425"></scales>
<clustering>
<clus scale="   57.148">  2  4  1 -1</clus>
<clus scale="  147.947">  2  5  1 -1</clus>
<clus scale="  245.264">  1  6  2 -1</clus>
<clus scale="  245.264">  1  3  2 -1</clus>
</clustering>
</event>
<event>
 6    0  0.4227619E+002  0.1318829E+03  0.7546771E-02  0.1224688E+00
         21   -1    0    0  505  501  0.00000000000E+00  0.00000000000E+00  0.63797025973E+02  0.63797025973E+02  0.00000000000E+00 0. -1.
         21   -1    0    0  504  502 -0.00000000000E+00 -0.00000000000E+00 -0.15067060584E+04  0.15067060584E+04  0.00000000000E+00 0. -1.
         21    1    1    2  503  506 -0.19022681269E+02  0.62714451843E+02 -0.34212496509E+03  0.34834531232E+03  0.00000000000E+00 0. -1.
         21    1    1    2  504  503  0.93383975223E+01  0.40571329159E+02 -0.67860042688E+03  0.67987629594E+03  0.00000000000E+00 0. -1.
         21    1    1    2  505  502 -0.63368636102E+02 -0.13615295284E+03 -0.45129106468E+02  0.15681150104E+03  0.00000000000E+00 0. -1.
         21    1    1    2  506  501  0.73052919849E+02  0.32867171839E+02 -0.37705453394E+03  0.38546997503E+03  0.00000000000E+00 0. -1.
<scales pt_clust_3="81.06536" pt_clust_4="41.63218" pt_clust_5="131.88286" pt_clust_6="14000.00000"></scales>
<clustering>
<clus scale="   41.632">  2  4  1 -1</clus>
<clus scale="   81.065">  2  3  1 -1</clus>
<clus scale="  131.883">  1  5  2 -1</clus>
<clus scale="  131.883">  1  3  2 -1</clus>
</clustering>
</event>
<event>
 6    0  0.4227619E+002  0.9731731E+02  0.7546771E-02  0.1286041E+00
         21   -1    0    0  505  501  0.00000000000E+00  0.00000000000E+00  0.10407696645E+04  0.10407696645E+04  0.00000000000E+00 0. -1.
         21   -1    0    0  503  502 -0.00000000000E+00 -0.00000000000E+00 -0.70566027882E+02  0.70566027882E+02  0.00000000000E+00 0.  1.
         21    1    1    2  503  506 -0.16894761332E+02 -0.35684766027E+02 -0.11355559654E+02  0.41082651107E+02  0.00000000000E+00 0.  1.
         21    1    1    2  504  502 -0.76906976921E+02 -0.22648650351E+02  0.34553284026E+02  0.87301625981E+02  0.00000000000E+00 0.  1.
         21    1    1    2  505  504  0.22586887491E+02 -0.35403439435E+02  0.76525778368E+03  0.76640918999E+03  0.00000000000E+00 0. -1.
         21    1    1    2  506  501  0.71214850762E+02  0.93736855813E+02  0.18174812860E+03  0.21654222534E+03  0.00000000000E+00 0.  1.
<scales pt_clust_3="39.48209" pt_clust_4="97.31731" pt_clust_5="42.26970" pt_clust_6="14000.00000"></scales>
<clustering>
<clus scale="   39.482">  2  3  1 -1</clus>
<clus scale="   42.270">  1  5  2 -1</clus>
<clus scale="   97.317">  2  4  1 -1</clus>
<clus scale="   42.270">  1  3  2 -1</clus>
</clustering>
</event>
<event>
 6    0  0.4227619E+002  0.1019425E+03  0.7546771E-02  0.1276263E+00
         21   -1    0    0  504  501  0.00000000000E+00  0.00000000000E+00  0.23604293370E+03  0.23604293370E+03  0.00000000000E+00 0. -1.
         21   -1    0    0  506  502 -0.00000000000E+00 -0.00000000000E+00 -0.16140611097E+03  0.16140611097E+03  0.00000000000E+00 0. -1.
         21    1    1    2  503  501 -0.27519526729E+02 -0.17775623656E+02  0.31532888156E+02  0.45471091731E+02  0.00000000000E+00 0. -1.
         21    1    1    2  504  505 -0.11581246985E+02 -0.42840680383E+02  0.11558794611E+03  0.12381446791E+03  0.00000000000E+00 0. -1.
         21    1    1    2  505  502  0.96777340217E+02 -0.36019451162E+02 -0.26631777008E+02  0.10664195229E+03  0.00000000000E+00 0. -1.
         21    1    1    2  506  503 -0.57676566502E+02  0.96635755201E+02 -0.45852234533E+02  0.12152153274E+03  0.00000000000E+00 0. -1.
<scales pt_clust_3="32.76121" pt_clust_4="60.60273" pt_clust_5="101.94250" pt_clust_6="14000.00000"></scales>
<clustering>
<clus scale="   32.761">  1  3  2 -1</clus>
<clus scale="   60.603">  1  4  2 -1</clus>
<clus scale="  101.942">  1  5  2 -1</clus>
<clus scale="   32.761">  1  3  2 -1</clus>
</clustering>
</event>
<event>
 6    0  0.4227619E+002  0.7631991E+02  0.7546771E-02  0.1339832E+00
         21   -1    0    0  504  501  0.00000000000E+00  0.00000000000E+00  0.94136817126E+02  0.94136817126E+02  0.00000000000E+00 0.  1.
         21   -1    0    0  505  502 -0.00000000000E+00 -0.00000000000E+00 -0.14029021914E+04  0.14029021914E+04  0.00000000000E+00 0. -1.
         21    1    1    2  503  506  0.43357361782E+02  0.40458594041E+00  0.50523776922E+02  0.66578348921E+02  0.00000000000E+00 0.  1.
         21    1    1    2  504  503  0.33278285918E+02  0.51191396488E+01 -0.11371334256E+02  0.35538108379E+02  0.00000000000E+00 0.  1.
         21    1    1    2  505  501  0.36087275248E+02  0.44891794197E+02 -0.12036368612E+04  0.12050142150E+04  0.00000000000E+00 0. -1.
         21    1    1    2  506  502 -0.11272292295E+03 -0.50415519787E+02 -0.14428095574E+03  0.18990833626E+03  0.00000000000E+00 0.  1.
<scales pt_clust_3="76.31991" pt_clust_4="33.66972" pt_clust_5="57.80710" pt_clust_6="14000.00000"></scales>
<clustering>
<clus scale="   33.670">  1  4  2 -1</clus>
<clus scale="   57.807">  2  5  1 -1</clus>
<clus scale="   76.320">  1  3  2 -1</clus>
<clus scale="   33.670">  1  3  2 -1</clus>
</clustering>
</event>
<event>
 6    0  0.4227619E+002  0.7528059E+02  0.7546771E-02  0.1343004E+00
         21   -1    0    0  505  501  0.00000000000E+00  0.00000000000E+00  0.39761630953E+03  0.39761630953E+03  0.00000000000E+00 0. -1.
         21   -1    0    0  503  502 -0.00000000000E+00 -0.00000000000E+00 -0.15026653007E+03  0.15026653007E+03  0.00000000000E+00 0. -1.
         21    1    1    2  503  504  0.67153458491E+02 -0.10285337863E+02  0.19692929760E+02  0.70733207511E+02  0.00000000000E+00 0. -1.
         21    1    1    2  504  501  0.87056643637E+01 -0.70851595944E+02  0.41547109472E+02  0.82594791272E+02  0.00000000000E+00 0. -1.
         21    1    1    2  505  506  0.58114144050E+02  0.36269455373E+02  0.23520765114E+03  0.24498033857E+03  0.00000000000E+00 0. -1.
         21    1    1    2  506  502 -0.13397326691E+03  0.44867478434E+02 -0.49097910908E+02  0.14957450225E+03  0.00000000000E+00 0. -1.
<scales pt_clust_3="67.93655" pt_clust_4="75.28059" pt_clust_5="70.54299" pt_clust_6="14000.00000"></scales>
<clustering>
<clus scale="   67.937">  2  3  1 -1</clus>
<clus scale="   70.543">  1  5  2 -1</clus>
<clus scale="   75.281">  1  4  2 -1</clus>
<clus scale="   70.543">  1  3  2 -1</clus>
</clustering>
</event>
<event>
 6    0  0.4227619E+002  0.9924749E+02  0.7546771E-02  0.1281886E+00
         21   -1    0    0  504  501  0.00000000000E+00  0.00000000000E+00  0.10503297685E+04  0.10503297685E+04  0.00000000000E+00 0. -1.
         21   -1    0    0  503  502 -0.00000000000E+00 -0.00000000000E+00 -0.93294841351E+02  0.93294841351E+02  0.00000000000E+00 0. -1.
         21    1    1    2  503  501 -0.74647751669E+02 -0.60391190771E+02  0.78305764244E+03  0.78892246396E+03  0.00000000000E+00 0. -1.
         21    1    1    2  504  506  0.19258001052E+02  0.30397639530E+02  0.13600845784E+03  0.14068826425E+03  0.00000000000E+00 0. -1.
         21    1    1    2  505  502  0.19833120348E+00  0.10915457580E+03 -0.29519238269E+01  0.10919466382E+03  0.00000000000E+00 0. -1.
         21    1    1    2  506  505  0.55191419414E+02 -0.79161024555E+02  0.40920750679E+02  0.10481921781E+03  0.00000000000E+00 0.  1.
<scales pt_clust_3="67.37207" pt_clust_4="35.98454" pt_clust_5="14000.00000" pt_clust_6="99.24749"></scales>
<clustering>
<clus scale="   35.985">  1  4  2 -1</clus>
<clus scale="   67.372">  1  3  2 -1</clus>
<clus scale="   99.247">  1  6  2 -1</clus>
<clus scale="   35.985">  1  3  2 -1</clus>
</clustering>
</event>
<event>
 6    0  0.4227619E+002  0.2661191E+03  0.7546771E-02  0.1103522E+00
         21   -1    0    0  504  501  0.00000000000E+00  0.00000000000E+00  0.73750925635E+02  0.73750925635E+02  0.00000000000E+00 0. -1.
         21   -1    0    0  506  502 -0.00000000000E+00 -0.00000000000E+00 -0.13690499144E+04  0.13690499144E+04  0.00000000000E+00 0. -1.
         21    1    1    2  503  501  0.50742574861E+02  0.74941328661E+02 -0.11352988785E+03  0.14518969344E+03  0.00000000000E+00 0. -1.
         21    1    1    2  504  502  0.83948259025E+02 -0.26697059127E+03 -0.76702647776E+03  0.81648651207E+03  0.00000000000E+00 0. -1.
         21    1    1    2  505  503 -0.42328976264E+02  0.98390409995E+02 -0.23635352225E+03  0.25949065974E+03  0.00000000000E+00 0. -1.
         21    1    1    2  506  505 -0.92361857622E+02  0.93638852617E+02 -0.17838910090E+03  0.22163397480E+03  0.00000000000E+00 0. -1.
<scales pt_clust_3="90.50421" pt_clust_4="257.61747" pt_clust_5="60.21660" pt_clust_6="60.21660"></scales>
<clustering>
<clus scale="   60.217">  5  6 -1 -1</clus>
<clus scale="   90.504">  1  3  2 -1</clus>
<clus scale="  257.617">  2  4  1 -1</clus>
<clus scale="   90.504">  1  3  2 -1</clus>
</clustering>
</event>
<event>
 6    0  0.4227619E+002  0.9519027E+02  0.7546771E-02  0.1290748E+00
         21   -1    0    0  503  501  0.00000000000E+00  0.00000000000E+00  0.45004197658E+03  0.45004197658E+03  0.00000000000E+00 0.  1.
         21   -1    0    0  504  502 -0.00000000000E+00 -0.00000000000E+00 -0.32606801933E+03  0.32606801933E+03  0.00000000000E+00 0.  1.
         21    1    1    2  503  506  0.11093372041E+02  0.31084851365E+02  0.67867480384E+01  0.33695561081E+02  0.00000000000E+00 0. -1.
         21    1    1    2  504  501 -0.25996009523E+02 -0.82415747978E+02  0.43467131384E+02  0.96734376189E+02  0.00000000000E+00 0. -1.
         21    1    1    2  505  502  0.42591861617E+02 -0.30695482735E+02 -0.27828046377E+03  0.28318950520E+03  0.00000000000E+00 0.  1.
         21    1    1    2  506  505 -0.27689224135E+02  0.82026379348E+02  0.35200054161E+03  0.36249055344E+03  0.00000000000E+00 0.  1.
<scales pt_clust_3="33.00501" pt_clust_4="95.19027" pt_clust_5="52.44820" pt_clust_6="14000.00000"></scales>
<clustering>
<clus scale="   33.005">  1  3  2 -1</clus>
<clus scale="   52.448">  2  5  1 -1</clus>
<clus scale="   95.190">  2  4  1 -1</clus>
<clus scale="   33.005">  1  3  2 -1</clus>
</clustering>
</event>
<event>
 6    0  0.4227619E+002  0.3483140E+03  0.7546771E-02  0.1063309E+00
         21   -1    0    0  504  501  0.00000000000E+00  0.00000000000E+00  0.34228682390E+04  0.34228682390E+04  0.00000000000E+00 0. -1.
         21   -1    0    0  503  502 -0.00000000000E+00 -0.00000000000E+00 -0.21176064906E+03  0.21176064906E+03  0.00000000000E+00 0. -1.
         21    1    1    2  503  505 -0.42855176729E+02  0.67625055492E+02 -0.11313773064E+03  0.13859964068E+03  0.00000000000E+00 0. -1.
         21    1    1    2  504  506  0.11597579808E+03 -0.15497378051E+03  0.24247126981E+04  0.24324265512E+04  0.00000000000E+00 0. -1.
         21    1    1    2  505  501 -0.17983428193E+03  0.17362937677E+03  0.12967183099E+03  0.28160666396E+03  0.00000000000E+00 0. -1.
         21    1    1    2  506  502  0.10671366058E+03 -0.86280651746E+02  0.76986079148E+03  0.78199603227E+03  0.00000000000E+00 0. -1.
<scales pt_clust_3="80.06069" pt_clust_4="116.10492" pt_clust_5="319.22437" pt_clust_6="116.10492"></scales>
<clustering>
<clus scale="   80.061">  2  3  1 -1</clus>
<clus scale="  116.105">  4  6 -1 -1</clus>
<clus scale="  319.224">  2  5  1 -1</clus>
<clus scale="  348.314">  1  3  2 -1</clus>
</clustering>
</event>
<event>
 6    0  0.4227619E+002  0.1117436E+03  0.7546771E-02  0.1257375E+00
         21   -1    0    0  505  501  0.00000000000E+00  0.00000000000E+00  0.18356702009E+03  0.18356702009E+03  0.00000000000E+00 0.  1.
         21   -1    0    0  501  502 -0.00000000000E+00 -0.00000000000E+00 -0.47829225880E+03  0.47829225880E+03  0.00000000000E+00 0.  1.
         21    1    1    2  503  506 -0.26135176848E+02  0.14474635935E+03 -0.22373699774E+03  0.26775511231E+03  0.00000000000E+00 0.  1.
         21    1    1    2  504  503 -0.48010194317E+02 -0.93164798992E+02  0.30756062033E+02  0.10922725796E+03  0.00000000000E+00 0.  1.
         21    1    1    2  505  504  0.42907933651E+02 -0.15858032342E+02  0.82655100177E+02  0.94469220094E+02  0.00000000000E+00 0.  1.
         21    1    1    2  506  502  0.31237437515E+02 -0.35723528018E+02 -0.18439940318E+03  0.19040768853E+03  0.00000000000E+00 0. -1.
<scales pt_clust_3="111.74359" pt_clust_4="14000.00000" pt_clust_5="45.74459" pt_clust_6="48.73020"></scales>
<clustering>
<clus scale="   45.745">  1  5  2 -1</clus>
<clus scale="   48.730">  2  6  1 -1</clus>
<clus scale="  111.744">  2  3  1 -1</clus>
<clus scale="   45.745">  1  3  2 -1</clus>
</clustering>
</event>
<event>
 6    0  0.4227619E+002  0.9155071E+02  0.7546771E-02  0.1299139E+00
         21   -1    0    0  504  501  0.00000000000E+00  0.00000000000E+00  0.40690331405E+02  0.40690331405E+02  0.00000000000E+00 0.  1.
         21   -1    0    0  503  502 -0.00000000000E+00 -0.00000000000E+00 -0.27109772592E+04  0.27109772592E+04  0.00000000000E+00 0.  1.
         21    1    1    2  503  501 -0.50240550588E+02 -0.78322406478E+02 -0.20807565048E+04  0.20828360821E+04  0.00000000000E+00 0.  1.
         21    1    1    2  504  506  0.79936171181E+01 -0.42017250813E+02 -0.28060787498E+02  0.51154228325E+02  0.00000000000E+00 0.  1.
         21    1    1    2  505  502 -0.42015475165E+02  0.11531260702E+03 -0.49570170370E+03  0.51066865632E+03  0.00000000000E+00 0.  1.
         21    1    1    2  506  505  0.84262408635E+02  0.50270502760E+01 -0.65767931757E+02  0.10700862391E+03  0.00000000000E+00 0.  1.
<scales pt_clust_3="91.55071" pt_clust_4="42.77087" pt_clust_5="14000.00000" pt_clust_6="93.24953"></scales>
<clustering>
<clus scale="   42.771">  1  4  2 -1</clus>
<clus scale="   93.250">  1  6  2 -1</clus>
<clus scale="   91.551">  2  3  1 -1</clus>
<clus scale="   42.771">  1  3  2 -1</clus>
</clustering>
</event>
<event>
 6    0  0.4227619E+002  0.9160057E+02  0.7546771E-02  0.1299021E+00
         21   -1    0    0  505  501  0.00000000000E+00  0.00000000000E+00  0.23827897355E+03  0.23827897355E+03  0.00000000000E+00 0. -1.
         21   -1    0    0  504  502 -0.00000000000E+00 -0.00000000000E+00 -0.48340605460E+03  0.48340605460E+03  0.00000000000E+00 0. -1.
         21    1    1    2  503  501 -0.24756780034E+02  0.19657063058E+02  0.57336733021E+02  0.65473653016E+02  0.00000000000E+00 0. -1.
         21    1    1    2  504  503 -0.49194265942E+02 -0.73423949713E+01 -0.19210314222E+03  0.19843790923E+03  0.00000000000E+00 0. -1.
         21    1    1    2  505  506  0.95799921517E+01 -0.10766058944E+03  0.14315520096E+03  0.17937667165E+03  0.00000000000E+00 0. -1.
         21    1    1    2  506  502  0.64371053825E+02  0.95345921353E+02 -0.25351587281E+03  0.27839679426E+03  0.00000000000E+00 0. -1.
<scales pt_clust_3="31.61168" pt_clust_4="50.12741" pt_clust_5="91.60057" pt_clust_6="14000.00000"></scales>
<clustering>
<clus scale="   31.612">  1  3  2 -1</clus>
<clus scale="   50.127">  2  4  1 -1</clus>
<clus scale="   91.601">  1  5  2 -1</clus>
<clus scale="   31.612">  1  3  2 -1</clus>
</clustering>
</event>
<event>
 6    0  0.4227619E+002  0.6164222E+02  0.7546771E-02  0.1391067E+00
         21   -1    0    0  504  501  0.00000000000E+00  0.00000000000E+00  0.95499844145E+02  0.95499844145E+02  0.00000000000E+00 0.  1.
         21   -1    0    0  503  502 -0.00000000000E+00 -0.00000000000E+00 -0.10540351604E+04  0.10540351604E+04  0.00000000000E+00 0.  1.
         21    1    1    2  503  506  0.16227519796E+02 -0.57327287791E+02  0.39480676742E+02  0.71473590649E+02  0.00000000000E+00 0.  1.
         21    1    1    2  504  505 -0.95297199557E+02  0.43317349187E+02 -0.19526732741E+03  0.22155648972E+03  0.00000000000E+00 0.  1.
         21    1    1    2  505  502  0.46634831412E+02 -0.13720102813E+02 -0.81149103883E+03  0.81294572686E+03  0.00000000000E+00 0.  1.
         21    1    1    2  506  501  0.32434848350E+02  0.27730041417E+02  0.87423732057E+01  0.43559197350E+02  0.00000000000E+00 0. -1.
<scales pt_clust_3="61.64222" pt_clust_4="14000.00000" pt_clust_5="48.85690" pt_clust_6="42.67288"></scales>
<clustering>
<clus scale="   42.673">  1  6  2 -1</clus>
<clus scale="   48.857">  2  5  1 -1</clus>
<clus scale="   61.642">  1  3  2 -1</clus>
<clus scale="   42.673">  1  3  2 -1</clus>
</clustering>
</event>
<event>
 6    0  0.4227619E+002  0.1519478E+03  0.7546771E-02  0.1198100E+00
         21   -1    0    0  503  501  0.00000000000E+00  0.00000000000E+00  0.18126849388E+04  0.18126849388E+04  0.00000000000E+00 0.  1.
         21   -1    0    0  504  502 -0.00000000000E+00 -0.00000000000E+00 -0.19821493783E+02  0.19821493783E+02  0.00000000000E+00 0.  1.
         21    1    1    2  503  502 -0.19119947392E+02 -0.66759355933E+02  0.21468386300E+03  0.22563586822E+03  0.00000000000E+00 0.  1.
         21    1    1    2  504  505  0.94462978760E+02 -0.24016850109E+02  0.34337890276E+03  0.35694416133E+03  0.00000000000E+00 0.  1.
         21    1    1    2  505  506  0.47816210394E+02  0.20555308364E+02  0.34370587010E+03  0.34762427392E+03  0.00000000000E+00 0.  1.
         21    1    1    2  506  501 -0.12315924176E+03  0.70220897678E+02  0.89109480913E+03  0.90230212909E+03  0.00000000000E+00 0.  1.
<scales pt_clust_3="69.44339" pt_clust_4="46.65260" pt_clust_5="46.65260" pt_clust_6="137.88501"></scales>
<clustering>
<clus scale="   46.653">  4  5 -1 -1</clus>
<clus scale="   69.443">  2  3  1 -1</clus>
<clus scale="  137.885">  1  6  2 -1</clus>
<clus scale="  137.885">  1  3  2 -1</clus>
</clustering>
</event>
<event>
 6    0  0.4227619E+002  0.7268607E+02  0.7546771E-02  0.1351190E+00
         21   -1    0    0  504  501  0.00000000000E+00  0.00000000000E+00  0.18201871822E+03  0.18201871822E+03  0.00000000000E+00 0. -1.
         21   -1    0    0  505  502 -0.00000000000E+00 -0.00000000000E+00 -0.49793926503E+03  0.49793926503E+03  0.00000000000E+00 0. -1.
         21    1    1    2  503  501 -0.57967492979E+02  0.76019677413E+02 -0.18131806212E+03  0.20497673343E+03  0.00000000000E+00 0. -1.
         21    1    1    2  504  506 -0.39743991114E+02 -0.39213956834E+02  0.83323043528E+02  0.10029979473E+03  0.00000000000E+00 0. -1.
         21    1    1    2  505  503  0.50745831008E+02 -0.31681172737E+00 -0.28242425338E+03  0.28694720530E+03  0.00000000000E+00 0. -1.
         21    1    1    2  506  502  0.46965653085E+02 -0.36488908851E+02  0.64498725164E+02  0.87734249793E+02  0.00000000000E+00 0. -1.
<scales pt_clust_3="72.68607" pt_clust_4="54.42271" pt_clust_5="50.74682" pt_clust_6="14000.00000"></scales>
<clustering>
<clus scale="   50.747">  2  5  1 -1</clus>
<clus scale="   54.423">  1  4  2 -1</clus>
<clus scale="   72.686">  2  3  1 -1</clus>
<clus scale="   54.423">  1  3  2 -1</clus>
</clustering>
</event>
<event>
 6    0  0.4227619E+002  0.8857916E+02  0.7546771E-02  0.1306329E+00
         21   -1    0    0  504  501  0.00000000000E+00  0.00000000000E+00  0.23765215157E+03  0.23765215157E+03  0.00000000000E+00 0. -1.
         21   -1    0    0  505  502 -0.00000000000E+00 -0.00000000000E+00 -0.37234113768E+03  0.37234113768E+03  0.00000000000E+00 0.  1.
         21    1    1    2  503  502 -0.82443765627E+02  0.60056155438E+02 -0.28980908677E+02  0.10603588715E+03  0.00000000000E+00 0. -1.
         21    1    1    2  504  503 -0.23824308434E+02 -0.28980373415E+02  0.33517100220E+02  0.50307610983E+02  0.00000000000E+00 0. -1.
         21    1    1    2  505  506  0.88283894708E+02  0.29284747457E+02 -0.28235196705E+03  0.29727811187E+03  0.00000000000E+00 0.  1.
         21    1    1    2  506  501  0.17984179353E+02 -0.60360529480E+02  0.14312678940E+03  0.15637167924E+03  0.00000000000E+00 0. -1.
<scales pt_clust_3="14000.00000" pt_clust_4="37.51613" pt_clust_5="88.57916" pt_clust_6="82.53210"></scales>
<clustering>
<clus scale="   37.516">  1  4  2 -1</clus>
<clus scale="   82.532">  1  6  2 -1</clus>
<clus scale="   88.579">  2  5  1 -1</clus>
<clus scale="   37.516">  1  3  2 -1</clus>
</clustering>
</event>
<event>
 6    0  0.4227619E+002  0.7546363E+02  0.7546771E-02  0.1342441E+00
         21   -1    0    0  505  501  0.00000000000E+00  0.00000000000E+00  0.95986744724E+03  0.95986744724E+03  0.00000000000E+00 0. -1.
         21   -1    0    0  504  502 -0.00000000000E+00 -0.00000000000E+00 -0.38718195162E+04  0.38718195162E+04  0.00000000000E+00 0. -1.
         21    1    1    2  503  501 -0.66959104212E+02  0.39664882619E+02  0.87588024151E+03  0.87933100822E+03  0.00000000000E+00 0. -1.
         21    1    1    2  504  506  0.89474583243E+01 -0.51008843129E+02 -0.20344881245E+03  0.20993660561E+03  0.00000000000E+00 0. -1.
         21    1    1    2  505  502  0.25173161579E+02  0.66938167476E+02 -0.36498020993E+04  0.36505026737E+04  0.00000000000E+00 0. -1.
         21    1    1    2  506  503  0.32838484309E+02 -0.55594206967E+02  0.65418601351E+02  0.91916675868E+02  0.00000000000E+00 0.  1.
<scales pt_clust_3="14000.00000" pt_clust_4="51.78763" pt_clust_5="37.71140" pt_clust_6="75.46363"></scales>
<clustering>
<clus scale="   51.788">  2  4  1 -1</clus>
<clus scale="   37.711">  2  5  1 -1</clus>
<clus scale="   75.464">  2  6  1 -1</clus>
<clus scale="   75.464">  1  3  2 -1</clus>
</clustering>
</event>
<event>
 6    0  0.4227619E+002  0.2183616E+03  0.7546771E-02  0.1135110E+00
         21   -1    0    0  502  501  0.00000000000E+00  0.00000000000E+00  0.77963930947E+03  0.77963930947E+03  0.00000000000E+00 0. -1.
         21   -1    0    0  503  502 -0.00000000000E+00 -0.00000000000E+00 -0.14881017202E+03  0.14881017202E+03  0.00000000000E+00 0.  1.
         21    1    1    2  503  506 -0.36629717345E+02 -0.87479723259E+02 -0.18046543421E+02  0.96540747375E+02  0.00000000000E+00 0. -1.
         21    1    1    2  504  501  0.48781280240E+02  0.82319077003E+01  0.22687907528E+03  0.23221001789E+03  0.00000000000E+00 0. -1.
         21    1    1    2  505  504 -0.42503637603E+01  0.20497230555E+03  0.42695703429E+03  0.47362856836E+03  0.00000000000E+00 0. -1.
         21    1    1    2  506  505 -0.79011991346E+01 -0.12572448999E+03 -0.49604286928E+01  0.12607014787E+03  0.00000000000E+00 0.  1.
<scales pt_clust_3="34.56833" pt_clust_4="49.47098" pt_clust_5="214.69639" pt_clust_6="34.56833"></scales>
<clustering>
<clus scale="   34.568">  3  6 -1 -1</clus>
<clus scale="   49.471">  1  4  2 -1</clus>
<clus scale="  214.696">  1  5  2 -1</clus>
<clus scale="   49.471">  1  3  2 -1</clus>
</clustering>
</event>
<event>
 6    0  0.4227619E+002  0.6610121E+02  0.7546771E-02  0.1373876E+00
         21   -1    0    0  506  501  0.00000000000E+00  0.00000000000E+00  0.16361748344E+03  0.16361748344E+03  0.00000000000E+00 0.  1.
         21   -1    0    0  503  502 -0.00000000000E+00 -0.00000000000E+00 -0.34757559671E+03  0.34757559671E+03  0.00000000000E+00 0.  1.
         21    1    1    2  503  505  0.17468783278E+02  0.38802187707E+02 -0.21376332113E+03  0.21795762345E+03  0.00000000000E+00 0.  1.
         21    1    1    2  504  502  0.47767786305E+02  0.51918527292E+02 -0.18184231347E+02  0.72855755808E+02  0.00000000000E+00 0.  1.
         21    1    1    2  505  501 -0.15790202472E+01 -0.87972060953E+02 -0.51711865893E+02  0.10205730688E+03  0.00000000000E+00 0.  1.
         21    1    1    2  506  504 -0.63657549336E+02 -0.27486540461E+01  0.99701305097E+02  0.11832239401E+03  0.00000000000E+00 0.  1.
<scales pt_clust_3="42.55312" pt_clust_4="66.10121" pt_clust_5="14000.00000" pt_clust_6="62.42273"></scales>
<clustering>
<clus scale="   42.553">  2  3  1 -1</clus>
<clus scale="   62.423">  1  6  2 -1</clus>
<clus scale="   66.101">  1  4  2 -1</clus>
<clus scale="   62.423">  1  3  2 -1</clus>
</clustering>
</event>
<event>
 6    0  0.4227619E+002  0.1475625E+03  0.7546771E-02  0.1203501E+00
         21   -1    0    0  504  501  0.00000000000E+00  0.00000000000E+00  0.45890092174E+03  0.45890092174E+03  0.00000000000E+00 0.  1.
         21   -1    0    0  505  502 -0.00000000000E+00 -0.00000000000E+00 -0.48770158713E+03  0.48770158713E+03  0.00000000000E+00 0.  1.
         21    1    1    2  503  506 -0.19180421820E+02  0.10863707812E+03  0.16913706187E+03  0.20193377385E+03  0.00000000000E+00 0.  1.
         21    1    1    2  504  503 -0.32837654848E+02  0.40186017815E+02  0.24447708035E+03  0.24992452945E+03  0.00000000000E+00 0. -1.
         21    1    1    2  505  501 -0.45322982988E+02 -0.47546008592E+02 -0.23668949416E+03  0.24563532394E+03  0.00000000000E+00 0.  1.
         21    1    1    2  506  502  0.97341059657E+02 -0.10127708734E+03 -0.20572531345E+03  0.24910888163E+03  0.00000000000E+00 0.  1.
<scales pt_clust_3="14000.00000" pt_clust_4="51.89632" pt_clust_5="65.56027" pt_clust_6="147.56251"></scales>
<clustering>
<clus scale="   51.896">  1  4  2 -1</clus>
<clus scale="   65.560">  2  5  1 -1</clus>
<clus scale="  147.563">  2  6  1 -1</clus>
<clus scale="   51.896">  1  3  2 -1</clus>
</clustering>
</event>
<event>
 6    0  0.4227619E+002  0.1533761E+03  0.7546771E-02  0.1196385E+00
         21   -1    0    0  505  501  0.00000000000E+00  0.00000000000E+00  0.77813564090E+03  0.77813564090E+03  0.00000000000E+00 0. -1.
         21   -1    0    0  506  502 -0.00000000000E+00 -0.00000000000E+00 -0.58057353045E+03  0.58057353045E+03  0.00000000000E+00 0.  1.
         21    1    1    2  503  501  0.13605836444E+03  0.45334238755E+02 -0.91096800197E+02  0.16989908400E+03  0.00000000000E+00 0. -1.
         21    1    1    2  504  502 -0.17862064982E+03 -0.44934476385E+01 -0.32176864541E+03  0.36804970966E+03  0.00000000000E+00 0.  1.
         21    1    1    2  505  504  0.11136432331E+02 -0.41012298926E+02  0.71259896502E+03  0.71386505289E+03  0.00000000000E+00 0. -1.
         21    1    1    2  506  503  0.31425853047E+02  0.17150780940E+00 -0.10217140897E+03  0.10689532480E+03  0.00000000000E+00 0. -1.
<scales pt_clust_3="14000.00000" pt_clust_4="153.37612" pt_clust_5="42.50815" pt_clust_6="31.42632"></scales>
<clustering>
<clus scale="   31.426">  2  6  1 -1</clus>
<clus scale="   42.508">  1  5  2 -1</clus>
<clus scale="  153.376">  2  4  1 -1</clus>
<clus scale="   42.508">  1  3  2 -1</clus>
</clustering>
</event>
<event>
 6    0  0.4227619E+002  0.1244974E+03  0.7546771E-02  0.1235857E+00
         21   -1    0    0  504  501  0.00000000000E+00  0.00000000000E+00  0.70229625214E+02  0.70229625214E+02  0.00000000000E+00 0. -1.
         21   -1    0    0  505  502 -0.00000000000E+00 -0.00000000000E+00 -0.49692140387E+03  0.49692140387E+03  0.00000000000E+00 0. -1.
         21    1    1    2  503  501  0.58036628989E+02 -0.51413495352E+02 -0.11967908422E+03  0.14259972303E+03  0.00000000000E+00 0. -1.
         21    1    1    2  504  506 -0.10417186822E+03  0.83750455517E+01 -0.62733494441E+01  0.10469610513E+03  0.00000000000E+00 0. -1.
         21    1    1    2  505  503  0.64700618199E+02  0.62200380957E+01 -0.14792821812E+03  0.16157851524E+03  0.00000000000E+00 0. -1.
         21    1    1    2  506  502 -0.18565378969E+02  0.36818411705E+02 -0.15281112687E+03  0.15827668568E+03  0.00000000000E+00 0. -1.
<scales pt_clust_3="60.53022" pt_clust_4="108.14685" pt_clust_5="60.53022" pt_clust_6="41.23432"></scales>
<clustering>
<clus scale="   41.234">  2  6  1 -1</clus>
<clus scale="   60.530">  3  5 -1 -1</clus>
<clus scale="  108.147">  1  4  2 -1</clus>
<clus scale="  108.147">  1  3  2 -1</clus>
</clustering>
</event>
<event>
 6    0  0.4227619E+002  0.1302321E+03  0.7546771E-02  0.1227112E+00
         21   -1    0    0  503  501  0.00000000000E+00  0.00000000000E+00  0.24594758623E+03  0.24594758623E+03  0.00000000000E+00 0.  1.
         21   -1    0    0  505  502 -0.00000000000E+00 -0.00000000000E+00 -0.18783718228E+04  0.18783718228E+04  0.00000000000E+00 0.  1.
         21    1    1    2  503  506 -0.51057973386E+02  0.59128758687E+02 -0.38752257348E+03  0.39531869638E+03  0.00000000000E+00 0.  1.
         21    1    1    2  504  501  0.69351686635E+02 -0.11317673536E+03  0.22032801241E+03  0.25722181657E+03  0.00000000000E+00 0.  1.
         21    1    1    2  505  504 -0.32032179787E+02 -0.34863918793E+02 -0.60820032126E+03  0.61004031355E+03  0.00000000000E+00 0.  1.
         21    1    1    2  506  502  0.13738466538E+02  0.88911895468E+02 -0.85702935423E+03  0.86173858254E+03  0.00000000000E+00 0.  1.
<scales pt_clust_3="14000.00000" pt_clust_4="130.23214" pt_clust_5="47.34505" pt_clust_6="65.78835"></scales>
<clustering>
<clus scale="   47.345">  2  5  1 -1</clus>
<clus scale="   65.788">  2  6  1 -1</clus>
<clus scale="  130.232">  1  4  2 -1</clus>
<clus scale="  130.232">  1  3  2 -1</clus>
</clustering>
</event>
<event>
 6    0  0.4227619E+002  0.7187510E+02  0.7546771E-02  0.1353830E+00
         21   -1    0    0  506  501  0.00000000000E+00  0.00000000000E+00  0.87078800441E+03  0.87078800441E+03  0.00000000000E+00 0.  1.
         21   -1    0    0  505  502 -0.00000000000E+00 -0.00000000000E+00 -0.72983572350E+03  0.72983572350E+03  0.00000000000E+00 0.  1.
         21    1    1    2  503  502  0.46076657223E+02 -0.54240311677E+02 -0.67194269009E+03  0.67570115326E+03  0.00000000000E+00 0.  1.
         21    1    1    2  504  501 -0.47793327081E+02 -0.80349300436E+01  0.76551948439E+03  0.76705204725E+03  0.00000000000E+00 0.  1.
         21    1    1    2  505  504 -0.46974745890E+02  0.84088077778E+02  0.22050759378E+02  0.98811272459E+02  0.00000000000E+00 0. -1.
         21    1    1    2  506  503  0.48691415748E+02 -0.21812836057E+02  0.25324727237E+02  0.59059254940E+02  0.00000000000E+00 0. -1.
<scales pt_clust_3="14000.00000" pt_clust_4="48.46403" pt_clust_5="71.87510" pt_clust_6="38.62546"></scales>
<clustering>
<clus scale="   48.464">  1  4  2 -1</clus>
<clus scale="   38.625">  1  6  2 -1</clus>
<clus scale="   71.875">  1  5  2 -1</clus>
<clus scale="   48.464">  1  3  2 -1</clus>
</clustering>
</event>
<event>
 6    0  0.4227619E+002  0.8226002E+02  0.7546771E-02  0.1322757E+00
         21   -1    0    0  503  501  0.00000000000E+00  0.00000000000E+00  0.93366264205E+03  0.93366264205E+03  0.00000000000E+00 0.  1.
         21   -1    0    0  504  502 -0.00000000000E+00 -0.00000000000E+00 -0.13029350551E+03  0.13029350551E+03  0.00000000000E+00 0.  1.
         21    1    1    2  503  506 -0.79366671861E+02  0.75321232946E+02  0.51586590543E+03  0.52734238320E+03  0.00000000000E+00 0.  1.
         21    1    1    2  504  505 -0.20373397982E+02 -0.39882585031E+02 -0.40282288769E+02  0.60235859109E+02  0.00000000000E+00 0.  1.
         21    1    1    2  505  501  0.33603802300E+02 -0.70184097538E+01  0.38369768226E+03  0.38523030121E+03  0.00000000000E+00 0.  1.
         21    1    1    2  506  502  0.66136267543E+02 -0.28420238161E+02 -0.55912162375E+02  0.91147604044E+02  0.00000000000E+00 0.  1.
<scales pt_clust_3="82.26002" pt_clust_4="44.62489" pt_clust_5="34.32890" pt_clust_6="14000.00000"></scales>
<clustering>
<clus scale="   34.329">  1  5  2 -1</clus>
<clus scale="   44.625">  2  4  1 -1</clus>
<clus scale="   82.260">  1  3  2 -1</clus>
<clus scale="   34.329">  1  3  2 -1</clus>
</clustering>
</event>
<event>
 6    0  0.4227619E+002  0.1517168E+03  0.7546771E-02  0.1198379E+00
         21   -1    0    0  504  501  0.00000000000E+00  0.00000000000E+00  0.26355348830E+03  0.26355348830E+03  0.00000000000E+00 0. -1.
         21   -1    0    0  503  502 -0.00000000000E+00 -0.00000000000E+00 -0.14299879494E+03  0.14299879494E+03  0.00000000000E+00 0. -1.
         21    1    1    2  503  505 -0.16394383895E+02  0.31080334679E+02 -0.54947454171E+02  0.65222586171E+02  0.00000000000E+00 0. -1.
         21    1    1    2  504  502  0.69679740393E+02 -0.13942433899E+03  0.11170789349E+03  0.19176304647E+03  0.00000000000E+00 0. -1.
         21    1    1    2  505  506 -0.26520566021E+02  0.64509438500E+02  0.27662681316E+01  0.69803010802E+02  0.00000000000E+00 0. -1.
         21    1    1    2  506  501 -0.26764790477E+02  0.43834565809E+02  0.61027985913E+02  0.79763639796E+02  0.00000000000E+00 0. -1.
<scales pt_clust_3="35.13920" pt_clust_4="138.90738" pt_clust_5="49.54517" pt_clust_6="49.54517"></scales>
<clustering>
<clus scale="   35.139">  2  3  1 -1</clus>
<clus scale="   49.545">  5  6 -1 -1</clus>
<clus scale="  138.907">  2  4  1 -1</clus>
<clus scale="  151.717">  1  3  2 -1</clus>
</clustering>
</event>
<event>
 6    0  0.4227619E+002  0.1138223E+03  0.7546771E-02  0.1253651E+00
         21   -1    0    0  505  501  0.00000000000E+00  0.00000000000E+00  0.45464220493E+03  0.45464220493E+03  0.00000000000E+00 0. -1.
         21   -1    0    0  504  502 -0.00000000000E+00 -0.00000000000E+00 -0.67660971755E+03  0.67660971755E+03  0.00000000000E+00 0. -1.
         21    1    1    2  503  501  0.30169438054E+02  0.33246199009E+02  0.70139193938E+02  0.83276715037E+02  0.00000000000E+00 0.  1.
         21    1    1    2  504  503  0.67671755680E+01 -0.85677563456E+02  0.54097655619E+02  0.10155292161E+03  0.00000000000E+00 0. -1.
         21    1    1    2  505  506 -0.14611620542E+03  0.81489009052E+02  0.27126137980E+03  0.31870541296E+03  0.00000000000E+00 0. -1.
         21    1    1    2  506  502  0.10917959180E+03 -0.29057644605E+02 -0.61746574198E+03  0.62771687287E+03  0.00000000000E+00 0. -1.
<scales pt_clust_3="44.89437" pt_clust_4="79.89284" pt_clust_5="113.82232" pt_clust_6="14000.00000"></scales>
<clustering>
<clus scale="   44.894">  1  3  2 -1</clus>
<clus scale="   79.893">  1  4  2 -1</clus>
<clus scale="  113.822">  1  5  2 -1</clus>
<clus scale="   44.894">  1  3  2 -1</clus>
</clustering>
</event>
<event>
 6    0  0.4227619E+002  0.2290826E+03  0.7546771E-02  0.1127287E+00
         21   -1    0    0  506  501  0.00000000000E+00  0.00000000000E+00  0.14252133850E+03  0.14252133850E+03  0.00000000000E+00 0.  1.
         21   -1    0    0  505  502 -0.00000000000E+00 -0.00000000000E+00 -0.66880948557E+03  0.66880948557E+03  0.00000000000E+00 0. -1.
         21    1    1    2  503  504 -0.78235827848E+02  0.10110864438E+03 -0.18545655935E+03  0.22525083382E+03  0.00000000000E+00 0. -1.
         21    1    1    2  504  502 -0.36195926933E+02  0.67987566610E+02 -0.29003965119E+03  0.30009240844E+03  0.00000000000E+00 0. -1.
         21    1    1    2  505  501  0.14113558963E+03 -0.18350154179E+03 -0.78951465995E+02  0.24459232302E+03  0.00000000000E+00 0.  1.
         21    1    1    2  506  503 -0.26703834852E+02  0.14405330795E+02  0.28159529464E+02  0.41395258795E+02  0.00000000000E+00 0. -1.
<scales pt_clust_3="69.44538" pt_clust_4="69.44538" pt_clust_5="210.42361" pt_clust_6="30.34153"></scales>
<clustering>
<clus scale="   30.342">  1  6  2 -1</clus>
<clus scale="   69.445">  3  4 -1 -1</clus>
<clus scale="  210.424">  1  5  2 -1</clus>
<clus scale="   30.342">  1  3  2 -1</clus>
</clustering>
</event>
<event>
 6    0  0.4227619E+002  0.1105355E+03  0.7546771E-02  0.1259582E+00
         21   -1    0    0  505  501  0.00000000000E+00  0.00000000000E+00  0.14373998992E+03  0.14373998992E+03  0.00000000000E+00 0.  1.
         21   -1    0    0  504  502 -0.00000000000E+00 -0.00000000000E+00 -0.13083546762E+04  0.13083546762E+04  0.00000000000E+00 0.  1.
         21    1    1    2  503  506  0.87707083645E+02  0.75220142361E+01 -0.16432215921E+03  0.18641589317E+03  0.00000000000E+00 0.  1.
         21    1    1    2  504  503  0.39930585314E+02  0.25924291423E+01 -0.10914231670E+04  0.10921564456E+04  0.00000000000E+00 0.  1.
         21    1    1    2  505  502 -0.54859968035E+02 -0.24913508574E+02  0.60005319461E+01  0.60550023831E+02  0.00000000000E+00 0.  1.
         21    1    1    2  506  501 -0.72777700924E+02  0.14799065195E+02  0.85130107936E+02  0.11297230351E+03  0.00000000000E+00 0.  1.
<scales pt_clust_3="14000.00000" pt_clust_4="40.01465" pt_clust_5="55.56663" pt_clust_6="110.53546"></scales>
<clustering>
<clus scale="   40.015">  2  4  1 -1</clus>
<clus scale="   55.567">  1  5  2 -1</clus>
<clus scale="  110.535">  1  6  2 -1</clus>
<clus scale="   55.567">  1  3  2 -1</clus>
</clustering>
</event>
<event>
 6    0  0.4227619E+002  0.2094885E+03  0.7546771E-02  0.1141972E+00
         21   -1    0    0  503  501  0.00000000000E+00  0.00000000000E+00  0.18513123209E+03  0.18513123209E+03  0.00000000000E+00 0. -1.
         21   -1    0    0  501  502 -0.00000000000E+00 -0.00000000000E+00 -0.34119177365E+03  0.34119177365E+03  0.00000000000E+00 0. -1.
         21    1    1    2  503  504 -0.61946571752E+02  0.19986867939E+03 -0.29684078801E+02  0.21134334929E+03  0.00000000000E+00 0. -1.
         21    1    1    2  504  505 -0.34689366210E+02 -0.12213651472E+03 -0.32085970896E+02  0.13095873351E+03  0.00000000000E+00 0. -1.
         21    1    1    2  505  506  0.29382015083E+02 -0.71602765656E+02 -0.13236998992E+02  0.78520551464E+02  0.00000000000E+00 0. -1.
         21    1    1    2  506  502  0.67253922879E+02 -0.61293990227E+01 -0.81053492871E+02  0.10550037148E+03  0.00000000000E+00 0. -1.
<scales pt_clust_3="199.05053" pt_clust_4="50.98478" pt_clust_5="50.98478" pt_clust_6="67.53266"></scales>
<clustering>
<clus scale="   50.985">  4  5 -1 -1</clus>
<clus scale="   67.533">  2  6  1 -1</clus>
<clus scale="  199.051">  1  3  2 -1</clus>
<clus scale="  199.051">  1  3  2 -1</clus>
</clustering>
</event>
<event>
 6    0  0.4227619E+002  0.1088741E+03  0.7546771E-02  0.1262669E+00
         21   -1    0    0  506  501  0.00000000000E+00  0.00000000000E+00  0.10745078521E+03  0.10745078521E+03  0.00000000000E+00 0.  1.
         21   -1    0    0  504  502 -0.00000000000E+00 -0.00000000000E+00 -0.53353539733E+03  0.53353539733E+03  0.00000000000E+00 0.  1.
         21    1    1    2  503  501  0.20549177560E+02 -0.26353086871E+02  0.13257675014E+02  0.35951631851E+02  0.00000000000E+00 0. -1.
         21    1    1    2  504  503 -0.25050819497E+01  0.10392455200E+03 -0.30383082236E+03  0.32112265034E+03  0.00000000000E+00 0.  1.
         21    1    1    2  505  502 -0.41192157008E+02 -0.11836383655E+03 -0.17995591455E+03  0.21929642675E+03  0.00000000000E+00 0.  1.
         21    1    1    2  506  505  0.23148061398E+02  0.40792371429E+02  0.44444449776E+02  0.64615473605E+02  0.00000000000E+00 0.  1.
<scales pt_clust_3="33.41787" pt_clust_4="108.87407" pt_clust_5="14000.00000" pt_clust_6="43.52816"></scales>
<clustering>
<clus scale="   33.418">  1  3  2 -1</clus>
<clus scale="   43.528">  1  6  2 -1</clus>
<clus scale="  108.874">  2  4  1 -1</clus>
<clus scale="   33.418">  1  3  2 -1</clus>
</clustering>
</event>
<event>
 6    0  0.4227619E+002  0.1511174E+03  0.7546771E-02  0.1199107E+00
         21   -1    0    0  503  501  0.00000000000E+00  0.00000000000E+00  0.12472624737E+03  0.12472624737E+03  0.00000000000E+00 0.  1.
         21   -1    0    0  506  502 -0.00000000000E+00 -0.00000000000E+00 -0.61324228503E+03  0.61324228503E+03  0.00000000000E+00 0.  1.
         21    1    1    2  503  505 -0.31908908096E+02  0.11616380515E+02  0.24382359697E+02  0.41804523398E+02  0.00000000000E+00 0.  1.
         21    1    1    2  504  501 -0.51222942501E+02  0.55193652639E+01 -0.48349212667E+02  0.70653376402E+02  0.00000000000E+00 0.  1.
         21    1    1    2  505  502 -0.10821370507E+03 -0.92391447638E+02 -0.37529105181E+03  0.40135988730E+03  0.00000000000E+00 0.  1.
         21    1    1    2  506  504  0.19134555567E+03  0.75255701859E+02 -0.89258132877E+02  0.22415074531E+03  0.00000000000E+00 0.  1.
<scales pt_clust_3="33.95760" pt_clust_4="55.54081" pt_clust_5="151.11742" pt_clust_6="14000.00000"></scales>
<clustering>
<clus scale="   33.958">  1  3  2 -1</clus>
<clus scale="   55.541">  1  4  2 -1</clus>
<clus scale="  151.117">  2  5  1 -1</clus>
<clus scale="   33.958">  1  3  2 -1</clus>
</clustering>
</event>
<event>
 6    0  0.4227619E+002  0.1055536E+03  0.7546771E-02  0.1269033E+00
         21   -1    0    0  506  501  0.00000000000E+00  0.00000000000E+00  0.64291595456E+02  0.64291595456E+02  0.00000000000E+00 0. -1.
         21   -1    0    0  503  502 -0.00000000000E+00 -0.00000000000E+00 -0.47526417466E+03  0.47526417466E+03  0.00000000000E+00 0. -1.
         21    1    1    2  503  505  0.69173352354E+02  0.26343232818E+02 -0.24566046258E+03  0.25656964253E+03  0.00000000000E+00 0. -1.
         21    1    1    2  504  502 -0.30941178858E+02  0.28718732163E+02 -0.25027464165E+02  0.49076431092E+02  0.00000000000E+00 0. -1.
         21    1    1    2  505  501 -0.37932517649E+02 -0.11384278381E+03 -0.12478390044E+03  0.17311867932E+03  0.00000000000E+00 0. -1.
         21    1    1    2  506  504 -0.29965584679E+00  0.58780818827E+02 -0.15500752010E+02  0.60791017169E+02  0.00000000000E+00 0. -1.
<scales pt_clust_3="74.01972" pt_clust_4="35.91584" pt_clust_5="96.67167" pt_clust_6="35.91584"></scales>
<clustering>
<clus scale="   35.916">  4  6 -1 -1</clus>
<clus scale="   74.020">  2  3  1 -1</clus>
<clus scale="   96.672">  2  5  1 -1</clus>
<clus scale="  105.554">  1  3  2 -1</clus>
</clustering>
</event>
<event>
 6    0  0.4227619E+002  0.7274814E+02  0.7546771E-02  0.1350990E+00
         21   -1    0    0  504  501  0.00000000000E+00  0.00000000000E+00  0.69903968819E+02  0.69903968819E+02  0.00000000000E+00 0. -1.
         21   -1    0    0  505  502 -0.00000000000E+00 -0.00000000000E+00 -0.75076342036E+03  0.75076342036E+03  0.00000000000E+00 0. -1.
         21    1    1    2  503  502  0.40869563829E+01 -0.53821769826E+02 -0.23405732887E+03  0.24020058143E+03  0.00000000000E+00 0. -1.
         21    1    1    2  504  506 -0.10351041325E+03  0.30393339865E+02 -0.24692777409E+02  0.11067020383E+03  0.00000000000E+00 0. -1.
         21    1    1    2  505  501  0.36892471600E+02 -0.41596125306E+02 -0.22248500557E+02  0.59885623302E+02  0.00000000000E+00 0. -1.
         21    1    1    2  506  503  0.62530985268E+02  0.65024555267E+02 -0.39986084470E+03  0.40991098061E+03  0.00000000000E+00 0. -1.
<scales pt_clust_3="53.97672" pt_clust_4="72.74814" pt_clust_5="59.09336" pt_clust_6="14000.00000"></scales>
<clustering>
<clus scale="   53.977">  2  3  1 -1</clus>
<clus scale="   59.093">  1  5  2 -1</clus>
<clus scale="   72.748">  1  4  2 -1</clus>
<clus scale="   59.093">  1  3  2 -1</clus>
</clustering>
</event>
<event>
 6    0  0.4227619E+002  0.2597986E+03  0.7546771E-02  0.1107264E+00
         21   -1    0    0  506  501  0.00000000000E+00  0.00000000000E+00  0.63931375447E+03  0.63931375447E+03  0.00000000000E+00 0.  1.
         21   -1    0    0  505  502 -0.00000000000E+00 -0.00000000000E+00 -0.27981979348E+03  0.27981979348E+03  0.00000000000E+00 0.  1.
         21    1    1    2  503  502  0.25354756830E+02  0.28681648985E+02 -0.81688964219E+02  0.90214120611E+02  0.00000000000E+00 0.  1.
         21    1    1    2  504  503 -0.22977383462E+03  0.12810509502E+03 -0.11049315184E+02  0.26330404063E+03  0.00000000000E+00 0.  1.
         21    1    1    2  505  501  0.16810140296E+03 -0.21330333321E+03  0.34486007140E+03  0.43895883916E+03  0.00000000000E+00 0.  1.
         21    1    1    2  506  504  0.36317674828E+02  0.56516589202E+02  0.10737216900E+03  0.12665654755E+03  0.00000000000E+00 0.  1.
<scales pt_clust_3="38.28186" pt_clust_4="14000.00000" pt_clust_5="259.79865" pt_clust_6="69.06201"></scales>
<clustering>
<clus scale="   38.282">  2  3  1 -1</clus>
<clus scale="   69.062">  1  6  2 -1</clus>
<clus scale="  259.799">  1  5  2 -1</clus>
<clus scale="   69.062">  1  3  2 -1</clus>
</clustering>
</event>
<event>
 6    0  0.4227619E+002  0.1306064E+03  0.7546771E-02  0.1226559E+00
         21   -1    0    0  504  501  0.00000000000E+00  0.00000000000E+00  0.40166379071E+02  0.40166379071E+02  0.00000000000E+00 0.  1.
         21   -1    0    0  506  502 -0.00000000000E+00 -0.00000000000E+00 -0.17736333211E+04  0.17736333211E+04  0.00000000000E+00 0. -1.
         21    1    1    2  503  505 -0.44174382400E+02  0.10374401724E+03 -0.11350228748E+03  0.15999051983E+03  0.00000000000E+00 0.  1.
         21    1    1    2  504  503  0.37324522426E+02  0.55077695856E+02 -0.14682053853E+03  0.16119225505E+03  0.00000000000E+00 0.  1.
         21    1    1    2  505  502 -0.60328340738E+02 -0.12566454898E+03 -0.12381064416E+04  0.12459288295E+04  0.00000000000E+00 0. -1.
         21    1    1    2  506  501  0.67178200712E+02 -0.33157164114E+02 -0.23503767448E+03  0.24668809580E+03  0.00000000000E+00 0.  1.
<scales pt_clust_3="14000.00000" pt_clust_4="66.53324" pt_clust_5="130.60639" pt_clust_6="77.40175"></scales>
<clustering>
<clus scale="   66.533">  1  4  2 -1</clus>
<clus scale="   77.402">  1  6  2 -1</clus>
<clus scale="  130.606">  2  5  1 -1</clus>
<clus scale="   66.533">  1  3  2 -1</clus>
</clustering>
</event>
<event>
 6    0  0.4227619E+002  0.6517827E+02  0.7546771E-02  0.1377302E+00
         21   -1    0    0  503  501  0.00000000000E+00  0.00000000000E+00  0.27253360014E+03  0.27253360014E+03  0.00000000000E+00 0. -1.
         21   -1    0    0  505  502 -0.00000000000E+00 -0.00000000000E+00 -0.31856591413E+03  0.31856591413E+03  0.00000000000E+00 0.  1.
         21    1    1    2  503  504  0.14061482480E+02  0.52287363266E+02  0.86821284576E+02  0.10232120554E+03  0.00000000000E+00 0. -1.
         21    1    1    2  504  502  0.38675710357E+02  0.56456589787E+01 -0.64354950283E+02  0.75294380022E+02  0.00000000000E+00 0.  1.
         21    1    1    2  505  506 -0.10145451309E+03 -0.21530721776E+02 -0.22381946893E+03  0.24668146440E+03  0.00000000000E+00 0.  1.
         21    1    1    2  506  501  0.48717320255E+02 -0.36402300469E+02  0.15532082065E+03  0.16680246431E+03  0.00000000000E+00 0. -1.
<scales pt_clust_3="54.63936" pt_clust_4="39.08560" pt_clust_5="14000.00000" pt_clust_6="65.17827"></scales>
<clustering>
<clus scale="   39.086">  2  4  1 -1</clus>
<clus scale="   54.639">  1  3  2 -1</clus>
<clus scale="   65.178">  1  6  2 -1</clus>
<clus scale="   54.639">  1  3  2 -1</clus>
</clustering>
</event>
<event>
 6    0  0.4227619E+002  0.1304901E+03  0.7546771E-02  0.1226730E+00
         21   -1    0    0  505  501  0.00000000000E+00  0.00000000000E+00  0.10907540107E+03  0.10907540107E+03  0.00000000000E+00 0.  1.
         21   -1    0    0  504  502 -0.00000000000E+00 -0.00000000000E+00 -0.76972294541E+03  0.76972294541E+03  0.00000000000E+00 0.  1.
         21    1    1    2  503  506  0.98548800573E+02  0.81953052496E+02 -0.74367995104E+02  0.14818491017E+03  0.00000000000E+00 0.  1.
         21    1    1    2  504  501 -0.27646871436E+01 -0.97913513328E+02 -0.23479837684E+03  0.25441104016E+03  0.00000000000E+00 0.  1.
         21    1    1    2  505  503 -0.14045636741E+03 -0.17222854113E+02 -0.23393719452E+02  0.14342902063E+03  0.00000000000E+00 0.  1.
         21    1    1    2  506  502  0.44672253983E+02  0.33183314946E+02 -0.32808745295E+03  0.33277337551E+03  0.00000000000E+00 0.  1.
<scales pt_clust_3="130.49008" pt_clust_4="82.45601" pt_clust_5="14000.00000" pt_clust_6="55.64838"></scales>
<clustering>
<clus scale="   55.648">  2  6  1 -1</clus>
<clus scale="   82.456">  2  4  1 -1</clus>
<clus scale="  130.490">  2  3  1 -1</clus>
<clus scale="  130.490">  1  3  2 -1</clus>
</clustering>
</event>
<event>
 6    0  0.4227619E+002  0.1012878E+03  0.7546771E-02  0.1277611E+00
         21   -1    0    0  506  501  0.00000000000E+00  0.00000000000E+00  0.51632068926E+03  0.51632068926E+03  0.00000000000E+00 0.  1.
         21   -1    0    0  504  502 -0.00000000000E+00 -0.00000000000E+00 -0.26039417032E+03  0.26039417032E+03  0.00000000000E+00 0.  1.
         21    1    1    2  503  501  0.11786358286E+01  0.40466360771E+02  0.80706824387E+02  0.90291234564E+02  0.00000000000E+00 0.  1.
         21    1    1    2  504  503 -0.10319414817E+02  0.35520298660E+02 -0.93353318117E+01  0.38148792367E+02  0.00000000000E+00 0.  1.
         21    1    1    2  505  502  0.98295298606E+02  0.13089467729E+02 -0.21099351316E+03  0.23313421561E+03  0.00000000000E+00 0.  1.
         21    1    1    2  506  505 -0.89154519618E+02 -0.89076127160E+02  0.39554853952E+03  0.41514061704E+03  0.00000000000E+00 0.  1.
<scales pt_clust_3="41.19706" pt_clust_4="36.98894" pt_clust_5="101.28785" pt_clust_6="14000.00000"></scales>
<clustering>
<clus scale="   36.989">  2  4  1 -1</clus>
<clus scale="   41.197">  1  3  2 -1</clus>
<clus scale="  101.288">  2  5  1 -1</clus>
<clus scale="   41.197">  1  3  2 -1</clus>
</clustering>
</event>
<event>
 6    0  0.4227619E+002  0.2371618E+03  0.7546771E-02  0.1121698E+00
         21   -1    0    0  503  501  0.00000000000E+00  0.00000000000E+00  0.12550149915E+04  0.12550149915E+04  0.00000000000E+00 0. -1.
         21   -1    0    0  501  502 -0.00000000000E+00 -0.00000000000E+00 -0.31363900720E+03  0.31363900720E+03  0.00000000000E+00 0.  1.
         21    1    1    2  503  505 -0.13058786307E+03 -0.19445235986E+03  0.11785782818E+04  0.12016287598E+04  0.00000000000E+00 0. -1.
         21    1    1    2  504  502 -0.11230053359E+02  0.93294327676E+02 -0.10428384368E+03  0.14037473322E+03  0.00000000000E+00 0.  1.
         21    1    1    2  505  506  0.23759642650E+02  0.34604082678E+02 -0.88232368336E+01  0.42893037489E+02  0.00000000000E+00 0.  1.
         21    1    1    2  506  504  0.11805827378E+03  0.66553949506E+02 -0.12409521699E+03  0.18375746810E+03  0.00000000000E+00 0.  1.
<scales pt_clust_3="229.97358" pt_clust_4="93.96779" pt_clust_5="32.24930" pt_clust_6="32.24930"></scales>
<clustering>
<clus scale="   32.249">  5  6 -1 -1</clus>
<clus scale="   93.968">  2  4  1 -1</clus>
<clus scale="  229.974">  1  3  2 -1</clus>
<clus scale="  229.974">  1  3  2 -1</clus>
</clustering>
</event>
<event>
 6    0  0.4227619E+002  0.9265804E+02  0.7546771E-02  0.1296540E+00
         21   -1    0    0  503  501  0.00000000000E+00  0.00000000000E+00  0.35102566635E+03  0.35102566635E+03  0.00000000000E+00 0.  1.
         21   -1    0    0  501  502 -0.00000000000E+00 -0.00000000000E+00 -0.54654871643E+03  0.54654871643E+03  0.00000000000E+00 0.  1.
         21    1    1    2  503  504  0.32876348096E+02 -0.14080776532E+02  0.25466907826E+03  0.25716815890E+03  0.00000000000E+00 0.  1.
         21    1    1    2  504  505 -0.53229053388E+02  0.44185132915E+01  0.27020810965E+02  0.59857995368E+02  0.00000000000E+00 0.  1.
         21    1    1    2  505  506  0.10029656872E+03  0.52534978893E+02 -0.20687012619E+02  0.11509682096E+03  0.00000000000E+00 0.  1.
         21    1    1    2  506  502 -0.79943863430E+02 -0.42872715653E+02 -0.45652592668E+03  0.46545140754E+03  0.00000000000E+00 0.  1.
<scales pt_clust_3="35.76482" pt_clust_4="38.26601" pt_clust_5="92.65804" pt_clust_6="14000.00000"></scales>
<clustering>
<clus scale="   35.765">  1  3  2 -1</clus>
<clus scale="   38.266">  1  4  2 -1</clus>
<clus scale="   92.658">  1  5  2 -1</clus>
<clus scale="   35.765">  1  3  2 -1</clus>
</clustering>
</event>
<event>
 6    0  0.4227619E+002  0.1014745E+03  0.7546771E-02  0.1277225E+00
         21   -1    0    0  505  501  0.00000000000E+00  0.00000000000E+00  0.41459290472E+03  0.41459290472E+03  0.00000000000E+00 0.  1.
         21   -1    0    0  501  502 -0.00000000000E+00 -0.00000000000E+00 -0.13384316261E+04  0.13384316261E+04  0.00000000000E+00 0.  1.
         21    1    1    2  503  506  0.34449405310E+02  0.14625729325E+03 -0.13474554710E+03  0.20182745061E+03  0.00000000000E+00 0.  1.
         21    1    1    2  504  503 -0.76264213208E+02 -0.48106073983E+02  0.26779137561E+02  0.94061398984E+02  0.00000000000E+00 0.  1.
         21    1    1    2  505  504  0.34591047005E+02  0.33989644777E+00  0.31754524897E+03  0.31942392084E+03  0.00000000000E+00 0.  1.
         21    1    1    2  506  502  0.72237608940E+01 -0.98491115716E+02 -0.11334175608E+04  0.11377117604E+04  0.00000000000E+00 0.  1.
<scales pt_clust_3="14000.00000" pt_clust_4="72.56641" pt_clust_5="34.59272" pt_clust_6="101.47455"></scales>
<clustering>
<clus scale="   34.593">  1  5  2 -1</clus>
<clus scale="   72.566">  1  4  2 -1</clus>
<clus scale="  101.475">  2  6  1 -1</clus>
<clus scale="   34.593">  1  3  2 -1</clus>
</clustering>
</event>
<event>
 6    0  0.4227619E+002  0.1527968E+03  0.7546771E-02  0.1197078E+00
         21   -1    0    0  503  501  0.00000000000E+00  0.00000000000E+00  0.19266831635E+04  0.19266831635E+04  0.00000000000E+00 0.  1.
         21   -1    0    0  504  502 -0.00000000000E+00 -0.00000000000E+00 -0.15784192996E+04  0.15784192996E+04  0.00000000000E+00 0.  1.
         21    1    1    2  503  505  0.13184945174E+03  0.50985083718E+02 -0.59187278106E+03  0.60852045623E+03  0.00000000000E+00 0.  1.
         21    1    1    2  504  506  0.50513623081E+01 -0.96346597808E+02  0.75797480129E+03  0.76409029739E+03  0.00000000000E+00 0.  1.
         21    1    1    2  505  502 -0.88200766885E+02  0.97779137114E+02 -0.96960431484E+03  0.97850532052E+03  0.00000000000E+00 0.  1.
         21    1    1    2  506  501 -0.48700047166E+02 -0.52417623023E+02  0.11517661586E+04  0.11539863890E+04  0.00000000000E+00 0.  1.
<scales pt_clust_3="14000.00000" pt_clust_4="152.79680" pt_clust_5="131.64633" pt_clust_6="71.54930"></scales>
<clustering>
<clus scale="   71.549">  1  6  2 -1</clus>
<clus scale="  131.646">  2  5  1 -1</clus>
<clus scale="  152.797">  1  4  2 -1</clus>
<clus scale="   71.549">  1  3  2 -1</clus>
</clustering>
</event>
<event>
 6    0  0.4227619E+002  0.8141824E+02  0.7546771E-02  0.1325074E+00
         21   -1    0    0  505  501  0.00000000000E+00  0.00000000000E+00  0.12544470466E+03  0.12544470466E+03  0.00000000000E+00 0. -1.
         21   -1    0    0  503  502 -0.00000000000E+00 -0.00000000000E+00 -0.14917042543E+03  0.14917042543E+03  0.00000000000E+00 0. -1.
         21    1    1    2  503  501 -0.34225286036E+02  0.13228769338E+02  0.16888045956E+02  0.40392779536E+02  0.00000000000E+00 0. -1.
         21    1    1    2  504  506 -0.32198248198E+02  0.47773300831E+02 -0.31072127877E+02  0.65456035551E+02  0.00000000000E+00 0. -1.
         21    1    1    2  505  504  0.37486799922E+02 -0.10628190717E+03  0.59054357729E+01  0.11285379095E+03  0.00000000000E+00 0. -1.
         21    1    1    2  506  502  0.28936734312E+02  0.45279836998E+02 -0.15447074627E+02  0.55912524051E+02  0.00000000000E+00 0. -1.
<scales pt_clust_3="36.69292" pt_clust_4="81.41824" pt_clust_5="14000.00000" pt_clust_6="52.75239"></scales>
<clustering>
<clus scale="   36.693">  1  3  2 -1</clus>
<clus scale="   52.752">  2  6  1 -1</clus>
<clus scale="   81.418">  2  4  1 -1</clus>
<clus scale="   36.693">  1  3  2 -1</clus>
</clustering>
</event>
<event>
 6    0  0.4227619E+002  0.9463137E+02  0.7546771E-02  0.1292008E+00
         21   -1    0    0  505  501  0.00000000000E+00  0.00000000000E+00  0.14588280072E+04  0.14588280072E+04  0.00000000000E+00 0.  1.
         21   -1    0    0  504  502 -0.00000000000E+00 -0.00000000000E+00 -0.32048087965E+03  0.32048087965E+03  0.00000000000E+00 0.  1.
         21    1    1    2  503  501 -0.43160292002E+02 -0.64423746432E+02  0.29106681422E+02  0.82827705591E+02  0.00000000000E+00 0.  1.
         21    1    1    2  504  503 -0.29956391566E+02 -0.13598224963E+02 -0.24593096191E+03  0.24812161361E+03  0.00000000000E+00 0.  1.
         21    1    1    2  505  506  0.52519429744E+02 -0.40909603478E+02  0.13213262325E+04  0.13230022293E+04  0.00000000000E+00 0.  1.
         21    1    1    2  506  502  0.20597253825E+02  0.11893157487E+03  0.33845175571E+02  0.12535733834E+03  0.00000000000E+00 0.  1.
<scales pt_clust_3="94.63137" pt_clust_4="32.89828" pt_clust_5="66.39896" pt_clust_6="14000.00000"></scales>
<clustering>
<clus scale="   32.898">  2  4  1 -1</clus>
<clus scale="   66.399">  1  5  2 -1</clus>
<clus scale="   94.631">  1  3  2 -1</clus>
<clus scale="   66.399">  1  3  2 -1</clus>
</clustering>
</event>
<event>
 6    0  0.4227619E+002  0.1308703E+03  0.7546771E-02  0.1226170E+00
         21   -1    0    0  505  501  0.00000000000E+00  0.00000000000E+00  0.19963581040E+03  0.19963581040E+03  0.00000000000E+00 0.  1.
         21   -1    0    0  503  502 -0.00000000000E+00 -0.00000000000E+00 -0.68627041736E+03  0.68627041736E+03  0.00000000000E+00 0.  1.
         21    1    1    2  503  504  0.43020784521E+02  0.67947748689E+02 -0.75041955406E+02  0.10999536137E+03  0.00000000000E+00 0. -1.
         21    1    1    2  504  506  0.74306771938E+02  0.31923353303E+02 -0.28143546445E+03  0.29282506295E+03  0.00000000000E+00 0.  1.
         21    1    1    2  505  502 -0.18952383911E+03 -0.27878627512E+02 -0.25687752796E+03  0.32044120807E+03  0.00000000000E+00 0.  1.
         21    1    1    2  506  501  0.72196282647E+02 -0.71992474480E+02  0.12672034086E+03  0.16264459535E+03  0.00000000000E+00 0.  1.
<scales pt_clust_3="80.42192" pt_clust_4="14000.00000" pt_clust_5="130.87027" pt_clust_6="101.45488"></scales>
<clustering>
<clus scale="   80.422">  2  3  1 -1</clus>
<clus scale="  101.455">  1  6  2 -1</clus>
<clus scale="  130.870">  1  5  2 -1</clus>
<clus scale="  101.455">  1  3  2 -1</clus>
</clustering>
</event>
<event>
 6    0  0.4227619E+002  0.1380721E+03  0.7546771E-02  0.1215947E+00
         21   -1    0    0  504  501  0.00000000000E+00  0.00000000000E+00  0.20878689638E+03  0.20878689638E+03  0.00000000000E+00 0.  1.
         21   -1    0    0  503  502 -0.00000000000E+00 -0.00000000000E+00 -0.83755943199E+03  0.83755943199E+03  0.00000000000E+00 0.  1.
         21    1    1    2  503  506  0.14572705786E+02 -0.85257416795E+02 -0.57588877087E+03  0.58234789197E+03  0.00000000000E+00 0.  1.
         21    1    1    2  504  502  0.20321484948E+01 -0.70343368109E+02 -0.17526705754E+03  0.18886730930E+03  0.00000000000E+00 0. -1.
         21    1    1    2  505  501 -0.89950241979E-01  0.37491201120E+02  0.14840429956E+03  0.15306676445E+03  0.00000000000E+00 0.  1.
         21    1    1    2  506  505 -0.16514904039E+02  0.11810958378E+03 -0.26021006766E+02  0.12206436265E+03  0.00000000000E+00 0. -1.
<scales pt_clust_3="138.07215" pt_clust_4="65.98263" pt_clust_5="37.49131" pt_clust_6="14000.00000"></scales>
<clustering>
<clus scale="   37.491">  1  5  2 -1</clus>
<clus scale="   65.983">  2  4  1 -1</clus>
<clus scale="  138.072">  2  3  1 -1</clus>
<clus scale="   37.491">  1  3  2 -1</clus>
</clustering>
</event>
<event>
 6    0  0.4227619E+002  0.1053797E+03  0.7546771E-02  0.1269373E+00
         21   -1    0    0  505  501  0.00000000000E+00  0.00000000000E+00  0.16560629353E+02  0.16560629353E+02  0.00000000000E+00 0. -1.
         21   -1    0    0  503  502 -0.00000000000E+00 -0.00000000000E+00 -0.34674332558E+04  0.34674332558E+04  0.00000000000E+00 0. -1.
         21    1    1    2  503  501  0.11809508989E+02 -0.58890058664E+02 -0.20221165644E+04  0.20230083795E+04  0.00000000000E+00 0. -1.
         21    1    1    2  504  502 -0.17840908487E+02  0.73202339078E+02 -0.47786736037E+03  0.48377070454E+03  0.00000000000E+00 0. -1.
         21    1    1    2  505  506  0.56336554811E+01 -0.89135111376E+02 -0.16371017260E+03  0.18648814109E+03  0.00000000000E+00 0. -1.
         21    1    1    2  506  504  0.39774401764E+00  0.74822830961E+02 -0.78717852911E+03  0.79072666006E+03  0.00000000000E+00 0. -1.
<scales pt_clust_3="60.06250" pt_clust_4="42.12310" pt_clust_5="96.53068" pt_clust_6="42.12310"></scales>
<clustering>
<clus scale="   42.123">  4  6 -1 -1</clus>
<clus scale="   60.062">  2  3  1 -1</clus>
<clus scale="   96.531">  1  5  2 -1</clus>
<clus scale="   96.531">  1  3  2 -1</clus>
</clustering>
</event>
<event>
 6    0  0.4227619E+002  0.7919206E+02  0.7546771E-02  0.1331360E+00
         21   -1    0    0  505  501  0.00000000000E+00  0.00000000000E+00  0.13948715586E+03  0.13948715586E+03  0.00000000000E+00 0.  1.
         21   -1    0    0  506  502 -0.00000000000E+00 -0.00000000000E+00 -0.39615303800E+03  0.39615303800E+03  0.00000000000E+00 0.  1.
         21    1    1    2  503  501 -0.39220826931E+02  0.13526246407E+02  0.46309941841E+02  0.62175906269E+02  0.00000000000E+00 0.  1.
         21    1    1    2  504  502  0.52744248647E+02  0.58008197497E+02 -0.27682111573E+03  0.28770963984E+03  0.00000000000E+00 0.  1.
         21    1    1    2  505  504 -0.28160657143E+02  0.52160834426E+02 -0.60638561159E+01  0.59586454918E+02  0.00000000000E+00 0.  1.
         21    1    1    2  506  503  0.14637235427E+02 -0.12369527833E+03 -0.20090852136E+02  0.12616819283E+03  0.00000000000E+00 0.  1.
<scales pt_clust_3="41.48774" pt_clust_4="14000.00000" pt_clust_5="69.42536" pt_clust_6="79.19206"></scales>
<clustering>
<clus scale="   41.488">  1  3  2 -1</clus>
<clus scale="   69.425">  1  5  2 -1</clus>
<clus scale="   79.192">  1  6  2 -1</clus>
<clus scale="   41.488">  1  3  2 -1</clus>
</clustering>
</event>
<event>
 6    0  0.4227619E+002  0.8834436E+02  0.7546771E-02  0.1306911E+00
         21   -1    0    0  504  501  0.00000000000E+00  0.00000000000E+00  0.15217759424E+03  0.15217759424E+03  0.00000000000E+00 0.  1.
         21   -1    0    0  506  502 -0.00000000000E+00 -0.00000000000E+00 -0.66403093220E+03  0.66403093220E+03  0.00000000000E+00 0.  1.
         21    1    1    2  503  502 -0.38123374006E+01 -0.56581603560E+02 -0.49104474941E+03  0.49430856527E+03  0.00000000000E+00 0.  1.
         21    1    1    2  504  503 -0.18745460844E+02  0.13903393613E+03 -0.31203114444E+02  0.14372008227E+03  0.00000000000E+00 0.  1.
         21    1    1    2  505  501  0.41068059282E+02 -0.53681144290E+02  0.77514883979E+02  0.10284360935E+03  0.00000000000E+00 0.  1.
         21    1    1    2  506  505 -0.18510261037E+02 -0.28771188279E+02 -0.67120358081E+02  0.75336269536E+02  0.00000000000E+00 0.  1.
<scales pt_clust_3="88.34436" pt_clust_4="14000.00000" pt_clust_5="67.84022" pt_clust_6="34.21127"></scales>
<clustering>
<clus scale="   34.211">  2  6  1 -1</clus>
<clus scale="   67.840">  1  5  2 -1</clus>
<clus scale="   88.344">  2  3  1 -1</clus>
<clus scale="   67.840">  1  3  2 -1</clus>
</clustering>
</event>
<event>
 6    0  0.4227619E+002  0.5386730E+02  0.7546771E-02  0.1425533E+00
         21   -1    0    0  503  501  0.00000000000E+00  0.00000000000E+00  0.32470238632E+03  0.32470238632E+03  0.00000000000E+00 0. -1.
         21   -1    0    0  505  502 -0.00000000000E+00 -0.00000000000E+00 -0.33089735087E+03  0.33089735087E+03  0.00000000000E+00 0.  1.
         21    1    1    2  503  504 -0.13657886393E+02  0.45295944192E+02  0.79855190979E+01  0.47979463693E+02  0.00000000000E+00 0.  1.
         21    1    1    2  504  502 -0.67147312368E+02  0.63735748571E+02 -0.25981619942E+03  0.27581781068E+03  0.00000000000E+00 0.  1.
         21    1    1    2  505  506  0.45943871217E+02 -0.21988063003E+02 -0.16388930988E+02  0.53506179792E+02  0.00000000000E+00 0.  1.
         21    1    1    2  506  501  0.34861327544E+02 -0.87043629760E+02  0.26202464676E+03  0.27829628304E+03  0.00000000000E+00 0. -1.
<scales pt_clust_3="47.31026" pt_clust_4="14000.00000" pt_clust_5="48.98967" pt_clust_6="53.86730"></scales>
<clustering>
<clus scale="   47.310">  1  3  2 -1</clus>
<clus scale="   48.990">  2  5  1 -1</clus>
<clus scale="   53.867">  1  6  2 -1</clus>
<clus scale="   47.310">  1  3  2 -1</clus>
</clustering>
</event>
<event>
 6    0  0.4227619E+002  0.7904765E+02  0.7546771E-02  0.1331776E+00
         21   -1    0    0  504  501  0.00000000000E+00  0.00000000000E+00  0.10809757774E+04  0.10809757774E+04  0.00000000000E+00 0.  1.
         21   -1    0    0  506  502 -0.00000000000E+00 -0.00000000000E+00 -0.12192358863E+03  0.12192358863E+03  0.00000000000E+00 0.  1.
         21    1    1    2  503  502  0.24478216606E+01 -0.35920322339E+02 -0.37017374831E+02  0.51638623405E+02  0.00000000000E+00 0. -1.
         21    1    1    2  504  503 -0.11784250452E+03 -0.30488524811E+01 -0.85972730758E+00  0.11788507329E+03  0.00000000000E+00 0.  1.
         21    1    1    2  505  501  0.70985632526E+02  0.32987607720E+02  0.98348093232E+03  0.98659104321E+03  0.00000000000E+00 0.  1.
         21    1    1    2  506  505  0.44409050334E+02  0.59815670997E+01  0.13448358622E+02  0.46784626173E+02  0.00000000000E+00 0. -1.
<scales pt_clust_3="36.00363" pt_clust_4="79.04765" pt_clust_5="14000.00000" pt_clust_6="44.96832"></scales>
<clustering>
<clus scale="   36.004">  2  3  1 -1</clus>
<clus scale="   44.968">  2  6  1 -1</clus>
<clus scale="   79.048">  2  4  1 -1</clus>
<clus scale="   79.048">  1  3  2 -1</clus>
</clustering>
</event>
<event>
 6    0  0.4227619E+002  0.1034341E+03  0.7546771E-02  0.1273236E+00
         21   -1    0    0  505  501  0.00000000000E+00  0.00000000000E+00  0.66615659771E+03  0.66615659771E+03  0.00000000000E+00 0. -1.
         21   -1    0    0  504  502 -0.00000000000E+00 -0.00000000000E+00 -0.79119901842E+03  0.79119901842E+03  0.00000000000E+00 0. -1.
         21    1    1    2  503  501 -0.49941127189E+02  0.18545455239E+02  0.13211268194E+03  0.14244932722E+03  0.00000000000E+00 0. -1.
         21    1    1    2  504  506 -0.48232963038E+02  0.91311620236E+02 -0.76568636147E+03  0.77261881601E+03  0.00000000000E+00 0. -1.
         21    1    1    2  505  502  0.47773933979E+02 -0.77638195883E+01  0.30722339716E+03  0.31101260654E+03  0.00000000000E+00 0. -1.
         21    1    1    2  506  503  0.50400156248E+02 -0.10209325589E+03  0.20130786166E+03  0.23127486636E+03  0.00000000000E+00 0. -1.
<scales pt_clust_3="35.19829" pt_clust_4="103.43411" pt_clust_5="48.40068" pt_clust_6="14000.00000"></scales>
<clustering>
<clus scale="   48.401">  1  5  2 -1</clus>
<clus scale="   35.198">  1  3  2 -1</clus>
<clus scale="  103.434">  2  4  1 -1</clus>
<clus scale="   48.401">  1  3  2 -1</clus>
</clustering>
</event>
<event>
 6    0  0.4227619E+002  0.1480978E+03  0.7546771E-02  0.1202830E+00
         21   -1    0    0  504  501  0.00000000000E+00  0.00000000000E+00  0.33466620554E+02  0.33466620554E+02  0.00000000000E+00 0. -1.
         21   -1    0    0  505  502 -0.00000000000E+00 -0.00000000000E+00 -0.13120056740E+04  0.13120056740E+04  0.00000000000E+00 0. -1.
         21    1    1    2  503  502 -0.88880616874E+02 -0.10831642468E+03 -0.81152319770E+03  0.82353027407E+03  0.00000000000E+00 0. -1.
         21    1    1    2  504  503 -0.24752286065E+02 -0.25689650891E+02 -0.80208257532E+02  0.87783816303E+02  0.00000000000E+00 0. -1.
         21    1    1    2  505  506  0.16069398517E+02  0.58389744741E+02 -0.20977031106E+03  0.21833728784E+03  0.00000000000E+00 0. -1.
         21    1    1    2  506  501  0.97563504423E+02  0.75616330828E+02 -0.17703728712E+03  0.21582091631E+03  0.00000000000E+00 0. -1.
<scales pt_clust_3="33.61575" pt_clust_4="33.61575" pt_clust_5="60.56061" pt_clust_6="132.26728"></scales>
<clustering>
<clus scale="   33.616">  3  4 -1 -1</clus>
<clus scale="   60.561">  2  5  1 -1</clus>
<clus scale="  132.267">  1  6  2 -1</clus>
<clus scale="  132.267">  1  3  2 -1</clus>
</clustering>
</event>
<event>
 6    0  0.4227619E+002  0.1474542E+03  0.7546771E-02  0.1203637E+00
         21   -1    0    0  503  501  0.00000000000E+00  0.00000000000E+00  0.16508521998E+03  0.16508521998E+03  0.00000000000E+00 0.  1.
         21   -1    0    0  501  502 -0.00000000000E+00 -0.00000000000E+00 -0.10515344180E+04  0.10515344180E+04  0.00000000000E+00 0.  1.
         21    1    1    2  503  505  0.25241158838E+02  0.25508655637E+02  0.79587457427E+02  0.87303900208E+02  0.00000000000E+00 0.  1.
         21    1    1    2  504  506  0.14662659117E+03 -0.16184947111E+02 -0.15602952513E+03  0.21472429407E+03  0.00000000000E+00 0.  1.
         21    1    1    2  505  504 -0.15863487960E+03 -0.37847208283E+02 -0.76026132124E+02  0.17993723619E+03  0.00000000000E+00 0.  1.
         21    1    1    2  506  502 -0.13232870411E+02  0.28523499757E+02 -0.73398099821E+03  0.73465420752E+03  0.00000000000E+00 0.  1.
<scales pt_clust_3="36.02122" pt_clust_4="147.45421" pt_clust_5="14000.00000" pt_clust_6="31.44358"></scales>
<clustering>
<clus scale="   31.444">  2  6  1 -1</clus>
<clus scale="   36.021">  1  3  2 -1</clus>
<clus scale="  147.454">  2  4  1 -1</clus>
<clus scale="   36.021">  1  3  2 -1</clus>
</clustering>
</event>
<event>
 6    0  0.4227619E+002  0.8593348E+02  0.7546771E-02  0.1313009E+00
         21   -1    0    0  505  501  0.00000000000E+00  0.00000000000E+00  0.12682622012E+04  0.12682622012E+04  0.00000000000E+00 0.  1.
         21   -1    0    0  501  502 -0.00000000000E+00 -0.00000000000E+00 -0.40206455980E+03  0.40206455980E+03  0.00000000000E+00 0. -1.
         21    1    1    2  503  506 -0.85081872099E+02  0.47954539188E+02 -0.92911584655E+02  0.13480031659E+03  0.00000000000E+00 0. -1.
         21    1    1    2  504  502  0.29749763049E+02 -0.43348932377E+01 -0.18103605729E+03  0.18351537739E+03  0.00000000000E+00 0. -1.
         21    1    1    2  505  503  0.34226696307E+02 -0.78934865679E+02  0.12405367337E+04  0.12435166132E+04  0.00000000000E+00 0.  1.
         21    1    1    2  506  504  0.21105412743E+02  0.35315219729E+02 -0.10039145036E+03  0.10849445376E+03  0.00000000000E+00 0.  1.
<scales pt_clust_3="14000.00000" pt_clust_4="30.06393" pt_clust_5="85.93348" pt_clust_6="48.45556"></scales>
<clustering>
<clus scale="   30.064">  2  4  1 -1</clus>
<clus scale="   48.456">  2  6  1 -1</clus>
<clus scale="   85.933">  1  5  2 -1</clus>
<clus scale="   85.933">  1  3  2 -1</clus>
</clustering>
</event>
<event>
 6    0  0.4227619E+002  0.1268420E+03  0.7546771E-02  0.1232218E+00
         21   -1    0    0  504  501  0.00000000000E+00  0.00000000000E+00  0.96973047905E+02  0.96973047905E+02  0.00000000000E+00 0. -1.
         21   -1    0    0  505  502 -0.00000000000E+00 -0.00000000000E+00 -0.46074182128E+03  0.46074182128E+03  0.00000000000E+00 0. -1.
         21    1    1    2  503  502  0.91008784530E+02  0.17980176163E+02 -0.26617418168E+03  0.28187688907E+03  0.00000000000E+00 0. -1.
         21    1    1    2  504  506 -0.11319318035E+03 -0.33300504629E+02  0.32629515673E+02  0.12241856469E+03  0.00000000000E+00 0. -1.
         21    1    1    2  505  501 -0.17177612013E+02  0.32626876842E+02 -0.46940182766E+02  0.59690570487E+02  0.00000000000E+00 0. -1.
         21    1    1    2  506  503  0.39362007836E+02 -0.17306548376E+02 -0.83283924596E+02  0.93728844939E+02  0.00000000000E+00 0. -1.
<scales pt_clust_3="30.15401" pt_clust_4="118.85786" pt_clust_5="36.87253" pt_clust_6="30.15401"></scales>
<clustering>
<clus scale="   30.154">  3  6 -1 -1</clus>
<clus scale="   36.873">  2  5  1 -1</clus>
<clus scale="  118.858">  1  4  2 -1</clus>
<clus scale="  118.858">  1  3  2 -1</clus>
</clustering>
</event>
<event>
 6    0  0.4227619E+002  0.8077467E+02  0.7546771E-02  0.1326867E+00
         21   -1    0    0  504  501  0.00000000000E+00  0.00000000000E+00  0.26591313320E+03  0.26591313320E+03  0.00000000000E+00 0. -1.
         21   -1    0    0  506  502 -0.00000000000E+00 -0.00000000000E+00 -0.12401436500E+03  0.12401436500E+03  0.00000000000E+00 0. -1.
         21    1    1    2  503  505  0.55186824222E+02 -0.32778092805E+02 -0.37785769497E+02  0.74483241821E+02  0.00000000000E+00 0. -1.
         21    1    1    2  504  502 -0.69514637180E+02  0.34919841658E+02  0.10228939249E+03  0.12850992156E+03  0.00000000000E+00 0. -1.
         21    1    1    2  505  501 -0.30920832429E+02 -0.46717591420E+02  0.10395302806E+03  0.11808837059E+03  0.00000000000E+00 0. -1.
         21    1    1    2  506  503  0.45248645387E+02  0.44575842567E+02 -0.26557882852E+02  0.68845964236E+02  0.00000000000E+00 0. -1.
<scales pt_clust_3="14000.00000" pt_clust_4="80.77467" pt_clust_5="56.02349" pt_clust_6="56.05711"></scales>
<clustering>
<clus scale="   56.023">  1  5  2 -1</clus>
<clus scale="   56.057">  2  6  1 -1</clus>
<clus scale="   80.775">  1  4  2 -1</clus>
<clus scale="   56.023">  1  3  2 -1</clus>
</clustering>
</event>
<event>
 6    0  0.4227619E+002  0.1211117E+03  0.7546771E-02  0.1241274E+00
         21   -1    0    0  503  501  0.00000000000E+00  0.00000000000E+00  0.63049044202E+03  0.63049044202E+03  0.00000000000E+00 0.  1.
         21   -1    0    0  506  502 -0.00000000000E+00 -0.00000000000E+00 -0.78196198849E+02  0.78196198849E+02  0.00000000000E+00 0.  1.
         21    1    1    2  503  502 -0.54361487683E+02 -0.14844810796E+03  0.99834430945E+02  0.18697306144E+03  0.00000000000E+00 0.  1.
         21    1    1    2  504  505  0.67402319882E+00  0.91071585929E+02  0.14268811684E+03  0.16927606670E+03  0.00000000000E+00 0.  1.
         21    1    1    2  505  501  0.16277694478E+02  0.42939972919E+02  0.30893574373E+03  0.31233011120E+03  0.00000000000E+00 0.  1.
         21    1    1    2  506  504  0.37409770006E+02  0.14436549114E+02  0.83595165932E+00  0.40107401529E+02  0.00000000000E+00 0.  1.
<scales pt_clust_3="121.11171" pt_clust_4="14000.00000" pt_clust_5="46.70528" pt_clust_6="40.09869"></scales>
<clustering>
<clus scale="   40.099">  2  6  1 -1</clus>
<clus scale="   46.705">  1  5  2 -1</clus>
<clus scale="  121.112">  2  3  1 -1</clus>
<clus scale="   46.705">  1  3  2 -1</clus>
</clustering>
</event>
<event>
 6    0  0.4227619E+002  0.1261574E+03  0.7546771E-02  0.1233271E+00
         21   -1    0    0  503  501  0.00000000000E+00  0.00000000000E+00  0.44485508385E+03  0.44485508385E+03  0.00000000000E+00 0. -1.
         21   -1    0    0  505  502 -0.00000000000E+00 -0.00000000000E+00 -0.10980188235E+03  0.10980188235E+03  0.00000000000E+00 0.  1.
         21    1    1    2  503  504 -0.17930269134E+02  0.48896220959E+02  0.79336141432E+02  0.94902888852E+02  0.00000000000E+00 0. -1.
         21    1    1    2  504  502 -0.11522064677E+03 -0.47623308594E+02  0.25867379191E+03  0.28715136703E+03  0.00000000000E+00 0. -1.
         21    1    1    2  505  506  0.10554001271E+02  0.40118463178E+02 -0.11125393691E+02  0.42949416939E+02  0.00000000000E+00 0.  1.
         21    1    1    2  506  501  0.12259691464E+03 -0.41391375544E+02  0.81686618488E+01  0.12965329338E+03  0.00000000000E+00 0.  1.
<scales pt_clust_3="55.32555" pt_clust_4="14000.00000" pt_clust_5="41.48347" pt_clust_6="126.15740"></scales>
<clustering>
<clus scale="   41.483">  2  5  1 -1</clus>
<clus scale="   55.326">  1  3  2 -1</clus>
<clus scale="  126.157">  2  6  1 -1</clus>
<clus scale="   55.326">  1  3  2 -1</clus>
</clustering>
</event>
<event>
 6    0  0.4227619E+002  0.8539878E+02  0.7546771E-02  0.1314393E+00
         21   -1    0    0  506  501  0.00000000000E+00  0.00000000000E+00  0.19000618852E+03  0.19000618852E+03  0.00000000000E+00 0.  1.
         21   -1    0    0  503  502 -0.00000000000E+00 -0.00000000000E+00 -0.19854910977E+03  0.19854910977E+03  0.00000000000E+00 0.  1.
         21    1    1    2  503  504  0.55849819768E+02  0.58425870422E+02 -0.43177961058E+02  0.91635806451E+02  0.00000000000E+00 0.  1.
         21    1    1    2  504  501 -0.31196500717E+02 -0.23442577935E+02  0.94860940112E+02  0.10257374945E+03  0.00000000000E+00 0.  1.
         21    1    1    2  505  502  0.63868914312E+02 -0.25093562917E+02 -0.77605451539E+02  0.10359310413E+03  0.00000000000E+00 0.  1.
         21    1    1    2  506  505 -0.88522233363E+02 -0.98897295708E+01  0.17379551231E+02  0.90752638263E+02  0.00000000000E+00 0.  1.
<scales pt_clust_3="85.39878" pt_clust_4="39.02276" pt_clust_5="65.87889" pt_clust_6="14000.00000"></scales>
<clustering>
<clus scale="   39.023">  1  4  2 -1</clus>
<clus scale="   65.879">  2  5  1 -1</clus>
<clus scale="   85.399">  1  3  2 -1</clus>
<clus scale="   39.023">  1  3  2 -1</clus>
</clustering>
</event>
<event>
 6    0  0.4227619E+002  0.6308630E+02  0.7546771E-02  0.1385318E+00
         21   -1    0    0  505  501  0.00000000000E+00  0.00000000000E+00  0.86500279054E+02  0.86500279054E+02  0.00000000000E+00 0.  1.
         21   -1    0    0  504  502 -0.00000000000E+00 -0.00000000000E+00 -0.40494619829E+03  0.40494619829E+03  0.00000000000E+00 0.  1.
         21    1    1    2  503  502 -0.84354625599E+02  0.30909567605E+02 -0.25460597661E+03  0.26999131015E+03  0.00000000000E+00 0.  1.
         21    1    1    2  504  501  0.39858868162E+02  0.20119986177E+02 -0.86447020627E+02  0.97296611401E+02  0.00000000000E+00 0.  1.
         21    1    1    2  505  506  0.50921680290E+02  0.12228195432E+02  0.29660096016E+02  0.60185277127E+02  0.00000000000E+00 0.  1.
         21    1    1    2  506  503 -0.64259228533E+01 -0.63257749214E+02 -0.70530180117E+01  0.63973278665E+02  0.00000000000E+00 0.  1.
<scales pt_clust_3="63.08630" pt_clust_4="44.64911" pt_clust_5="54.49008" pt_clust_6="14000.00000"></scales>
<clustering>
<clus scale="   44.649">  2  4  1 -1</clus>
<clus scale="   54.490">  1  5  2 -1</clus>
<clus scale="   63.086">  2  3  1 -1</clus>
<clus scale="   54.490">  1  3  2 -1</clus>
</clustering>
</event>
<event>
 6    0  0.4227619E+002  0.1335875E+03  0.7546771E-02  0.1222228E+00
         21   -1    0    0  504  501  0.00000000000E+00  0.00000000000E+00  0.66404737299E+03  0.66404737299E+03  0.00000000000E+00 0.  1.
         21   -1    0    0  505  502 -0.00000000000E+00 -0.00000000000E+00 -0.10670047541E+03  0.10670047541E+03  0.00000000000E+00 0.  1.
         21    1    1    2  503  506  0.99891001013E+02 -0.24036596936E+02  0.15965987019E+03  0.18986111825E+03  0.00000000000E+00 0.  1.
         21    1    1    2  504  502 -0.18036089443E+03 -0.19229554058E+02  0.27788030576E+03  0.33183925675E+03  0.00000000000E+00 0.  1.
         21    1    1    2  505  503  0.57471782198E+02  0.63413733660E+02 -0.34105594855E+02  0.92127623252E+02  0.00000000000E+00 0.  1.
         21    1    1    2  506  501  0.22998111221E+02 -0.20147582667E+02  0.15391231648E+03  0.15691985015E+03  0.00000000000E+00 0.  1.
<scales pt_clust_3="133.58749" pt_clust_4="14000.00000" pt_clust_5="85.62932" pt_clust_6="30.57512"></scales>
<clustering>
<clus scale="   30.575">  1  6  2 -1</clus>
<clus scale="   85.629">  2  5  1 -1</clus>
<clus scale="  133.587">  1  3  2 -1</clus>
<clus scale="   30.575">  1  3  2 -1</clus>
</clustering>
</event>
<event>
 6    0  0.4227619E+002  0.1104944E+03  0.7546771E-02  0.1259657E+00
         21   -1    0    0  506  501  0.00000000000E+00  0.00000000000E+00  0.10458139423E+03  0.10458139423E+03  0.00000000000E+00 0.  1.
         21   -1    0    0  504  502 -0.00000000000E+00 -0.00000000000E+00 -0.70582541760E+03  0.70582541760E+03  0.00000000000E+00 0.  1.
         21    1    1    2  503  505  0.83503958222E+02 -0.55613770417E+02 -0.13110804577E+02  0.10118149878E+03  0.00000000000E+00 0.  1.
         21    1    1    2  504  503 -0.11852931098E+02  0.55036932991E+02 -0.40618194721E+03  0.41006503169E+03  0.00000000000E+00 0.  1.
         21    1    1    2  505  501 -0.17405360498E+02 -0.67418210303E+02  0.25547564761E+02  0.74167646044E+02  0.00000000000E+00 0.  1.
         21    1    1    2  506  502 -0.54245666626E+02  0.67995047729E+02 -0.20749883634E+03  0.22499263531E+03  0.00000000000E+00 0.  1.
<scales pt_clust_3="110.49440" pt_clust_4="56.29881" pt_clust_5="65.55151" pt_clust_6="14000.00000"></scales>
<clustering>
<clus scale="   56.299">  2  4  1 -1</clus>
<clus scale="   65.552">  1  5  2 -1</clus>
<clus scale="  110.494">  1  3  2 -1</clus>
<clus scale="   65.552">  1  3  2 -1</clus>
</clustering>
</event>
<event>
 6    0  0.4227619E+002  0.9319339E+02  0.7546771E-02  0.1295298E+00
         21   -1    0    0  506  501  0.00000000000E+00  0.00000000000E+00  0.41637114595E+03  0.41637114595E+03  0.00000000000E+00 0.  1.
         21   -1    0    0  505  502 -0.00000000000E+00 -0.00000000000E+00 -0.14106239436E+03  0.14106239436E+03  0.00000000000E+00 0. -1.
         21    1    1    2  503  504 -0.77097255216E+01  0.12185509798E+03 -0.71634901658E+02  0.14156151986E+03  0.00000000000E+00 0. -1.
         21    1    1    2  504  502  0.21661699536E+02 -0.33806632644E+02 -0.32277925965E+01  0.40280718496E+02  0.00000000000E+00 0.  1.
         21    1    1    2  505  501 -0.43659663801E+02 -0.92260199188E+02  0.30257176527E+03  0.31932394795E+03  0.00000000000E+00 0.  1.
         21    1    1    2  506  503  0.29707689786E+02  0.42117338562E+01  0.47599680581E+02  0.56267353998E+02  0.00000000000E+00 0.  1.
<scales pt_clust_3="93.19339" pt_clust_4="40.80926" pt_clust_5="14000.00000" pt_clust_6="30.00476"></scales>
<clustering>
<clus scale="   30.005">  1  6  2 -1</clus>
<clus scale="   40.809">  2  4  1 -1</clus>
<clus scale="   93.193">  2  3  1 -1</clus>
<clus scale="   30.005">  1  3  2 -1</clus>
</clustering>
</event>
<event>
 6    0  0.4227619E+002  0.9007839E+02  0.7546771E-02  0.1302662E+00
         21   -1    0    0  505  501  0.00000000000E+00  0.00000000000E+00  0.35345550343E+03  0.35345550343E+03  0.00000000000E+00 0.  1.
         21   -1    0    0  506  502 -0.00000000000E+00 -0.00000000000E+00 -0.19552945111E+03  0.19552945111E+03  0.00000000000E+00 0. -1.
         21    1    1    2  503  504  0.63570682931E+02  0.60856950969E+02 -0.26923999406E+01  0.88045722366E+02  0.00000000000E+00 0. -1.
         21    1    1    2  504  502 -0.54343491672E+02 -0.70032866105E+02 -0.11657647574E+03  0.14645098879E+03  0.00000000000E+00 0. -1.
         21    1    1    2  505  503 -0.34985727260E+02  0.35980860458E+02  0.27242393685E+03  0.27700798688E+03  0.00000000000E+00 0.  1.
         21    1    1    2  506  501  0.25758536001E+02 -0.26804945321E+02  0.47709911587E+01  0.37480256499E+02  0.00000000000E+00 0. -1.
<scales pt_clust_3="14000.00000" pt_clust_4="90.07839" pt_clust_5="49.71035" pt_clust_6="37.17536"></scales>
<clustering>
<clus scale="   37.175">  2  6  1 -1</clus>
<clus scale="   49.710">  1  5  2 -1</clus>
<clus scale="   90.078">  2  4  1 -1</clus>
<clus scale="   49.710">  1  3  2 -1</clus>
</clustering>
</event>
<event>
 6    0  0.4227619E+002  0.8216692E+02  0.7546771E-02  0.1323012E+00
         21   -1    0    0  503  501  0.00000000000E+00  0.00000000000E+00  0.17231429619E+04  0.17231429619E+04  0.00000000000E+00 0. -1.
         21   -1    0    0  504  502 -0.00000000000E+00 -0.00000000000E+00 -0.32433335368E+02  0.32433335368E+02  0.00000000000E+00 0. -1.
         21    1    1    2  503  502 -0.53612148484E+02  0.59414460599E+02  0.45281904612E+03  0.45983630688E+03  0.00000000000E+00 0. -1.
         21    1    1    2  504  505  0.40487179829E+02 -0.32720692752E+02  0.11030451828E+02  0.53212088215E+02  0.00000000000E+00 0. -1.
         21    1    1    2  505  506  0.71965197601E+02 -0.33698607819E+02  0.21975554951E+03  0.23368159400E+03  0.00000000000E+00 0. -1.
         21    1    1    2  506  501 -0.58840228946E+02  0.70048399721E+01  0.10071045791E+04  0.10088463082E+04  0.00000000000E+00 0. -1.
<scales pt_clust_3="14000.00000" pt_clust_4="52.05627" pt_clust_5="82.16692" pt_clust_6="55.91246"></scales>
<clustering>
<clus scale="   52.056">  2  4  1 -1</clus>
<clus scale="   55.912">  1  6  2 -1</clus>
<clus scale="   82.167">  1  5  2 -1</clus>
<clus scale="   55.912">  1  3  2 -1</clus>
</clustering>
</event>
<event>
 6    0  0.4227619E+002  0.8445225E+02  0.7546771E-02  0.1316871E+00
         21   -1    0    0  504  501  0.00000000000E+00  0.00000000000E+00  0.32661896563E+02  0.32661896563E+02  0.00000000000E+00 0. -1.
         21   -1    0    0  503  502 -0.00000000000E+00 -0.00000000000E+00 -0.14069284598E+04  0.14069284598E+04  0.00000000000E+00 0. -1.
         21    1    1    2  503  501 -0.92085672452E+02 -0.19676092201E+02 -0.86925801835E+03  0.87434342346E+03  0.00000000000E+00 0. -1.
         21    1    1    2  504  505  0.78518008449E+02  0.29124082216E+02 -0.44890102307E+02  0.95017951466E+02  0.00000000000E+00 0. -1.
         21    1    1    2  505  506  0.53200959689E+02 -0.10829235779E+02 -0.32139305748E+03  0.32594648619E+03  0.00000000000E+00 0. -1.
         21    1    1    2  506  502 -0.39633295686E+02  0.13812457644E+01 -0.13872538514E+03  0.14428249529E+03  0.00000000000E+00 0. -1.
<scales pt_clust_3="84.45225" pt_clust_4="14000.00000" pt_clust_5="44.31948" pt_clust_6="39.65736"></scales>
<clustering>
<clus scale="   39.657">  2  6  1 -1</clus>
<clus scale="   44.319">  2  5  1 -1</clus>
<clus scale="   84.452">  2  3  1 -1</clus>
<clus scale="   84.452">  1  3  2 -1</clus>
</clustering>
</event>
<event>
 6    0  0.4227619E+002  0.1014423E+03  0.7546771E-02  0.1277292E+00
         21   -1    0    0  503  501  0.00000000000E+00  0.00000000000E+00  0.54611761809E+03  0.54611761809E+03  0.00000000000E+00 0. -1.
         21   -1    0    0  504  502 -0.00000000000E+00 -0.00000000000E+00 -0.83212683303E+02  0.83212683303E+02  0.00000000000E+00 0. -1.
         21    1    1    2  503  505 -0.21400069278E+02 -0.24156868768E+02  0.27959697849E+03  0.28145334899E+03  0.00000000000E+00 0. -1.
         21    1    1    2  504  501  0.11205841944E+01 -0.11771886236E+03  0.25945775810E+02  0.12054944855E+03  0.00000000000E+00 0. -1.
         21    1    1    2  505  506  0.37254780432E+02  0.57615119060E+02  0.10873593026E+03  0.12857263760E+03  0.00000000000E+00 0. -1.
         21    1    1    2  506  502 -0.16975295348E+02  0.84260612067E+02  0.48626250221E+02  0.98754866253E+02  0.00000000000E+00 0. -1.
<scales pt_clust_3="32.27255" pt_clust_4="14000.00000" pt_clust_5="54.40000" pt_clust_6="101.44234"></scales>
<clustering>
<clus scale="   32.273">  1  3  2 -1</clus>
<clus scale="   54.400">  1  5  2 -1</clus>
<clus scale="  101.442">  1  6  2 -1</clus>
<clus scale="   32.273">  1  3  2 -1</clus>
</clustering>
</event>
<event>
 6    0  0.4227619E+002  0.1037192E+03  0.7546771E-02  0.1272664E+00
         21   -1    0    0  503  501  0.00000000000E+00  0.00000000000E+00  0.45827669723E+03  0.45827669723E+03  0.00000000000E+00 0.  1.
         21   -1    0    0  505  502 -0.00000000000E+00 -0.00000000000E+00 -0.39586159205E+03  0.39586159205E+03  0.00000000000E+00 0.  1.
         21    1    1    2  503  504  0.34357885133E+02  0.11213022477E+02  0.43403923236E+02  0.56480941000E+02  0.00000000000E+00 0.  1.
         21    1    1    2  504  502 -0.39041478529E+01  0.93501463925E+02 -0.52275107237E+02  0.10719353042E+03  0.00000000000E+00 0. -1.
         21    1    1    2  505  506 -0.10321818491E+03 -0.99551631465E+02 -0.28913005391E+03  0.32273938262E+03  0.00000000000E+00 0.  1.
         21    1    1    2  506  501  0.72764447628E+02 -0.51628549372E+01  0.36041634309E+03  0.36772443524E+03  0.00000000000E+00 0.  1.
<scales pt_clust_3="36.14134" pt_clust_4="94.26898" pt_clust_5="103.71917" pt_clust_6="14000.00000"></scales>
<clustering>
<clus scale="   36.141">  1  3  2 -1</clus>
<clus scale="   94.269">  2  4  1 -1</clus>
<clus scale="  103.719">  2  5  1 -1</clus>
<clus scale="   36.141">  1  3  2 -1</clus>
</clustering>
</event>
<event>
 6    0  0.4227619E+002  0.8443141E+02  0.7546771E-02  0.1316926E+00
         21   -1    0    0  503  501  0.00000000000E+00  0.00000000000E+00  0.39536416312E+03  0.39536416312E+03  0.00000000000E+00 0.  1.
         21   -1    0    0  504  502 -0.00000000000E+00 -0.00000000000E+00 -0.14321826163E+04  0.14321826163E+04  0.00000000000E+00 0.  1.
         21    1    1    2  503  506  0.46201258499E+02  0.56943221945E+02  0.30201467079E+03  0.31078923434E+03  0.00000000000E+00 0.  1.
         21    1    1    2  504  501 -0.43353172845E+02 -0.17456050678E+02  0.63871735026E+02  0.79144234384E+02  0.00000000000E+00 0.  1.
         21    1    1    2  505  502  0.78083800779E+02 -0.34696477126E+02 -0.13165149671E+04  0.13192848760E+04  0.00000000000E+00 0.  1.
         21    1    1    2  506  505 -0.80931886433E+02 -0.47906941416E+01 -0.86189891930E+02  0.11832843472E+03  0.00000000000E+00 0.  1.
<scales pt_clust_3="40.75905" pt_clust_4="46.73555" pt_clust_5="14000.00000" pt_clust_6="84.43141"></scales>
<clustering>
<clus scale="   46.736">  1  4  2 -1</clus>
<clus scale="   40.759">  1  3  2 -1</clus>
<clus scale="   84.431">  1  6  2 -1</clus>
<clus scale="   46.736">  1  3  2 -1</clus>
</clustering>
</event>
<event>
 6    0  0.4227619E+002  0.6813970E+02  0.7546771E-02  0.1366536E+00
         21   -1    0    0  506  501  0.00000000000E+00  0.00000000000E+00  0.18553061162E+03  0.18553061162E+03  0.00000000000E+00 0. -1.
         21   -1    0    0  503  502 -0.00000000000E+00 -0.00000000000E+00 -0.10841336092E+04  0.10841336092E+04  0.00000000000E+00 0.  1.
         21    1    1    2  503  504 -0.43949106092E+02  0.21544743072E+02 -0.17363259814E+03  0.18039949839E+03  0.00000000000E+00 0.  1.
         21    1    1    2  504  501 -0.17008014688E+02  0.44926051712E+02 -0.18110233571E+02  0.51338126632E+02  0.00000000000E+00 0.  1.
         21    1    1    2  505  502  0.11011370489E+03 -0.31015004770E+02 -0.86294108742E+03  0.87049082642E+03  0.00000000000E+00 0.  1.
         21    1    1    2  506  505 -0.49156584106E+02 -0.35455790014E+02  0.15608092154E+03  0.16743576940E+03  0.00000000000E+00 0. -1.
<scales pt_clust_3="49.65225" pt_clust_4="48.03772" pt_clust_5="68.13970" pt_clust_6="14000.00000"></scales>
<clustering>
<clus scale="   48.038">  1  4  2 -1</clus>
<clus scale="   49.652">  2  3  1 -1</clus>
<clus scale="   68.140">  2  5  1 -1</clus>
<clus scale="   48.038">  1  3  2 -1</clus>
</clustering>
</event>
<event>
 6    0  0.4227619E+002  0.2118146E+03  0.7546771E-02  0.1140137E+00
         21   -1    0    0  503  501  0.00000000000E+00  0.00000000000E+00  0.39336917637E+03  0.39336917637E+03  0.00000000000E+00 0. -1.
         21   -1    0    0  505  502 -0.00000000000E+00 -0.00000000000E+00 -0.85506608220E+03  0.85506608220E+03  0.00000000000E+00 0. -1.
         21    1    1    2  503  504 -0.38550630271E+02  0.13341255525E+03  0.21314397014E+03  0.25439224241E+03  0.00000000000E+00 0. -1.
         21    1    1    2  504  506 -0.60810261547E+02  0.35861210431E+02  0.11453970962E+03  0.13454835340E+03  0.00000000000E+00 0. -1.
         21    1    1    2  505  501  0.48061237240E+02  0.23057206571E+02 -0.89167010474E+01  0.54046506432E+02  0.00000000000E+00 0.  1.
         21    1    1    2  506  502  0.51299654577E+02 -0.19233097225E+03 -0.78046388455E+03  0.80544815633E+03  0.00000000000E+00 0. -1.
<scales pt_clust_3="52.25831" pt_clust_4="52.25831" pt_clust_5="53.30588" pt_clust_6="198.72948"></scales>
<clustering>
<clus scale="   52.258">  3  4 -1 -1</clus>
<clus scale="   53.306">  1  5  2 -1</clus>
<clus scale="  198.729">  2  6  1 -1</clus>
<clus scale="   53.306">  1  3  2 -1</clus>
</clustering>
</event>
<event>
 6    0  0.4227619E+002  0.1145325E+03  0.7546771E-02  0.1252399E+00
         21   -1    0    0  505  501  0.00000000000E+00  0.00000000000E+00  0.29599148594E+04  0.29599148594E+04  0.00000000000E+00 0.  1.
         21   -1    0    0  503  502 -0.00000000000E+00 -0.00000000000E+00 -0.27176332031E+02  0.27176332031E+02  0.00000000000E+00 0.  1.
         21    1    1    2  503  501  0.10234390579E+03  0.92717822095E+02  0.32493123479E+03  0.35305973564E+03  0.00000000000E+00 0.  1.
         21    1    1    2  504  502 -0.11455955173E+02 -0.10765236294E+03  0.30109978811E+03  0.31997086204E+03  0.00000000000E+00 0.  1.
         21    1    1    2  505  506  0.42010073219E+02  0.17175195739E+02  0.36533628993E+03  0.36814458890E+03  0.00000000000E+00 0. -1.
         21    1    1    2  506  504 -0.13289802384E+03 -0.22406548934E+01  0.19413712145E+04  0.19459160049E+04  0.00000000000E+00 0.  1.
<scales pt_clust_3="14000.00000" pt_clust_4="114.53248" pt_clust_5="45.38539" pt_clust_6="101.96638"></scales>
<clustering>
<clus scale="   45.385">  1  5  2 -1</clus>
<clus scale="  101.966">  1  6  2 -1</clus>
<clus scale="  114.532">  2  4  1 -1</clus>
<clus scale="   45.385">  1  3  2 -1</clus>
</clustering>
</event>
<event>
 6    0  0.4227619E+002  0.1059634E+03  0.7546771E-02  0.1268233E+00
         21   -1    0    0  506  501  0.00000000000E+00  0.00000000000E+00  0.13867754770E+03  0.13867754770E+03  0.00000000000E+00 0. -1.
         21   -1    0    0  504  502 -0.00000000000E+00 -0.00000000000E+00 -0.18656302673E+03  0.18656302673E+03  0.00000000000E+00 0.  1.
         21    1    1    2  503  501  0.79209198462E+02  0.78441143625E+02 -0.30030496824E+02  0.11545103236E+03  0.00000000000E+00 0.  1.
         21    1    1    2  504  503  0.32334810597E+02 -0.77152958997E+01 -0.41556233102E+02  0.53216409845E+02  0.00000000000E+00 0.  1.
         21    1    1    2  505  502 -0.10276820380E+03 -0.22060750588E+02  0.12307729353E+02  0.10582750413E+03  0.00000000000E+00 0. -1.
         21    1    1    2  506  505 -0.87758052582E+01 -0.48665097137E+02  0.11393521540E+02  0.50745628091E+02  0.00000000000E+00 0. -1.
<scales pt_clust_3="105.96341" pt_clust_4="33.24253" pt_clust_5="14000.00000" pt_clust_6="49.93317"></scales>
<clustering>
<clus scale="   33.243">  2  4  1 -1</clus>
<clus scale="   49.933">  1  6  2 -1</clus>
<clus scale="  105.963">  1  3  2 -1</clus>
<clus scale="   49.933">  1  3  2 -1</clus>
</clustering>
</event>
<event>
 6    0  0.4303060E+002  0.1636957E+03  0.7546771E-02  0.1184586E+00
         21   -1    0    0  506  501  0.00000000000E+00  0.00000000000E+00  0.21496808231E+04  0.21496808231E+04  0.00000000000E+00 0. -1.
         21   -1    0    0  503  502 -0.00000000000E+00 -0.00000000000E+00 -0.12616766546E+04  0.12616766546E+04  0.00000000000E+00 0.  1.
         21    1    1    2  503  501  0.25108758289E+02 -0.25604404043E+02  0.77622846209E+03  0.77705640761E+03  0.00000000000E+00 0. -1.
         21    1    1    2  504  502  0.15302539647E+02 -0.16190134516E+03 -0.11202222656E+04  0.11319647245E+04  0.00000000000E+00 0.  1.
         21    1    1    2  505  504 -0.13498506010E+03  0.16443416059E+03 -0.48452499665E+02  0.21819075220E+03  0.00000000000E+00 0. -1.
         21    1    1    2  506  505  0.94573762167E+02  0.23071588609E+02  0.12804504716E+04  0.12841455933E+04  0.00000000000E+00 0. -1.
<scales pt_clust_3="35.86133" pt_clust_4="14000.00000" pt_clust_5="163.69568" pt_clust_6="118.02615"></scales>
<clustering>
<clus scale="   35.861">  1  3  2 -1</clus>
<clus scale="  118.026">  1  6  2 -1</clus>
<clus scale="  163.696">  1  5  2 -1</clus>
<clus scale="   35.861">  1  3  2 -1</clus>
</clustering>
</event>
<event>
 6    0  0.4227619E+002  0.1058362E+03  0.7546771E-02  0.1268481E+00
         21   -1    0    0  503  501  0.00000000000E+00  0.00000000000E+00  0.37505138066E+02  0.37505138066E+02  0.00000000000E+00 0. -1.
         21   -1    0    0  505  502 -0.00000000000E+00 -0.00000000000E+00 -0.10754256931E+04  0.10754256931E+04  0.00000000000E+00 0. -1.
         21    1    1    2  503  504  0.39206102905E+02 -0.13249315130E+02 -0.76651758296E+02  0.87110016108E+02  0.00000000000E+00 0. -1.
         21    1    1    2  504  502 -0.28874191844E+01 -0.36540288687E+02 -0.51082689883E+03  0.51214026444E+03  0.00000000000E+00 0. -1.
         21    1    1    2  505  506 -0.11256562382E+03  0.94058969546E+01 -0.39568077249E+03  0.41148847406E+03  0.00000000000E+00 0. -1.
         21    1    1    2  506  501  0.76246940098E+02  0.40383706862E+02 -0.54761125401E+02  0.10219207655E+03  0.00000000000E+00 0. -1.
<scales pt_clust_3="42.99650" pt_clust_4="36.65419" pt_clust_5="14000.00000" pt_clust_6="105.83618"></scales>
<clustering>
<clus scale="   36.654">  2  4  1 -1</clus>
<clus scale="   42.997">  1  3  2 -1</clus>
<clus scale="  105.836">  1  6  2 -1</clus>
<clus scale="   42.997">  1  3  2 -1</clus>
</clustering>
</event>
<event>
 6    0  0.4227619E+002  0.7880555E+02  0.7546771E-02  0.1332476E+00
         21   -1    0    0  504  501  0.00000000000E+00  0.00000000000E+00  0.15035880213E+03  0.15035880213E+03  0.00000000000E+00 0. -1.
         21   -1    0    0  506  502 -0.00000000000E+00 -0.00000000000E+00 -0.73455136708E+03  0.73455136708E+03  0.00000000000E+00 0. -1.
         21    1    1    2  503  501  0.29400140711E+02  0.25248476324E+02  0.72634273145E+02  0.82326128695E+02  0.00000000000E+00 0. -1.
         21    1    1    2  504  505 -0.33487681431E+02  0.16157379617E+02 -0.10622143956E+02  0.38669311682E+02  0.00000000000E+00 0. -1.
         21    1    1    2  505  502 -0.51014511007E+02  0.58298573981E+02 -0.64536118693E+03  0.64999405048E+03  0.00000000000E+00 0. -1.
         21    1    1    2  506  503  0.55102051727E+02 -0.99704429923E+02 -0.84350720388E+00  0.11392067835E+03  0.00000000000E+00 0. -1.
<scales pt_clust_3="35.95824" pt_clust_4="37.18179" pt_clust_5="14000.00000" pt_clust_6="78.80555"></scales>
<clustering>
<clus scale="   37.182">  1  4  2 -1</clus>
<clus scale="   35.958">  1  3  2 -1</clus>
<clus scale="   78.806">  1  6  2 -1</clus>
<clus scale="   37.182">  1  3  2 -1</clus>
</clustering>
</event>
<event>
 6    0  0.4227619E+002  0.6561676E+02  0.7546771E-02  0.1375666E+00
         21   -1    0    0  506  501  0.00000000000E+00  0.00000000000E+00  0.64057872387E+03  0.64057872387E+03  0.00000000000E+00 0. -1.
         21   -1    0    0  503  502 -0.00000000000E+00 -0.00000000000E+00 -0.22343300671E+03  0.22343300671E+03  0.00000000000E+00 0.  1.
         21    1    1    2  503  505  0.57595297718E+02  0.28949605636E+02 -0.16734423239E+03  0.17933039368E+03  0.00000000000E+00 0.  1.
         21    1    1    2  504  502 -0.29260615661E+02 -0.67970877257E+02  0.59463670696E+02  0.94932354424E+02  0.00000000000E+00 0. -1.
         21    1    1    2  505  501 -0.62344328857E+02  0.49894462125E+02  0.18501021207E+02  0.81966825466E+02  0.00000000000E+00 0. -1.
         21    1    1    2  506  504  0.34009646800E+02 -0.10873190504E+02  0.50652525764E+03  0.50778215700E+03  0.00000000000E+00 0. -1.
<scales pt_clust_3="65.61676" pt_clust_4="63.75569" pt_clust_5="14000.00000" pt_clust_6="35.70549"></scales>
<clustering>
<clus scale="   35.705">  1  6  2 -1</clus>
<clus scale="   65.617">  2  3  1 -1</clus>
<clus scale="   63.756">  1  4  2 -1</clus>
<clus scale="   35.705">  1  3  2 -1</clus>
</clustering>
</event>
<event>
 6    0  0.4227619E+002  0.8261295E+02  0.7546771E-02  0.1321796E+00
         21   -1    0    0  505  501  0.00000000000E+00  0.00000000000E+00  0.78352904712E+02  0.78352904712E+02  0.00000000000E+00 0.  1.
         21   -1    0    0  506  502 -0.00000000000E+00 -0.00000000000E+00 -0.85396010404E+03  0.85396010404E+03  0.00000000000E+00 0.  1.
         21    1    1    2  503  504  0.68368975760E+02 -0.18199269968E+02 -0.15775145846E+03  0.17289029157E+03  0.00000000000E+00 0.  1.
         21    1    1    2  504  501 -0.47689623637E+02  0.74227079719E+02  0.25712911956E+02  0.91897298151E+02  0.00000000000E+00 0.  1.
         21    1    1    2  505  502 -0.77671361474E+02 -0.30650185451E+02 -0.16517695165E+03  0.18508295334E+03  0.00000000000E+00 0.  1.
         21    1    1    2  506  503  0.56992009350E+02 -0.25377624300E+02 -0.47839170118E+03  0.48244246569E+03  0.00000000000E+00 0.  1.
<scales pt_clust_3="82.61295" pt_clust_4="14000.00000" pt_clust_5="66.38071" pt_clust_6="62.38680"></scales>
<clustering>
<clus scale="   62.387">  2  6  1 -1</clus>
<clus scale="   66.381">  2  5  1 -1</clus>
<clus scale="   82.613">  2  3  1 -1</clus>
<clus scale="   82.613">  1  3  2 -1</clus>
</clustering>
</event>
<event>
 6    0  0.4227619E+002  0.8816293E+02  0.7546771E-02  0.1307362E+00
         21   -1    0    0  505  501  0.00000000000E+00  0.00000000000E+00  0.43734909606E+03  0.43734909606E+03  0.00000000000E+00 0.  1.
         21   -1    0    0  506  502 -0.00000000000E+00 -0.00000000000E+00 -0.23148207710E+03  0.23148207710E+03  0.00000000000E+00 0.  1.
         21    1    1    2  503  502  0.41889202648E+02  0.59557032649E+02 -0.79672332645E+02  0.10793250681E+03  0.00000000000E+00 0.  1.
         21    1    1    2  504  501  0.34434839086E+02 -0.15794781903E+02  0.30580232016E+03  0.30814005305E+03  0.00000000000E+00 0.  1.
         21    1    1    2  505  503  0.44284407025E+02  0.18769333664E+02  0.73393120905E+02  0.87749340669E+02  0.00000000000E+00 0.  1.
         21    1    1    2  506  504 -0.12060844876E+03 -0.62531584410E+02 -0.93656089467E+02  0.16500927263E+03  0.00000000000E+00 0.  1.
<scales pt_clust_3="14000.00000" pt_clust_4="37.88447" pt_clust_5="66.18050" pt_clust_6="88.16293"></scales>
<clustering>
<clus scale="   37.884">  1  4  2 -1</clus>
<clus scale="   66.181">  1  5  2 -1</clus>
<clus scale="   88.163">  1  6  2 -1</clus>
<clus scale="   37.884">  1  3  2 -1</clus>
</clustering>
</event>
<event>
 6    0  0.4227619E+002  0.1523571E+03  0.7546771E-02  0.1197606E+00
         21   -1    0    0  504  501  0.00000000000E+00  0.00000000000E+00  0.68130910174E+03  0.68130910174E+03  0.00000000000E+00 0.  1.
         21   -1    0    0  506  502 -0.00000000000E+00 -0.00000000000E+00 -0.17537518852E+03  0.17537518852E+03  0.00000000000E+00 0. -1.
         21    1    1    2  503  501  0.44183946634E+02 -0.31969321191E+02  0.26173452375E+03  0.26735597910E+03  0.00000000000E+00 0.  1.
         21    1    1    2  504  502 -0.13398545312E+03  0.88894840437E+02 -0.75550476321E+02  0.17765772929E+03  0.00000000000E+00 0. -1.
         21    1    1    2  505  503  0.21093886885E+02 -0.12643096506E+03  0.27655961507E+03  0.30481955593E+03  0.00000000000E+00 0.  1.
         21    1    1    2  506  505  0.68707619597E+02  0.69505445811E+02  0.43190250712E+02  0.10685102594E+03  0.00000000000E+00 0.  1.
<scales pt_clust_3="54.53676" pt_clust_4="152.35706" pt_clust_5="14000.00000" pt_clust_6="99.70493"></scales>
<clustering>
<clus scale="   54.537">  1  3  2 -1</clus>
<clus scale="   99.705">  2  6  1 -1</clus>
<clus scale="  152.357">  2  4  1 -1</clus>
<clus scale="   54.537">  1  3  2 -1</clus>
</clustering>
</event>
<event>
 6    0  0.4227619E+002  0.2165561E+03  0.7546771E-02  0.1136477E+00
         21   -1    0    0  504  501  0.00000000000E+00  0.00000000000E+00  0.65988124616E+03  0.65988124616E+03  0.00000000000E+00 0. -1.
         21   -1    0    0  505  502 -0.00000000000E+00 -0.00000000000E+00 -0.32645221870E+03  0.32645221870E+03  0.00000000000E+00 0. -1.
         21    1    1    2  503  501 -0.29298809145E+02 -0.43524822755E+02  0.21444160309E+03  0.22076691679E+03  0.00000000000E+00 0. -1.
         21    1    1    2  504  502  0.35602689779E+02 -0.72601250617E+01  0.13979456092E+02  0.38931813830E+02  0.00000000000E+00 0. -1.
         21    1    1    2  505  506 -0.11337945644E+03  0.19004856492E+03 -0.24797031304E+03  0.33235919473E+03  0.00000000000E+00 0. -1.
         21    1    1    2  506  503  0.10707557581E+03 -0.13926361710E+03  0.35297828131E+03  0.39427553951E+03  0.00000000000E+00 0. -1.
<scales pt_clust_3="49.08217" pt_clust_4="36.33540" pt_clust_5="216.55606" pt_clust_6="14000.00000"></scales>
<clustering>
<clus scale="   36.335">  1  4  2 -1</clus>
<clus scale="   49.082">  1  3  2 -1</clus>
<clus scale="  216.556">  2  5  1 -1</clus>
<clus scale="   36.335">  1  3  2 -1</clus>
</clustering>
</event>
<event>
 6    0  0.4227619E+002  0.1419727E+03  0.7546771E-02  0.1210699E+00
         21   -1    0    0  505  501  0.00000000000E+00  0.00000000000E+00  0.25004992227E+03  0.25004992227E+03  0.00000000000E+00 0. -1.
         21   -1    0    0  503  502 -0.00000000000E+00 -0.00000000000E+00 -0.57319874195E+03  0.57319874195E+03  0.00000000000E+00 0.  1.
         21    1    1    2  503  504  0.28159423283E+02  0.51444253779E+02 -0.31673615293E+03  0.32211993875E+03  0.00000000000E+00 0.  1.
         21    1    1    2  504  501  0.14234014747E+03 -0.14537159636E+03 -0.69314981654E+02  0.21493763117E+03  0.00000000000E+00 0.  1.
         21    1    1    2  505  506 -0.13601995232E+03  0.12973298045E+02  0.11954009478E+03  0.18154770214E+03  0.00000000000E+00 0. -1.
         21    1    1    2  506  502 -0.34479618435E+02  0.80954044532E+02 -0.56637779874E+02  0.10464339216E+03  0.00000000000E+00 0.  1.
<scales pt_clust_3="58.64695" pt_clust_4="141.97268" pt_clust_5="14000.00000" pt_clust_6="100.59536"></scales>
<clustering>
<clus scale="   58.647">  2  3  1 -1</clus>
<clus scale="  100.595">  2  6  1 -1</clus>
<clus scale="  141.973">  2  4  1 -1</clus>
<clus scale="  141.973">  1  3  2 -1</clus>
</clustering>
</event>
<event>
 6    0  0.4227619E+002  0.1230658E+03  0.7546771E-02  0.1238123E+00
         21   -1    0    0  504  501  0.00000000000E+00  0.00000000000E+00  0.33237435796E+02  0.33237435796E+02  0.00000000000E+00 0. -1.
         21   -1    0    0  503  502 -0.00000000000E+00 -0.00000000000E+00 -0.63884007934E+03  0.63884007934E+03  0.00000000000E+00 0. -1.
         21    1    1    2  503  501 -0.89494895164E+02 -0.84542155620E+02 -0.23169063278E+03  0.26236856072E+03  0.00000000000E+00 0. -1.
         21    1    1    2  504  505  0.61426927918E+02  0.84482257919E+01 -0.82967025420E+02  0.10357686662E+03  0.00000000000E+00 0. -1.
         21    1    1    2  505  506  0.30803222400E+02  0.42674887546E+02 -0.10802190856E+03  0.12016121365E+03  0.00000000000E+00 0. -1.
         21    1    1    2  506  502 -0.27352551536E+01  0.33419042282E+02 -0.18292307679E+03  0.18597087414E+03  0.00000000000E+00 0. -1.
<scales pt_clust_3="112.61977" pt_clust_4="48.22481" pt_clust_5="48.22481" pt_clust_6="33.53079"></scales>
<clustering>
<clus scale="   33.531">  2  6  1 -1</clus>
<clus scale="   48.225">  4  5 -1 -1</clus>
<clus scale="  112.620">  2  3  1 -1</clus>
<clus scale="  123.066">  1  3  2 -1</clus>
</clustering>
</event>
<event>
 6    0  0.4227619E+002  0.7020157E+02  0.7546771E-02  0.1359409E+00
         21   -1    0    0  503  501  0.00000000000E+00  0.00000000000E+00  0.68004085989E+03  0.68004085989E+03  0.00000000000E+00 0. -1.
         21   -1    0    0  506  502 -0.00000000000E+00 -0.00000000000E+00 -0.20881756366E+03  0.20881756366E+03  0.00000000000E+00 0. -1.
         21    1    1    2  503  502  0.29498184138E+02  0.81977800494E+02  0.60923469736E+03  0.61543270884E+03  0.00000000000E+00 0. -1.
         21    1    1    2  504  501 -0.31449967131E+02 -0.15706228912E+02  0.30354875079E+02  0.46445715629E+02  0.00000000000E+00 0. -1.
         21    1    1    2  505  504 -0.42369306457E+01 -0.10124558689E+03 -0.72088460645E+02  0.12435982713E+03  0.00000000000E+00 0. -1.
         21    1    1    2  506  505  0.61887136392E+01  0.34974015308E+02 -0.96277815561E+02  0.10262017196E+03  0.00000000000E+00 0. -1.
<scales pt_clust_3="14000.00000" pt_clust_4="35.15375" pt_clust_5="70.20157" pt_clust_6="35.41410"></scales>
<clustering>
<clus scale="   35.154">  1  4  2 -1</clus>
<clus scale="   35.414">  2  6  1 -1</clus>
<clus scale="   70.202">  2  5  1 -1</clus>
<clus scale="   35.154">  1  3  2 -1</clus>
</clustering>
</event>
<event>
 6    0  0.4227619E+002  0.9735401E+02  0.7546771E-02  0.1285961E+00
         21   -1    0    0  502  501  0.00000000000E+00  0.00000000000E+00  0.29723093126E+03  0.29723093126E+03  0.00000000000E+00 0. -1.
         21   -1    0    0  503  502 -0.00000000000E+00 -0.00000000000E+00 -0.15086119776E+04  0.15086119776E+04  0.00000000000E+00 0. -1.
         21    1    1    2  503  506  0.66543261282E+01 -0.54264518290E+02 -0.22769684641E+03  0.23416825547E+03  0.00000000000E+00 0. -1.
         21    1    1    2  504  505 -0.53119399333E+02  0.53528041660E+02 -0.16144120042E+03  0.17818581038E+03  0.00000000000E+00 0. -1.
         21    1    1    2  505  501  0.19267626640E+01  0.63562596469E+02  0.28072400132E+03  0.28783655258E+03  0.00000000000E+00 0. -1.
         21    1    1    2  506  504  0.44538310541E+02 -0.62826119839E+02 -0.11029670009E+04  0.11056522905E+04  0.00000000000E+00 0. -1.
<scales pt_clust_3="54.67100" pt_clust_4="97.35401" pt_clust_5="63.44139" pt_clust_6="14000.00000"></scales>
<clustering>
<clus scale="   54.671">  2  3  1 -1</clus>
<clus scale="   63.441">  1  5  2 -1</clus>
<clus scale="   97.354">  1  4  2 -1</clus>
<clus scale="   63.441">  1  3  2 -1</clus>
</clustering>
</event>
<event>
 6    0  0.4227619E+002  0.1108676E+03  0.7546771E-02  0.1258972E+00
         21   -1    0    0  505  501  0.00000000000E+00  0.00000000000E+00  0.93808988429E+03  0.93808988429E+03  0.00000000000E+00 0.  1.
         21   -1    0    0  504  502 -0.00000000000E+00 -0.00000000000E+00 -0.44120667295E+03  0.44120667295E+03  0.00000000000E+00 0. -1.
         21    1    1    2  503  501  0.93351159796E+02 -0.25348136054E+02  0.89013432856E+03  0.89537483208E+03  0.00000000000E+00 0.  1.
         21    1    1    2  504  506  0.33484665012E+02  0.21708364069E+02 -0.15123519129E+03  0.15641150516E+03  0.00000000000E+00 0. -1.
         21    1    1    2  505  502 -0.14236110749E+03 -0.53429867090E+02 -0.12675295332E+03  0.19795895231E+03  0.00000000000E+00 0. -1.
         21    1    1    2  506  503  0.15525282680E+02  0.57069639075E+02 -0.11526297260E+03  0.12955126769E+03  0.00000000000E+00 0. -1.
<scales pt_clust_3="96.73142" pt_clust_4="38.04757" pt_clust_5="100.72802" pt_clust_6="38.04757"></scales>
<clustering>
<clus scale="   38.048">  4  6 -1 -1</clus>
<clus scale="   96.731">  1  3  2 -1</clus>
<clus scale="  100.728">  1  5  2 -1</clus>
<clus scale="   96.731">  1  3  2 -1</clus>
</clustering>
</event>
<event>
 6    0  0.4227619E+002  0.9402126E+02  0.7546771E-02  0.1293396E+00
         21   -1    0    0  505  501  0.00000000000E+00  0.00000000000E+00  0.19824134688E+04  0.19824134688E+04  0.00000000000E+00 0.  1.
         21   -1    0    0  504  502 -0.00000000000E+00 -0.00000000000E+00 -0.28237139420E+02  0.28237139420E+02  0.00000000000E+00 0.  1.
         21    1    1    2  503  502 -0.64736489822E+02 -0.72817200240E+02  0.38152434998E+03  0.39376895179E+03  0.00000000000E+00 0.  1.
         21    1    1    2  504  506  0.13911711549E+02  0.32773773377E+02  0.60944019399E+01  0.36121983260E+02  0.00000000000E+00 0.  1.
         21    1    1    2  505  503 -0.31902968660E+02 -0.13056703231E+02  0.12211351095E+04  0.12216215587E+04  0.00000000000E+00 0.  1.
         21    1    1    2  506  501  0.82727746932E+02  0.53100130094E+02  0.34542246796E+03  0.35913811452E+03  0.00000000000E+00 0.  1.
<scales pt_clust_3="94.02126" pt_clust_4="34.93154" pt_clust_5="34.47139" pt_clust_6="14000.00000"></scales>
<clustering>
<clus scale="   34.471">  1  5  2 -1</clus>
<clus scale="   34.932">  2  4  1 -1</clus>
<clus scale="   94.021">  2  3  1 -1</clus>
<clus scale="   34.471">  1  3  2 -1</clus>
</clustering>
</event>
<event>
 6    0  0.4227619E+002  0.8743879E+02  0.7546771E-02  0.1309175E+00
         21   -1    0    0  506  501  0.00000000000E+00  0.00000000000E+00  0.35880447979E+03  0.35880447979E+03  0.00000000000E+00 0. -1.
         21   -1    0    0  504  502 -0.00000000000E+00 -0.00000000000E+00 -0.54800772804E+03  0.54800772804E+03  0.00000000000E+00 0. -1.
         21    1    1    2  503  501  0.45119002485E+02  0.49965598673E+00  0.28345758194E+02  0.53286546603E+02  0.00000000000E+00 0. -1.
         21    1    1    2  504  505  0.18856621001E+01 -0.52918163946E+02 -0.50466927615E+03  0.50743961817E+03  0.00000000000E+00 0. -1.
         21    1    1    2  505  503 -0.52535719377E+02  0.11500578725E+03  0.15693316845E+03  0.20153002821E+03  0.00000000000E+00 0. -1.
         21    1    1    2  506  502  0.55310547921E+01 -0.62587279296E+02  0.13018710125E+03  0.14455601485E+03  0.00000000000E+00 0. -1.
<scales pt_clust_3="45.12177" pt_clust_4="52.95694" pt_clust_5="87.43879" pt_clust_6="14000.00000"></scales>
<clustering>
<clus scale="   45.122">  1  3  2 -1</clus>
<clus scale="   52.957">  2  4  1 -1</clus>
<clus scale="   87.439">  2  5  1 -1</clus>
<clus scale="   45.122">  1  3  2 -1</clus>
</clustering>
</event>
<event>
 6    0  0.4227619E+002  0.1268816E+03  0.7546771E-02  0.1232158E+00
         21   -1    0    0  506  501  0.00000000000E+00  0.00000000000E+00  0.24229397971E+03  0.24229397971E+03  0.00000000000E+00 0.  1.
         21   -1    0    0  503  502 -0.00000000000E+00 -0.00000000000E+00 -0.56242206650E+03  0.56242206650E+03  0.00000000000E+00 0. -1.
         21    1    1    2  503  501 -0.73746223123E+02  0.12824889150E+03 -0.22384481940E+03  0.26831471590E+03  0.00000000000E+00 0. -1.
         21    1    1    2  504  505  0.33671221395E+02 -0.64357131165E+02 -0.18419063052E+02  0.74932325239E+02  0.00000000000E+00 0. -1.
         21    1    1    2  505  502  0.55467479656E+02 -0.10091105583E+03 -0.25503116387E+03  0.27982240267E+03  0.00000000000E+00 0. -1.
         21    1    1    2  506  504 -0.15392477928E+02  0.37019295500E+02  0.17716695954E+03  0.18164660241E+03  0.00000000000E+00 0.  1.
<scales pt_clust_3="126.88158" pt_clust_4="54.71167" pt_clust_5="14000.00000" pt_clust_6="40.09185"></scales>
<clustering>
<clus scale="   40.092">  1  6  2 -1</clus>
<clus scale="   54.712">  1  4  2 -1</clus>
<clus scale="  126.882">  1  3  2 -1</clus>
<clus scale="   40.092">  1  3  2 -1</clus>
</clustering>
</event>
<event>
 6    0  0.4227619E+002  0.7412932E+02  0.7546771E-02  0.1346589E+00
         21   -1    0    0  504  501  0.00000000000E+00  0.00000000000E+00  0.12358755271E+02  0.12358755271E+02  0.00000000000E+00 0.  1.
         21   -1    0    0  505  502 -0.00000000000E+00 -0.00000000000E+00 -0.29084104797E+04  0.29084104797E+04  0.00000000000E+00 0.  1.
         21    1    1    2  503  506 -0.59083014877E+02  0.10079489675E+03 -0.13214593198E+04  0.13266141668E+04  0.00000000000E+00 0.  1.
         21    1    1    2  504  503  0.42317731686E+02 -0.33928391276E+02 -0.92919611680E+02  0.10759173009E+03  0.00000000000E+00 0.  1.
         21    1    1    2  505  501 -0.14574191396E+02 -0.32208310836E+02 -0.15149720715E+03  0.15556730414E+03  0.00000000000E+00 0.  1.
         21    1    1    2  506  502  0.31339474586E+02 -0.34658194640E+02 -0.13301755858E+04  0.13309960339E+04  0.00000000000E+00 0.  1.
<scales pt_clust_3="74.12932" pt_clust_4="14000.00000" pt_clust_5="35.35226" pt_clust_6="47.30477"></scales>
<clustering>
<clus scale="   35.352">  1  5  2 -1</clus>
<clus scale="   47.305">  2  6  1 -1</clus>
<clus scale="   74.129">  2  3  1 -1</clus>
<clus scale="   35.352">  1  3  2 -1</clus>
</clustering>
</event>
<event>
 6    0  0.4227619E+002  0.1517791E+03  0.7546771E-02  0.1198304E+00
         21   -1    0    0  505  501  0.00000000000E+00  0.00000000000E+00  0.18287524201E+03  0.18287524201E+03  0.00000000000E+00 0.  1.
         21   -1    0    0  503  502 -0.00000000000E+00 -0.00000000000E+00 -0.89667621491E+03  0.89667621491E+03  0.00000000000E+00 0.  1.
         21    1    1    2  503  501  0.26410267321E+02 -0.47013494442E+02 -0.88949104337E+02  0.10401785444E+03  0.00000000000E+00 0.  1.
         21    1    1    2  504  506 -0.11407952538E+02  0.12701934110E+03  0.76221919924E+02  0.14857266058E+03  0.00000000000E+00 0.  1.
         21    1    1    2  505  504 -0.42727855973E+02  0.22730925023E+02  0.49296237199E+02  0.69083164595E+02  0.00000000000E+00 0.  1.
         21    1    1    2  506  502  0.27725541190E+02 -0.10273677168E+03 -0.75037002569E+03  0.75787777731E+03  0.00000000000E+00 0.  1.
<scales pt_clust_3="51.46636" pt_clust_4="151.77914" pt_clust_5="48.39798" pt_clust_6="14000.00000"></scales>
<clustering>
<clus scale="   48.398">  1  5  2 -1</clus>
<clus scale="   51.466">  2  3  1 -1</clus>
<clus scale="  151.779">  1  4  2 -1</clus>
<clus scale="   48.398">  1  3  2 -1</clus>
</clustering>
</event>
<event>
 6    0  0.4227619E+002  0.6686670E+02  0.7546771E-02  0.1371084E+00
         21   -1    0    0  505  501  0.00000000000E+00  0.00000000000E+00  0.26081081416E+02  0.26081081416E+02  0.00000000000E+00 0. -1.
         21   -1    0    0  506  502 -0.00000000000E+00 -0.00000000000E+00 -0.91895738323E+03  0.91895738323E+03  0.00000000000E+00 0. -1.
         21    1    1    2  503  504  0.64812664721E+02  0.71660537640E+02 -0.26691647913E+03  0.28386673104E+03  0.00000000000E+00 0. -1.
         21    1    1    2  504  501  0.32423243693E+02 -0.32930161276E+02 -0.55414930420E+02  0.72155919832E+02  0.00000000000E+00 0. -1.
         21    1    1    2  505  502 -0.46967281861E+02 -0.44243942949E+01 -0.67781139812E+02  0.82581981960E+02  0.00000000000E+00 0.  1.
         21    1    1    2  506  503 -0.50268626553E+02 -0.34305982069E+02 -0.50276375245E+03  0.50643383181E+03  0.00000000000E+00 0. -1.
<scales pt_clust_3="66.86670" pt_clust_4="46.21323" pt_clust_5="38.04615" pt_clust_6="14000.00000"></scales>
<clustering>
<clus scale="   46.213">  1  4  2 -1</clus>
<clus scale="   38.046">  1  5  2 -1</clus>
<clus scale="   66.867">  1  3  2 -1</clus>
<clus scale="   46.213">  1  3  2 -1</clus>
</clustering>
</event>
<event>
 6    0  0.4227619E+002  0.1085722E+03  0.7546771E-02  0.1263237E+00
         21   -1    0    0  505  501  0.00000000000E+00  0.00000000000E+00  0.36242902796E+02  0.36242902796E+02  0.00000000000E+00 0. -1.
         21   -1    0    0  503  502 -0.00000000000E+00 -0.00000000000E+00 -0.15198940251E+04  0.15198940251E+04  0.00000000000E+00 0.  1.
         21    1    1    2  503  506 -0.34022886608E+01  0.87106688349E+02 -0.16755923159E+03  0.18887892105E+03  0.00000000000E+00 0. -1.
         21    1    1    2  504  502 -0.45949986902E+02 -0.13587232399E+02 -0.71081231642E+03  0.71242554934E+03  0.00000000000E+00 0. -1.
         21    1    1    2  505  504  0.70439674451E+02 -0.10944469057E+03 -0.59866977536E+03  0.61265437888E+03  0.00000000000E+00 0.  1.
         21    1    1    2  506  501 -0.21087398888E+02  0.35925234618E+02 -0.66097989212E+01  0.42178078620E+02  0.00000000000E+00 0. -1.
<scales pt_clust_3="108.57219" pt_clust_4="48.38752" pt_clust_5="14000.00000" pt_clust_6="41.65694"></scales>
<clustering>
<clus scale="   41.657">  1  6  2 -1</clus>
<clus scale="   48.388">  2  4  1 -1</clus>
<clus scale="  108.572">  1  3  2 -1</clus>
<clus scale="   41.657">  1  3  2 -1</clus>
</clustering>
</event>
<event>
 6    0  0.4227619E+002  0.1638594E+03  0.7546771E-02  0.1184407E+00
         21   -1    0    0  503  501  0.00000000000E+00  0.00000000000E+00  0.52352262362E+02  0.52352262362E+02  0.00000000000E+00 0. -1.
         21   -1    0    0  506  502 -0.00000000000E+00 -0.00000000000E+00 -0.25960861799E+04  0.25960861799E+04  0.00000000000E+00 0. -1.
         21    1    1    2  503  505  0.60624700160E+02 -0.65644356061E+02 -0.71962501454E+02  0.11473071676E+03  0.00000000000E+00 0. -1.
         21    1    1    2  504  501 -0.10410506528E+03  0.18629848778E+03 -0.55303496651E+03  0.59278382683E+03  0.00000000000E+00 0. -1.
         21    1    1    2  505  502  0.74894097092E+02 -0.12326283961E+03 -0.46520889836E+03  0.48705458885E+03  0.00000000000E+00 0. -1.
         21    1    1    2  506  504 -0.31413731973E+02  0.26087078978E+01 -0.14535275512E+04  0.14538693098E+04  0.00000000000E+00 0.  1.
<scales pt_clust_3="87.47544" pt_clust_4="163.85942" pt_clust_5="14000.00000" pt_clust_6="31.52186"></scales>
<clustering>
<clus scale="   31.522">  2  6  1 -1</clus>
<clus scale="   87.475">  1  3  2 -1</clus>
<clus scale="  163.859">  1  4  2 -1</clus>
<clus scale="   87.475">  1  3  2 -1</clus>
</clustering>
</event>
<event>
 6    0  0.4227619E+002  0.8806737E+02  0.7546771E-02  0.1307600E+00
         21   -1    0    0  504  501  0.00000000000E+00  0.00000000000E+00  0.35222402230E+03  0.35222402230E+03  0.00000000000E+00 0. -1.
         21   -1    0    0  505  502 -0.00000000000E+00 -0.00000000000E+00 -0.81622627737E+03  0.81622627737E+03  0.00000000000E+00 0.  1.
         21    1    1    2  503  501 -0.31719170870E+02  0.42383100296E+02 -0.79191742290E+02  0.95256312328E+02  0.00000000000E+00 0. -1.
         21    1    1    2  504  506  0.98601052825E+00  0.34955268858E+02  0.32557290549E+03  0.32744550665E+03  0.00000000000E+00 0. -1.
         21    1    1    2  505  503 -0.60600260476E+02 -0.34968436641E+02 -0.75511194729E+02  0.10294233172E+03  0.00000000000E+00 0.  1.
         21    1    1    2  506  502  0.91333420818E+02 -0.42369932513E+02 -0.63487222354E+03  0.64280614898E+03  0.00000000000E+00 0.  1.
<scales pt_clust_3="61.86871" pt_clust_4="34.96917" pt_clust_5="88.06737" pt_clust_6="14000.00000"></scales>
<clustering>
<clus scale="   34.969">  1  4  2 -1</clus>
<clus scale="   61.869">  1  3  2 -1</clus>
<clus scale="   88.067">  1  5  2 -1</clus>
<clus scale="   34.969">  1  3  2 -1</clus>
</clustering>
</event>
<event>
 6    0  0.4227619E+002  0.1613016E+03  0.7546771E-02  0.1187235E+00
         21   -1    0    0  503  501  0.00000000000E+00  0.00000000000E+00  0.29276126783E+03  0.29276126783E+03  0.00000000000E+00 0.  1.
         21   -1    0    0  504  502 -0.00000000000E+00 -0.00000000000E+00 -0.85730502759E+03  0.85730502759E+03  0.00000000000E+00 0. -1.
         21    1    1    2  503  506  0.32577952983E+02  0.68705288759E+02  0.19211808726E+03  0.20661824503E+03  0.00000000000E+00 0.  1.
         21    1    1    2  504  505 -0.12073232819E+02  0.63978682350E+02 -0.23263837423E+03  0.24157741597E+03  0.00000000000E+00 0. -1.
         21    1    1    2  505  501 -0.65749008043E+02  0.95476936352E+02  0.12984848243E+02  0.11665069103E+03  0.00000000000E+00 0.  1.
         21    1    1    2  506  502  0.45244287879E+02 -0.22816090746E+03 -0.53700832104E+03  0.58521994339E+03  0.00000000000E+00 0. -1.
<scales pt_clust_3="76.65438" pt_clust_4="65.10787" pt_clust_5="161.30163" pt_clust_6="14000.00000"></scales>
<clustering>
<clus scale="   65.108">  2  4  1 -1</clus>
<clus scale="   76.654">  1  3  2 -1</clus>
<clus scale="  161.302">  1  5  2 -1</clus>
<clus scale="   76.654">  1  3  2 -1</clus>
</clustering>
</event>
<event>
 6    0  0.4227619E+002  0.1701785E+03  0.7546771E-02  0.1177662E+00
         21   -1    0    0  505  501  0.00000000000E+00  0.00000000000E+00  0.41549357018E+03  0.41549357018E+03  0.00000000000E+00 0.  1.
         21   -1    0    0  504  502 -0.00000000000E+00 -0.00000000000E+00 -0.48128389389E+03  0.48128389389E+03  0.00000000000E+00 0.  1.
         21    1    1    2  503  502  0.25364699085E+02  0.19235270853E+02 -0.59533633520E+02  0.67510126089E+02  0.00000000000E+00 0. -1.
         21    1    1    2  504  506 -0.19237875631E+03 -0.59261264301E+02 -0.34521677617E+03  0.39961995180E+03  0.00000000000E+00 0.  1.
         21    1    1    2  505  503  0.63274690730E+02  0.37112426301E+02 -0.18578331384E+01  0.73378949412E+02  0.00000000000E+00 0. -1.
         21    1    1    2  506  501  0.10373936650E+03  0.29135671463E+01  0.34081791913E+03  0.35626843676E+03  0.00000000000E+00 0.  1.
<scales pt_clust_3="31.83337" pt_clust_4="170.17847" pt_clust_5="76.20263" pt_clust_6="14000.00000"></scales>
<clustering>
<clus scale="   31.833">  2  3  1 -1</clus>
<clus scale="   76.203">  1  5  2 -1</clus>
<clus scale="  170.178">  2  4  1 -1</clus>
<clus scale="   76.203">  1  3  2 -1</clus>
</clustering>
</event>
<event>
 6    0  0.4227619E+002  0.2546211E+03  0.7546771E-02  0.1110419E+00
         21   -1    0    0  506  501  0.00000000000E+00  0.00000000000E+00  0.10381459413E+04  0.10381459413E+04  0.00000000000E+00 0. -1.
         21   -1    0    0  504  502 -0.00000000000E+00 -0.00000000000E+00 -0.13567631696E+03  0.13567631696E+03  0.00000000000E+00 0. -1.
         21    1    1    2  503  501 -0.24695883316E+03 -0.88841126348E+02  0.61930383334E+03  0.67262073191E+03  0.00000000000E+00 0. -1.
         21    1    1    2  504  503  0.12038528333E+03 -0.94720842446E+02  0.37892007335E+02  0.15779879168E+03  0.00000000000E+00 0. -1.
         21    1    1    2  505  502  0.48715681079E+02  0.30874614817E+02  0.21541619600E+02  0.61567043116E+02  0.00000000000E+00 0.  1.
         21    1    1    2  506  505  0.77857868752E+02  0.15268735398E+03  0.22373216403E+03  0.28183569152E+03  0.00000000000E+00 0. -1.
<scales pt_clust_3="238.28884" pt_clust_4="153.18177" pt_clust_5="52.04841" pt_clust_6="52.04841"></scales>
<clustering>
<clus scale="   52.048">  5  6 -1 -1</clus>
<clus scale="  153.182">  2  4  1 -1</clus>
<clus scale="  238.289">  1  3  2 -1</clus>
<clus scale="  238.289">  1  3  2 -1</clus>
</clustering>
</event>
<event>
 6    0  0.4227619E+002  0.9288280E+02  0.7546771E-02  0.1296017E+00
         21   -1    0    0  504  501  0.00000000000E+00  0.00000000000E+00  0.11205023545E+03  0.11205023545E+03  0.00000000000E+00 0.  1.
         21   -1    0    0  506  502 -0.00000000000E+00 -0.00000000000E+00 -0.14747664887E+04  0.14747664887E+04  0.00000000000E+00 0.  1.
         21    1    1    2  503  502  0.65193617239E+02  0.40983810047E+02 -0.28395805015E+03  0.29421430057E+03  0.00000000000E+00 0.  1.
         21    1    1    2  504  503 -0.37039460807E+02  0.22638681260E+02 -0.20892456928E+01  0.43460286396E+02  0.00000000000E+00 0.  1.
         21    1    1    2  505  501  0.14606586516E+02  0.32009905521E+02  0.80179695904E+02  0.87560093972E+02  0.00000000000E+00 0.  1.
         21    1    1    2  506  505 -0.42760742948E+02 -0.95632396829E+02 -0.11568486533E+04  0.11615820432E+04  0.00000000000E+00 0.  1.
<scales pt_clust_3="14000.00000" pt_clust_4="53.11384" pt_clust_5="35.18503" pt_clust_6="92.88280"></scales>
<clustering>
<clus scale="   35.185">  1  5  2 -1</clus>
<clus scale="   53.114">  1  4  2 -1</clus>
<clus scale="   92.883">  2  6  1 -1</clus>
<clus scale="   35.185">  1  3  2 -1</clus>
</clustering>
</event>
<event>
 6    0  0.4227619E+002  0.8605784E+02  0.7546771E-02  0.1312689E+00
         21   -1    0    0  503  501  0.00000000000E+00  0.00000000000E+00  0.85770870386E+03  0.85770870386E+03  0.00000000000E+00 0.  1.
         21   -1    0    0  504  502 -0.00000000000E+00 -0.00000000000E+00 -0.19968284288E+03  0.19968284288E+03  0.00000000000E+00 0. -1.
         21    1    1    2  503  505  0.49837718250E+02 -0.57861673269E+02  0.29804676708E+03  0.30767457932E+03  0.00000000000E+00 0.  1.
         21    1    1    2  504  501 -0.11440922513E+03  0.32549863726E+01  0.29951978333E+03  0.32064336316E+03  0.00000000000E+00 0.  1.
         21    1    1    2  505  506  0.43325773837E+02  0.77543791218E+02  0.23527477805E+03  0.25148436020E+03  0.00000000000E+00 0.  1.
         21    1    1    2  506  502  0.21245733037E+02 -0.22937104322E+02 -0.17481546750E+03  0.17758924405E+03  0.00000000000E+00 0. -1.
<scales pt_clust_3="82.77202" pt_clust_4="14000.00000" pt_clust_5="86.05784" pt_clust_6="31.26487"></scales>
<clustering>
<clus scale="   31.265">  2  6  1 -1</clus>
<clus scale="   82.772">  1  3  2 -1</clus>
<clus scale="   86.058">  2  5  1 -1</clus>
<clus scale="   82.772">  1  3  2 -1</clus>
</clustering>
</event>
<event>
 6    0  0.4227619E+002  0.8939425E+02  0.7546771E-02  0.1304325E+00
         21   -1    0    0  506  501  0.00000000000E+00  0.00000000000E+00  0.31408881820E+02  0.31408881820E+02  0.00000000000E+00 0. -1.
         21   -1    0    0  505  502 -0.00000000000E+00 -0.00000000000E+00 -0.18099944974E+04  0.18099944974E+04  0.00000000000E+00 0. -1.
         21    1    1    2  503  504  0.65053259725E+02  0.33110951165E+02 -0.38544944905E+03  0.39230031795E+03  0.00000000000E+00 0. -1.
         21    1    1    2  504  501  0.59836424036E+02 -0.25624239404E+02 -0.21464772390E+02  0.68540030203E+02  0.00000000000E+00 0. -1.
         21    1    1    2  505  503 -0.19703757918E+02  0.26020878271E+02 -0.61671523185E+03  0.61757833623E+03  0.00000000000E+00 0. -1.
         21    1    1    2  506  502 -0.10518592584E+03 -0.33507590032E+02 -0.75495616231E+03  0.76298469486E+03  0.00000000000E+00 0. -1.
<scales pt_clust_3="14000.00000" pt_clust_4="64.02535" pt_clust_5="32.63930" pt_clust_6="89.39425"></scales>
<clustering>
<clus scale="   32.639">  2  5  1 -1</clus>
<clus scale="   64.025">  1  4  2 -1</clus>
<clus scale="   89.394">  1  6  2 -1</clus>
<clus scale="   64.025">  1  3  2 -1</clus>
</clustering>
</event>
<event>
 6    0  0.4227619E+002  0.9698220E+02  0.7546771E-02  0.1286773E+00
         21   -1    0    0  506  501  0.00000000000E+00  0.00000000000E+00  0.14736031594E+03  0.14736031594E+03  0.00000000000E+00 0. -1.
         21   -1    0    0  504  502 -0.00000000000E+00 -0.00000000000E+00 -0.34257056502E+03  0.34257056502E+03  0.00000000000E+00 0. -1.
         21    1    1    2  503  501  0.21092202109E+02  0.30931247176E+02  0.88598888272E+02  0.96184125742E+02  0.00000000000E+00 0. -1.
         21    1    1    2  504  503 -0.62893926122E+01  0.42750367934E+02 -0.27381375182E+02  0.51155548328E+02  0.00000000000E+00 0. -1.
         21    1    1    2  505  502  0.74966397686E+02 -0.77096959642E+02 -0.22146673440E+03  0.24619385942E+03  0.00000000000E+00 0. -1.
         21    1    1    2  506  505 -0.89769207182E+02  0.34153445312E+01 -0.34961027767E+02  0.96397347468E+02  0.00000000000E+00 0. -1.
<scales pt_clust_3="37.43826" pt_clust_4="49.46949" pt_clust_5="14000.00000" pt_clust_6="96.98220"></scales>
<clustering>
<clus scale="   37.438">  1  3  2 -1</clus>
<clus scale="   49.469">  1  4  2 -1</clus>
<clus scale="   96.982">  1  6  2 -1</clus>
<clus scale="   37.438">  1  3  2 -1</clus>
</clustering>
</event>
<event>
 6    0  0.4227619E+002  0.1040917E+03  0.7546771E-02  0.1271920E+00
         21   -1    0    0  505  501  0.00000000000E+00  0.00000000000E+00  0.14305602793E+03  0.14305602793E+03  0.00000000000E+00 0. -1.
         21   -1    0    0  504  502 -0.00000000000E+00 -0.00000000000E+00 -0.31368599385E+03  0.31368599385E+03  0.00000000000E+00 0. -1.
         21    1    1    2  503  506 -0.38977032281E+02  0.38481447908E+02 -0.23905447670E+02  0.59762039011E+02  0.00000000000E+00 0.  1.
         21    1    1    2  504  501  0.10653674405E+03 -0.17246102565E+02 -0.17710426184E+03  0.20739678264E+03  0.00000000000E+00 0. -1.
         21    1    1    2  505  503  0.29932154426E+02  0.28528842175E+02  0.63008492508E+02  0.75365103546E+02  0.00000000000E+00 0. -1.
         21    1    1    2  506  502 -0.97491866192E+02 -0.49764187518E+02 -0.32628748914E+02  0.11421809659E+03  0.00000000000E+00 0. -1.
<scales pt_clust_3="55.38353" pt_clust_4="104.09167" pt_clust_5="41.35008" pt_clust_6="14000.00000"></scales>
<clustering>
<clus scale="   41.350">  1  5  2 -1</clus>
<clus scale="   55.384">  1  3  2 -1</clus>
<clus scale="  104.092">  2  4  1 -1</clus>
<clus scale="   41.350">  1  3  2 -1</clus>
</clustering>
</event>
<event>
 6    0  0.4227619E+002  0.8967432E+02  0.7546771E-02  0.1303642E+00
         21   -1    0    0  504  501  0.00000000000E+00  0.00000000000E+00  0.30587671534E+03  0.30587671534E+03  0.00000000000E+00 0.  1.
         21   -1    0    0  503  502 -0.00000000000E+00 -0.00000000000E+00 -0.79796131672E+02  0.79796131672E+02  0.00000000000E+00 0.  1.
         21    1    1    2  503  506  0.48642259722E+02 -0.72575801919E+02  0.40656693138E+02  0.96365362823E+02  0.00000000000E+00 0.  1.
         21    1    1    2  504  502 -0.59645685387E+02  0.70127111694E+02  0.28826957706E+02  0.96469752101E+02  0.00000000000E+00 0.  1.
         21    1    1    2  505  501 -0.28657532130E+02 -0.34697022257E+02  0.11770484540E+03  0.12601415846E+03  0.00000000000E+00 0.  1.
         21    1    1    2  506  505  0.39660957794E+02  0.37145712482E+02  0.38892087430E+02  0.66823573637E+02  0.00000000000E+00 0.  1.
<scales pt_clust_3="14000.00000" pt_clust_4="89.67432" pt_clust_5="45.00153" pt_clust_6="41.55126"></scales>
<clustering>
<clus scale="   45.002">  1  5  2 -1</clus>
<clus scale="   41.551">  1  6  2 -1</clus>
<clus scale="   89.674">  2  4  1 -1</clus>
<clus scale="   45.002">  1  3  2 -1</clus>
</clustering>
</event>
<event>
 6    0  0.4227619E+002  0.7904389E+02  0.7546771E-02  0.1331787E+00
         21   -1    0    0  506  501  0.00000000000E+00  0.00000000000E+00  0.18493177291E+03  0.18493177291E+03  0.00000000000E+00 0. -1.
         21   -1    0    0  505  502 -0.00000000000E+00 -0.00000000000E+00 -0.10409036231E+04  0.10409036231E+04  0.00000000000E+00 0.  1.
         21    1    1    2  503  504 -0.13921528665E+02  0.63194109728E+02 -0.35345762408E+03  0.35933215342E+03  0.00000000000E+00 0.  1.
         21    1    1    2  504  502  0.27834365986E+02  0.13878758058E+02 -0.60075312263E+03  0.60155771644E+03  0.00000000000E+00 0.  1.
         21    1    1    2  505  501  0.26629362475E+02  0.39852511566E+02  0.12883737301E+03  0.13746422919E+03  0.00000000000E+00 0. -1.
         21    1    1    2  506  503 -0.40542199796E+02 -0.11692537935E+03 -0.30598476445E+02  0.12748129691E+03  0.00000000000E+00 0. -1.
<scales pt_clust_3="14000.00000" pt_clust_4="31.10260" pt_clust_5="48.19575" pt_clust_6="79.04389"></scales>
<clustering>
<clus scale="   31.103">  2  4  1 -1</clus>
<clus scale="   48.196">  1  5  2 -1</clus>
<clus scale="   79.044">  1  6  2 -1</clus>
<clus scale="   48.196">  1  3  2 -1</clus>
</clustering>
</event>
<event>
 6    0  0.4227619E+002  0.1573842E+03  0.7546771E-02  0.1191682E+00
         21   -1    0    0  503  501  0.00000000000E+00  0.00000000000E+00  0.10106745788E+03  0.10106745788E+03  0.00000000000E+00 0. -1.
         21   -1    0    0  501  502 -0.00000000000E+00 -0.00000000000E+00 -0.89812149557E+03  0.89812149557E+03  0.00000000000E+00 0. -1.
         21    1    1    2  503  504  0.29264248891E+02  0.32411329520E+02  0.23825661291E+02  0.49744875920E+02  0.00000000000E+00 0. -1.
         21    1    1    2  504  506 -0.14175374127E+02  0.15555638894E+03 -0.10370715012E+03  0.18749374485E+03  0.00000000000E+00 0. -1.
         21    1    1    2  505  502  0.13084880228E+02 -0.42679882124E+02 -0.48215700933E+03  0.48421913229E+03  0.00000000000E+00 0. -1.
         21    1    1    2  506  505 -0.28173754992E+02 -0.14528783633E+03 -0.23501553953E+03  0.27773120040E+03  0.00000000000E+00 0. -1.
<scales pt_clust_3="43.66796" pt_clust_4="14000.00000" pt_clust_5="44.28527" pt_clust_6="157.38416"></scales>
<clustering>
<clus scale="   43.668">  1  3  2 -1</clus>
<clus scale="   44.285">  2  5  1 -1</clus>
<clus scale="  157.384">  2  6  1 -1</clus>
<clus scale="   43.668">  1  3  2 -1</clus>
</clustering>
</event>
<event>
 6    0  0.4227619E+002  0.1160005E+03  0.7546771E-02  0.1249845E+00
         21   -1    0    0  506  501  0.00000000000E+00  0.00000000000E+00  0.28654109847E+03  0.28654109847E+03  0.00000000000E+00 0. -1.
         21   -1    0    0  504  502 -0.00000000000E+00 -0.00000000000E+00 -0.14637373242E+04  0.14637373242E+04  0.00000000000E+00 0.  1.
         21    1    1    2  503  502 -0.36613372473E+02  0.74034795719E+02 -0.35977680050E+03  0.36913552552E+03  0.00000000000E+00 0. -1.
         21    1    1    2  504  501 -0.54537641649E+02  0.27503028092E+02 -0.16406456898E+02  0.63245100512E+02  0.00000000000E+00 0.  1.
         21    1    1    2  505  503  0.87077522074E+02 -0.13325284000E+03 -0.10524579725E+04  0.10644278267E+04  0.00000000000E+00 0.  1.
         21    1    1    2  506  505  0.40734920479E+01  0.31715016193E+02  0.25144500416E+03  0.25346997003E+03  0.00000000000E+00 0. -1.
<scales pt_clust_3="116.00048" pt_clust_4="71.46240" pt_clust_5="14000.00000" pt_clust_6="31.97555"></scales>
<clustering>
<clus scale="   31.976">  1  6  2 -1</clus>
<clus scale="   71.462">  1  4  2 -1</clus>
<clus scale="  116.000">  2  3  1 -1</clus>
<clus scale="   31.976">  1  3  2 -1</clus>
</clustering>
</event>
<event>
 6    0  0.4227619E+002  0.1291345E+03  0.7546771E-02  0.1228746E+00
         21   -1    0    0  503  501  0.00000000000E+00  0.00000000000E+00  0.54962677562E+03  0.54962677562E+03  0.00000000000E+00 0.  1.
         21   -1    0    0  506  502 -0.00000000000E+00 -0.00000000000E+00 -0.10767759529E+03  0.10767759529E+03  0.00000000000E+00 0.  1.
         21    1    1    2  503  504 -0.28229015580E+02 -0.10963573962E+03  0.26532518470E+03  0.28846893483E+03  0.00000000000E+00 0.  1.
         21    1    1    2  504  502  0.45881311103E+01 -0.35449153064E+02  0.10774687556E+02  0.37333460755E+02  0.00000000000E+00 0.  1.
         21    1    1    2  505  501  0.83702282792E+02 -0.78331449370E+01  0.14265367600E+03  0.16558231059E+03  0.00000000000E+00 0.  1.
         21    1    1    2  506  505 -0.60061398322E+02  0.15291803762E+03  0.23195632076E+02  0.16591966473E+03  0.00000000000E+00 0.  1.
<scales pt_clust_3="14000.00000" pt_clust_4="35.74484" pt_clust_5="85.12932" pt_clust_6="129.13455"></scales>
<clustering>
<clus scale="   35.745">  2  4  1 -1</clus>
<clus scale="   85.129">  1  5  2 -1</clus>
<clus scale="  129.135">  2  6  1 -1</clus>
<clus scale="   85.129">  1  3  2 -1</clus>
</clustering>
</event>
<event>
 6    0  0.4227619E+002  0.1088217E+03  0.7546771E-02  0.1262768E+00
         21   -1    0    0  504  501  0.00000000000E+00  0.00000000000E+00  0.50754680475E+03  0.50754680475E+03  0.00000000000E+00 0. -1.
         21   -1    0    0  503  502 -0.00000000000E+00 -0.00000000000E+00 -0.12822948132E+03  0.12822948132E+03  0.00000000000E+00 0. -1.
         21    1    1    2  503  505 -0.51255683842E+02 -0.48363930812E+02  0.25437929203E+01  0.70517273147E+02  0.00000000000E+00 0. -1.
         21    1    1    2  504  506 -0.86900873156E+02 -0.54819289521E+02  0.31566902938E+03  0.33196965580E+03  0.00000000000E+00 0. -1.
         21    1    1    2  505  501  0.12766718154E+03  0.49980041245E+02  0.97275483205E+02  0.16810542347E+03  0.00000000000E+00 0. -1.
         21    1    1    2  506  502  0.10489375456E+02  0.53203179088E+02 -0.36170982075E+02  0.65183933655E+02  0.00000000000E+00 0. -1.
<scales pt_clust_3="52.95697" pt_clust_4="108.82174" pt_clust_5="14000.00000" pt_clust_6="54.22735"></scales>
<clustering>
<clus scale="   54.227">  2  6  1 -1</clus>
<clus scale="   52.957">  2  3  1 -1</clus>
<clus scale="  108.822">  1  4  2 -1</clus>
<clus scale="  108.822">  1  3  2 -1</clus>
</clustering>
</event>
<event>
 6    0  0.4227619E+002  0.7454287E+02  0.7546771E-02  0.1345292E+00
         21   -1    0    0  504  501  0.00000000000E+00  0.00000000000E+00  0.11865921723E+03  0.11865921723E+03  0.00000000000E+00 0. -1.
         21   -1    0    0  503  502 -0.00000000000E+00 -0.00000000000E+00 -0.58142178081E+03  0.58142178081E+03  0.00000000000E+00 0. -1.
         21    1    1    2  503  506  0.64047317973E+02  0.57824774558E+02 -0.44227143820E+01  0.86402105847E+02  0.00000000000E+00 0.  1.
         21    1    1    2  504  505  0.68280233125E+00 -0.58247380718E+02 -0.35525444871E+02  0.68229618296E+02  0.00000000000E+00 0.  1.
         21    1    1    2  505  502 -0.63267696383E+02  0.52274520571E+02 -0.46892041767E+03  0.47604809107E+03  0.00000000000E+00 0. -1.
         21    1    1    2  506  501 -0.14624239211E+01 -0.51851914410E+02  0.46106013334E+02  0.69401182823E+02  0.00000000000E+00 0. -1.
<scales pt_clust_3="67.10186" pt_clust_4="14000.00000" pt_clust_5="74.54287" pt_clust_6="51.87253"></scales>
<clustering>
<clus scale="   51.873">  1  6  2 -1</clus>
<clus scale="   67.102">  1  3  2 -1</clus>
<clus scale="   74.543">  2  5  1 -1</clus>
<clus scale="   51.873">  1  3  2 -1</clus>
</clustering>
</event>
<event>
 6    0  0.4227619E+002  0.1681951E+03  0.7546771E-02  0.1179743E+00
         21   -1    0    0  504  501  0.00000000000E+00  0.00000000000E+00  0.50498974513E+03  0.50498974513E+03  0.00000000000E+00 0.  1.
         21   -1    0    0  503  502 -0.00000000000E+00 -0.00000000000E+00 -0.23247503916E+03  0.23247503916E+03  0.00000000000E+00 0.  1.
         21    1    1    2  503  506 -0.51820581783E+02 -0.14539348895E+02 -0.82084143928E+02  0.98155855897E+02  0.00000000000E+00 0.  1.
         21    1    1    2  504  502  0.10578115503E+03 -0.25712504405E+02  0.12167831918E+03  0.16326787498E+03  0.00000000000E+00 0.  1.
         21    1    1    2  505  501  0.64857507688E+02  0.13892468587E+02  0.31973613393E+03  0.32654355350E+03  0.00000000000E+00 0.  1.
         21    1    1    2  506  505 -0.11881808094E+03  0.26359384713E+02 -0.86815603213E+02  0.14949749992E+03  0.00000000000E+00 0.  1.
<scales pt_clust_3="39.60956" pt_clust_4="157.29525" pt_clust_5="66.32870" pt_clust_6="39.60956"></scales>
<clustering>
<clus scale="   39.610">  3  6 -1 -1</clus>
<clus scale="   66.329">  1  5  2 -1</clus>
<clus scale="  157.295">  1  4  2 -1</clus>
<clus scale="   66.329">  1  3  2 -1</clus>
</clustering>
</event>
<event>
 6    0  0.4227619E+002  0.1168255E+03  0.7546771E-02  0.1248428E+00
         21   -1    0    0  503  501  0.00000000000E+00  0.00000000000E+00  0.46065131037E+03  0.46065131037E+03  0.00000000000E+00 0.  1.
         21   -1    0    0  505  502 -0.00000000000E+00 -0.00000000000E+00 -0.26882040943E+03  0.26882040943E+03  0.00000000000E+00 0. -1.
         21    1    1    2  503  506  0.38122838706E+02  0.55944748272E+02 -0.64968831921E+01  0.68010110877E+02  0.00000000000E+00 0. -1.
         21    1    1    2  504  501  0.24425398060E+02 -0.12698896378E+03  0.38985280344E+03  0.41074080068E+03  0.00000000000E+00 0.  1.
         21    1    1    2  505  504 -0.75197827347E+02  0.27519037230E+02 -0.34334054625E+02  0.87125415091E+02  0.00000000000E+00 0. -1.
         21    1    1    2  506  502  0.12649590581E+02  0.43525178276E+02 -0.15719096467E+03  0.16359539315E+03  0.00000000000E+00 0.  1.
<scales pt_clust_3="82.64566" pt_clust_4="14000.00000" pt_clust_5="116.82552" pt_clust_6="45.32608"></scales>
<clustering>
<clus scale="   45.326">  2  6  1 -1</clus>
<clus scale="   82.646">  2  3  1 -1</clus>
<clus scale="  116.826">  2  5  1 -1</clus>
<clus scale="  116.826">  1  3  2 -1</clus>
</clustering>
</event>
<event>
 6    0  0.4227619E+002  0.1307879E+03  0.7546771E-02  0.1226291E+00
         21   -1    0    0  503  501  0.00000000000E+00  0.00000000000E+00  0.10576254190E+03  0.10576254190E+03  0.00000000000E+00 0.  1.
         21   -1    0    0  506  502 -0.00000000000E+00 -0.00000000000E+00 -0.41857942371E+03  0.41857942371E+03  0.00000000000E+00 0.  1.
         21    1    1    2  503  505  0.24735602357E+02 -0.25595662463E+02  0.10346531425E+02  0.37068027644E+02  0.00000000000E+00 0.  1.
         21    1    1    2  504  502 -0.22098908509E+01 -0.38709374360E+02 -0.16361607400E+03  0.16814731324E+03  0.00000000000E+00 0.  1.
         21    1    1    2  505  504 -0.19421872906E+02 -0.10306862371E+03 -0.35336043414E+02  0.11067513860E+03  0.00000000000E+00 0.  1.
         21    1    1    2  506  501 -0.31038386004E+01  0.16737366053E+03 -0.12421129583E+03  0.20845148612E+03  0.00000000000E+00 0.  1.
<scales pt_clust_3="35.59477" pt_clust_4="39.44566" pt_clust_5="130.78788" pt_clust_6="14000.00000"></scales>
<clustering>
<clus scale="   35.595">  1  3  2 -1</clus>
<clus scale="   39.446">  2  4  1 -1</clus>
<clus scale="  130.788">  1  5  2 -1</clus>
<clus scale="   35.595">  1  3  2 -1</clus>
</clustering>
</event>
<event>
 6    0  0.4227619E+002  0.7880916E+02  0.7546771E-02  0.1332465E+00
         21   -1    0    0  504  501  0.00000000000E+00  0.00000000000E+00  0.20882285962E+03  0.20882285962E+03  0.00000000000E+00 0.  1.
         21   -1    0    0  501  502 -0.00000000000E+00 -0.00000000000E+00 -0.74731866772E+03  0.74731866772E+03  0.00000000000E+00 0.  1.
         21    1    1    2  503  502 -0.42698556185E+02 -0.21583557871E+02 -0.10341434539E+03  0.11394535314E+03  0.00000000000E+00 0.  1.
         21    1    1    2  504  506 -0.78052237821E+02  0.95789620673E+01  0.18277781961E+03  0.19897648023E+03  0.00000000000E+00 0.  1.
         21    1    1    2  505  503  0.23430953494E+02 -0.47966527422E+02 -0.10519563626E+03  0.11796575445E+03  0.00000000000E+00 0.  1.
         21    1    1    2  506  505  0.97319840512E+02  0.59971123226E+02 -0.51266364606E+03  0.52525393951E+03  0.00000000000E+00 0.  1.
<scales pt_clust_3="47.84367" pt_clust_4="14000.00000" pt_clust_5="54.14646" pt_clust_6="78.80916"></scales>
<clustering>
<clus scale="   47.844">  2  3  1 -1</clus>
<clus scale="   54.146">  2  5  1 -1</clus>
<clus scale="   78.809">  2  6  1 -1</clus>
<clus scale="   78.809">  1  3  2 -1</clus>
</clustering>
</event>
<event>
 6    0  0.4227619E+002  0.1162869E+03  0.7546771E-02  0.1249351E+00
         21   -1    0    0  506  501  0.00000000000E+00  0.00000000000E+00  0.64587512028E+02  0.64587512028E+02  0.00000000000E+00 0.  1.
         21   -1    0    0  503  502 -0.00000000000E+00 -0.00000000000E+00 -0.20141633867E+04  0.20141633867E+04  0.00000000000E+00 0.  1.
         21    1    1    2  503  504 -0.10992209919E+03  0.28323653521E+02 -0.41267570289E+03  0.42800272546E+03  0.00000000000E+00 0.  1.
         21    1    1    2  504  501 -0.29855263769E+02  0.40022271883E+02  0.31414712129E+02  0.58991551594E+02  0.00000000000E+00 0.  1.
         21    1    1    2  505  502  0.10861848820E+02 -0.43259580893E+02 -0.11982166884E+04  0.11990465393E+04  0.00000000000E+00 0.  1.
         21    1    1    2  506  505  0.12891551414E+03 -0.25086344511E+02 -0.37009819551E+03  0.39271008236E+03  0.00000000000E+00 0.  1.
<scales pt_clust_3="116.28693" pt_clust_4="49.23594" pt_clust_5="44.60237" pt_clust_6="14000.00000"></scales>
<clustering>
<clus scale="   44.602">  2  5  1 -1</clus>
<clus scale="   49.236">  1  4  2 -1</clus>
<clus scale="  116.287">  2  3  1 -1</clus>
<clus scale="   49.236">  1  3  2 -1</clus>
</clustering>
</event>
<event>
 6    0  0.4227619E+002  0.9339702E+02  0.7546771E-02  0.1294828E+00
         21   -1    0    0  506  501  0.00000000000E+00  0.00000000000E+00  0.20012474468E+04  0.20012474468E+04  0.00000000000E+00 0. -1.
         21   -1    0    0  505  502 -0.00000000000E+00 -0.00000000000E+00 -0.37085196577E+02  0.37085196577E+02  0.00000000000E+00 0. -1.
         21    1    1    2  503  502 -0.40348280886E+02  0.87639112190E+02  0.83091722063E+03  0.83649986568E+03  0.00000000000E+00 0. -1.
         21    1    1    2  504  501  0.36243567396E+02  0.44591538059E+01 -0.32101579097E+01  0.36657677832E+02  0.00000000000E+00 0. -1.
         21    1    1    2  505  504  0.46198187823E+02 -0.23305844130E+02  0.39088016907E+02  0.64848346119E+02  0.00000000000E+00 0. -1.
         21    1    1    2  506  503 -0.42093474333E+02 -0.68792421865E+02  0.10973671706E+04  0.11003267537E+04  0.00000000000E+00 0. -1.
<scales pt_clust_3="82.81662" pt_clust_4="36.27336" pt_clust_5="36.27336" pt_clust_6="80.64898"></scales>
<clustering>
<clus scale="   36.273">  4  5 -1 -1</clus>
<clus scale="   80.649">  1  6  2 -1</clus>
<clus scale="   82.817">  1  3  2 -1</clus>
<clus scale="   80.649">  1  3  2 -1</clus>
</clustering>
</event>
<event>
 6    0  0.4227619E+002  0.7764215E+02  0.7546771E-02  0.1335879E+00
         21   -1    0    0  504  501  0.00000000000E+00  0.00000000000E+00  0.81357098602E+02  0.81357098602E+02  0.00000000000E+00 0.  1.
         21   -1    0    0  503  502 -0.00000000000E+00 -0.00000000000E+00 -0.93145319790E+03  0.93145319790E+03  0.00000000000E+00 0.  1.
         21    1    1    2  503  505  0.14399047953E+01  0.72779794391E+02 -0.79816366090E+02  0.10802603433E+03  0.00000000000E+00 0.  1.
         21    1    1    2  504  506  0.11703628942E+03 -0.29403324860E+02 -0.52050162026E+02  0.13142019601E+03  0.00000000000E+00 0.  1.
         21    1    1    2  505  501 -0.42976046342E+02 -0.46588743643E+02 -0.13768684037E+02  0.64861608471E+02  0.00000000000E+00 0.  1.
         21    1    1    2  506  502 -0.75500147870E+02  0.32122741121E+01 -0.70446088714E+03  0.70850245769E+03  0.00000000000E+00 0.  1.
<scales pt_clust_3="61.72877" pt_clust_4="77.64215" pt_clust_5="63.38337" pt_clust_6="14000.00000"></scales>
<clustering>
<clus scale="   63.383">  1  5  2 -1</clus>
<clus scale="   61.729">  1  3  2 -1</clus>
<clus scale="   77.642">  1  4  2 -1</clus>
<clus scale="   63.383">  1  3  2 -1</clus>
</clustering>
</event>
<event>
 6    0  0.4227619E+002  0.7936820E+02  0.7546771E-02  0.1330854E+00
         21   -1    0    0  503  501  0.00000000000E+00  0.00000000000E+00  0.74208177554E+02  0.74208177554E+02  0.00000000000E+00 0. -1.
         21   -1    0    0  501  502 -0.00000000000E+00 -0.00000000000E+00 -0.75203863712E+03  0.75203863712E+03  0.00000000000E+00 0. -1.
         21    1    1    2  503  506  0.23812923764E+02 -0.80264909728E+02  0.33664921686E+02  0.90237675192E+02  0.00000000000E+00 0. -1.
         21    1    1    2  504  502 -0.86260551570E+01  0.30148572007E+02 -0.62770034168E+02  0.70167103482E+02  0.00000000000E+00 0. -1.
         21    1    1    2  505  504 -0.67664407231E+02 -0.48225190015E+01 -0.40202111297E+03  0.40770418684E+03  0.00000000000E+00 0. -1.
         21    1    1    2  506  505  0.52477538623E+02  0.54938856722E+02 -0.24670423411E+03  0.25813784916E+03  0.00000000000E+00 0. -1.
<scales pt_clust_3="79.36820" pt_clust_4="31.35834" pt_clust_5="73.90755" pt_clust_6="14000.00000"></scales>
<clustering>
<clus scale="   31.358">  2  4  1 -1</clus>
<clus scale="   73.908">  2  5  1 -1</clus>
<clus scale="   79.368">  1  3  2 -1</clus>
<clus scale="   79.368">  1  3  2 -1</clus>
</clustering>
</event>
<event>
 6    0  0.4227619E+002  0.7118065E+02  0.7546771E-02  0.1356124E+00
         21   -1    0    0  506  501  0.00000000000E+00  0.00000000000E+00  0.18062457878E+04  0.18062457878E+04  0.00000000000E+00 0. -1.
         21   -1    0    0  505  502 -0.00000000000E+00 -0.00000000000E+00 -0.59805559465E+02  0.59805559465E+02  0.00000000000E+00 0. -1.
         21    1    1    2  503  502 -0.10579974727E+03 -0.11483217015E+03  0.12443440718E+04  0.12541021421E+04  0.00000000000E+00 0. -1.
         21    1    1    2  504  501  0.35045789712E+00  0.55411849561E+02  0.25307686609E+03  0.25907237607E+03  0.00000000000E+00 0. -1.
         21    1    1    2  505  504  0.46770235534E+02  0.51403203142E+02 -0.23987774134E+02  0.73519776476E+02  0.00000000000E+00 0. -1.
         21    1    1    2  506  503  0.58679053840E+02  0.80171174480E+01  0.27300706457E+03  0.27935705260E+03  0.00000000000E+00 0. -1.
<scales pt_clust_3="71.18065" pt_clust_4="55.41296" pt_clust_5="14000.00000" pt_clust_6="61.40516"></scales>
<clustering>
<clus scale="   55.413">  1  4  2 -1</clus>
<clus scale="   61.405">  1  6  2 -1</clus>
<clus scale="   71.181">  1  3  2 -1</clus>
<clus scale="   55.413">  1  3  2 -1</clus>
</clustering>
</event>
<event>
 6    0  0.4227619E+002  0.9404718E+02  0.7546771E-02  0.1293337E+00
         21   -1    0    0  506  501  0.00000000000E+00  0.00000000000E+00  0.35580713146E+03  0.35580713146E+03  0.00000000000E+00 0. -1.
         21   -1    0    0  505  502 -0.00000000000E+00 -0.00000000000E+00 -0.80898196786E+03  0.80898196786E+03  0.00000000000E+00 0. -1.
         21    1    1    2  503  502  0.62580186872E+02  0.28557440431E+02  0.13964366073E+03  0.15566682105E+03  0.00000000000E+00 0. -1.
         21    1    1    2  504  501 -0.10782186251E+03 -0.10788350151E+03  0.13381754650E+02  0.15311262290E+03  0.00000000000E+00 0. -1.
         21    1    1    2  505  504  0.52096714852E+02  0.34756781827E+02 -0.72564185304E+03  0.72833934431E+03  0.00000000000E+00 0. -1.
         21    1    1    2  506  503 -0.68550392111E+01  0.44569279248E+02  0.11944160126E+03  0.12767031106E+03  0.00000000000E+00 0.  1.
<scales pt_clust_3="14000.00000" pt_clust_4="94.04718" pt_clust_5="62.73766" pt_clust_6="45.09337"></scales>
<clustering>
<clus scale="   45.093">  1  6  2 -1</clus>
<clus scale="   62.738">  2  5  1 -1</clus>
<clus scale="   94.047">  2  4  1 -1</clus>
<clus scale="   45.093">  1  3  2 -1</clus>
</clustering>
</event>
<event>
 6    0  0.4227619E+002  0.1116978E+03  0.7546771E-02  0.1257458E+00
         21   -1    0    0  504  501  0.00000000000E+00  0.00000000000E+00  0.14798341958E+04  0.14798341958E+04  0.00000000000E+00 0.  1.
         21   -1    0    0  505  502 -0.00000000000E+00 -0.00000000000E+00 -0.70330367982E+03  0.70330367982E+03  0.00000000000E+00 0. -1.
         21    1    1    2  503  501  0.96621574736E+02  0.54275494578E+02  0.10634624356E+04  0.10692211698E+04  0.00000000000E+00 0.  1.
         21    1    1    2  504  502 -0.85744927213E+02  0.11858741376E+03 -0.42393254775E+02  0.15235601496E+03  0.00000000000E+00 0.  1.
         21    1    1    2  505  506  0.51850787274E+02 -0.57540437505E+02 -0.58840817741E+03  0.59348427893E+03  0.00000000000E+00 0. -1.
         21    1    1    2  506  503 -0.62727434798E+02 -0.11532247083E+03  0.34386951262E+03  0.36807641199E+03  0.00000000000E+00 0.  1.
<scales pt_clust_3="111.69781" pt_clust_4="79.92347" pt_clust_5="77.45583" pt_clust_6="14000.00000"></scales>
<clustering>
<clus scale="   77.456">  2  5  1 -1</clus>
<clus scale="   79.923">  2  4  1 -1</clus>
<clus scale="  111.698">  1  3  2 -1</clus>
<clus scale="  111.698">  1  3  2 -1</clus>
</clustering>
</event>
<event>
 6    0  0.4227619E+002  0.1088164E+03  0.7546771E-02  0.1262778E+00
         21   -1    0    0  506  501  0.00000000000E+00  0.00000000000E+00  0.11485542028E+04  0.11485542028E+04  0.00000000000E+00 0. -1.
         21   -1    0    0  503  502 -0.00000000000E+00 -0.00000000000E+00 -0.45037414737E+03  0.45037414737E+03  0.00000000000E+00 0.  1.
         21    1    1    2  503  504 -0.62777775583E+02  0.43201058655E+02 -0.27617341179E+03  0.28649456183E+03  0.00000000000E+00 0.  1.
         21    1    1    2  504  505 -0.34482266163E+02 -0.92492452107E+02 -0.13684939336E+03  0.16873540482E+03  0.00000000000E+00 0.  1.
         21    1    1    2  505  501  0.13221079208E+03  0.56230655734E+02  0.30968552855E+03  0.34138937708E+03  0.00000000000E+00 0. -1.
         21    1    1    2  506  502 -0.34950750331E+02 -0.69392622817E+01  0.80151733206E+03  0.80230900650E+03  0.00000000000E+00 0. -1.
<scales pt_clust_3="76.57719" pt_clust_4="108.81642" pt_clust_5="14000.00000" pt_clust_6="35.63297"></scales>
<clustering>
<clus scale="   35.633">  1  6  2 -1</clus>
<clus scale="   76.577">  2  3  1 -1</clus>
<clus scale="  108.816">  2  4  1 -1</clus>
<clus scale="   35.633">  1  3  2 -1</clus>
</clustering>
</event>
<event>
 6    0  0.4227619E+002  0.1566163E+03  0.7546771E-02  0.1192571E+00
         21   -1    0    0  506  501  0.00000000000E+00  0.00000000000E+00  0.98328198540E+02  0.98328198540E+02  0.00000000000E+00 0. -1.
         21   -1    0    0  505  502 -0.00000000000E+00 -0.00000000000E+00 -0.15334508103E+04  0.15334508103E+04  0.00000000000E+00 0. -1.
         21    1    1    2  503  504 -0.66873218725E+02  0.10655959829E+03 -0.24225881158E+03  0.27297675204E+03  0.00000000000E+00 0. -1.
         21    1    1    2  504  502  0.34570900527E+02 -0.21840898399E+03 -0.88706265476E+03  0.91420883004E+03  0.00000000000E+00 0. -1.
         21    1    1    2  505  501  0.62279774829E+02  0.88066989213E+02 -0.36136965284E+03  0.37712410548E+03  0.00000000000E+00 0. -1.
         21    1    1    2  506  503 -0.29977456631E+02  0.23782396485E+02  0.55568507450E+02  0.67469321242E+02  0.00000000000E+00 0. -1.
<scales pt_clust_3="14000.00000" pt_clust_4="156.61632" pt_clust_5="108.62308" pt_clust_6="38.26552"></scales>
<clustering>
<clus scale="   38.266">  1  6  2 -1</clus>
<clus scale="  108.623">  2  5  1 -1</clus>
<clus scale="  156.616">  2  4  1 -1</clus>
<clus scale="   38.266">  1  3  2 -1</clus>
</clustering>
</event>
<event>
 6    0  0.4227619E+002  0.2586790E+03  0.7546771E-02  0.1107940E+00
         21   -1    0    0  505  501  0.00000000000E+00  0.00000000000E+00  0.95690815803E+03  0.95690815803E+03  0.00000000000E+00 0. -1.
         21   -1    0    0  506  502 -0.00000000000E+00 -0.00000000000E+00 -0.64361345827E+03  0.64361345827E+03  0.00000000000E+00 0.  1.
         21    1    1    2  503  504 -0.20592744120E+03  0.16453724889E+03  0.41001123674E+03  0.48742982220E+03  0.00000000000E+00 0. -1.
         21    1    1    2  504  501 -0.50672360516E+02  0.10588700853E+02  0.35000906862E+03  0.35381655815E+03  0.00000000000E+00 0. -1.
         21    1    1    2  505  502  0.10725773998E+03  0.36475099118E+02  0.10203579948E+03  0.15246625862E+03  0.00000000000E+00 0. -1.
         21    1    1    2  506  503  0.14934206173E+03 -0.21160104886E+03 -0.54876140507E+03  0.60680897734E+03  0.00000000000E+00 0.  1.
<scales pt_clust_3="14000.00000" pt_clust_4="51.76687" pt_clust_5="104.06418" pt_clust_6="258.67895"></scales>
<clustering>
<clus scale="   51.767">  1  4  2 -1</clus>
<clus scale="  104.064">  1  5  2 -1</clus>
<clus scale="  258.679">  2  6  1 -1</clus>
<clus scale="   51.767">  1  3  2 -1</clus>
</clustering>
</event>
<event>
 6    0  0.4227619E+002  0.7095048E+02  0.7546771E-02  0.1356890E+00
         21   -1    0    0  504  501  0.00000000000E+00  0.00000000000E+00  0.30983068301E+02  0.30983068301E+02  0.00000000000E+00 0.  1.
         21   -1    0    0  506  502 -0.00000000000E+00 -0.00000000000E+00 -0.22652972010E+04  0.22652972010E+04  0.00000000000E+00 0.  1.
         21    1    1    2  503  502  0.24668455655E+02  0.40694194265E+02 -0.10261391077E+04  0.10272419474E+04  0.00000000000E+00 0.  1.
         21    1    1    2  504  503 -0.12282330652E+02 -0.10619264955E+03 -0.10685583312E+04  0.10738922859E+04  0.00000000000E+00 0.  1.
         21    1    1    2  505  501  0.42021460771E+02  0.10668785642E+02 -0.10371773170E+02  0.44578019595E+02  0.00000000000E+00 0.  1.
         21    1    1    2  506  505 -0.54407585774E+02  0.54829669646E+02 -0.12924492058E+03  0.15056801638E+03  0.00000000000E+00 0.  1.
<scales pt_clust_3="48.83008" pt_clust_4="14000.00000" pt_clust_5="43.35466" pt_clust_6="70.95048"></scales>
<clustering>
<clus scale="   43.355">  1  5  2 -1</clus>
<clus scale="   48.830">  2  3  1 -1</clus>
<clus scale="   70.950">  1  6  2 -1</clus>
<clus scale="   43.355">  1  3  2 -1</clus>
</clustering>
</event>
<event>
 6    0  0.4227619E+002  0.6423378E+02  0.7546771E-02  0.1380877E+00
         21   -1    0    0  505  501  0.00000000000E+00  0.00000000000E+00  0.14275227858E+04  0.14275227858E+04  0.00000000000E+00 0.  1.
         21   -1    0    0  503  502 -0.00000000000E+00 -0.00000000000E+00 -0.27630788609E+02  0.27630788609E+02  0.00000000000E+00 0. -1.
         21    1    1    2  503  506 -0.41770826812E+02  0.32499771616E+02  0.89208155301E+02  0.10372623631E+03  0.00000000000E+00 0.  1.
         21    1    1    2  504  502  0.49221402612E+01 -0.68920243819E+02  0.60938530348E+02  0.92128887727E+02  0.00000000000E+00 0. -1.
         21    1    1    2  505  504 -0.53850157152E+02  0.18079048101E+00  0.57577466857E+03  0.57828742082E+03  0.00000000000E+00 0.  1.
         21    1    1    2  506  501  0.90698843703E+02  0.36239681722E+02  0.67397064296E+03  0.68101102954E+03  0.00000000000E+00 0.  1.
<scales pt_clust_3="52.92483" pt_clust_4="51.68693" pt_clust_5="14000.00000" pt_clust_6="64.23378"></scales>
<clustering>
<clus scale="   52.925">  2  3  1 -1</clus>
<clus scale="   51.687">  2  4  1 -1</clus>
<clus scale="   64.234">  2  6  1 -1</clus>
<clus scale="   64.234">  1  3  2 -1</clus>
</clustering>
</event>
<event>
 6    0  0.4227619E+002  0.9499943E+02  0.7546771E-02  0.1291177E+00
         21   -1    0    0  504  501  0.00000000000E+00  0.00000000000E+00  0.54408567254E+03  0.54408567254E+03  0.00000000000E+00 0. -1.
         21   -1    0    0  503  502 -0.00000000000E+00 -0.00000000000E+00 -0.89278887455E+02  0.89278887455E+02  0.00000000000E+00 0. -1.
         21    1    1    2  503  506 -0.28147948029E+02  0.28071793333E+02  0.50934124442E+02  0.64611280686E+02  0.00000000000E+00 0. -1.
         21    1    1    2  504  505  0.80636240167E+02 -0.62622285285E+02  0.58866790134E+02  0.11785182571E+03  0.00000000000E+00 0. -1.
         21    1    1    2  505  502  0.22387003988E+02 -0.21712399995E+02 -0.42231646962E+02  0.52498745378E+02  0.00000000000E+00 0. -1.
         21    1    1    2  506  501 -0.74875296126E+02  0.56262891946E+02  0.38723751747E+03  0.39840270822E+03  0.00000000000E+00 0. -1.
<scales pt_clust_3="34.66560" pt_clust_4="94.99943" pt_clust_5="31.18664" pt_clust_6="14000.00000"></scales>
<clustering>
<clus scale="   31.187">  2  5  1 -1</clus>
<clus scale="   34.666">  2  3  1 -1</clus>
<clus scale="   94.999">  2  4  1 -1</clus>
<clus scale="   94.999">  1  3  2 -1</clus>
</clustering>
</event>
<event>
 6    0  0.4227619E+002  0.7308287E+02  0.7546771E-02  0.1349913E+00
         21   -1    0    0  505  501  0.00000000000E+00  0.00000000000E+00  0.84683052884E+02  0.84683052884E+02  0.00000000000E+00 0. -1.
         21   -1    0    0  504  502 -0.00000000000E+00 -0.00000000000E+00 -0.22299839678E+03  0.22299839678E+03  0.00000000000E+00 0. -1.
         21    1    1    2  503  501 -0.24822800038E+02  0.75257149161E+02  0.10015120516E+02  0.79875606667E+02  0.00000000000E+00 0. -1.
         21    1    1    2  504  503 -0.54111914527E+02 -0.42718129257E+02 -0.59861538846E+02  0.91303568901E+02  0.00000000000E+00 0. -1.
         21    1    1    2  505  506  0.42417589892E+02 -0.48129677378E+02 -0.57427702821E+02  0.86102606395E+02  0.00000000000E+00 0. -1.
         21    1    1    2  506  502  0.36517124673E+02  0.15590657474E+02 -0.31041222743E+02  0.50399667700E+02  0.00000000000E+00 0. -1.
<scales pt_clust_3="14000.00000" pt_clust_4="53.22555" pt_clust_5="73.08287" pt_clust_6="39.70603"></scales>
<clustering>
<clus scale="   39.706">  2  6  1 -1</clus>
<clus scale="   53.226">  2  4  1 -1</clus>
<clus scale="   73.083">  2  5  1 -1</clus>
<clus scale="   73.083">  1  3  2 -1</clus>
</clustering>
</event>
<event>
 6    0  0.4227619E+002  0.1019200E+03  0.7546771E-02  0.1276309E+00
         21   -1    0    0  506  501  0.00000000000E+00  0.00000000000E+00  0.55600568476E+03  0.55600568476E+03  0.00000000000E+00 0. -1.
         21   -1    0    0  503  502 -0.00000000000E+00 -0.00000000000E+00 -0.42058595034E+03  0.42058595034E+03  0.00000000000E+00 0.  1.
         21    1    1    2  503  505 -0.76273195490E+02  0.15723123245E+03 -0.30107623472E+03  0.34811802585E+03  0.00000000000E+00 0.  1.
         21    1    1    2  504  502  0.17958430793E+02 -0.70860832460E+02 -0.71818529858E+02  0.10247762704E+03  0.00000000000E+00 0.  1.
         21    1    1    2  505  501  0.57921978547E+01 -0.74600938012E+02  0.21163033140E+03  0.22446881003E+03  0.00000000000E+00 0. -1.
         21    1    1    2  506  504  0.52522566843E+02 -0.11769461978E+02  0.29668416760E+03  0.30152717218E+03  0.00000000000E+00 0. -1.
<scales pt_clust_3="14000.00000" pt_clust_4="74.60681" pt_clust_5="101.92002" pt_clust_6="53.82509"></scales>
<clustering>
<clus scale="   53.825">  1  6  2 -1</clus>
<clus scale="   74.607">  2  4  1 -1</clus>
<clus scale="  101.920">  1  5  2 -1</clus>
<clus scale="   53.825">  1  3  2 -1</clus>
</clustering>
</event>
<event>
 6    0  0.4227619E+002  0.1255447E+03  0.7546771E-02  0.1234220E+00
         21   -1    0    0  505  501  0.00000000000E+00  0.00000000000E+00  0.15026277330E+04  0.15026277330E+04  0.00000000000E+00 0.  1.
         21   -1    0    0  504  502 -0.00000000000E+00 -0.00000000000E+00 -0.38328009870E+03  0.38328009870E+03  0.00000000000E+00 0. -1.
         21    1    1    2  503  502 -0.71538182740E+02 -0.18428759962E+02 -0.30609560132E+03  0.31488386420E+03  0.00000000000E+00 0. -1.
         21    1    1    2  504  506  0.18022365820E+03 -0.36886854000E+02  0.87387962792E+02  0.20366114754E+03  0.00000000000E+00 0.  1.
         21    1    1    2  505  503 -0.77230252114E+02  0.62759136826E+02  0.15710960195E+03  0.18597485885E+03  0.00000000000E+00 0.  1.
         21    1    1    2  506  501 -0.31455223350E+02 -0.74435228640E+01  0.11809456709E+04  0.11813879611E+04  0.00000000000E+00 0.  1.
<scales pt_clust_3="74.31551" pt_clust_4="125.54474" pt_clust_5="14000.00000" pt_clust_6="32.32394"></scales>
<clustering>
<clus scale="   32.324">  1  6  2 -1</clus>
<clus scale="   74.316">  2  3  1 -1</clus>
<clus scale="  125.545">  2  4  1 -1</clus>
<clus scale="   32.324">  1  3  2 -1</clus>
</clustering>
</event>
<event>
 6    0  0.4227619E+002  0.8183779E+02  0.7546771E-02  0.1323915E+00
         21   -1    0    0  505  501  0.00000000000E+00  0.00000000000E+00  0.79605363352E+02  0.79605363352E+02  0.00000000000E+00 0.  1.
         21   -1    0    0  504  502 -0.00000000000E+00 -0.00000000000E+00 -0.72251409089E+03  0.72251409089E+03  0.00000000000E+00 0.  1.
         21    1    1    2  503  502  0.65486605063E+01 -0.32166183790E+02 -0.26435140373E+03  0.26638170544E+03  0.00000000000E+00 0.  1.
         21    1    1    2  504  506  0.12544798095E+02  0.98703599129E+02 -0.27428951274E+03  0.29177818500E+03  0.00000000000E+00 0.  1.
         21    1    1    2  505  503  0.43342879327E+02 -0.78195777567E+02 -0.14366886355E+03  0.16921562331E+03  0.00000000000E+00 0.  1.
         21    1    1    2  506  501 -0.62436337928E+02  0.11658362229E+02  0.39401052492E+02  0.74743940498E+02  0.00000000000E+00 0.  1.
<scales pt_clust_3="32.82603" pt_clust_4="81.83779" pt_clust_5="14000.00000" pt_clust_6="63.04935"></scales>
<clustering>
<clus scale="   32.826">  2  3  1 -1</clus>
<clus scale="   63.049">  1  6  2 -1</clus>
<clus scale="   81.838">  2  4  1 -1</clus>
<clus scale="   63.049">  1  3  2 -1</clus>
</clustering>
</event>
<event>
 6    0  0.4227619E+002  0.9728133E+02  0.7546771E-02  0.1286119E+00
         21   -1    0    0  506  501  0.00000000000E+00  0.00000000000E+00  0.82639015578E+03  0.82639015578E+03  0.00000000000E+00 0.  1.
         21   -1    0    0  505  502 -0.00000000000E+00 -0.00000000000E+00 -0.73580728047E+02  0.73580728047E+02  0.00000000000E+00 0. -1.
         21    1    1    2  503  502  0.48708942757E+02  0.11882079389E+03  0.15456175217E+03  0.20094844463E+03  0.00000000000E+00 0. -1.
         21    1    1    2  504  501 -0.22440106058E+02 -0.75815442584E+02  0.17177514562E+02  0.80911103691E+02  0.00000000000E+00 0. -1.
         21    1    1    2  505  504 -0.35436329212E+02  0.78432695133E+00  0.12419385304E+00  0.35445225644E+02  0.00000000000E+00 0. -1.
         21    1    1    2  506  503  0.91674925132E+01 -0.43789678255E+02  0.58094596715E+03  0.58266610986E+03  0.00000000000E+00 0.  1.
<scales pt_clust_3="97.28133" pt_clust_4="14000.00000" pt_clust_5="35.44501" pt_clust_6="44.61868"></scales>
<clustering>
<clus scale="   35.445">  2  5  1 -1</clus>
<clus scale="   44.619">  1  6  2 -1</clus>
<clus scale="   97.281">  1  3  2 -1</clus>
<clus scale="   44.619">  1  3  2 -1</clus>
</clustering>
</event>
<event>
 6    0  0.4227619E+002  0.1277086E+03  0.7546771E-02  0.1230896E+00
         21   -1    0    0  503  501  0.00000000000E+00  0.00000000000E+00  0.20828160513E+03  0.20828160513E+03  0.00000000000E+00 0.  1.
         21   -1    0    0  505  502 -0.00000000000E+00 -0.00000000000E+00 -0.72723822235E+03  0.72723822235E+03  0.00000000000E+00 0.  1.
         21    1    1    2  503  504 -0.23740211346E+01  0.58591017284E+02  0.35428744115E+02  0.68510869154E+02  0.00000000000E+00 0. -1.
         21    1    1    2  504  502 -0.11507714143E+03  0.16331111249E+02  0.11366424238E+03  0.16257002698E+03  0.00000000000E+00 0.  1.
         21    1    1    2  505  506  0.82946982562E+02 -0.99587791904E+02 -0.64136413946E+03  0.65432857924E+03  0.00000000000E+00 0.  1.
         21    1    1    2  506  501  0.34504180006E+02  0.24665663372E+02 -0.26685464248E+02  0.50110352120E+02  0.00000000000E+00 0.  1.
<scales pt_clust_3="65.46100" pt_clust_4="127.70865" pt_clust_5="14000.00000" pt_clust_6="42.41383"></scales>
<clustering>
<clus scale="   42.414">  1  6  2 -1</clus>
<clus scale="   65.461">  1  3  2 -1</clus>
<clus scale="  127.709">  1  4  2 -1</clus>
<clus scale="   42.414">  1  3  2 -1</clus>
</clustering>
</event>
<event>
 6    0  0.4227619E+002  0.1121813E+03  0.7546771E-02  0.1256583E+00
         21   -1    0    0  504  501  0.00000000000E+00  0.00000000000E+00  0.10722003179E+04  0.10722003179E+04  0.00000000000E+00 0.  1.
         21   -1    0    0  503  502 -0.00000000000E+00 -0.00000000000E+00 -0.11749458472E+03  0.11749458472E+03  0.00000000000E+00 0. -1.
         21    1    1    2  503  505  0.97901623606E+01 -0.31896734896E+02 -0.86299093162E+02  0.92524496522E+02  0.00000000000E+00 0. -1.
         21    1    1    2  504  506 -0.12435758621E+01 -0.35634925939E+02  0.36657095370E+03  0.36830104334E+03  0.00000000000E+00 0.  1.
         21    1    1    2  505  501  0.10054615375E+03 -0.14322377679E+01  0.10656433864E+03  0.14651804875E+03  0.00000000000E+00 0.  1.
         21    1    1    2  506  502 -0.10909274025E+03  0.68963898603E+02  0.56786953397E+03  0.58235131399E+03  0.00000000000E+00 0.  1.
<scales pt_clust_3="33.36539" pt_clust_4="36.62957" pt_clust_5="112.18131" pt_clust_6="14000.00000"></scales>
<clustering>
<clus scale="   33.365">  2  3  1 -1</clus>
<clus scale="   36.630">  1  4  2 -1</clus>
<clus scale="  112.181">  2  5  1 -1</clus>
<clus scale="   36.630">  1  3  2 -1</clus>
</clustering>
</event>
<event>
 6    0  0.4227619E+002  0.9838332E+02  0.7546771E-02  0.1283733E+00
         21   -1    0    0  503  501  0.00000000000E+00  0.00000000000E+00  0.26126740237E+03  0.26126740237E+03  0.00000000000E+00 0.  1.
         21   -1    0    0  504  502 -0.00000000000E+00 -0.00000000000E+00 -0.48215550837E+03  0.48215550837E+03  0.00000000000E+00 0.  1.
         21    1    1    2  503  502 -0.45052102193E+02  0.11428148520E+03  0.16773077086E+03  0.20790276877E+03  0.00000000000E+00 0.  1.
         21    1    1    2  504  505  0.78460939408E+02 -0.58970495837E+02 -0.37861795138E+03  0.39113321452E+03  0.00000000000E+00 0.  1.
         21    1    1    2  505  506 -0.53394191078E+02 -0.89475727513E+02 -0.33413982405E+01  0.10424975011E+03  0.00000000000E+00 0.  1.
         21    1    1    2  506  501  0.19985353863E+02  0.34164738149E+02 -0.66595272298E+01  0.40137177339E+02  0.00000000000E+00 0.  1.
<scales pt_clust_3="98.38332" pt_clust_4="14000.00000" pt_clust_5="96.02971" pt_clust_6="39.58085"></scales>
<clustering>
<clus scale="   39.581">  1  6  2 -1</clus>
<clus scale="   96.030">  1  5  2 -1</clus>
<clus scale="   98.383">  1  3  2 -1</clus>
<clus scale="   39.581">  1  3  2 -1</clus>
</clustering>
</event>
<event>
 6    0  0.4227619E+002  0.1725201E+03  0.7546771E-02  0.1175245E+00
         21   -1    0    0  506  501  0.00000000000E+00  0.00000000000E+00  0.16293912906E+04  0.16293912906E+04  0.00000000000E+00 0.  1.
         21   -1    0    0  503  502 -0.00000000000E+00 -0.00000000000E+00 -0.14390273890E+03  0.14390273890E+03  0.00000000000E+00 0.  1.
         21    1    1    2  503  504  0.25095541428E+02 -0.23343924983E+02 -0.84490830354E+02  0.91177987733E+02  0.00000000000E+00 0.  1.
         21    1    1    2  504  501  0.15198661899E+03 -0.83640680240E+02  0.13206092415E+04  0.13319551285E+04  0.00000000000E+00 0.  1.
         21    1    1    2  505  502 -0.41912543420E+02  0.44157935670E+01 -0.70031179671E+01  0.42722408523E+02  0.00000000000E+00 0.  1.
         21    1    1    2  506  505 -0.13516961700E+03  0.10256881166E+03  0.25637325851E+03  0.30743850469E+03  0.00000000000E+00 0.  1.
<scales pt_clust_3="34.27426" pt_clust_4="14000.00000" pt_clust_5="31.35129" pt_clust_6="172.52011"></scales>
<clustering>
<clus scale="   34.274">  2  3  1 -1</clus>
<clus scale="   31.351">  2  5  1 -1</clus>
<clus scale="  172.520">  2  6  1 -1</clus>
<clus scale="  172.520">  1  3  2 -1</clus>
</clustering>
</event>
<event>
 6    0  0.4227619E+002  0.1338908E+03  0.7546771E-02  0.1221794E+00
         21   -1    0    0  505  501  0.00000000000E+00  0.00000000000E+00  0.18797157806E+03  0.18797157806E+03  0.00000000000E+00 0. -1.
         21   -1    0    0  506  502 -0.00000000000E+00 -0.00000000000E+00 -0.51098477409E+03  0.51098477409E+03  0.00000000000E+00 0. -1.
         21    1    1    2  503  501 -0.20867244814E+02 -0.41390758503E+02 -0.18529037812E+02  0.49919555665E+02  0.00000000000E+00 0. -1.
         21    1    1    2  504  502 -0.11868169029E+03 -0.40646073360E+02 -0.26813826227E+03  0.29603306333E+03  0.00000000000E+00 0. -1.
         21    1    1    2  505  504  0.12463187843E+03  0.51309597307E+02  0.12756220526E+03  0.18557450285E+03  0.00000000000E+00 0. -1.
         21    1    1    2  506  503  0.14917056667E+02  0.30727234557E+02 -0.16390810120E+03  0.16742923031E+03  0.00000000000E+00 0. -1.
<scales pt_clust_3="42.96853" pt_clust_4="14000.00000" pt_clust_5="133.89083" pt_clust_6="34.15672"></scales>
<clustering>
<clus scale="   34.157">  2  6  1 -1</clus>
<clus scale="   42.969">  2  3  1 -1</clus>
<clus scale="  133.891">  1  5  2 -1</clus>
<clus scale="  133.891">  1  3  2 -1</clus>
</clustering>
</event>
<event>
 6    0  0.4227619E+002  0.1590980E+03  0.7546771E-02  0.1189719E+00
         21   -1    0    0  505  501  0.00000000000E+00  0.00000000000E+00  0.24850248379E+03  0.24850248379E+03  0.00000000000E+00 0. -1.
         21   -1    0    0  504  502 -0.00000000000E+00 -0.00000000000E+00 -0.18741241728E+04  0.18741241728E+04  0.00000000000E+00 0. -1.
         21    1    1    2  503  502 -0.31997622740E+02  0.13628274776E+01 -0.17583440156E+04  0.17586356594E+04  0.00000000000E+00 0. -1.
         21    1    1    2  504  506 -0.83358860564E+02  0.14124716769E+02  0.61823651201E+02  0.10473953936E+03  0.00000000000E+00 0. -1.
         21    1    1    2  505  503  0.16151085495E+03  0.30707139773E+02  0.21291699745E+01  0.16441781553E+03  0.00000000000E+00 0. -1.
         21    1    1    2  506  501 -0.46154371648E+02 -0.46194684019E+02  0.68769505383E+02  0.94833642366E+02  0.00000000000E+00 0. -1.
<scales pt_clust_3="32.02663" pt_clust_4="61.05108" pt_clust_5="142.61645" pt_clust_6="61.05108"></scales>
<clustering>
<clus scale="   32.027">  2  3  1 -1</clus>
<clus scale="   61.051">  4  6 -1 -1</clus>
<clus scale="  142.616">  2  5  1 -1</clus>
<clus scale="  159.098">  1  3  2 -1</clus>
</clustering>
</event>
<event>
 6    0  0.4227619E+002  0.6924171E+02  0.7546771E-02  0.1362691E+00
         21   -1    0    0  502  501  0.00000000000E+00  0.00000000000E+00  0.50415847714E+03  0.50415847714E+03  0.00000000000E+00 0.  1.
         21   -1    0    0  506  502 -0.00000000000E+00 -0.00000000000E+00 -0.65978657187E+03  0.65978657187E+03  0.00000000000E+00 0.  1.
         21    1    1    2  503  505  0.58150209219E+02  0.41560845995E+02 -0.25044287334E+02  0.75736167582E+02  0.00000000000E+00 0.  1.
         21    1    1    2  504  501 -0.62460782227E+02  0.24897313073E+02  0.37875647350E+03  0.38467868635E+03  0.00000000000E+00 0.  1.
         21    1    1    2  505  504  0.57201105115E+02 -0.94162998334E+02  0.63782218752E+02  0.12730596259E+03  0.00000000000E+00 0.  1.
         21    1    1    2  506  503 -0.52890532107E+02  0.27704839267E+02 -0.57312249964E+03  0.57622423249E+03  0.00000000000E+00 0.  1.
<scales pt_clust_3="63.87451" pt_clust_4="14000.00000" pt_clust_5="69.24171" pt_clust_6="59.70734"></scales>
<clustering>
<clus scale="   59.707">  2  6  1 -1</clus>
<clus scale="   63.875">  2  3  1 -1</clus>
<clus scale="   69.242">  2  5  1 -1</clus>
<clus scale="   69.242">  1  3  2 -1</clus>
</clustering>
</event>
<event>
 6    0  0.4227619E+002  0.5706623E+02  0.7546771E-02  0.1410573E+00
         21   -1    0    0  505  501  0.00000000000E+00  0.00000000000E+00  0.66426831976E+02  0.66426831976E+02  0.00000000000E+00 0. -1.
         21   -1    0    0  503  502 -0.00000000000E+00 -0.00000000000E+00 -0.10307810358E+04  0.10307810358E+04  0.00000000000E+00 0.  1.
         21    1    1    2  503  506 -0.51657813765E+02 -0.76093931342E+01 -0.15459773412E+03  0.16317748614E+03  0.00000000000E+00 0. -1.
         21    1    1    2  504  502 -0.11574803558E+02 -0.69322885176E+02 -0.53333010877E+03  0.53794111518E+03  0.00000000000E+00 0.  1.
         21    1    1    2  505  504 -0.45490509531E+01  0.56583265463E+02  0.41540530711E+02  0.70341847338E+02  0.00000000000E+00 0. -1.
         21    1    1    2  506  501  0.67781668276E+02  0.20349012846E+02 -0.31796689168E+03  0.32574741915E+03  0.00000000000E+00 0. -1.
<scales pt_clust_3="52.21525" pt_clust_4="14000.00000" pt_clust_5="57.06623" pt_clust_6="51.77396"></scales>
<clustering>
<clus scale="   52.215">  2  3  1 -1</clus>
<clus scale="   51.774">  2  6  1 -1</clus>
<clus scale="   57.066">  1  5  2 -1</clus>
<clus scale="   57.066">  1  3  2 -1</clus>
</clustering>
</event>
<event>
 6    0  0.4227619E+002  0.1660920E+03  0.7546771E-02  0.1181986E+00
         21   -1    0    0  505  501  0.00000000000E+00  0.00000000000E+00  0.23921778489E+03  0.23921778489E+03  0.00000000000E+00 0. -1.
         21   -1    0    0  503  502 -0.00000000000E+00 -0.00000000000E+00 -0.26780766086E+04  0.26780766086E+04  0.00000000000E+00 0.  1.
         21    1    1    2  503  504 -0.64447436137E+02 -0.11532416903E+03 -0.25092387831E+04  0.25127141514E+04  0.00000000000E+00 0.  1.
         21    1    1    2  504  506  0.57584837821E+02  0.75716232487E+02  0.56313853301E+02  0.11054506539E+03  0.00000000000E+00 0. -1.
         21    1    1    2  505  502 -0.10115640941E+03  0.46580884708E+02 -0.90524116647E+02  0.14351659723E+03  0.00000000000E+00 0. -1.
         21    1    1    2  506  501  0.10801900773E+03 -0.69729481652E+01  0.10459022281E+03  0.15051857940E+03  0.00000000000E+00 0. -1.
<scales pt_clust_3="132.18437" pt_clust_4="94.27705" pt_clust_5="111.36605" pt_clust_6="94.27705"></scales>
<clustering>
<clus scale="   94.277">  4  6 -1 -1</clus>
<clus scale="  111.366">  1  5  2 -1</clus>
<clus scale="  132.184">  2  3  1 -1</clus>
<clus scale="  111.366">  1  3  2 -1</clus>
</clustering>
</event>
<event>
 6    0  0.4398816E+002  0.8613730E+02  0.7546771E-02  0.1312485E+00
         21   -1    0    0  503  501  0.00000000000E+00  0.00000000000E+00  0.15751041107E+03  0.15751041107E+03  0.00000000000E+00 0. -1.
         21   -1    0    0  506  502 -0.00000000000E+00 -0.00000000000E+00 -0.10174377835E+04  0.10174377835E+04  0.00000000000E+00 0.  1.
         21    1    1    2  503  504  0.28812898960E+02  0.95612442814E+01 -0.15528636641E-01  0.30357878382E+02  0.00000000000E+00 0. -1.
         21    1    1    2  504  502  0.24318397691E+02 -0.31773985336E+02 -0.14863654668E+02  0.42683706968E+02  0.00000000000E+00 0.  1.
         21    1    1    2  505  501 -0.23141686611E+02  0.10291868382E+03  0.10448660415E+03  0.14847640750E+03  0.00000000000E+00 0. -1.
         21    1    1    2  506  505 -0.29989610041E+02 -0.80705942761E+02 -0.94953479324E+03  0.95343020169E+03  0.00000000000E+00 0.  1.
<scales pt_clust_3="30.35787" pt_clust_4="41.07728" pt_clust_5="86.13730" pt_clust_6="14000.00000"></scales>
<clustering>
<clus scale="   30.358">  1  3  2 -1</clus>
<clus scale="   41.077">  1  4  2 -1</clus>
<clus scale="   86.137">  1  5  2 -1</clus>
<clus scale="   30.358">  1  3  2 -1</clus>
</clustering>
</event>
<event>
 6    0  0.4227619E+002  0.1398672E+03  0.7546771E-02  0.1213508E+00
         21   -1    0    0  505  501  0.00000000000E+00  0.00000000000E+00  0.10457507087E+03  0.10457507087E+03  0.00000000000E+00 0.  1.
         21   -1    0    0  504  502 -0.00000000000E+00 -0.00000000000E+00 -0.38467335426E+03  0.38467335426E+03  0.00000000000E+00 0.  1.
         21    1    1    2  503  501 -0.18690008934E+02  0.33878293987E+02  0.17661107079E+02  0.42531987265E+02  0.00000000000E+00 0. -1.
         21    1    1    2  504  506  0.12110990158E+03 -0.95574061285E+02 -0.22935254539E+03  0.27641381935E+03  0.00000000000E+00 0.  1.
         21    1    1    2  505  502  0.15731451099E+02  0.27829349838E+02 -0.62605963859E+01  0.32575241107E+02  0.00000000000E+00 0. -1.
         21    1    1    2  506  503 -0.11815134375E+03  0.33866417461E+02 -0.62146248696E+02  0.13772737741E+03  0.00000000000E+00 0.  1.
<scales pt_clust_3="45.11108" pt_clust_4="139.86715" pt_clust_5="31.96797" pt_clust_6="14000.00000"></scales>
<clustering>
<clus scale="   31.968">  1  5  2 -1</clus>
<clus scale="   45.111">  1  3  2 -1</clus>
<clus scale="  139.867">  2  4  1 -1</clus>
<clus scale="   31.968">  1  3  2 -1</clus>
</clustering>
</event>
<event>
 6    0  0.4227619E+002  0.1150546E+03  0.7546771E-02  0.1251486E+00
         21   -1    0    0  506  501  0.00000000000E+00  0.00000000000E+00  0.13761237383E+03  0.13761237383E+03  0.00000000000E+00 0. -1.
         21   -1    0    0  503  502 -0.00000000000E+00 -0.00000000000E+00 -0.71968225173E+03  0.71968225173E+03  0.00000000000E+00 0. -1.
         21    1    1    2  503  504 -0.49494070983E+02 -0.39557821055E+02 -0.47716537315E+02  0.79318044621E+02  0.00000000000E+00 0. -1.
         21    1    1    2  504  501 -0.85971836588E+02  0.25616834074E+02 -0.29742634851E+03  0.31066028337E+03  0.00000000000E+00 0. -1.
         21    1    1    2  505  502  0.22369572974E+02  0.46184172657E+02 -0.31951592493E+03  0.32361057134E+03  0.00000000000E+00 0. -1.
         21    1    1    2  506  505  0.11309633460E+03 -0.32243185675E+02  0.82588932856E+02  0.14370572623E+03  0.00000000000E+00 0. -1.
<scales pt_clust_3="56.08279" pt_clust_4="115.05457" pt_clust_5="51.31643" pt_clust_6="14000.00000"></scales>
<clustering>
<clus scale="   51.316">  2  5  1 -1</clus>
<clus scale="   56.083">  2  3  1 -1</clus>
<clus scale="  115.055">  2  4  1 -1</clus>
<clus scale="  115.055">  1  3  2 -1</clus>
</clustering>
</event>
<event>
 6    0  0.4227619E+002  0.1402593E+03  0.7546771E-02  0.1212980E+00
         21   -1    0    0  506  501  0.00000000000E+00  0.00000000000E+00  0.13787328080E+04  0.13787328080E+04  0.00000000000E+00 0.  1.
         21   -1    0    0  501  502 -0.00000000000E+00 -0.00000000000E+00 -0.35860224102E+03  0.35860224102E+03  0.00000000000E+00 0.  1.
         21    1    1    2  503  502 -0.13740686302E+03  0.83437597939E+01 -0.29378398949E+03  0.32443689188E+03  0.00000000000E+00 0.  1.
         21    1    1    2  504  503  0.16566685747E+03 -0.11722046518E+02  0.10690500172E+03  0.19751352721E+03  0.00000000000E+00 0.  1.
         21    1    1    2  505  504 -0.60956526399E+02 -0.21795440516E+02  0.27715407662E+03  0.28461398687E+03  0.00000000000E+00 0.  1.
         21    1    1    2  506  505  0.32696531949E+02  0.25173727240E+02  0.92985547817E+03  0.93077064308E+03  0.00000000000E+00 0.  1.
<scales pt_clust_3="14000.00000" pt_clust_4="140.25929" pt_clust_5="40.92212" pt_clust_6="41.26475"></scales>
<clustering>
<clus scale="   41.265">  1  6  2 -1</clus>
<clus scale="   40.922">  1  5  2 -1</clus>
<clus scale="  140.259">  1  4  2 -1</clus>
<clus scale="   41.265">  1  3  2 -1</clus>
</clustering>
</event>
<event>
 6    0  0.4227619E+002  0.1345959E+03  0.7546771E-02  0.1220791E+00
         21   -1    0    0  505  501  0.00000000000E+00  0.00000000000E+00  0.26624924920E+03  0.26624924920E+03  0.00000000000E+00 0. -1.
         21   -1    0    0  506  502 -0.00000000000E+00 -0.00000000000E+00 -0.39464139004E+03  0.39464139004E+03  0.00000000000E+00 0. -1.
         21    1    1    2  503  502  0.33517052256E+02 -0.43514074301E+00 -0.19504036272E+03  0.19789978583E+03  0.00000000000E+00 0. -1.
         21    1    1    2  504  503  0.39087285253E+02  0.11409969003E+03 -0.66152935846E+02  0.13756004527E+03  0.00000000000E+00 0.  1.
         21    1    1    2  505  504 -0.17071376362E+03 -0.91732501673E+02  0.10810236291E+03  0.22191025622E+03  0.00000000000E+00 0. -1.
         21    1    1    2  506  501  0.98109426107E+02 -0.21932047610E+02  0.24698794826E+02  0.10352055192E+03  0.00000000000E+00 0.  1.
<scales pt_clust_3="33.51988" pt_clust_4="14000.00000" pt_clust_5="134.59593" pt_clust_6="107.06367"></scales>
<clustering>
<clus scale="   33.520">  2  3  1 -1</clus>
<clus scale="  107.064">  1  6  2 -1</clus>
<clus scale="  134.596">  1  5  2 -1</clus>
<clus scale="  107.064">  1  3  2 -1</clus>
</clustering>
</event>
<event>
 6    0  0.4227619E+002  0.6485156E+02  0.7546771E-02  0.1378531E+00
         21   -1    0    0  505  501  0.00000000000E+00  0.00000000000E+00  0.69593216691E+02  0.69593216691E+02  0.00000000000E+00 0. -1.
         21   -1    0    0  503  502 -0.00000000000E+00 -0.00000000000E+00 -0.92864947940E+03  0.92864947940E+03  0.00000000000E+00 0. -1.
         21    1    1    2  503  506 -0.29848332255E+02 -0.52401528598E+02 -0.28900821613E+03  0.29523311489E+03  0.00000000000E+00 0. -1.
         21    1    1    2  504  501 -0.55332717525E+02  0.90599162426E+02 -0.10923667182E+03  0.15232389284E+03  0.00000000000E+00 0. -1.
         21    1    1    2  505  502  0.12916421729E+02 -0.52071580940E+02  0.25102399928E+02  0.59231866204E+02  0.00000000000E+00 0. -1.
         21    1    1    2  506  504  0.72264628051E+02  0.13873947111E+02 -0.48591377470E+03  0.49145382216E+03  0.00000000000E+00 0. -1.
<scales pt_clust_3="64.85156" pt_clust_4="14000.00000" pt_clust_5="53.64964" pt_clust_6="64.27566"></scales>
<clustering>
<clus scale="   53.650">  1  5  2 -1</clus>
<clus scale="   64.852">  2  3  1 -1</clus>
<clus scale="   64.276">  2  6  1 -1</clus>
<clus scale="   53.650">  1  3  2 -1</clus>
</clustering>
</event>
<event>
 6    0  0.4227619E+002  0.8924178E+02  0.7546771E-02  0.1304698E+00
         21   -1    0    0  503  501  0.00000000000E+00  0.00000000000E+00  0.75201468088E+02  0.75201468088E+02  0.00000000000E+00 0. -1.
         21   -1    0    0  505  502 -0.00000000000E+00 -0.00000000000E+00 -0.45561893080E+03  0.45561893080E+03  0.00000000000E+00 0. -1.
         21    1    1    2  503  502  0.54268572399E+01 -0.46351908131E+02 -0.62432353606E+02  0.77947090668E+02  0.00000000000E+00 0. -1.
         21    1    1    2  504  506  0.96979757931E+02 -0.29340984911E+01 -0.11787210161E+03  0.15266798852E+03  0.00000000000E+00 0. -1.
         21    1    1    2  505  504 -0.58605132358E+02 -0.45396150286E+02 -0.17903348557E+03  0.19377399453E+03  0.00000000000E+00 0. -1.
         21    1    1    2  506  501 -0.43801482813E+02  0.94682156908E+02 -0.21079521931E+02  0.10643132517E+03  0.00000000000E+00 0. -1.
<scales pt_clust_3="46.66851" pt_clust_4="89.24178" pt_clust_5="87.93434" pt_clust_6="14000.00000"></scales>
<clustering>
<clus scale="   46.669">  2  3  1 -1</clus>
<clus scale="   87.934">  2  5  1 -1</clus>
<clus scale="   89.242">  2  4  1 -1</clus>
<clus scale="   89.242">  1  3  2 -1</clus>
</clustering>
</event>
<event>
 6    0  0.4227619E+002  0.3462954E+03  0.7546771E-02  0.1064146E+00
         21   -1    0    0  503  501  0.00000000000E+00  0.00000000000E+00  0.39738432711E+03  0.39738432711E+03  0.00000000000E+00 0.  1.
         21   -1    0    0  506  502 -0.00000000000E+00 -0.00000000000E+00 -0.21753917501E+04  0.21753917501E+04  0.00000000000E+00 0. -1.
         21    1    1    2  503  505 -0.13855175630E+03 -0.24802067754E+03 -0.18697468614E+04  0.18912070673E+04  0.00000000000E+00 0. -1.
         21    1    1    2  504  501  0.33535803185E+02  0.84965346713E+02  0.92315426633E+02  0.12986877312E+03  0.00000000000E+00 0.  1.
         21    1    1    2  505  502 -0.11134894076E+03  0.25333600721E+02 -0.19763924909E+03  0.22825786014E+03  0.00000000000E+00 0.  1.
         21    1    1    2  506  504  0.21636489388E+03  0.13772173011E+03  0.19706326086E+03  0.32344237667E+03  0.00000000000E+00 0.  1.
<scales pt_clust_3="331.97808" pt_clust_4="58.80971" pt_clust_5="114.19447" pt_clust_6="58.80971"></scales>
<clustering>
<clus scale="   58.810">  4  6 -1 -1</clus>
<clus scale="  114.194">  2  5  1 -1</clus>
<clus scale="  331.978">  2  3  1 -1</clus>
<clus scale="  346.295">  1  3  2 -1</clus>
</clustering>
</event>
<event>
 6    0  0.4227619E+002  0.1078814E+03  0.7546771E-02  0.1264544E+00
         21   -1    0    0  505  501  0.00000000000E+00  0.00000000000E+00  0.36012301705E+03  0.36012301705E+03  0.00000000000E+00 0. -1.
         21   -1    0    0  504  502 -0.00000000000E+00 -0.00000000000E+00 -0.22106468960E+03  0.22106468960E+03  0.00000000000E+00 0. -1.
         21    1    1    2  503  502 -0.42163912566E+02 -0.47964930996E+01 -0.18712302003E+02  0.46378358263E+02  0.00000000000E+00 0. -1.
         21    1    1    2  504  506  0.11303231747E+03 -0.29481442617E+02 -0.12328674057E+03  0.16983839569E+03  0.00000000000E+00 0. -1.
         21    1    1    2  505  503 -0.63801881912E+01  0.11957872929E+03  0.18965552959E+03  0.22429667676E+03  0.00000000000E+00 0. -1.
         21    1    1    2  506  501 -0.64488216710E+02 -0.85300793574E+02  0.91401840425E+02  0.14067427594E+03  0.00000000000E+00 0. -1.
<scales pt_clust_3="42.43586" pt_clust_4="86.85262" pt_clust_5="14000.00000" pt_clust_6="107.88136"></scales>
<clustering>
<clus scale="   42.436">  2  3  1 -1</clus>
<clus scale="   86.853">  2  4  1 -1</clus>
<clus scale="  107.881">  2  6  1 -1</clus>
<clus scale="  107.881">  1  3  2 -1</clus>
</clustering>
</event>
<event>
 6    0  0.4227619E+002  0.1188263E+03  0.7546771E-02  0.1245046E+00
         21   -1    0    0  506  501  0.00000000000E+00  0.00000000000E+00  0.52269424911E+03  0.52269424911E+03  0.00000000000E+00 0.  1.
         21   -1    0    0  504  502 -0.00000000000E+00 -0.00000000000E+00 -0.18237787092E+03  0.18237787092E+03  0.00000000000E+00 0.  1.
         21    1    1    2  503  502 -0.66961328360E+02 -0.17230721326E+02 -0.36464144038E+02  0.78168734501E+02  0.00000000000E+00 0.  1.
         21    1    1    2  504  501  0.12092657577E+03  0.11523401651E+03 -0.44793554165E+02  0.17294096618E+03  0.00000000000E+00 0.  1.
         21    1    1    2  505  503 -0.92894930873E+02 -0.78433756398E+02  0.26724399625E+03  0.29359951611E+03  0.00000000000E+00 0.  1.
         21    1    1    2  506  505  0.38929683465E+02 -0.19569538782E+02  0.15433008014E+03  0.16036290325E+03  0.00000000000E+00 0.  1.
<scales pt_clust_3="67.28913" pt_clust_4="118.82626" pt_clust_5="14000.00000" pt_clust_6="43.57163"></scales>
<clustering>
<clus scale="   43.572">  1  6  2 -1</clus>
<clus scale="   67.289">  2  3  1 -1</clus>
<clus scale="  118.826">  2  4  1 -1</clus>
<clus scale="   43.572">  1  3  2 -1</clus>
</clustering>
</event>
<event>
 6    0  0.4227619E+002  0.1195724E+03  0.7546771E-02  0.1243804E+00
         21   -1    0    0  503  501  0.00000000000E+00  0.00000000000E+00  0.37142396841E+03  0.37142396841E+03  0.00000000000E+00 0.  1.
         21   -1    0    0  505  502 -0.00000000000E+00 -0.00000000000E+00 -0.19357177928E+03  0.19357177928E+03  0.00000000000E+00 0.  1.
         21    1    1    2  503  502  0.84141371391E+02  0.13866560427E+03  0.78467395466E+02  0.18018061032E+03  0.00000000000E+00 0.  1.
         21    1    1    2  504  501  0.43235977539E+02 -0.84214734886E+02  0.12947846762E+03  0.16039371840E+03  0.00000000000E+00 0.  1.
         21    1    1    2  505  506 -0.14743006123E+02 -0.47983992965E+02 -0.85180358947E+02  0.98871195810E+02  0.00000000000E+00 0.  1.
         21    1    1    2  506  504 -0.11263434281E+03 -0.64668764143E+01  0.55086684998E+02  0.12555022316E+03  0.00000000000E+00 0.  1.
<scales pt_clust_3="119.57245" pt_clust_4="100.27986" pt_clust_5="50.19781" pt_clust_6="14000.00000"></scales>
<clustering>
<clus scale="   50.198">  2  5  1 -1</clus>
<clus scale="  100.280">  1  4  2 -1</clus>
<clus scale="  119.572">  2  3  1 -1</clus>
<clus scale="  100.280">  1  3  2 -1</clus>
</clustering>
</event>
<event>
 6    0  0.4227619E+002  0.1100649E+03  0.7546771E-02  0.1260450E+00
         21   -1    0    0  503  501  0.00000000000E+00  0.00000000000E+00  0.23452306104E+04  0.23452306104E+04  0.00000000000E+00 0.  1.
         21   -1    0    0  504  502 -0.00000000000E+00 -0.00000000000E+00 -0.10593442961E+04  0.10593442961E+04  0.00000000000E+00 0. -1.
         21    1    1    2  503  505 -0.31196537088E+02  0.43011878031E+02  0.22756825589E+04  0.22763027818E+04  0.00000000000E+00 0.  1.
         21    1    1    2  504  506  0.10964931551E+03  0.37090247972E+02 -0.85222214652E+03  0.86004723470E+03  0.00000000000E+00 0. -1.
         21    1    1    2  505  502 -0.39818423793E+02 -0.11485253942E+03 -0.16848771243E+03  0.20776121371E+03  0.00000000000E+00 0. -1.
         21    1    1    2  506  501 -0.38634354626E+02  0.34750413421E+02  0.30913614376E+02  0.60463676237E+02  0.00000000000E+00 0. -1.
<scales pt_clust_3="103.98561" pt_clust_4="14000.00000" pt_clust_5="110.06491" pt_clust_6="51.96349"></scales>
<clustering>
<clus scale="   51.963">  1  6  2 -1</clus>
<clus scale="  103.986">  1  3  2 -1</clus>
<clus scale="  110.065">  1  5  2 -1</clus>
<clus scale="   51.963">  1  3  2 -1</clus>
</clustering>
</event>
<event>
 6    0  0.4227619E+002  0.7860585E+02  0.7546771E-02  0.1333055E+00
         21   -1    0    0  505  501  0.00000000000E+00  0.00000000000E+00  0.21616255212E+03  0.21616255212E+03  0.00000000000E+00 0. -1.
         21   -1    0    0  504  502 -0.00000000000E+00 -0.00000000000E+00 -0.15508687113E+04  0.15508687113E+04  0.00000000000E+00 0. -1.
         21    1    1    2  503  502 -0.53853422211E+02 -0.61686263876E+02 -0.23344875337E+02  0.85149101225E+02  0.00000000000E+00 0. -1.
         21    1    1    2  504  506 -0.47711195606E+02  0.37520361773E+01 -0.12058948613E+04  0.12068441708E+04  0.00000000000E+00 0. -1.
         21    1    1    2  505  503  0.82309988840E+02 -0.50983984836E+00  0.17207950344E+03  0.19075258767E+03  0.00000000000E+00 0. -1.
         21    1    1    2  506  501  0.19254628977E+02  0.58444067547E+02 -0.27754592593E+03  0.28428540372E+03  0.00000000000E+00 0. -1.
<scales pt_clust_3="14000.00000" pt_clust_4="47.85850" pt_clust_5="78.60585" pt_clust_6="64.56655"></scales>
<clustering>
<clus scale="   47.858">  2  4  1 -1</clus>
<clus scale="   64.567">  2  6  1 -1</clus>
<clus scale="   78.606">  1  5  2 -1</clus>
<clus scale="   78.606">  1  3  2 -1</clus>
</clustering>
</event>
<event>
 6    0  0.4227619E+002  0.1196933E+03  0.7546771E-02  0.1243604E+00
         21   -1    0    0  503  501  0.00000000000E+00  0.00000000000E+00  0.39788228623E+03  0.39788228623E+03  0.00000000000E+00 0. -1.
         21   -1    0    0  501  502 -0.00000000000E+00 -0.00000000000E+00 -0.36983015386E+03  0.36983015386E+03  0.00000000000E+00 0. -1.
         21    1    1    2  503  506 -0.29410313972E+02  0.87441722359E+01  0.21469143518E+03  0.21687286473E+03  0.00000000000E+00 0. -1.
         21    1    1    2  504  505 -0.37949703844E+02 -0.26846942980E+01 -0.11293280923E+03  0.11916881725E+03  0.00000000000E+00 0.  1.
         21    1    1    2  505  502 -0.35979769921E+02 -0.72421013919E+02 -0.22366781452E+03  0.23783742000E+03  0.00000000000E+00 0. -1.
         21    1    1    2  506  504  0.10333978774E+03  0.66361535981E+02  0.14996132093E+03  0.19383333811E+03  0.00000000000E+00 0. -1.
<scales pt_clust_3="30.68268" pt_clust_4="38.05589" pt_clust_5="38.05589" pt_clust_6="106.20472"></scales>
<clustering>
<clus scale="   30.683">  1  3  2 -1</clus>
<clus scale="   38.056">  4  5 -1 -1</clus>
<clus scale="  106.205">  1  6  2 -1</clus>
<clus scale="   30.683">  1  3  2 -1</clus>
</clustering>
</event>
<event>
 6    0  0.4227619E+002  0.1052741E+03  0.7546771E-02  0.1269581E+00
         21   -1    0    0  506  501  0.00000000000E+00  0.00000000000E+00  0.51553135992E+03  0.51553135992E+03  0.00000000000E+00 0. -1.
         21   -1    0    0  503  502 -0.00000000000E+00 -0.00000000000E+00 -0.48738019740E+03  0.48738019740E+03  0.00000000000E+00 0.  1.
         21    1    1    2  503  504  0.98709509795E+02  0.35565444084E+02 -0.45773721534E+03  0.46960816267E+03  0.00000000000E+00 0.  1.
         21    1    1    2  504  505 -0.10643069578E+03 -0.52278428792E+02  0.19534627202E+03  0.22851847433E+03  0.00000000000E+00 0. -1.
         21    1    1    2  505  501 -0.32336391438E+02 -0.68970429752E+01  0.20285939697E+03  0.20553624097E+03  0.00000000000E+00 0. -1.
         21    1    1    2  506  502  0.40057577424E+02  0.23610027682E+02  0.87682708878E+02  0.99248679348E+02  0.00000000000E+00 0. -1.
<scales pt_clust_3="14000.00000" pt_clust_4="105.27409" pt_clust_5="33.06375" pt_clust_6="37.21641"></scales>
<clustering>
<clus scale="   33.064">  1  5  2 -1</clus>
<clus scale="   37.216">  1  6  2 -1</clus>
<clus scale="  105.274">  1  4  2 -1</clus>
<clus scale="   33.064">  1  3  2 -1</clus>
</clustering>
</event>
<event>
 6    0  0.4227619E+002  0.9064387E+02  0.7546771E-02  0.1301300E+00
         21   -1    0    0  506  501  0.00000000000E+00  0.00000000000E+00  0.18904018226E+03  0.18904018226E+03  0.00000000000E+00 0.  1.
         21   -1    0    0  503  502 -0.00000000000E+00 -0.00000000000E+00 -0.16578435963E+03  0.16578435963E+03  0.00000000000E+00 0.  1.
         21    1    1    2  503  501 -0.53335894962E+02  0.79614089171E+01 -0.22695351970E+02  0.58507954368E+02  0.00000000000E+00 0. -1.
         21    1    1    2  504  505  0.16750924998E+02 -0.11209357524E+03  0.72483790246E+02  0.13453424452E+03  0.00000000000E+00 0.  1.
         21    1    1    2  505  502  0.63616397987E+02  0.37581746712E+02 -0.46407098587E+02  0.87252808425E+02  0.00000000000E+00 0.  1.
         21    1    1    2  506  504 -0.27031428024E+02  0.66550419615E+02  0.19874482939E+02  0.74529534576E+02  0.00000000000E+00 0.  1.
<scales pt_clust_3="53.92682" pt_clust_4="14000.00000" pt_clust_5="54.63438" pt_clust_6="90.64387"></scales>
<clustering>
<clus scale="   53.927">  2  3  1 -1</clus>
<clus scale="   54.634">  2  5  1 -1</clus>
<clus scale="   90.644">  1  6  2 -1</clus>
<clus scale="   90.644">  1  3  2 -1</clus>
</clustering>
</event>
<event>
 6    0  0.4227619E+002  0.7383254E+02  0.7546771E-02  0.1347525E+00
         21   -1    0    0  505  501  0.00000000000E+00  0.00000000000E+00  0.10803111678E+04  0.10803111678E+04  0.00000000000E+00 0. -1.
         21   -1    0    0  506  502 -0.00000000000E+00 -0.00000000000E+00 -0.92664693930E+02  0.92664693930E+02  0.00000000000E+00 0. -1.
         21    1    1    2  503  504 -0.80966313040E+02  0.47778295481E+02  0.26929987976E+03  0.28523803149E+03  0.00000000000E+00 0. -1.
         21    1    1    2  504  502  0.61548329155E+02 -0.12148250860E+02 -0.60630210615E+02  0.87245626022E+02  0.00000000000E+00 0. -1.
         21    1    1    2  505  503 -0.10342591909E+02 -0.80703396527E+02  0.16326254244E+03  0.18241344573E+03  0.00000000000E+00 0. -1.
         21    1    1    2  506  501  0.29760575794E+02  0.45073351906E+02  0.61571426224E+03  0.61807875845E+03  0.00000000000E+00 0. -1.
<scales pt_clust_3="73.83254" pt_clust_4="63.33984" pt_clust_5="14000.00000" pt_clust_6="54.01203"></scales>
<clustering>
<clus scale="   54.012">  1  6  2 -1</clus>
<clus scale="   63.340">  2  4  1 -1</clus>
<clus scale="   73.833">  2  3  1 -1</clus>
<clus scale="   54.012">  1  3  2 -1</clus>
</clustering>
</event>
<event>
 6    0  0.4227619E+002  0.7120158E+02  0.7546771E-02  0.1356054E+00
         21   -1    0    0  505  501  0.00000000000E+00  0.00000000000E+00  0.51127501823E+03  0.51127501823E+03  0.00000000000E+00 0. -1.
         21   -1    0    0  506  502 -0.00000000000E+00 -0.00000000000E+00 -0.16509539482E+03  0.16509539482E+03  0.00000000000E+00 0.  1.
         21    1    1    2  503  502  0.49929029351E+02 -0.41132118848E+02 -0.34856001567E+02  0.73482651137E+02  0.00000000000E+00 0.  1.
         21    1    1    2  504  501 -0.48003472732E+02  0.61198129551E+02  0.39634119560E+03  0.40390083905E+03  0.00000000000E+00 0. -1.
         21    1    1    2  505  503  0.62385369744E+02  0.15539374028E+02  0.64094912995E+02  0.90783062160E+02  0.00000000000E+00 0.  1.
         21    1    1    2  506  504 -0.64310926364E+02 -0.35605384731E+02 -0.79400483621E+02  0.10820386070E+03  0.00000000000E+00 0.  1.
<scales pt_clust_3="66.43322" pt_clust_4="14000.00000" pt_clust_5="64.29157" pt_clust_6="71.20158"></scales>
<clustering>
<clus scale="   64.292">  1  5  2 -1</clus>
<clus scale="   66.433">  2  3  1 -1</clus>
<clus scale="   71.202">  2  6  1 -1</clus>
<clus scale="   64.292">  1  3  2 -1</clus>
</clustering>
</event>
<event>
 6    0  0.4227619E+002  0.7251098E+02  0.7546771E-02  0.1351757E+00
         21   -1    0    0  506  501  0.00000000000E+00  0.00000000000E+00  0.70652273597E+03  0.70652273597E+03  0.00000000000E+00 0. -1.
         21   -1    0    0  504  502 -0.00000000000E+00 -0.00000000000E+00 -0.15488266958E+03  0.15488266958E+03  0.00000000000E+00 0.  1.
         21    1    1    2  503  501 -0.97812574420E+02 -0.44523580470E+02  0.10580445299E+03  0.15081190671E+03  0.00000000000E+00 0. -1.
         21    1    1    2  504  505  0.35488379457E+02  0.39886002657E+02 -0.11667610290E+03  0.12831068262E+03  0.00000000000E+00 0.  1.
         21    1    1    2  505  503  0.23096943107E+02 -0.53269125441E+02  0.10985667905E+03  0.12425601973E+03  0.00000000000E+00 0. -1.
         21    1    1    2  506  502  0.39227251857E+02  0.57906703254E+02  0.45265503724E+03  0.45802679650E+03  0.00000000000E+00 0. -1.
<scales pt_clust_3="72.51098" pt_clust_4="53.38837" pt_clust_5="54.14546" pt_clust_6="14000.00000"></scales>
<clustering>
<clus scale="   53.388">  2  4  1 -1</clus>
<clus scale="   54.145">  2  5  1 -1</clus>
<clus scale="   72.511">  2  3  1 -1</clus>
<clus scale="   72.511">  1  3  2 -1</clus>
</clustering>
</event>
<event>
 6    0  0.4227619E+002  0.1380957E+03  0.7546771E-02  0.1215914E+00
         21   -1    0    0  504  501  0.00000000000E+00  0.00000000000E+00  0.91962213090E+03  0.91962213090E+03  0.00000000000E+00 0. -1.
         21   -1    0    0  505  502 -0.00000000000E+00 -0.00000000000E+00 -0.78862825105E+03  0.78862825105E+03  0.00000000000E+00 0.  1.
         21    1    1    2  503  506  0.24715573494E+02 -0.78645398204E+02  0.46727566343E+02  0.94759821064E+02  0.00000000000E+00 0.  1.
         21    1    1    2  504  503 -0.29192453684E+02 -0.79219182649E+01  0.26007178243E+03  0.26182491890E+03  0.00000000000E+00 0. -1.
         21    1    1    2  505  501  0.13562252320E+03  0.12874570276E+03  0.56656154540E+03  0.59662459680E+03  0.00000000000E+00 0. -1.
         21    1    1    2  506  502 -0.13114564301E+03 -0.42178386288E+02 -0.74236701433E+03  0.75504104518E+03  0.00000000000E+00 0.  1.
<scales pt_clust_3="82.37328" pt_clust_4="30.24824" pt_clust_5="138.09575" pt_clust_6="14000.00000"></scales>
<clustering>
<clus scale="   30.248">  1  4  2 -1</clus>
<clus scale="   82.373">  1  3  2 -1</clus>
<clus scale="  138.096">  1  5  2 -1</clus>
<clus scale="   30.248">  1  3  2 -1</clus>
</clustering>
</event>
<event>
 6    0  0.4227619E+002  0.1369673E+03  0.7546771E-02  0.1217469E+00
         21   -1    0    0  505  501  0.00000000000E+00  0.00000000000E+00  0.20683148112E+04  0.20683148112E+04  0.00000000000E+00 0.  1.
         21   -1    0    0  506  502 -0.00000000000E+00 -0.00000000000E+00 -0.40993177838E+03  0.40993177838E+03  0.00000000000E+00 0.  1.
         21    1    1    2  503  504  0.77763244549E+02  0.57135653460E+02 -0.22018919728E+02  0.98976956535E+02  0.00000000000E+00 0.  1.
         21    1    1    2  504  502  0.40598308556E+02  0.34662774185E+02 -0.34078464658E+03  0.34494043822E+03  0.00000000000E+00 0.  1.
         21    1    1    2  505  503 -0.13108115153E+02 -0.58301317442E+02  0.15173951682E+04  0.15185713559E+04  0.00000000000E+00 0.  1.
         21    1    1    2  506  501 -0.10525343795E+03 -0.33497110202E+02  0.50379143092E+03  0.51575783897E+03  0.00000000000E+00 0. -1.
<scales pt_clust_3="14000.00000" pt_clust_4="53.38287" pt_clust_5="59.38276" pt_clust_6="136.96731"></scales>
<clustering>
<clus scale="   53.383">  2  4  1 -1</clus>
<clus scale="   59.383">  1  5  2 -1</clus>
<clus scale="  136.967">  1  6  2 -1</clus>
<clus scale="   59.383">  1  3  2 -1</clus>
</clustering>
</event>
<event>
 6    0  0.4227619E+002  0.1390201E+03  0.7546771E-02  0.1214654E+00
         21   -1    0    0  506  501  0.00000000000E+00  0.00000000000E+00  0.13076189691E+03  0.13076189691E+03  0.00000000000E+00 0. -1.
         21   -1    0    0  504  502 -0.00000000000E+00 -0.00000000000E+00 -0.97258862480E+03  0.97258862480E+03  0.00000000000E+00 0.  1.
         21    1    1    2  503  501  0.19096140986E+02  0.32156803023E+02  0.42721204566E+02  0.56778727538E+02  0.00000000000E+00 0. -1.
         21    1    1    2  504  505  0.37859984331E+02  0.11152660477E+03 -0.40831295681E+03  0.42496003657E+03  0.00000000000E+00 0.  1.
         21    1    1    2  505  503 -0.67475739356E+02  0.48927433447E+02  0.22952385487E+02  0.86450454856E+02  0.00000000000E+00 0. -1.
         21    1    1    2  506  502  0.10519614039E+02 -0.19261084124E+03 -0.49918736113E+03  0.53516130274E+03  0.00000000000E+00 0.  1.
<scales pt_clust_3="37.39950" pt_clust_4="14000.00000" pt_clust_5="89.27055" pt_clust_6="139.02010"></scales>
<clustering>
<clus scale="   37.399">  1  3  2 -1</clus>
<clus scale="   89.271">  1  5  2 -1</clus>
<clus scale="  139.020">  1  6  2 -1</clus>
<clus scale="   37.399">  1  3  2 -1</clus>
</clustering>
</event>
<event>
 6    0  0.4227619E+002  0.7168069E+02  0.7546771E-02  0.1354469E+00
         21   -1    0    0  506  501  0.00000000000E+00  0.00000000000E+00  0.11473628214E+04  0.11473628214E+04  0.00000000000E+00 0.  1.
         21   -1    0    0  503  502 -0.00000000000E+00 -0.00000000000E+00 -0.15249862765E+04  0.15249862765E+04  0.00000000000E+00 0. -1.
         21    1    1    2  503  505  0.19782596126E+02 -0.41661091267E+02 -0.69439019902E+03  0.69592007166E+03  0.00000000000E+00 0. -1.
         21    1    1    2  504  501  0.29993014300E+02 -0.40856247072E+02  0.11330153071E+04  0.11341483589E+04  0.00000000000E+00 0.  1.
         21    1    1    2  505  504 -0.20273286723E+02  0.11347354100E+03 -0.26019404199E+03  0.28458424086E+03  0.00000000000E+00 0. -1.
         21    1    1    2  506  502 -0.29502323702E+02 -0.30956202662E+02 -0.55605452117E+03  0.55769642647E+03  0.00000000000E+00 0. -1.
<scales pt_clust_3="14000.00000" pt_clust_4="50.68786" pt_clust_5="71.68069" pt_clust_6="42.76299"></scales>
<clustering>
<clus scale="   42.763">  2  6  1 -1</clus>
<clus scale="   50.688">  1  4  2 -1</clus>
<clus scale="   71.681">  1  5  2 -1</clus>
<clus scale="   50.688">  1  3  2 -1</clus>
</clustering>
</event>
<event>
 6    0  0.4227619E+002  0.1177469E+03  0.7546771E-02  0.1246861E+00
         21   -1    0    0  505  501  0.00000000000E+00  0.00000000000E+00  0.82763621121E+03  0.82763621121E+03  0.00000000000E+00 0. -1.
         21   -1    0    0  506  502 -0.00000000000E+00 -0.00000000000E+00 -0.69105792924E+02  0.69105792924E+02  0.00000000000E+00 0. -1.
         21    1    1    2  503  501 -0.10779883492E+03 -0.69167351446E+02  0.61558808800E+03  0.62877134588E+03  0.00000000000E+00 0. -1.
         21    1    1    2  504  503  0.80936126804E+02  0.26586984618E+02  0.59459284745E+02  0.10388903174E+03  0.00000000000E+00 0. -1.
         21    1    1    2  505  502  0.24474523686E+02  0.80956573891E+02  0.91716743354E+02  0.12475948933E+03  0.00000000000E+00 0. -1.
         21    1    1    2  506  504  0.23881844247E+01 -0.38376207063E+02 -0.82336978114E+01  0.39322137188E+02  0.00000000000E+00 0. -1.
<scales pt_clust_3="117.74689" pt_clust_4="14000.00000" pt_clust_5="71.60456" pt_clust_6="38.45044"></scales>
<clustering>
<clus scale="   38.450">  2  6  1 -1</clus>
<clus scale="   71.605">  2  5  1 -1</clus>
<clus scale="  117.747">  1  3  2 -1</clus>
<clus scale="  117.747">  1  3  2 -1</clus>
</clustering>
</event>
<event>
 6    0  0.4227619E+002  0.1074099E+03  0.7546771E-02  0.1265443E+00
         21   -1    0    0  506  501  0.00000000000E+00  0.00000000000E+00  0.13635988810E+04  0.13635988810E+04  0.00000000000E+00 0.  1.
         21   -1    0    0  501  502 -0.00000000000E+00 -0.00000000000E+00 -0.18985309047E+03  0.18985309047E+03  0.00000000000E+00 0. -1.
         21    1    1    2  503  505  0.20325357598E+03 -0.41726616823E-02  0.10020033005E+02  0.20350041088E+03  0.00000000000E+00 0. -1.
         21    1    1    2  504  503 -0.83850903990E+02  0.55050479358E+02  0.86066839015E+03  0.86649385871E+03  0.00000000000E+00 0.  1.
         21    1    1    2  505  502 -0.10003927283E+03 -0.17032902780E+02 -0.60008530715E+02  0.11789401870E+03  0.00000000000E+00 0. -1.
         21    1    1    2  506  504 -0.19363399159E+02 -0.38013403917E+02  0.36306589805E+03  0.36556368314E+03  0.00000000000E+00 0.  1.
<scales pt_clust_3="107.40994" pt_clust_4="14000.00000" pt_clust_5="102.22142" pt_clust_6="42.66099"></scales>
<clustering>
<clus scale="   42.661">  1  6  2 -1</clus>
<clus scale="  102.221">  2  5  1 -1</clus>
<clus scale="  107.410">  2  3  1 -1</clus>
<clus scale="   42.661">  1  3  2 -1</clus>
</clustering>
</event>
<event>
 6    0  0.4227619E+002  0.1339922E+03  0.7546771E-02  0.1221649E+00
         21   -1    0    0  505  501  0.00000000000E+00  0.00000000000E+00  0.24608808119E+03  0.24608808119E+03  0.00000000000E+00 0.  1.
         21   -1    0    0  506  502 -0.00000000000E+00 -0.00000000000E+00 -0.14084600856E+04  0.14084600856E+04  0.00000000000E+00 0. -1.
         21    1    1    2  503  501  0.21854024680E+02 -0.10334505911E+03  0.12048323578E+03  0.16023111352E+03  0.00000000000E+00 0.  1.
         21    1    1    2  504  503 -0.18973628074E+03  0.67472439283E+02 -0.73148390349E+02  0.21425002521E+03  0.00000000000E+00 0. -1.
         21    1    1    2  505  502  0.40399231322E+02  0.40811579809E+00  0.18724468148E+02  0.44529430238E+02  0.00000000000E+00 0.  1.
         21    1    1    2  506  504  0.12748302474E+03  0.35464504024E+02 -0.12284313180E+04  0.12355375979E+04  0.00000000000E+00 0. -1.
<scales pt_clust_3="113.83042" pt_clust_4="133.99215" pt_clust_5="40.40129" pt_clust_6="14000.00000"></scales>
<clustering>
<clus scale="   40.401">  1  5  2 -1</clus>
<clus scale="  113.830">  1  3  2 -1</clus>
<clus scale="  133.992">  1  4  2 -1</clus>
<clus scale="   40.401">  1  3  2 -1</clus>
</clustering>
</event>
<event>
 6    0  0.4227619E+002  0.1144061E+03  0.7546771E-02  0.1252621E+00
         21   -1    0    0  503  501  0.00000000000E+00  0.00000000000E+00  0.94264898710E+03  0.94264898710E+03  0.00000000000E+00 0. -1.
         21   -1    0    0  506  502 -0.00000000000E+00 -0.00000000000E+00 -0.64796471530E+03  0.64796471530E+03  0.00000000000E+00 0. -1.
         21    1    1    2  503  502  0.19199747780E+02 -0.94111192972E+02 -0.36058236506E+03  0.37315571676E+03  0.00000000000E+00 0.  1.
         21    1    1    2  504  501 -0.36556219845E+02 -0.10733139145E+03  0.88536857604E+03  0.89259951839E+03  0.00000000000E+00 0. -1.
         21    1    1    2  505  504  0.51703835824E+02  0.17502098947E+03 -0.20622975700E+03  0.27538399748E+03  0.00000000000E+00 0. -1.
         21    1    1    2  506  505 -0.34347363758E+02  0.26421594948E+02 -0.23872182173E+02  0.49474469764E+02  0.00000000000E+00 0.  1.
<scales pt_clust_3="78.26694" pt_clust_4="114.40608" pt_clust_5="14000.00000" pt_clust_6="43.33408"></scales>
<clustering>
<clus scale="   43.334">  2  6  1 -1</clus>
<clus scale="   78.267">  2  3  1 -1</clus>
<clus scale="  114.406">  1  4  2 -1</clus>
<clus scale="  114.406">  1  3  2 -1</clus>
</clustering>
</event>
<event>
 6    0  0.4227619E+002  0.2727501E+03  0.7546771E-02  0.1099716E+00
         21   -1    0    0  504  501  0.00000000000E+00  0.00000000000E+00  0.29503434929E+03  0.29503434929E+03  0.00000000000E+00 0. -1.
         21   -1    0    0  505  502 -0.00000000000E+00 -0.00000000000E+00 -0.13490464472E+04  0.13490464472E+04  0.00000000000E+00 0. -1.
         21    1    1    2  503  506 -0.22753515415E+03  0.20723134831E+03 -0.84213579043E+03  0.89661015365E+03  0.00000000000E+00 0. -1.
         21    1    1    2  504  503  0.12075077058E+03 -0.10458549831E+03  0.19518386229E+03  0.25222136141E+03  0.00000000000E+00 0. -1.
         21    1    1    2  505  501  0.72373250847E+02 -0.10073834325E+03 -0.45610973059E+02  0.13216074342E+03  0.00000000000E+00 0. -1.
         21    1    1    2  506  502  0.34411132718E+02 -0.19075067580E+01 -0.36144919668E+03  0.36308853799E+03  0.00000000000E+00 0.  1.
<scales pt_clust_3="14000.00000" pt_clust_4="272.75009" pt_clust_5="126.01198" pt_clust_6="34.46396"></scales>
<clustering>
<clus scale="   34.464">  2  6  1 -1</clus>
<clus scale="  126.012">  1  5  2 -1</clus>
<clus scale="  272.750">  1  4  2 -1</clus>
<clus scale="  126.012">  1  3  2 -1</clus>
</clustering>
</event>
<event>
 6    0  0.4227619E+002  0.1315144E+03  0.7546771E-02  0.1225226E+00
         21   -1    0    0  505  501  0.00000000000E+00  0.00000000000E+00  0.12880541871E+03  0.12880541871E+03  0.00000000000E+00 0.  1.
         21   -1    0    0  506  502 -0.00000000000E+00 -0.00000000000E+00 -0.92242707317E+03  0.92242707317E+03  0.00000000000E+00 0.  1.
         21    1    1    2  503  501  0.71680548303E+02  0.11562828742E+03 -0.68801401653E+02  0.15245207354E+03  0.00000000000E+00 0.  1.
         21    1    1    2  504  502 -0.72421373807E+02 -0.11449626429E+03 -0.45559501577E+03  0.47531154868E+03  0.00000000000E+00 0.  1.
         21    1    1    2  505  504 -0.38560194186E+02  0.11296083364E+02  0.70556814230E+02  0.81195776426E+02  0.00000000000E+00 0.  1.
         21    1    1    2  506  503  0.39301019690E+02 -0.12428106498E+02 -0.33978205127E+03  0.34227309323E+03  0.00000000000E+00 0.  1.
<scales pt_clust_3="14000.00000" pt_clust_4="131.51437" pt_clust_5="40.18072" pt_clust_6="40.27396"></scales>
<clustering>
<clus scale="   40.181">  1  5  2 -1</clus>
<clus scale="   40.274">  2  6  1 -1</clus>
<clus scale="  131.514">  2  4  1 -1</clus>
<clus scale="   40.181">  1  3  2 -1</clus>
</clustering>
</event>
<event>
 6    0  0.4227619E+002  0.2071559E+03  0.7546771E-02  0.1143838E+00
         21   -1    0    0  503  501  0.00000000000E+00  0.00000000000E+00  0.65557248485E+03  0.65557248485E+03  0.00000000000E+00 0. -1.
         21   -1    0    0  506  502 -0.00000000000E+00 -0.00000000000E+00 -0.91608494405E+03  0.91608494405E+03  0.00000000000E+00 0.  1.
         21    1    1    2  503  504 -0.59971397328E+01  0.58935860808E+02  0.27150372326E+03  0.27789147723E+03  0.00000000000E+00 0. -1.
         21    1    1    2  504  502 -0.14398523736E+03 -0.61916882482E+02 -0.77954233886E+02  0.17504945442E+03  0.00000000000E+00 0.  1.
         21    1    1    2  505  501  0.10802177126E+03 -0.22940187978E+03  0.26206940174E+03  0.36465640930E+03  0.00000000000E+00 0. -1.
         21    1    1    2  506  505  0.41960605836E+02  0.23238290145E+03 -0.71613135032E+03  0.75406008795E+03  0.00000000000E+00 0.  1.
<scales pt_clust_3="59.24020" pt_clust_4="154.63614" pt_clust_5="207.15590" pt_clust_6="14000.00000"></scales>
<clustering>
<clus scale="   59.240">  1  3  2 -1</clus>
<clus scale="  154.636">  2  4  1 -1</clus>
<clus scale="  207.156">  1  5  2 -1</clus>
<clus scale="   59.240">  1  3  2 -1</clus>
</clustering>
</event>
<event>
 6    0  0.4227619E+002  0.8135812E+02  0.7546771E-02  0.1325241E+00
         21   -1    0    0  504  501  0.00000000000E+00  0.00000000000E+00  0.38551896643E+03  0.38551896643E+03  0.00000000000E+00 0. -1.
         21   -1    0    0  505  502 -0.00000000000E+00 -0.00000000000E+00 -0.18767437610E+03  0.18767437610E+03  0.00000000000E+00 0. -1.
         21    1    1    2  503  502  0.81744008878E+01  0.38274822534E+02 -0.50532172155E+02  0.63916220888E+02  0.00000000000E+00 0. -1.
         21    1    1    2  504  506  0.20842653649E+02  0.39710712612E+02  0.13252893553E+03  0.13991167092E+03  0.00000000000E+00 0. -1.
         21    1    1    2  505  501 -0.10088119083E+03 -0.32939078782E+02  0.21446960400E+03  0.23928896467E+03  0.00000000000E+00 0. -1.
         21    1    1    2  506  503  0.71864136290E+02 -0.45046456364E+02 -0.98621777048E+02  0.13007648605E+03  0.00000000000E+00 0. -1.
<scales pt_clust_3="39.13800" pt_clust_4="45.91562" pt_clust_5="14000.00000" pt_clust_6="81.35812"></scales>
<clustering>
<clus scale="   39.138">  2  3  1 -1</clus>
<clus scale="   45.916">  1  4  2 -1</clus>
<clus scale="   81.358">  2  6  1 -1</clus>
<clus scale="   45.916">  1  3  2 -1</clus>
</clustering>
</event>
<event>
 6    0  0.4227619E+002  0.9349845E+02  0.7546771E-02  0.1294594E+00
         21   -1    0    0  503  501  0.00000000000E+00  0.00000000000E+00  0.21808893985E+03  0.21808893985E+03  0.00000000000E+00 0. -1.
         21   -1    0    0  504  502 -0.00000000000E+00 -0.00000000000E+00 -0.34596798014E+03  0.34596798014E+03  0.00000000000E+00 0.  1.
         21    1    1    2  503  505  0.13270266372E+02 -0.93458883733E+02 -0.74588576537E+02  0.12030843141E+03  0.00000000000E+00 0.  1.
         21    1    1    2  504  506  0.47409423380E+02  0.87741671489E+02 -0.39986548508E+02  0.10744849186E+03  0.00000000000E+00 0.  1.
         21    1    1    2  505  502 -0.29317001596E+02 -0.11106005310E+02 -0.17140205365E+03  0.17424549903E+03  0.00000000000E+00 0.  1.
         21    1    1    2  506  501 -0.31362688156E+02  0.16823217554E+02  0.15809813840E+03  0.16205449770E+03  0.00000000000E+00 0. -1.
<scales pt_clust_3="93.49845" pt_clust_4="14000.00000" pt_clust_5="31.35012" pt_clust_6="35.82607"></scales>
<clustering>
<clus scale="   31.350">  2  5  1 -1</clus>
<clus scale="   35.826">  1  6  2 -1</clus>
<clus scale="   93.498">  2  3  1 -1</clus>
<clus scale="   35.826">  1  3  2 -1</clus>
</clustering>
</event>
<event>
 6    0  0.4227619E+002  0.9842881E+02  0.7546771E-02  0.1283635E+00
         21   -1    0    0  506  501  0.00000000000E+00  0.00000000000E+00  0.12133056595E+03  0.12133056595E+03  0.00000000000E+00 0. -1.
         21   -1    0    0  504  502 -0.00000000000E+00 -0.00000000000E+00 -0.15268964789E+03  0.15268964789E+03  0.00000000000E+00 0. -1.
         21    1    1    2  503  505 -0.13960168081E+01 -0.34505807390E+02 -0.26873364157E+01  0.34638437949E+02  0.00000000000E+00 0. -1.
         21    1    1    2  504  503 -0.53250360390E+02 -0.32016999760E+02 -0.46337309288E+02  0.77510227631E+02  0.00000000000E+00 0.  1.
         21    1    1    2  505  501  0.50579359893E+02 -0.33434273525E+02  0.24431141527E+01  0.60680236487E+02  0.00000000000E+00 0. -1.
         21    1    1    2  506  502  0.40670173053E+01  0.99957080674E+02  0.15222449618E+02  0.10119131178E+03  0.00000000000E+00 0. -1.
<scales pt_clust_3="34.17676" pt_clust_4="62.13444" pt_clust_5="34.17676" pt_clust_6="87.39277"></scales>
<clustering>
<clus scale="   34.177">  3  5 -1 -1</clus>
<clus scale="   62.134">  2  4  1 -1</clus>
<clus scale="   87.393">  2  6  1 -1</clus>
<clus scale="   98.429">  1  3  2 -1</clus>
</clustering>
</event>
<event>
 6    0  0.4227619E+002  0.1671384E+03  0.7546771E-02  0.1180865E+00
         21   -1    0    0  503  501  0.00000000000E+00  0.00000000000E+00  0.20720478499E+04  0.20720478499E+04  0.00000000000E+00 0. -1.
         21   -1    0    0  504  502 -0.00000000000E+00 -0.00000000000E+00 -0.20894152343E+03  0.20894152343E+03  0.00000000000E+00 0.  1.
         21    1    1    2  503  506  0.15447197132E+03 -0.33639921049E+02 -0.81877322383E+02  0.17803687857E+03  0.00000000000E+00 0.  1.
         21    1    1    2  504  505 -0.14454344572E+03  0.40004970419E+02  0.13957191104E+04  0.14037539103E+04  0.00000000000E+00 0. -1.
         21    1    1    2  505  501 -0.18061359551E+01  0.44177703128E+02  0.61460483437E+03  0.61619317914E+03  0.00000000000E+00 0.  1.
         21    1    1    2  506  502 -0.81223896435E+01 -0.50542752498E+02 -0.65340295950E+02  0.83005405356E+02  0.00000000000E+00 0.  1.
<scales pt_clust_3="14000.00000" pt_clust_4="167.13841" pt_clust_5="44.21461" pt_clust_6="50.92852"></scales>
<clustering>
<clus scale="   44.215">  1  5  2 -1</clus>
<clus scale="   50.929">  2  6  1 -1</clus>
<clus scale="  167.138">  1  4  2 -1</clus>
<clus scale="   44.215">  1  3  2 -1</clus>
</clustering>
</event>
<event>
 6    0  0.4227619E+002  0.1184937E+03  0.7546771E-02  0.1245603E+00
         21   -1    0    0  506  501  0.00000000000E+00  0.00000000000E+00  0.17280304847E+04  0.17280304847E+04  0.00000000000E+00 0.  1.
         21   -1    0    0  504  502 -0.00000000000E+00 -0.00000000000E+00 -0.98041170997E+03  0.98041170997E+03  0.00000000000E+00 0.  1.
         21    1    1    2  503  502 -0.17948441278E+02 -0.60117836373E+02 -0.28902241425E+02  0.69077060981E+02  0.00000000000E+00 0. -1.
         21    1    1    2  504  501 -0.86124103813E+01  0.40776424870E+02 -0.91594337375E+03  0.91689102643E+03  0.00000000000E+00 0.  1.
         21    1    1    2  505  503  0.54243328994E+01 -0.10117713125E+03  0.19258892288E+03  0.21761601157E+03  0.00000000000E+00 0. -1.
         21    1    1    2  506  505  0.21136518760E+02  0.12051854275E+03  0.14998754670E+04  0.15048580956E+04  0.00000000000E+00 0.  1.
<scales pt_clust_3="37.91606" pt_clust_4="41.67602" pt_clust_5="14000.00000" pt_clust_6="118.49371"></scales>
<clustering>
<clus scale="   41.676">  2  4  1 -1</clus>
<clus scale="   37.916">  2  3  1 -1</clus>
<clus scale="  118.494">  1  6  2 -1</clus>
<clus scale="  118.494">  1  3  2 -1</clus>
</clustering>
</event>
<event>
 6    0  0.4227619E+002  0.6725370E+02  0.7546771E-02  0.1369689E+00
         21   -1    0    0  506  501  0.00000000000E+00  0.00000000000E+00  0.11726209928E+04  0.11726209928E+04  0.00000000000E+00 0. -1.
         21   -1    0    0  503  502 -0.00000000000E+00 -0.00000000000E+00 -0.44814205342E+03  0.44814205342E+03  0.00000000000E+00 0.  1.
         21    1    1    2  503  505 -0.43345636117E+02  0.99401538347E+02  0.10401685341E+03  0.15026315513E+03  0.00000000000E+00 0. -1.
         21    1    1    2  504  502 -0.10956964613E+02 -0.65847326692E+02 -0.42079826702E+03  0.42605998056E+03  0.00000000000E+00 0.  1.
         21    1    1    2  505  501  0.41797166250E+02  0.25538110815E+01  0.63816513711E+03  0.63953754173E+03  0.00000000000E+00 0. -1.
         21    1    1    2  506  504  0.12505434480E+02 -0.36108022736E+02  0.40309521586E+03  0.40490236878E+03  0.00000000000E+00 0. -1.
<scales pt_clust_3="14000.00000" pt_clust_4="67.25370" pt_clust_5="58.97339" pt_clust_6="38.21224"></scales>
<clustering>
<clus scale="   38.212">  1  6  2 -1</clus>
<clus scale="   58.973">  1  5  2 -1</clus>
<clus scale="   67.254">  2  4  1 -1</clus>
<clus scale="   38.212">  1  3  2 -1</clus>
</clustering>
</event>
<event>
 6    0  0.4227619E+002  0.1057232E+03  0.7546771E-02  0.1268701E+00
         21   -1    0    0  503  501  0.00000000000E+00  0.00000000000E+00  0.31135963136E+03  0.31135963136E+03  0.00000000000E+00 0.  1.
         21   -1    0    0  505  502 -0.00000000000E+00 -0.00000000000E+00 -0.46585456157E+03  0.46585456157E+03  0.00000000000E+00 0.  1.
         21    1    1    2  503  506 -0.59921628249E+02  0.21551654677E+02  0.24207745215E+03  0.25031294051E+03  0.00000000000E+00 0.  1.
         21    1    1    2  504  502  0.12619611957E+03 -0.34260565001E+02 -0.29278643946E+03  0.32066048406E+03  0.00000000000E+00 0.  1.
         21    1    1    2  505  501 -0.75937143059E+02 -0.58338705409E+02 -0.93444176875E+02  0.13379711670E+03  0.00000000000E+00 0.  1.
         21    1    1    2  506  504  0.96626517325E+01  0.71047615732E+02 -0.10341766023E+02  0.72443651649E+02  0.00000000000E+00 0.  1.
<scales pt_clust_3="63.67947" pt_clust_4="14000.00000" pt_clust_5="105.72320" pt_clust_6="83.48228"></scales>
<clustering>
<clus scale="   63.679">  1  3  2 -1</clus>
<clus scale="   83.482">  1  6  2 -1</clus>
<clus scale="  105.723">  1  5  2 -1</clus>
<clus scale="   63.679">  1  3  2 -1</clus>
</clustering>
</event>
<event>
 6    0  0.4227619E+002  0.1055836E+03  0.7546771E-02  0.1268974E+00
         21   -1    0    0  504  501  0.00000000000E+00  0.00000000000E+00  0.74942876629E+02  0.74942876629E+02  0.00000000000E+00 0. -1.
         21   -1    0    0  506  502 -0.00000000000E+00 -0.00000000000E+00 -0.91325777681E+03  0.91325777681E+03  0.00000000000E+00 0. -1.
         21    1    1    2  503  501  0.99248240205E+02 -0.17899028799E+02 -0.13587363429E+03  0.16921061701E+03  0.00000000000E+00 0. -1.
         21    1    1    2  504  505 -0.68243129963E+02  0.94056159862E+02 -0.78526332204E+01  0.11647038183E+03  0.00000000000E+00 0. -1.
         21    1    1    2  505  502 -0.49082890793E+02 -0.46160712449E+02 -0.52855885603E+03  0.53283619043E+03  0.00000000000E+00 0. -1.
         21    1    1    2  506  503  0.18077780551E+02 -0.29996418614E+02 -0.16602977665E+03  0.16968346417E+03  0.00000000000E+00 0. -1.
<scales pt_clust_3="14000.00000" pt_clust_4="105.58362" pt_clust_5="76.61509" pt_clust_6="35.02273"></scales>
<clustering>
<clus scale="   35.023">  2  6  1 -1</clus>
<clus scale="   76.615">  2  5  1 -1</clus>
<clus scale="  105.584">  1  4  2 -1</clus>
<clus scale="  105.584">  1  3  2 -1</clus>
</clustering>
</event>
<event>
 6    0  0.4227619E+002  0.1223619E+03  0.7546771E-02  0.1239251E+00
         21   -1    0    0  502  501  0.00000000000E+00  0.00000000000E+00  0.77061426792E+02  0.77061426792E+02  0.00000000000E+00 0.  1.
         21   -1    0    0  503  502 -0.00000000000E+00 -0.00000000000E+00 -0.19328731747E+04  0.19328731747E+04  0.00000000000E+00 0.  1.
         21    1    1    2  503  506 -0.84486216522E+02 -0.74954456038E+02 -0.13012810060E+04  0.13061731692E+04  0.00000000000E+00 0.  1.
         21    1    1    2  504  501 -0.36232675222E+02 -0.14161248899E+02  0.44493961002E+02  0.59102117473E+02  0.00000000000E+00 0.  1.
         21    1    1    2  505  504  0.78297064467E+00 -0.48377796452E+02 -0.70315488718E+02  0.85353923086E+02  0.00000000000E+00 0. -1.
         21    1    1    2  506  505  0.11993592110E+03  0.13749350139E+03 -0.52870921420E+03  0.55930539178E+03  0.00000000000E+00 0.  1.
<scales pt_clust_3="122.36188" pt_clust_4="38.90177" pt_clust_5="53.53511" pt_clust_6="14000.00000"></scales>
<clustering>
<clus scale="   38.902">  1  4  2 -1</clus>
<clus scale="   53.535">  1  5  2 -1</clus>
<clus scale="  122.362">  2  3  1 -1</clus>
<clus scale="   38.902">  1  3  2 -1</clus>
</clustering>
</event>
<event>
 6    0  0.4227619E+002  0.1341664E+03  0.7546771E-02  0.1221401E+00
         21   -1    0    0  504  501  0.00000000000E+00  0.00000000000E+00  0.13254332032E+04  0.13254332032E+04  0.00000000000E+00 0.  1.
         21   -1    0    0  506  502 -0.00000000000E+00 -0.00000000000E+00 -0.91925003387E+03  0.91925003387E+03  0.00000000000E+00 0. -1.
         21    1    1    2  503  501  0.12174453039E+03  0.59006722451E+02  0.12480934394E+04  0.12554046190E+04  0.00000000000E+00 0.  1.
         21    1    1    2  504  505 -0.12377932421E+03 -0.99517815599E+01  0.73575269351E+01  0.12439651225E+03  0.00000000000E+00 0. -1.
         21    1    1    2  505  502  0.75822191281E+02 -0.27342447709E+02 -0.55064675968E+03  0.55651457131E+03  0.00000000000E+00 0. -1.
         21    1    1    2  506  503 -0.73787397455E+02 -0.21712493182E+02 -0.29862103734E+03  0.30836753449E+03  0.00000000000E+00 0. -1.
<scales pt_clust_3="134.16637" pt_clust_4="14000.00000" pt_clust_5="47.81288" pt_clust_6="76.91562"></scales>
<clustering>
<clus scale="   76.916">  2  6  1 -1</clus>
<clus scale="   47.813">  2  5  1 -1</clus>
<clus scale="  134.166">  1  3  2 -1</clus>
<clus scale="  134.166">  1  3  2 -1</clus>
</clustering>
</event>
<event>
 6    0  0.4227619E+002  0.1212471E+03  0.7546771E-02  0.1241054E+00
         21   -1    0    0  503  501  0.00000000000E+00  0.00000000000E+00  0.43275710280E+03  0.43275710280E+03  0.00000000000E+00 0.  1.
         21   -1    0    0  505  502 -0.00000000000E+00 -0.00000000000E+00 -0.77426429820E+02  0.77426429820E+02  0.00000000000E+00 0.  1.
         21    1    1    2  503  506  0.66581705713E+01 -0.58513076760E+02  0.99212742017E+02  0.11537451870E+03  0.00000000000E+00 0.  1.
         21    1    1    2  504  501 -0.11385212016E+03  0.65076068714E+02  0.14384238514E+03  0.19464796878E+03  0.00000000000E+00 0.  1.
         21    1    1    2  505  504 -0.30805578476E+01  0.31449495014E+02 -0.80189089871E+01  0.32601586996E+02  0.00000000000E+00 0. -1.
         21    1    1    2  506  502  0.11027450744E+03 -0.38012486969E+02  0.12029445480E+03  0.16755945814E+03  0.00000000000E+00 0.  1.
<scales pt_clust_3="54.42045" pt_clust_4="14000.00000" pt_clust_5="31.60001" pt_clust_6="121.24707"></scales>
<clustering>
<clus scale="   31.600">  2  5  1 -1</clus>
<clus scale="   54.420">  1  3  2 -1</clus>
<clus scale="  121.247">  2  6  1 -1</clus>
<clus scale="   54.420">  1  3  2 -1</clus>
</clustering>
</event>
<event>
 6    0  0.4227619E+002  0.1088162E+03  0.7546771E-02  0.1262778E+00
         21   -1    0    0  506  501  0.00000000000E+00  0.00000000000E+00  0.11342170406E+04  0.11342170406E+04  0.00000000000E+00 0. -1.
         21   -1    0    0  503  502 -0.00000000000E+00 -0.00000000000E+00 -0.79175881878E+03  0.79175881878E+03  0.00000000000E+00 0.  1.
         21    1    1    2  503  501 -0.97582856957E+01  0.31253538340E+02 -0.38573385935E+02  0.50595591715E+02  0.00000000000E+00 0. -1.
         21    1    1    2  504  505  0.67025551288E+02 -0.25049112652E+02 -0.12105323812E+02  0.72570113922E+02  0.00000000000E+00 0. -1.
         21    1    1    2  505  502  0.54206390209E+02  0.13995020324E+01 -0.70094421853E+03  0.70303846896E+03  0.00000000000E+00 0.  1.
         21    1    1    2  506  504 -0.11147365580E+03 -0.76039277205E+01  0.10940811501E+04  0.10997716848E+04  0.00000000000E+00 0. -1.
<scales pt_clust_3="32.74153" pt_clust_4="108.81617" pt_clust_5="54.54179" pt_clust_6="14000.00000"></scales>
<clustering>
<clus scale="   32.742">  2  3  1 -1</clus>
<clus scale="   54.542">  2  5  1 -1</clus>
<clus scale="  108.816">  2  4  1 -1</clus>
<clus scale="  108.816">  1  3  2 -1</clus>
</clustering>
</event>
<event>
 6    0  0.4227619E+002  0.9481367E+02  0.7546771E-02  0.1291596E+00
         21   -1    0    0  504  501  0.00000000000E+00  0.00000000000E+00  0.83524218663E+03  0.83524218663E+03  0.00000000000E+00 0.  1.
         21   -1    0    0  506  502 -0.00000000000E+00 -0.00000000000E+00 -0.64502478319E+02  0.64502478319E+02  0.00000000000E+00 0.  1.
         21    1    1    2  503  502  0.41731823792E+02  0.29249473491E+02  0.63485114934E+02  0.81409069732E+02  0.00000000000E+00 0.  1.
         21    1    1    2  504  503  0.20892628786E+02 -0.10884933432E+03  0.18221251966E+03  0.21327466291E+03  0.00000000000E+00 0.  1.
         21    1    1    2  505  501 -0.33925621279E+01  0.91030897375E+02  0.53605427934E+03  0.54373920601E+03  0.00000000000E+00 0.  1.
         21    1    1    2  506  505 -0.59231890450E+02 -0.11431036549E+02 -0.11012205623E+02  0.61321726293E+02  0.00000000000E+00 0.  1.
<scales pt_clust_3="50.96152" pt_clust_4="94.81367" pt_clust_5="14000.00000" pt_clust_6="32.94909"></scales>
<clustering>
<clus scale="   50.962">  2  3  1 -1</clus>
<clus scale="   32.949">  2  6  1 -1</clus>
<clus scale="   94.814">  2  4  1 -1</clus>
<clus scale="   94.814">  1  3  2 -1</clus>
</clustering>
</event>
<event>
 6    0  0.4227619E+002  0.8096680E+02  0.7546771E-02  0.1326330E+00
         21   -1    0    0  503  501  0.00000000000E+00  0.00000000000E+00  0.43190785590E+03  0.43190785590E+03  0.00000000000E+00 0.  1.
         21   -1    0    0  505  502 -0.00000000000E+00 -0.00000000000E+00 -0.23876135331E+03  0.23876135331E+03  0.00000000000E+00 0. -1.
         21    1    1    2  503  506  0.26091807974E+02 -0.40857605326E+02  0.18270444348E+02  0.51806712818E+02  0.00000000000E+00 0.  1.
         21    1    1    2  504  501  0.45576670708E+02  0.30906711300E+01  0.35467567127E+03  0.35760539279E+03  0.00000000000E+00 0.  1.
         21    1    1    2  505  504 -0.89675381024E+02 -0.34802571899E+02 -0.15511046660E+03  0.18251616318E+03  0.00000000000E+00 0. -1.
         21    1    1    2  506  502  0.18006902342E+02  0.72569506095E+02 -0.24689146421E+02  0.78740940417E+02  0.00000000000E+00 0.  1.
<scales pt_clust_3="61.47749" pt_clust_4="45.68134" pt_clust_5="80.96680" pt_clust_6="14000.00000"></scales>
<clustering>
<clus scale="   45.681">  1  4  2 -1</clus>
<clus scale="   61.477">  1  3  2 -1</clus>
<clus scale="   80.967">  2  5  1 -1</clus>
<clus scale="   45.681">  1  3  2 -1</clus>
</clustering>
</event>
<event>
 6    0  0.4227619E+002  0.1054334E+03  0.7546771E-02  0.1269268E+00
         21   -1    0    0  505  501  0.00000000000E+00  0.00000000000E+00  0.17325222325E+03  0.17325222325E+03  0.00000000000E+00 0.  1.
         21   -1    0    0  506  502 -0.00000000000E+00 -0.00000000000E+00 -0.51658518182E+03  0.51658518182E+03  0.00000000000E+00 0.  1.
         21    1    1    2  503  501 -0.43325579949E+02  0.11492463889E+03  0.10011215329E+03  0.15845258515E+03  0.00000000000E+00 0.  1.
         21    1    1    2  504  502 -0.54551202851E+02 -0.12181146906E+03 -0.37437967925E+03  0.39745944694E+03  0.00000000000E+00 0.  1.
         21    1    1    2  505  504  0.74402155006E+02 -0.19886221344E+02 -0.34808515510E+02  0.84514940815E+02  0.00000000000E+00 0.  1.
         21    1    1    2  506  503  0.23474627793E+02  0.26773051513E+02 -0.34256917110E+02  0.49410432170E+02  0.00000000000E+00 0. -1.
<scales pt_clust_3="14000.00000" pt_clust_4="105.43340" pt_clust_5="79.09695" pt_clust_6="35.60694"></scales>
<clustering>
<clus scale="   35.607">  2  6  1 -1</clus>
<clus scale="   79.097">  1  5  2 -1</clus>
<clus scale="  105.433">  2  4  1 -1</clus>
<clus scale="   79.097">  1  3  2 -1</clus>
</clustering>
</event>
<event>
 6    0  0.4227619E+002  0.1256483E+03  0.7546771E-02  0.1234060E+00
         21   -1    0    0  503  501  0.00000000000E+00  0.00000000000E+00  0.14334115500E+03  0.14334115500E+03  0.00000000000E+00 0.  1.
         21   -1    0    0  505  502 -0.00000000000E+00 -0.00000000000E+00 -0.36556328497E+03  0.36556328497E+03  0.00000000000E+00 0. -1.
         21    1    1    2  503  506 -0.89059806367E+02  0.46348918176E+01  0.11729392811E+02  0.89948374015E+02  0.00000000000E+00 0.  1.
         21    1    1    2  504  501  0.70174768157E+02  0.63342219380E+02 -0.27116930582E+02  0.98346645931E+02  0.00000000000E+00 0.  1.
         21    1    1    2  505  504  0.79373559572E+02 -0.39471433656E+02 -0.23262239152E+03  0.24894042072E+03  0.00000000000E+00 0. -1.
         21    1    1    2  506  502 -0.60488521362E+02 -0.28505677541E+02  0.25787799316E+02  0.71668999311E+02  0.00000000000E+00 0.  1.
<scales pt_clust_3="36.51385" pt_clust_4="118.36123" pt_clust_5="88.64624" pt_clust_6="36.51385"></scales>
<clustering>
<clus scale="   36.514">  3  6 -1 -1</clus>
<clus scale="   88.646">  2  5  1 -1</clus>
<clus scale="  118.361">  2  4  1 -1</clus>
<clus scale="  125.648">  1  3  2 -1</clus>
</clustering>
</event>
<event>
 6    0  0.4227619E+002  0.7699121E+02  0.7546771E-02  0.1337813E+00
         21   -1    0    0  502  501  0.00000000000E+00  0.00000000000E+00  0.29388108010E+02  0.29388108010E+02  0.00000000000E+00 0.  1.
         21   -1    0    0  506  502 -0.00000000000E+00 -0.00000000000E+00 -0.10062855694E+04  0.10062855694E+04  0.00000000000E+00 0. -1.
         21    1    1    2  503  504 -0.39595605201E+00  0.88733915347E+02 -0.18999325376E+03  0.20969334989E+03  0.00000000000E+00 0.  1.
         21    1    1    2  504  501  0.80048953360E+02 -0.26712051836E+02 -0.11471070562E+03  0.14240756522E+03  0.00000000000E+00 0.  1.
         21    1    1    2  505  503 -0.41274099708E+02 -0.58400045529E+02 -0.26240922790E+03  0.27197926302E+03  0.00000000000E+00 0. -1.
         21    1    1    2  506  505 -0.38378897600E+02 -0.36218179819E+01 -0.40978427410E+03  0.41159349928E+03  0.00000000000E+00 0. -1.
<scales pt_clust_3="76.99121" pt_clust_4="76.85122" pt_clust_5="14000.00000" pt_clust_6="38.54941"></scales>
<clustering>
<clus scale="   38.549">  2  6  1 -1</clus>
<clus scale="   76.851">  1  4  2 -1</clus>
<clus scale="   76.991">  1  3  2 -1</clus>
<clus scale="   76.851">  1  3  2 -1</clus>
</clustering>
</event>
<event>
 6    0  0.4227619E+002  0.8339139E+02  0.7546771E-02  0.1319694E+00
         21   -1    0    0  504  501  0.00000000000E+00  0.00000000000E+00  0.10418925539E+04  0.10418925539E+04  0.00000000000E+00 0.  1.
         21   -1    0    0  506  502 -0.00000000000E+00 -0.00000000000E+00 -0.79013734058E+03  0.79013734058E+03  0.00000000000E+00 0. -1.
         21    1    1    2  503  501  0.21774640745E+02  0.22363941290E+02  0.46822423423E+03  0.46926348076E+03  0.00000000000E+00 0.  1.
         21    1    1    2  504  502 -0.40540863864E+02  0.59212038390E+02  0.55626525298E+03  0.56087490477E+03  0.00000000000E+00 0.  1.
         21    1    1    2  505  503  0.78411464670E+02 -0.73395737348E+02 -0.20928459176E+03  0.23523463266E+03  0.00000000000E+00 0. -1.
         21    1    1    2  506  505 -0.59645241551E+02 -0.81802423319E+01 -0.56344968211E+03  0.56665687632E+03  0.00000000000E+00 0. -1.
<scales pt_clust_3="31.21347" pt_clust_4="83.39139" pt_clust_5="14000.00000" pt_clust_6="60.13475"></scales>
<clustering>
<clus scale="   31.213">  1  3  2 -1</clus>
<clus scale="   60.135">  2  6  1 -1</clus>
<clus scale="   83.391">  1  4  2 -1</clus>
<clus scale="   31.213">  1  3  2 -1</clus>
</clustering>
</event>
<event>
 6    0  0.4227619E+002  0.1548363E+03  0.7546771E-02  0.1194653E+00
         21   -1    0    0  506  501  0.00000000000E+00  0.00000000000E+00  0.89251019266E+03  0.89251019266E+03  0.00000000000E+00 0.  1.
         21   -1    0    0  504  502 -0.00000000000E+00 -0.00000000000E+00 -0.17497123014E+03  0.17497123014E+03  0.00000000000E+00 0. -1.
         21    1    1    2  503  502  0.44392047209E+01 -0.15715337755E+03 -0.52496172814E+01  0.15730368430E+03  0.00000000000E+00 0.  1.
         21    1    1    2  504  501  0.81064711678E+02 -0.34209891859E+02  0.60486302488E+03  0.61122915755E+03  0.00000000000E+00 0.  1.
         21    1    1    2  505  503 -0.25327182460E+01  0.15237771020E+03  0.36452724823E+01  0.15244234726E+03  0.00000000000E+00 0. -1.
         21    1    1    2  506  505 -0.82971198153E+02  0.38985559209E+02  0.11428028244E+03  0.14650623367E+03  0.00000000000E+00 0. -1.
<scales pt_clust_3="14000.00000" pt_clust_4="87.98752" pt_clust_5="154.83633" pt_clust_6="51.39928"></scales>
<clustering>
<clus scale="   87.988">  1  4  2 -1</clus>
<clus scale="   51.399">  1  6  2 -1</clus>
<clus scale="  154.836">  1  5  2 -1</clus>
<clus scale="   87.988">  1  3  2 -1</clus>
</clustering>
</event>
<event>
 6    0  0.4227619E+002  0.1028911E+03  0.7546771E-02  0.1274331E+00
         21   -1    0    0  503  501  0.00000000000E+00  0.00000000000E+00  0.18564180807E+03  0.18564180807E+03  0.00000000000E+00 0. -1.
         21   -1    0    0  505  502 -0.00000000000E+00 -0.00000000000E+00 -0.40700862226E+03  0.40700862226E+03  0.00000000000E+00 0. -1.
         21    1    1    2  503  506  0.30473835091E+02 -0.13693340761E+02  0.12974119013E+03  0.13397364899E+03  0.00000000000E+00 0. -1.
         21    1    1    2  504  502 -0.29778912347E+02  0.17074147714E+02 -0.19418371531E+03  0.19719438489E+03  0.00000000000E+00 0. -1.
         21    1    1    2  505  501 -0.86068349450E+02 -0.49133230956E+02 -0.12494925513E+03  0.15948088136E+03  0.00000000000E+00 0. -1.
         21    1    1    2  506  504  0.85373426706E+02  0.45752424003E+02 -0.31975033875E+02  0.10200151509E+03  0.00000000000E+00 0. -1.
<scales pt_clust_3="33.40901" pt_clust_4="33.39610" pt_clust_5="14000.00000" pt_clust_6="102.89110"></scales>
<clustering>
<clus scale="   33.409">  1  3  2 -1</clus>
<clus scale="   33.396">  2  4  1 -1</clus>
<clus scale="  102.891">  1  6  2 -1</clus>
<clus scale="   33.409">  1  3  2 -1</clus>
</clustering>
</event>
<event>
 6    0  0.4227619E+002  0.1130954E+03  0.7546771E-02  0.1254943E+00
         21   -1    0    0  504  501  0.00000000000E+00  0.00000000000E+00  0.74824244375E+02  0.74824244375E+02  0.00000000000E+00 0. -1.
         21   -1    0    0  505  502 -0.00000000000E+00 -0.00000000000E+00 -0.13174166138E+04  0.13174166138E+04  0.00000000000E+00 0.  1.
         21    1    1    2  503  506 -0.86831564261E+02  0.82914068937E+02 -0.93729128582E+03  0.94494942608E+03  0.00000000000E+00 0.  1.
         21    1    1    2  504  503 -0.77965299023E+01  0.43263858820E+02 -0.42973572989E+02  0.61475810966E+02  0.00000000000E+00 0.  1.
         21    1    1    2  505  501  0.58823111484E+02 -0.13984341165E+03 -0.35547681910E+02  0.15582033217E+03  0.00000000000E+00 0. -1.
         21    1    1    2  506  502  0.35804982680E+02  0.13665483898E+02 -0.22677982866E+03  0.22999528891E+03  0.00000000000E+00 0.  1.
<scales pt_clust_3="14000.00000" pt_clust_4="44.33797" pt_clust_5="113.09540" pt_clust_6="38.32417"></scales>
<clustering>
<clus scale="   38.324">  2  6  1 -1</clus>
<clus scale="   44.338">  1  4  2 -1</clus>
<clus scale="  113.095">  1  5  2 -1</clus>
<clus scale="   44.338">  1  3  2 -1</clus>
</clustering>
</event>
<event>
 6    0  0.4227619E+002  0.1389597E+03  0.7546771E-02  0.1214736E+00
         21   -1    0    0  505  501  0.00000000000E+00  0.00000000000E+00  0.21508155336E+03  0.21508155336E+03  0.00000000000E+00 0. -1.
         21   -1    0    0  506  502 -0.00000000000E+00 -0.00000000000E+00 -0.69788217223E+03  0.69788217223E+03  0.00000000000E+00 0.  1.
         21    1    1    2  503  504 -0.74453951502E+02  0.19100736807E+03 -0.44832809994E+03  0.49297595351E+03  0.00000000000E+00 0.  1.
         21    1    1    2  504  501 -0.47967208149E+02  0.69794816993E+01  0.88704815076E+01  0.49277293600E+02  0.00000000000E+00 0.  1.
         21    1    1    2  505  502  0.14619852825E+03 -0.83478651203E+02  0.91990046110E+02  0.19184593676E+03  0.00000000000E+00 0. -1.
         21    1    1    2  506  503 -0.23777368598E+02 -0.11450819856E+03 -0.13533304655E+03  0.17886454171E+03  0.00000000000E+00 0.  1.
<scales pt_clust_3="138.95967" pt_clust_4="48.47232" pt_clust_5="14000.00000" pt_clust_6="117.42889"></scales>
<clustering>
<clus scale="   48.472">  1  4  2 -1</clus>
<clus scale="  117.429">  2  6  1 -1</clus>
<clus scale="  138.960">  2  3  1 -1</clus>
<clus scale="   48.472">  1  3  2 -1</clus>
</clustering>
</event>
<event>
 6    0  0.4227619E+002  0.1961567E+03  0.7546771E-02  0.1153023E+00
         21   -1    0    0  504  501  0.00000000000E+00  0.00000000000E+00  0.28011674439E+03  0.28011674439E+03  0.00000000000E+00 0. -1.
         21   -1    0    0  505  502 -0.00000000000E+00 -0.00000000000E+00 -0.78874550975E+03  0.78874550975E+03  0.00000000000E+00 0.  1.
         21    1    1    2  503  502  0.16219544000E+03 -0.15457645885E+03 -0.58073112102E+03  0.62245471908E+03  0.00000000000E+00 0.  1.
         21    1    1    2  504  503 -0.75199570525E+02  0.13873266788E+03  0.92255544097E+02  0.18279172290E+03  0.00000000000E+00 0. -1.
         21    1    1    2  505  506 -0.32810087581E+02  0.23669882336E+01 -0.13337640765E+03  0.13737310726E+03  0.00000000000E+00 0.  1.
         21    1    1    2  506  501 -0.54185781895E+02  0.13476802734E+02  0.11322321921E+03  0.12624270490E+03  0.00000000000E+00 0. -1.
<scales pt_clust_3="196.15670" pt_clust_4="14000.00000" pt_clust_5="32.89536" pt_clust_6="56.15953"></scales>
<clustering>
<clus scale="   32.895">  2  5  1 -1</clus>
<clus scale="   56.160">  1  6  2 -1</clus>
<clus scale="  196.157">  2  3  1 -1</clus>
<clus scale="   56.160">  1  3  2 -1</clus>
</clustering>
</event>
<event>
 6    0  0.4227619E+002  0.9788962E+02  0.7546771E-02  0.1284797E+00
         21   -1    0    0  503  501  0.00000000000E+00  0.00000000000E+00  0.23487410813E+03  0.23487410813E+03  0.00000000000E+00 0.  1.
         21   -1    0    0  504  502 -0.00000000000E+00 -0.00000000000E+00 -0.37334028798E+03  0.37334028798E+03  0.00000000000E+00 0. -1.
         21    1    1    2  503  506 -0.38694845838E+01 -0.50350720610E+02  0.28419680128E+02  0.57946925677E+02  0.00000000000E+00 0.  1.
         21    1    1    2  504  501 -0.10030808598E+03  0.44445658781E+02  0.16486851400E+03  0.19803725813E+03  0.00000000000E+00 0.  1.
         21    1    1    2  505  502  0.35407526246E+02  0.17237532319E+02 -0.19274276188E+03  0.19672467484E+03  0.00000000000E+00 0. -1.
         21    1    1    2  506  505  0.68770044317E+02 -0.11332470490E+02 -0.13901161210E+03  0.15550553747E+03  0.00000000000E+00 0. -1.
<scales pt_clust_3="48.93495" pt_clust_4="97.88962" pt_clust_5="39.38052" pt_clust_6="14000.00000"></scales>
<clustering>
<clus scale="   39.381">  2  5  1 -1</clus>
<clus scale="   48.935">  1  3  2 -1</clus>
<clus scale="   97.890">  1  4  2 -1</clus>
<clus scale="   48.935">  1  3  2 -1</clus>
</clustering>
</event>
<event>
 6    0  0.4227619E+002  0.1191909E+03  0.7546771E-02  0.1244438E+00
         21   -1    0    0  504  501  0.00000000000E+00  0.00000000000E+00  0.48242573347E+03  0.48242573347E+03  0.00000000000E+00 0. -1.
         21   -1    0    0  506  502 -0.00000000000E+00 -0.00000000000E+00 -0.15212538947E+03  0.15212538947E+03  0.00000000000E+00 0.  1.
         21    1    1    2  503  501  0.67618065649E+02 -0.20109471531E+02  0.22769473835E+03  0.23837258131E+03  0.00000000000E+00 0. -1.
         21    1    1    2  504  505 -0.10388463413E+03 -0.32202789702E+02  0.25826109002E+02  0.11178561974E+03  0.00000000000E+00 0.  1.
         21    1    1    2  505  502  0.26270981885E+02  0.15701139600E+03  0.82032213434E+02  0.17908664664E+03  0.00000000000E+00 0. -1.
         21    1    1    2  506  503  0.99955865997E+01 -0.10469913477E+03 -0.52527167841E+01  0.10530627525E+03  0.00000000000E+00 0.  1.
<scales pt_clust_3="70.54498" pt_clust_4="93.21558" pt_clust_5="119.19092" pt_clust_6="14000.00000"></scales>
<clustering>
<clus scale="   70.545">  1  3  2 -1</clus>
<clus scale="   93.216">  1  4  2 -1</clus>
<clus scale="  119.191">  1  5  2 -1</clus>
<clus scale="   70.545">  1  3  2 -1</clus>
</clustering>
</event>
<event>
 6    0  0.4227619E+002  0.9410553E+02  0.7546771E-02  0.1293203E+00
         21   -1    0    0  505  501  0.00000000000E+00  0.00000000000E+00  0.31894302391E+03  0.31894302391E+03  0.00000000000E+00 0. -1.
         21   -1    0    0  504  502 -0.00000000000E+00 -0.00000000000E+00 -0.14141478216E+03  0.14141478216E+03  0.00000000000E+00 0. -1.
         21    1    1    2  503  506  0.10948288471E+03 -0.10320173170E+02  0.24061792414E+02  0.11256987995E+03  0.00000000000E+00 0. -1.
         21    1    1    2  504  501 -0.13141903182E+02 -0.28362027040E+02 -0.34347328301E+02  0.46441933191E+02  0.00000000000E+00 0. -1.
         21    1    1    2  505  503 -0.20244649408E+02  0.79694950721E+02  0.19791187505E+03  0.21431341835E+03  0.00000000000E+00 0. -1.
         21    1    1    2  506  502 -0.76096332117E+02 -0.41012750511E+02 -0.10098097402E+02  0.87032574576E+02  0.00000000000E+00 0. -1.
<scales pt_clust_3="14000.00000" pt_clust_4="31.25883" pt_clust_5="80.27319" pt_clust_6="94.10553"></scales>
<clustering>
<clus scale="   31.259">  2  4  1 -1</clus>
<clus scale="   80.273">  1  5  2 -1</clus>
<clus scale="   94.106">  2  6  1 -1</clus>
<clus scale="   80.273">  1  3  2 -1</clus>
</clustering>
</event>
<event>
 6    0  0.4227619E+002  0.1715939E+03  0.7546771E-02  0.1176196E+00
         21   -1    0    0  504  501  0.00000000000E+00  0.00000000000E+00  0.78049889127E+02  0.78049889127E+02  0.00000000000E+00 0.  1.
         21   -1    0    0  503  502 -0.00000000000E+00 -0.00000000000E+00 -0.13404074071E+04  0.13404074071E+04  0.00000000000E+00 0.  1.
         21    1    1    2  503  501  0.17026607689E+03 -0.67845472626E+02 -0.10421411263E+04  0.10581359422E+04  0.00000000000E+00 0.  1.
         21    1    1    2  504  506 -0.43073654336E+02 -0.30838475341E+01  0.10352839408E+02  0.44407556758E+02  0.00000000000E+00 0.  1.
         21    1    1    2  505  502 -0.26829969002E+02 -0.40437953054E+02 -0.12056979431E+03  0.12996980643E+03  0.00000000000E+00 0. -1.
         21    1    1    2  506  505 -0.10036245355E+03  0.11136727321E+03 -0.10999943674E+03  0.18594399078E+03  0.00000000000E+00 0.  1.
<scales pt_clust_3="14000.00000" pt_clust_4="43.18391" pt_clust_5="51.07493" pt_clust_6="171.59386"></scales>
<clustering>
<clus scale="   43.184">  1  4  2 -1</clus>
<clus scale="   51.075">  2  5  1 -1</clus>
<clus scale="  171.594">  1  6  2 -1</clus>
<clus scale="   43.184">  1  3  2 -1</clus>
</clustering>
</event>
<event>
 6    0  0.4227619E+002  0.1504133E+03  0.7546771E-02  0.1199966E+00
         21   -1    0    0  506  501  0.00000000000E+00  0.00000000000E+00  0.18234145954E+03  0.18234145954E+03  0.00000000000E+00 0. -1.
         21   -1    0    0  503  502 -0.00000000000E+00 -0.00000000000E+00 -0.43909287287E+03  0.43909287287E+03  0.00000000000E+00 0.  1.
         21    1    1    2  503  504  0.17193856955E+02 -0.14741295996E+03 -0.32277705160E+03  0.35526220531E+03  0.00000000000E+00 0.  1.
         21    1    1    2  504  501 -0.11547975437E+02 -0.41184712825E+02 -0.14950044122E+02  0.45310485833E+02  0.00000000000E+00 0. -1.
         21    1    1    2  505  502 -0.28564803017E+02  0.16133022522E+03  0.44272809764E+02  0.16971585437E+03  0.00000000000E+00 0. -1.
         21    1    1    2  506  505  0.22918921499E+02  0.27267447560E+02  0.36702872620E+02  0.51145786901E+02  0.00000000000E+00 0. -1.
<scales pt_clust_3="150.41327" pt_clust_4="39.24825" pt_clust_5="14000.00000" pt_clust_6="35.62009"></scales>
<clustering>
<clus scale="   35.620">  1  6  2 -1</clus>
<clus scale="   39.248">  1  4  2 -1</clus>
<clus scale="  150.413">  2  3  1 -1</clus>
<clus scale="   35.620">  1  3  2 -1</clus>
</clustering>
</event>
<event>
 6    0  0.4227619E+002  0.1089661E+03  0.7546771E-02  0.1262496E+00
         21   -1    0    0  504  501  0.00000000000E+00  0.00000000000E+00  0.28165649216E+03  0.28165649216E+03  0.00000000000E+00 0. -1.
         21   -1    0    0  505  502 -0.00000000000E+00 -0.00000000000E+00 -0.12685550688E+03  0.12685550688E+03  0.00000000000E+00 0. -1.
         21    1    1    2  503  506 -0.52741825223E+02  0.10787922131E+03  0.11398579203E+03  0.16556686656E+03  0.00000000000E+00 0. -1.
         21    1    1    2  504  503 -0.38638557195E+02 -0.11961517048E+02  0.58965528075E+02  0.71504891395E+02  0.00000000000E+00 0. -1.
         21    1    1    2  505  501  0.10884016836E+02 -0.88974304351E+02 -0.11489188972E+02  0.90370847736E+02  0.00000000000E+00 0. -1.
         21    1    1    2  506  502  0.80496365583E+02 -0.69433999084E+01 -0.66611458476E+01  0.81069393351E+02  0.00000000000E+00 0. -1.
<scales pt_clust_3="14000.00000" pt_clust_4="40.44769" pt_clust_5="108.96613" pt_clust_6="74.40048"></scales>
<clustering>
<clus scale="   40.448">  1  4  2 -1</clus>
<clus scale="   74.400">  2  6  1 -1</clus>
<clus scale="  108.966">  2  5  1 -1</clus>
<clus scale="   40.448">  1  3  2 -1</clus>
</clustering>
</event>
<event>
 6    0  0.4227619E+002  0.1386997E+03  0.7546771E-02  0.1215089E+00
         21   -1    0    0  505  501  0.00000000000E+00  0.00000000000E+00  0.40349957653E+03  0.40349957653E+03  0.00000000000E+00 0. -1.
         21   -1    0    0  503  502 -0.00000000000E+00 -0.00000000000E+00 -0.42906021108E+03  0.42906021108E+03  0.00000000000E+00 0. -1.
         21    1    1    2  503  504  0.17838537962E+02  0.48589405577E+02  0.10441484859E+03  0.11654014063E+03  0.00000000000E+00 0. -1.
         21    1    1    2  504  501  0.21109098471E+02  0.33820024392E+02  0.22483639009E+03  0.22834357971E+03  0.00000000000E+00 0. -1.
         21    1    1    2  505  506 -0.14029826656E+03 -0.14535244302E+03 -0.15370287635E+03  0.25384150663E+03  0.00000000000E+00 0. -1.
         21    1    1    2  506  502  0.10135063013E+03  0.62943013051E+02 -0.20110899688E+03  0.23383456063E+03  0.00000000000E+00 0. -1.
<scales pt_clust_3="76.30014" pt_clust_4="39.86713" pt_clust_5="138.69970" pt_clust_6="14000.00000"></scales>
<clustering>
<clus scale="   39.867">  1  4  2 -1</clus>
<clus scale="   76.300">  1  3  2 -1</clus>
<clus scale="  138.700">  1  5  2 -1</clus>
<clus scale="   39.867">  1  3  2 -1</clus>
</clustering>
</event>
<event>
 6    0  0.4227619E+002  0.8093088E+02  0.7546771E-02  0.1326430E+00
         21   -1    0    0  504  501  0.00000000000E+00  0.00000000000E+00  0.17539002622E+03  0.17539002622E+03  0.00000000000E+00 0. -1.
         21   -1    0    0  506  502 -0.00000000000E+00 -0.00000000000E+00 -0.24558607616E+03  0.24558607616E+03  0.00000000000E+00 0.  1.
         21    1    1    2  503  501  0.68253835715E+02 -0.43996237722E+02  0.10572315082E+03  0.13331031334E+03  0.00000000000E+00 0. -1.
         21    1    1    2  504  505 -0.82064109102E+02  0.18126264181E+02 -0.63015532368E+01  0.84278045950E+02  0.00000000000E+00 0.  1.
         21    1    1    2  505  502 -0.18461702808E+02 -0.36704721300E+02 -0.51536689368E+02  0.65909797354E+02  0.00000000000E+00 0.  1.
         21    1    1    2  506  503  0.32271976195E+02  0.62574694841E+02 -0.11808095816E+03  0.13747794573E+03  0.00000000000E+00 0.  1.
<scales pt_clust_3="80.93088" pt_clust_4="14000.00000" pt_clust_5="41.08614" pt_clust_6="42.31360"></scales>
<clustering>
<clus scale="   41.086">  2  5  1 -1</clus>
<clus scale="   42.314">  2  6  1 -1</clus>
<clus scale="   80.931">  1  3  2 -1</clus>
<clus scale="   80.931">  1  3  2 -1</clus>
</clustering>
</event>
<event>
 6    0  0.4227619E+002  0.7310904E+02  0.7546771E-02  0.1349829E+00
         21   -1    0    0  504  501  0.00000000000E+00  0.00000000000E+00  0.60067793216E+02  0.60067793216E+02  0.00000000000E+00 0. -1.
         21   -1    0    0  506  502 -0.00000000000E+00 -0.00000000000E+00 -0.31714360648E+04  0.31714360648E+04  0.00000000000E+00 0.  1.
         21    1    1    2  503  502 -0.32335608048E+01  0.53468118367E+02 -0.25531616360E+04  0.25537234845E+04  0.00000000000E+00 0.  1.
         21    1    1    2  504  505 -0.29066387820E+02  0.10225035294E+02 -0.26596290694E+01  0.30927008818E+02  0.00000000000E+00 0. -1.
         21    1    1    2  505  503  0.38397284151E+02 -0.11667081562E+03 -0.57658778164E+03  0.58952514839E+03  0.00000000000E+00 0.  1.
         21    1    1    2  506  501 -0.60973355268E+01  0.52977661960E+02  0.21040775146E+02  0.57328216316E+02  0.00000000000E+00 0. -1.
<scales pt_clust_3="53.63924" pt_clust_4="30.81244" pt_clust_5="14000.00000" pt_clust_6="73.10904"></scales>
<clustering>
<clus scale="   30.812">  1  4  2 -1</clus>
<clus scale="   53.639">  2  3  1 -1</clus>
<clus scale="   73.109">  1  6  2 -1</clus>
<clus scale="   30.812">  1  3  2 -1</clus>
</clustering>
</event>
<event>
 6    0  0.4227619E+002  0.1007836E+03  0.7546771E-02  0.1278657E+00
         21   -1    0    0  504  501  0.00000000000E+00  0.00000000000E+00  0.44100022102E+02  0.44100022102E+02  0.00000000000E+00 0.  1.
         21   -1    0    0  505  502 -0.00000000000E+00 -0.00000000000E+00 -0.24010345169E+04  0.24010345169E+04  0.00000000000E+00 0. -1.
         21    1    1    2  503  502  0.61272954634E+02 -0.58060243520E+01 -0.45422984622E+03  0.45838066941E+03  0.00000000000E+00 0.  1.
         21    1    1    2  504  503  0.37972461185E+02  0.28950158024E+02 -0.11795631154E+03  0.12725451226E+03  0.00000000000E+00 0. -1.
         21    1    1    2  505  506  0.19399732208E+02 -0.62059996157E+02 -0.17154736455E+04  0.17167054555E+04  0.00000000000E+00 0. -1.
         21    1    1    2  506  501 -0.11864514803E+03  0.38915862484E+02 -0.69274691575E+02  0.14279390182E+03  0.00000000000E+00 0.  1.
<scales pt_clust_3="63.41539" pt_clust_4="47.74955" pt_clust_5="14000.00000" pt_clust_6="100.78358"></scales>
<clustering>
<clus scale="   47.750">  1  4  2 -1</clus>
<clus scale="   63.415">  2  3  1 -1</clus>
<clus scale="  100.784">  1  6  2 -1</clus>
<clus scale="   47.750">  1  3  2 -1</clus>
</clustering>
</event>
<event>
 6    0  0.4227619E+002  0.1032801E+03  0.7546771E-02  0.1273546E+00
         21   -1    0    0  505  501  0.00000000000E+00  0.00000000000E+00  0.12449412900E+04  0.12449412900E+04  0.00000000000E+00 0.  1.
         21   -1    0    0  503  502 -0.00000000000E+00 -0.00000000000E+00 -0.17666793549E+03  0.17666793549E+03  0.00000000000E+00 0.  1.
         21    1    1    2  503  504 -0.76967279258E+02 -0.63205324108E+01 -0.11038091368E+03  0.13471398336E+03  0.00000000000E+00 0.  1.
         21    1    1    2  504  506  0.92833414054E+02 -0.10052806671E+03  0.97471866454E+02  0.16800208246E+03  0.00000000000E+00 0.  1.
         21    1    1    2  505  502 -0.75121014674E+02  0.54261533630E+01  0.89884853462E+03  0.90199850231E+03  0.00000000000E+00 0.  1.
         21    1    1    2  506  501  0.59254879878E+02  0.10142244576E+03  0.18233386707E+03  0.21689465732E+03  0.00000000000E+00 0.  1.
<scales pt_clust_3="79.85570" pt_clust_4="103.28007" pt_clust_5="75.31673" pt_clust_6="14000.00000"></scales>
<clustering>
<clus scale="   75.317">  1  5  2 -1</clus>
<clus scale="   79.856">  2  3  1 -1</clus>
<clus scale="  103.280">  2  4  1 -1</clus>
<clus scale="   75.317">  1  3  2 -1</clus>
</clustering>
</event>
<event>
 6    0  0.4227619E+002  0.6481532E+02  0.7546771E-02  0.1378668E+00
         21   -1    0    0  506  501  0.00000000000E+00  0.00000000000E+00  0.22737956303E+03  0.22737956303E+03  0.00000000000E+00 0.  1.
         21   -1    0    0  505  502 -0.00000000000E+00 -0.00000000000E+00 -0.39670455969E+03  0.39670455969E+03  0.00000000000E+00 0.  1.
         21    1    1    2  503  504  0.73027027609E+02  0.11570166399E+02  0.36582278127E+02  0.82492900208E+02  0.00000000000E+00 0.  1.
         21    1    1    2  504  502  0.50011462803E+02 -0.24043394486E+02 -0.16006069042E+03  0.16940677627E+03  0.00000000000E+00 0.  1.
         21    1    1    2  505  501 -0.90758834239E+02 -0.37554705775E+01 -0.19691453007E+03  0.21685617747E+03  0.00000000000E+00 0.  1.
         21    1    1    2  506  503 -0.32279656173E+02  0.16228698665E+02  0.15106794570E+03  0.15532826878E+03  0.00000000000E+00 0.  1.
<scales pt_clust_3="53.15241" pt_clust_4="14000.00000" pt_clust_5="64.81532" pt_clust_6="36.12958"></scales>
<clustering>
<clus scale="   36.130">  1  6  2 -1</clus>
<clus scale="   53.152">  1  3  2 -1</clus>
<clus scale="   64.815">  1  5  2 -1</clus>
<clus scale="   36.130">  1  3  2 -1</clus>
</clustering>
</event>
<event>
 6    0  0.4227619E+002  0.8857940E+02  0.7546771E-02  0.1306329E+00
         21   -1    0    0  506  501  0.00000000000E+00  0.00000000000E+00  0.30314687734E+02  0.30314687734E+02  0.00000000000E+00 0. -1.
         21   -1    0    0  505  502 -0.00000000000E+00 -0.00000000000E+00 -0.35301393654E+04  0.35301393654E+04  0.00000000000E+00 0. -1.
         21    1    1    2  503  502  0.52220809249E+02 -0.28972494301E+02 -0.89212763112E+03  0.89412422434E+03  0.00000000000E+00 0.  1.
         21    1    1    2  504  503  0.77017749274E+02 -0.14398400739E+02 -0.20066618698E+03  0.21542044064E+03  0.00000000000E+00 0. -1.
         21    1    1    2  505  501 -0.12226445763E+03 -0.33618417278E+02 -0.23534217654E+04  0.23568353361E+04  0.00000000000E+00 0. -1.
         21    1    1    2  506  504 -0.69741008955E+01  0.76989312318E+02 -0.53609094156E+02  0.94074052059E+02  0.00000000000E+00 0. -1.
<scales pt_clust_3="59.71950" pt_clust_4="14000.00000" pt_clust_5="88.57940" pt_clust_6="76.37717"></scales>
<clustering>
<clus scale="   59.719">  2  3  1 -1</clus>
<clus scale="   76.377">  1  6  2 -1</clus>
<clus scale="   88.579">  2  5  1 -1</clus>
<clus scale="   76.377">  1  3  2 -1</clus>
</clustering>
</event>
<event>
 6    0  0.4227619E+002  0.1022785E+03  0.7546771E-02  0.1275576E+00
         21   -1    0    0  506  501  0.00000000000E+00  0.00000000000E+00  0.59767971849E+03  0.59767971849E+03  0.00000000000E+00 0.  1.
         21   -1    0    0  505  502 -0.00000000000E+00 -0.00000000000E+00 -0.19709586243E+03  0.19709586243E+03  0.00000000000E+00 0. -1.
         21    1    1    2  503  502 -0.11446228108E+02  0.28701577521E+02 -0.20410238016E+02  0.37032074017E+02  0.00000000000E+00 0. -1.
         21    1    1    2  504  503  0.40668502126E+02 -0.23341537469E+02  0.33284776921E+02  0.57503311307E+02  0.00000000000E+00 0. -1.
         21    1    1    2  505  501  0.66494913973E+02 -0.43614224128E+02 -0.14083669644E+03  0.16173666621E+03  0.00000000000E+00 0. -1.
         21    1    1    2  506  504 -0.95717187991E+02  0.38254184075E+02  0.52854601359E+03  0.53850352939E+03  0.00000000000E+00 0.  1.
<scales pt_clust_3="30.89978" pt_clust_4="45.17050" pt_clust_5="102.27849" pt_clust_6="14000.00000"></scales>
<clustering>
<clus scale="   30.900">  2  3  1 -1</clus>
<clus scale="   45.171">  2  4  1 -1</clus>
<clus scale="  102.278">  2  5  1 -1</clus>
<clus scale="  102.278">  1  3  2 -1</clus>
</clustering>
</event>
<event>
 6    0  0.4227619E+002  0.8306756E+02  0.7546771E-02  0.1320565E+00
         21   -1    0    0  504  501  0.00000000000E+00  0.00000000000E+00  0.12637171748E+04  0.12637171748E+04  0.00000000000E+00 0. -1.
         21   -1    0    0  506  502 -0.00000000000E+00 -0.00000000000E+00 -0.27697205005E+03  0.27697205005E+03  0.00000000000E+00 0. -1.
         21    1    1    2  503  505 -0.11858620615E+03  0.84160655794E+02  0.85378857141E+02  0.16862755860E+03  0.00000000000E+00 0. -1.
         21    1    1    2  504  502  0.35669733801E+02  0.21884645417E+02 -0.15203354925E+03  0.15768788068E+03  0.00000000000E+00 0. -1.
         21    1    1    2  505  501  0.73433114359E+02 -0.34069145995E+02  0.11157459431E+04  0.11186787468E+04  0.00000000000E+00 0. -1.
         21    1    1    2  506  503  0.94833579915E+01 -0.71976155215E+02 -0.62346126210E+02  0.95695038804E+02  0.00000000000E+00 0. -1.
<scales pt_clust_3="14000.00000" pt_clust_4="41.84815" pt_clust_5="83.06756" pt_clust_6="66.35525"></scales>
<clustering>
<clus scale="   41.848">  2  4  1 -1</clus>
<clus scale="   66.355">  2  6  1 -1</clus>
<clus scale="   83.068">  1  5  2 -1</clus>
<clus scale="   83.068">  1  3  2 -1</clus>
</clustering>
</event>
<event>
 6    0  0.4227619E+002  0.9136431E+02  0.7546771E-02  0.1299581E+00
         21   -1    0    0  503  501  0.00000000000E+00  0.00000000000E+00  0.31273913648E+03  0.31273913648E+03  0.00000000000E+00 0. -1.
         21   -1    0    0  506  502 -0.00000000000E+00 -0.00000000000E+00 -0.49927800459E+03  0.49927800459E+03  0.00000000000E+00 0.  1.
         21    1    1    2  503  504  0.51978708836E+02 -0.30753548368E+01  0.22136773144E+03  0.22740913900E+03  0.00000000000E+00 0. -1.
         21    1    1    2  504  502 -0.54613109644E+02 -0.98511113681E+01 -0.10388503741E+03  0.11777833900E+03  0.00000000000E+00 0. -1.
         21    1    1    2  505  501 -0.84616790973E+02  0.81935807013E+02  0.24219763703E+02  0.12025005089E+03  0.00000000000E+00 0. -1.
         21    1    1    2  506  505  0.87251191781E+02 -0.69009340808E+02 -0.32824132584E+03  0.34657961217E+03  0.00000000000E+00 0.  1.
<scales pt_clust_3="52.06961" pt_clust_4="51.52444" pt_clust_5="91.36431" pt_clust_6="14000.00000"></scales>
<clustering>
<clus scale="   52.070">  1  3  2 -1</clus>
<clus scale="   51.524">  2  4  1 -1</clus>
<clus scale="   91.364">  1  5  2 -1</clus>
<clus scale="   52.070">  1  3  2 -1</clus>
</clustering>
</event>
<event>
 6    0  0.4227619E+002  0.2951444E+03  0.7546771E-02  0.1087693E+00
         21   -1    0    0  505  501  0.00000000000E+00  0.00000000000E+00  0.32292771967E+03  0.32292771967E+03  0.00000000000E+00 0. -1.
         21   -1    0    0  506  502 -0.00000000000E+00 -0.00000000000E+00 -0.24523895152E+04  0.24523895152E+04  0.00000000000E+00 0. -1.
         21    1    1    2  503  501 -0.30237305713E+03  0.45005682841E+02  0.18233719402E+03  0.35595200448E+03  0.00000000000E+00 0. -1.
         21    1    1    2  504  502 -0.34023393976E+02 -0.26422045444E+02 -0.11290248256E+04  0.11298463491E+04  0.00000000000E+00 0. -1.
         21    1    1    2  505  504  0.17318618455E+03  0.15966520328E+03 -0.34622527761E+03  0.41875813367E+03  0.00000000000E+00 0. -1.
         21    1    1    2  506  503  0.16321026656E+03 -0.17824884068E+03 -0.83654888638E+03  0.87076074763E+03  0.00000000000E+00 0. -1.
<scales pt_clust_3="14000.00000" pt_clust_4="43.07802" pt_clust_5="223.14780" pt_clust_6="295.14440"></scales>
<clustering>
<clus scale="   43.078">  2  4  1 -1</clus>
<clus scale="  223.148">  2  5  1 -1</clus>
<clus scale="  295.144">  2  6  1 -1</clus>
<clus scale="  295.144">  1  3  2 -1</clus>
</clustering>
</event>
<event>
 6    0  0.4227619E+002  0.1883240E+03  0.7546771E-02  0.1159982E+00
         21   -1    0    0  503  501  0.00000000000E+00  0.00000000000E+00  0.36266571287E+03  0.36266571287E+03  0.00000000000E+00 0.  1.
         21   -1    0    0  505  502 -0.00000000000E+00 -0.00000000000E+00 -0.45544129752E+03  0.45544129752E+03  0.00000000000E+00 0. -1.
         21    1    1    2  503  504  0.83361379459E+02 -0.20844084136E+02  0.18767431442E+03  0.20641037697E+03  0.00000000000E+00 0.  1.
         21    1    1    2  504  506  0.43850236166E+02 -0.14128459158E+03  0.93938589370E+02  0.17523880165E+03  0.00000000000E+00 0.  1.
         21    1    1    2  505  501 -0.18986659704E+02  0.25071922328E+02 -0.11058120248E+02  0.33337314819E+02  0.00000000000E+00 0.  1.
         21    1    1    2  506  502 -0.10822495592E+03  0.13705675339E+03 -0.36333036819E+03  0.40312051694E+03  0.00000000000E+00 0. -1.
<scales pt_clust_3="85.39912" pt_clust_4="188.32397" pt_clust_5="31.44987" pt_clust_6="14000.00000"></scales>
<clustering>
<clus scale="   31.450">  2  5  1 -1</clus>
<clus scale="   85.399">  1  3  2 -1</clus>
<clus scale="  188.324">  1  4  2 -1</clus>
<clus scale="   85.399">  1  3  2 -1</clus>
</clustering>
</event>
<event>
 6    0  0.4227619E+002  0.1304137E+03  0.7546771E-02  0.1226843E+00
         21   -1    0    0  506  501  0.00000000000E+00  0.00000000000E+00  0.13416144072E+03  0.13416144072E+03  0.00000000000E+00 0. -1.
         21   -1    0    0  503  502 -0.00000000000E+00 -0.00000000000E+00 -0.49724507272E+03  0.49724507272E+03  0.00000000000E+00 0. -1.
         21    1    1    2  503  505  0.70424644087E+02  0.11685710160E+03  0.28088906413E+02  0.13929895676E+03  0.00000000000E+00 0. -1.
         21    1    1    2  504  502 -0.44415339758E+02 -0.59269443081E+02 -0.31302370317E+03  0.32166664116E+03  0.00000000000E+00 0. -1.
         21    1    1    2  505  501  0.21577385457E+02 -0.47293767731E+02  0.24019767686E+02  0.57264590010E+02  0.00000000000E+00 0. -1.
         21    1    1    2  506  504 -0.47586689787E+02 -0.10293890791E+02 -0.10216860293E+03  0.11317632551E+03  0.00000000000E+00 0. -1.
<scales pt_clust_3="116.65084" pt_clust_4="47.27835" pt_clust_5="51.98350" pt_clust_6="47.27835"></scales>
<clustering>
<clus scale="   47.278">  4  6 -1 -1</clus>
<clus scale="   51.983">  1  5  2 -1</clus>
<clus scale="  116.651">  1  3  2 -1</clus>
<clus scale="   51.983">  1  3  2 -1</clus>
</clustering>
</event>
<event>
 6    0  0.4227619E+002  0.1401380E+03  0.7546771E-02  0.1213143E+00
         21   -1    0    0  503  501  0.00000000000E+00  0.00000000000E+00  0.61269175635E+03  0.61269175635E+03  0.00000000000E+00 0.  1.
         21   -1    0    0  505  502 -0.00000000000E+00 -0.00000000000E+00 -0.81022473517E+02  0.81022473517E+02  0.00000000000E+00 0.  1.
         21    1    1    2  503  502 -0.16711553830E+03 -0.18950902456E+01  0.28964828418E+03  0.33440592554E+03  0.00000000000E+00 0.  1.
         21    1    1    2  504  501  0.38945298792E+02  0.40352071806E+02  0.17161291193E+03  0.18054367211E+03  0.00000000000E+00 0.  1.
         21    1    1    2  505  506 -0.14135406803E+01 -0.34610769554E+02  0.13354616692E+02  0.37124779506E+02  0.00000000000E+00 0.  1.
         21    1    1    2  506  504  0.12958378018E+03 -0.38462120065E+01  0.57053470026E+02  0.14163985271E+03  0.00000000000E+00 0.  1.
<scales pt_clust_3="140.13796" pt_clust_4="54.42898" pt_clust_5="34.63962" pt_clust_6="14000.00000"></scales>
<clustering>
<clus scale="   34.640">  2  5  1 -1</clus>
<clus scale="   54.429">  1  4  2 -1</clus>
<clus scale="  140.138">  1  3  2 -1</clus>
<clus scale="   54.429">  1  3  2 -1</clus>
</clustering>
</event>
<event>
 6    0  0.4227619E+002  0.1382896E+03  0.7546771E-02  0.1215649E+00
         21   -1    0    0  504  501  0.00000000000E+00  0.00000000000E+00  0.36495303854E+03  0.36495303854E+03  0.00000000000E+00 0. -1.
         21   -1    0    0  506  502 -0.00000000000E+00 -0.00000000000E+00 -0.30342162510E+03  0.30342162510E+03  0.00000000000E+00 0. -1.
         21    1    1    2  503  505  0.11002203427E+03  0.39847172500E+02  0.11907634415E+03  0.16694855769E+03  0.00000000000E+00 0. -1.
         21    1    1    2  504  502 -0.41128204284E+02  0.36149615340E+01 -0.15298729578E+03  0.15846043609E+03  0.00000000000E+00 0. -1.
         21    1    1    2  505  501  0.25597027503E+02  0.35810087393E+02  0.18524135975E+03  0.19039940005E+03  0.00000000000E+00 0. -1.
         21    1    1    2  506  503 -0.94490857486E+02 -0.79272221428E+02 -0.89798994672E+02  0.15256626981E+03  0.00000000000E+00 0.  1.
<scales pt_clust_3="138.28956" pt_clust_4="41.28677" pt_clust_5="43.65599" pt_clust_6="14000.00000"></scales>
<clustering>
<clus scale="   41.287">  2  4  1 -1</clus>
<clus scale="   43.656">  1  5  2 -1</clus>
<clus scale="  138.290">  1  3  2 -1</clus>
<clus scale="   43.656">  1  3  2 -1</clus>
</clustering>
</event>
<event>
 6    0  0.4227619E+002  0.7113549E+02  0.7546771E-02  0.1356274E+00
         21   -1    0    0  505  501  0.00000000000E+00  0.00000000000E+00  0.93725112623E+02  0.93725112623E+02  0.00000000000E+00 0. -1.
         21   -1    0    0  506  502 -0.00000000000E+00 -0.00000000000E+00 -0.20694468218E+04  0.20694468218E+04  0.00000000000E+00 0. -1.
         21    1    1    2  503  504  0.38665996574E+02 -0.63108207006E+02 -0.77959702297E+03  0.78310230704E+03  0.00000000000E+00 0. -1.
         21    1    1    2  504  502 -0.49067216547E+02 -0.27519579009E+01 -0.97441358735E+03  0.97565209180E+03  0.00000000000E+00 0. -1.
         21    1    1    2  505  503 -0.33432619642E+02 -0.25675676986E+02  0.77631469947E+02  0.88338132032E+02  0.00000000000E+00 0. -1.
         21    1    1    2  506  501  0.43833839616E+02  0.91535841894E+02 -0.29934256876E+03  0.31607940350E+03  0.00000000000E+00 0. -1.
<scales pt_clust_3="14000.00000" pt_clust_4="51.17017" pt_clust_5="42.15425" pt_clust_6="71.13549"></scales>
<clustering>
<clus scale="   42.154">  1  5  2 -1</clus>
<clus scale="   51.170">  2  4  1 -1</clus>
<clus scale="   71.135">  1  6  2 -1</clus>
<clus scale="   42.154">  1  3  2 -1</clus>
</clustering>
</event>
<event>
 6    0  0.4227619E+002  0.9919778E+02  0.7546771E-02  0.1281992E+00
         21   -1    0    0  503  501  0.00000000000E+00  0.00000000000E+00  0.11771191389E+04  0.11771191389E+04  0.00000000000E+00 0. -1.
         21   -1    0    0  504  502 -0.00000000000E+00 -0.00000000000E+00 -0.24578076365E+03  0.24578076365E+03  0.00000000000E+00 0. -1.
         21    1    1    2  503  502  0.60440321405E+01  0.34152244697E+02  0.20956921517E+03  0.21241977801E+03  0.00000000000E+00 0. -1.
         21    1    1    2  504  505  0.85716239241E+02  0.46499416809E+02 -0.20965916211E+03  0.23122809884E+03  0.00000000000E+00 0. -1.
         21    1    1    2  505  506 -0.11716264831E+03 -0.48025981462E+02  0.14817786552E+03  0.19491090500E+03  0.00000000000E+00 0. -1.
         21    1    1    2  506  501  0.25402376931E+02 -0.32625680045E+02  0.78325045671E+03  0.78434112074E+03  0.00000000000E+00 0. -1.
<scales pt_clust_3="34.68294" pt_clust_4="99.19778" pt_clust_5="14000.00000" pt_clust_6="30.70233"></scales>
<clustering>
<clus scale="   34.683">  1  3  2 -1</clus>
<clus scale="   30.702">  1  6  2 -1</clus>
<clus scale="   99.198">  2  4  1 -1</clus>
<clus scale="   34.683">  1  3  2 -1</clus>
</clustering>
</event>
<event>
 6    0  0.4227619E+002  0.7809624E+02  0.7546771E-02  0.1334543E+00
         21   -1    0    0  505  501  0.00000000000E+00  0.00000000000E+00  0.42810898920E+02  0.42810898920E+02  0.00000000000E+00 0. -1.
         21   -1    0    0  506  502 -0.00000000000E+00 -0.00000000000E+00 -0.10472017273E+04  0.10472017273E+04  0.00000000000E+00 0.  1.
         21    1    1    2  503  501  0.23578664081E+02 -0.77199431175E+02 -0.29341240389E+02  0.85887216518E+02  0.00000000000E+00 0. -1.
         21    1    1    2  504  502 -0.39228799497E+02 -0.45003269285E+02 -0.20921805441E+03  0.21756927000E+03  0.00000000000E+00 0.  1.
         21    1    1    2  505  504 -0.57605625385E+02  0.46788562267E+02 -0.32234194904E+03  0.33077471146E+03  0.00000000000E+00 0.  1.
         21    1    1    2  506  503  0.73255760802E+02  0.75414138194E+02 -0.44348958457E+03  0.45578142826E+03  0.00000000000E+00 0.  1.
<scales pt_clust_3="14000.00000" pt_clust_4="59.70086" pt_clust_5="78.09624" pt_clust_6="73.00999"></scales>
<clustering>
<clus scale="   59.701">  2  4  1 -1</clus>
<clus scale="   73.010">  2  6  1 -1</clus>
<clus scale="   78.096">  2  5  1 -1</clus>
<clus scale="   78.096">  1  3  2 -1</clus>
</clustering>
</event>
<event>
 6    0  0.4227619E+002  0.6957110E+02  0.7546771E-02  0.1361558E+00
         21   -1    0    0  504  501  0.00000000000E+00  0.00000000000E+00  0.48100635114E+03  0.48100635114E+03  0.00000000000E+00 0. -1.
         21   -1    0    0  503  502 -0.00000000000E+00 -0.00000000000E+00 -0.69581078782E+03  0.69581078782E+03  0.00000000000E+00 0.  1.
         21    1    1    2  503  501 -0.48074637550E+02 -0.10299815984E+03 -0.53892295100E+01  0.11379295014E+03  0.00000000000E+00 0. -1.
         21    1    1    2  504  505  0.40518453755E+02 -0.11609599961E+02  0.31663113061E+03  0.31942417062E+03  0.00000000000E+00 0. -1.
         21    1    1    2  505  506 -0.16805206617E+02  0.51036283945E+02  0.10018209641E+03  0.11368187934E+03  0.00000000000E+00 0. -1.
         21    1    1    2  506  502  0.24361390412E+02  0.63571475860E+02 -0.62622843419E+03  0.62991813887E+03  0.00000000000E+00 0.  1.
<scales pt_clust_3="14000.00000" pt_clust_4="42.14888" pt_clust_5="44.50680" pt_clust_6="69.57110"></scales>
<clustering>
<clus scale="   42.149">  1  4  2 -1</clus>
<clus scale="   44.507">  1  5  2 -1</clus>
<clus scale="   69.571">  2  6  1 -1</clus>
<clus scale="   42.149">  1  3  2 -1</clus>
</clustering>
</event>
<event>
 6    0  0.4227619E+002  0.1065863E+03  0.7546771E-02  0.1267025E+00
         21   -1    0    0  505  501  0.00000000000E+00  0.00000000000E+00  0.61010390183E+03  0.61010390183E+03  0.00000000000E+00 0.  1.
         21   -1    0    0  504  502 -0.00000000000E+00 -0.00000000000E+00 -0.55609619358E+03  0.55609619358E+03  0.00000000000E+00 0. -1.
         21    1    1    2  503  502  0.10261304155E+03  0.37579009036E+02 -0.49799894268E+03  0.50984759010E+03  0.00000000000E+00 0. -1.
         21    1    1    2  504  506 -0.89807069802E+02  0.68850320370E+02  0.62116313474E+02  0.12908955342E+03  0.00000000000E+00 0. -1.
         21    1    1    2  505  503 -0.39980154180E+02 -0.78761211243E+02  0.47886821615E+03  0.48694610540E+03  0.00000000000E+00 0.  1.
         21    1    1    2  506  501  0.27174182431E+02 -0.27668118163E+02  0.11022121312E+02  0.40316846500E+02  0.00000000000E+00 0. -1.
<scales pt_clust_3="106.58626" pt_clust_4="14000.00000" pt_clust_5="103.12317" pt_clust_6="38.78094"></scales>
<clustering>
<clus scale="   38.781">  1  6  2 -1</clus>
<clus scale="  103.123">  1  5  2 -1</clus>
<clus scale="  106.586">  2  3  1 -1</clus>
<clus scale="   38.781">  1  3  2 -1</clus>
</clustering>
</event>
<event>
 6    0  0.4227619E+002  0.8614297E+02  0.7546771E-02  0.1312470E+00
         21   -1    0    0  506  501  0.00000000000E+00  0.00000000000E+00  0.26625957115E+03  0.26625957115E+03  0.00000000000E+00 0. -1.
         21   -1    0    0  503  502 -0.00000000000E+00 -0.00000000000E+00 -0.26183644500E+03  0.26183644500E+03  0.00000000000E+00 0. -1.
         21    1    1    2  503  504  0.82363935393E+02  0.39951412899E+02 -0.15794219518E+03  0.18255319845E+03  0.00000000000E+00 0. -1.
         21    1    1    2  504  505 -0.88247052607E+02  0.83347318202E+02  0.23649400099E+02  0.12366734359E+03  0.00000000000E+00 0. -1.
         21    1    1    2  505  501  0.97100029671E+01 -0.60596021815E+02  0.14625185194E+03  0.15860569414E+03  0.00000000000E+00 0. -1.
         21    1    1    2  506  502 -0.38268857530E+01 -0.62702709286E+02 -0.75359307168E+01  0.63269779976E+02  0.00000000000E+00 0. -1.
<scales pt_clust_3="14000.00000" pt_clust_4="86.14297" pt_clust_5="61.36906" pt_clust_6="77.55078"></scales>
<clustering>
<clus scale="   61.369">  1  5  2 -1</clus>
<clus scale="   77.551">  1  6  2 -1</clus>
<clus scale="   86.143">  1  4  2 -1</clus>
<clus scale="   61.369">  1  3  2 -1</clus>
</clustering>
</event>
<event>
 6    0  0.4227619E+002  0.1513851E+03  0.7546771E-02  0.1198781E+00
         21   -1    0    0  502  501  0.00000000000E+00  0.00000000000E+00  0.16427082396E+04  0.16427082396E+04  0.00000000000E+00 0. -1.
         21   -1    0    0  506  502 -0.00000000000E+00 -0.00000000000E+00 -0.14748857146E+03  0.14748857146E+03  0.00000000000E+00 0.  1.
         21    1    1    2  503  501  0.35100712119E+02  0.32238100621E+02  0.30493623616E+03  0.30863807809E+03  0.00000000000E+00 0. -1.
         21    1    1    2  504  505  0.18024604293E+03 -0.35267783660E+02 -0.27178333624E+02  0.18566398243E+03  0.00000000000E+00 0.  1.
         21    1    1    2  505  503 -0.17738546270E+03  0.70127757963E+01  0.12392792727E+04  0.12519296694E+04  0.00000000000E+00 0. -1.
         21    1    1    2  506  504 -0.37961292346E+02 -0.39830927568E+01 -0.21817507079E+02  0.43965081139E+02  0.00000000000E+00 0.  1.
<scales pt_clust_3="47.16508" pt_clust_4="151.38507" pt_clust_5="14000.00000" pt_clust_6="38.16968"></scales>
<clustering>
<clus scale="   38.170">  2  6  1 -1</clus>
<clus scale="   47.165">  1  3  2 -1</clus>
<clus scale="  151.385">  2  4  1 -1</clus>
<clus scale="   47.165">  1  3  2 -1</clus>
</clustering>
</event>
<event>
 6    0  0.4227619E+002  0.6499077E+02  0.7546771E-02  0.1378006E+00
         21   -1    0    0  504  501  0.00000000000E+00  0.00000000000E+00  0.56979962260E+03  0.56979962260E+03  0.00000000000E+00 0. -1.
         21   -1    0    0  506  502 -0.00000000000E+00 -0.00000000000E+00 -0.25145761646E+04  0.25145761646E+04  0.00000000000E+00 0. -1.
         21    1    1    2  503  505  0.92811986203E+02 -0.33561268153E+01 -0.10354380040E+04  0.10395947232E+04  0.00000000000E+00 0. -1.
         21    1    1    2  504  503 -0.40933384946E+02  0.68614137243E+02  0.48157816524E+03  0.48816080452E+03  0.00000000000E+00 0. -1.
         21    1    1    2  505  502 -0.29404170643E+02 -0.92893357244E+01 -0.14626081869E+04  0.14629332197E+04  0.00000000000E+00 0. -1.
         21    1    1    2  506  501 -0.22474430613E+02 -0.55968674703E+02  0.71691483681E+02  0.93687039722E+02  0.00000000000E+00 0.  1.
<scales pt_clust_3="64.99077" pt_clust_4="14000.00000" pt_clust_5="30.83662" pt_clust_6="60.51767"></scales>
<clustering>
<clus scale="   30.837">  2  5  1 -1</clus>
<clus scale="   60.518">  1  6  2 -1</clus>
<clus scale="   64.991">  2  3  1 -1</clus>
<clus scale="   60.518">  1  3  2 -1</clus>
</clustering>
</event>
<event>
 6    0  0.4227619E+002  0.1281580E+03  0.7546771E-02  0.1230215E+00
         21   -1    0    0  503  501  0.00000000000E+00  0.00000000000E+00  0.80840488589E+03  0.80840488589E+03  0.00000000000E+00 0.  1.
         21   -1    0    0  505  502 -0.00000000000E+00 -0.00000000000E+00 -0.39901629212E+02  0.39901629212E+02  0.00000000000E+00 0.  1.
         21    1    1    2  503  502 -0.28971793782E+02  0.11758510922E+03  0.32335089085E+03  0.34528455129E+03  0.00000000000E+00 0.  1.
         21    1    1    2  504  506  0.10160817333E+02 -0.52632419673E+02  0.63479964440E+02  0.83085014863E+02  0.00000000000E+00 0.  1.
         21    1    1    2  505  504 -0.49811300263E+02 -0.60150190771E+02  0.85155197297E+02  0.11554487747E+03  0.00000000000E+00 0.  1.
         21    1    1    2  506  501  0.68622276713E+02 -0.48024987747E+01  0.29651720409E+03  0.30439207147E+03  0.00000000000E+00 0.  1.
<scales pt_clust_3="115.56441" pt_clust_4="45.89908" pt_clust_5="45.89908" pt_clust_6="68.79012"></scales>
<clustering>
<clus scale="   45.899">  4  5 -1 -1</clus>
<clus scale="   68.790">  1  6  2 -1</clus>
<clus scale="  115.564">  1  3  2 -1</clus>
<clus scale="   68.790">  1  3  2 -1</clus>
</clustering>
</event>
<event>
 6    0  0.4227619E+002  0.1037979E+03  0.7546771E-02  0.1272506E+00
         21   -1    0    0  503  501  0.00000000000E+00  0.00000000000E+00  0.12311616089E+03  0.12311616089E+03  0.00000000000E+00 0. -1.
         21   -1    0    0  505  502 -0.00000000000E+00 -0.00000000000E+00 -0.29534095155E+03  0.29534095155E+03  0.00000000000E+00 0. -1.
         21    1    1    2  503  506 -0.21298241861E+02 -0.56878085425E+02  0.40303848479E+02  0.72891233425E+02  0.00000000000E+00 0.  1.
         21    1    1    2  504  501  0.67087815859E+02  0.77230345607E+01 -0.70589874902E+01  0.67898818870E+02  0.00000000000E+00 0. -1.
         21    1    1    2  505  504  0.51625739651E+01  0.83916902032E+02 -0.19852798457E+03  0.21559698345E+03  0.00000000000E+00 0. -1.
         21    1    1    2  506  502 -0.50952147962E+02 -0.34761851168E+02 -0.69416670793E+01  0.62070076691E+02  0.00000000000E+00 0. -1.
<scales pt_clust_3="58.56714" pt_clust_4="67.53088" pt_clust_5="85.38426" pt_clust_6="58.56714"></scales>
<clustering>
<clus scale="   58.567">  3  6 -1 -1</clus>
<clus scale="   67.531">  1  4  2 -1</clus>
<clus scale="   85.384">  2  5  1 -1</clus>
<clus scale="   67.531">  1  3  2 -1</clus>
</clustering>
</event>
<event>
 6    0  0.4227619E+002  0.1035126E+03  0.7546771E-02  0.1273078E+00
         21   -1    0    0  504  501  0.00000000000E+00  0.00000000000E+00  0.83346767578E+02  0.83346767578E+02  0.00000000000E+00 0.  1.
         21   -1    0    0  505  502 -0.00000000000E+00 -0.00000000000E+00 -0.10933728687E+04  0.10933728687E+04  0.00000000000E+00 0.  1.
         21    1    1    2  503  506 -0.88713119679E+02  0.34778209998E+02 -0.12379633504E+03  0.15622123436E+03  0.00000000000E+00 0.  1.
         21    1    1    2  504  503 -0.18550337152E+01  0.36865265570E+02  0.57036226852E+02  0.67938355361E+02  0.00000000000E+00 0.  1.
         21    1    1    2  505  501  0.77445213470E+01 -0.43721826602E+02 -0.26656149139E+03  0.27023435093E+03  0.00000000000E+00 0.  1.
         21    1    1    2  506  502  0.82823632047E+02 -0.27921648966E+02 -0.67670450155E+03  0.68232569563E+03  0.00000000000E+00 0.  1.
<scales pt_clust_3="103.51265" pt_clust_4="36.91191" pt_clust_5="41.18014" pt_clust_6="14000.00000"></scales>
<clustering>
<clus scale="   36.912">  1  4  2 -1</clus>
<clus scale="   41.180">  2  5  1 -1</clus>
<clus scale="  103.513">  1  3  2 -1</clus>
<clus scale="   36.912">  1  3  2 -1</clus>
</clustering>
</event>
<event>
 6    0  0.4227619E+002  0.8691223E+02  0.7546771E-02  0.1310506E+00
         21   -1    0    0  504  501  0.00000000000E+00  0.00000000000E+00  0.81957703734E+03  0.81957703734E+03  0.00000000000E+00 0.  1.
         21   -1    0    0  503  502 -0.00000000000E+00 -0.00000000000E+00 -0.60213346876E+02  0.60213346876E+02  0.00000000000E+00 0.  1.
         21    1    1    2  503  506 -0.10009667955E+03  0.53337111576E+01  0.16760599096E+02  0.10163026820E+03  0.00000000000E+00 0.  1.
         21    1    1    2  504  505  0.40832574428E+02  0.28086298053E+01  0.14085075924E+03  0.14667693722E+03  0.00000000000E+00 0.  1.
         21    1    1    2  505  502  0.50716059042E+02  0.65019661923E+02  0.12952888706E+03  0.15354936556E+03  0.00000000000E+00 0.  1.
         21    1    1    2  506  501  0.85480460789E+01 -0.73162002886E+02  0.47222344507E+03  0.47793381323E+03  0.00000000000E+00 0.  1.
<scales pt_clust_3="86.91223" pt_clust_4="40.92905" pt_clust_5="14000.00000" pt_clust_6="80.34554"></scales>
<clustering>
<clus scale="   40.929">  1  4  2 -1</clus>
<clus scale="   80.346">  1  6  2 -1</clus>
<clus scale="   86.912">  2  3  1 -1</clus>
<clus scale="   40.929">  1  3  2 -1</clus>
</clustering>
</event>
<event>
 6    0  0.4227619E+002  0.8881687E+02  0.7546771E-02  0.1305742E+00
         21   -1    0    0  504  501  0.00000000000E+00  0.00000000000E+00  0.54581529846E+02  0.54581529846E+02  0.00000000000E+00 0.  1.
         21   -1    0    0  506  502 -0.00000000000E+00 -0.00000000000E+00 -0.68965149715E+03  0.68965149715E+03  0.00000000000E+00 0.  1.
         21    1    1    2  503  501 -0.14883366485E+02  0.55962224325E+02 -0.33803489568E+02  0.67051928057E+02  0.00000000000E+00 0.  1.
         21    1    1    2  504  502 -0.21048153433E+02 -0.82959436716E+02 -0.24070433400E+03  0.25546794184E+03  0.00000000000E+00 0.  1.
         21    1    1    2  505  503  0.68075431264E+02  0.36334894980E+02 -0.20276083188E+02  0.79784763486E+02  0.00000000000E+00 0.  1.
         21    1    1    2  506  505 -0.32143911347E+02 -0.93376825884E+01 -0.34028606055E+03  0.34192839361E+03  0.00000000000E+00 0.  1.
<scales pt_clust_3="57.99969" pt_clust_4="14000.00000" pt_clust_5="88.81687" pt_clust_6="33.47273"></scales>
<clustering>
<clus scale="   33.473">  2  6  1 -1</clus>
<clus scale="   58.000">  1  3  2 -1</clus>
<clus scale="   88.817">  1  5  2 -1</clus>
<clus scale="   58.000">  1  3  2 -1</clus>
</clustering>
</event>
<event>
 6    0  0.4227619E+002  0.1059572E+03  0.7546771E-02  0.1268245E+00
         21   -1    0    0  503  501  0.00000000000E+00  0.00000000000E+00  0.83917709033E+02  0.83917709033E+02  0.00000000000E+00 0. -1.
         21   -1    0    0  505  502 -0.00000000000E+00 -0.00000000000E+00 -0.95894722566E+03  0.95894722566E+03  0.00000000000E+00 0. -1.
         21    1    1    2  503  504 -0.80983003437E+01 -0.44268604124E+02  0.29428699980E+02  0.53771183380E+02  0.00000000000E+00 0. -1.
         21    1    1    2  504  506  0.10160408615E+03  0.11178225610E+02 -0.64139828675E+02  0.12067419224E+03  0.00000000000E+00 0. -1.
         21    1    1    2  505  501  0.50675791789E+02  0.36802545602E+02 -0.40541623513E+03  0.41022528803E+03  0.00000000000E+00 0. -1.
         21    1    1    2  506  502 -0.14418157759E+03 -0.37121670875E+01 -0.43490215280E+03  0.45819427104E+03  0.00000000000E+00 0. -1.
<scales pt_clust_3="45.00324" pt_clust_4="105.95719" pt_clust_5="60.80477" pt_clust_6="14000.00000"></scales>
<clustering>
<clus scale="   45.003">  1  3  2 -1</clus>
<clus scale="   60.805">  2  5  1 -1</clus>
<clus scale="  105.957">  1  4  2 -1</clus>
<clus scale="   45.003">  1  3  2 -1</clus>
</clustering>
</event>
<event>
 6    0  0.4227619E+002  0.1089574E+03  0.7546771E-02  0.1262513E+00
         21   -1    0    0  503  501  0.00000000000E+00  0.00000000000E+00  0.88720554270E+03  0.88720554270E+03  0.00000000000E+00 0.  1.
         21   -1    0    0  506  502 -0.00000000000E+00 -0.00000000000E+00 -0.51886629139E+02  0.51886629139E+02  0.00000000000E+00 0.  1.
         21    1    1    2  503  502  0.75281201753E+02  0.51838117803E+02  0.25207343568E+03  0.26813330038E+03  0.00000000000E+00 0.  1.
         21    1    1    2  504  501  0.56053821400E+02  0.38304033972E+01  0.45873533659E+03  0.46216318754E+03  0.00000000000E+00 0.  1.
         21    1    1    2  505  504 -0.77921430791E+02 -0.46519254592E+02  0.22834424386E+02  0.93579919648E+02  0.00000000000E+00 0.  1.
         21    1    1    2  506  505 -0.53413592362E+02 -0.91492666084E+01  0.10167571690E+03  0.11521576427E+03  0.00000000000E+00 0.  1.
<scales pt_clust_3="14000.00000" pt_clust_4="54.13685" pt_clust_5="108.95742" pt_clust_6="54.19152"></scales>
<clustering>
<clus scale="   54.192">  2  6  1 -1</clus>
<clus scale="   54.137">  1  4  2 -1</clus>
<clus scale="  108.957">  2  5  1 -1</clus>
<clus scale="   54.137">  1  3  2 -1</clus>
</clustering>
</event>
<event>
 6    0  0.4227619E+002  0.1660276E+03  0.7546771E-02  0.1182055E+00
         21   -1    0    0  506  501  0.00000000000E+00  0.00000000000E+00  0.88075527963E+03  0.88075527963E+03  0.00000000000E+00 0. -1.
         21   -1    0    0  505  502 -0.00000000000E+00 -0.00000000000E+00 -0.93458891117E+02  0.93458891117E+02  0.00000000000E+00 0. -1.
         21    1    1    2  503  502 -0.34258543207E-01 -0.36952367728E+02 -0.44561951812E+02  0.57889949073E+02  0.00000000000E+00 0. -1.
         21    1    1    2  504  501 -0.63259525588E+01  0.89935132245E+02  0.30199308468E+03  0.31516371759E+03  0.00000000000E+00 0. -1.
         21    1    1    2  505  504 -0.48978247712E+02  0.60998499245E+02  0.43730815338E+03  0.44425004971E+03  0.00000000000E+00 0. -1.
         21    1    1    2  506  503  0.55338458814E+02 -0.11398126376E+03  0.92557102273E+02  0.15691045438E+03  0.00000000000E+00 0. -1.
<scales pt_clust_3="36.95238" pt_clust_4="62.19979" pt_clust_5="62.19979" pt_clust_6="152.51801"></scales>
<clustering>
<clus scale="   36.952">  2  3  1 -1</clus>
<clus scale="   62.200">  4  5 -1 -1</clus>
<clus scale="  152.518">  2  6  1 -1</clus>
<clus scale="  166.028">  1  3  2 -1</clus>
</clustering>
</event>
<event>
 6    0  0.4227619E+002  0.1463127E+03  0.7546771E-02  0.1205079E+00
         21   -1    0    0  503  501  0.00000000000E+00  0.00000000000E+00  0.75413474559E+02  0.75413474559E+02  0.00000000000E+00 0. -1.
         21   -1    0    0  504  502 -0.00000000000E+00 -0.00000000000E+00 -0.59662312918E+03  0.59662312918E+03  0.00000000000E+00 0. -1.
         21    1    1    2  503  502  0.12196850394E+03 -0.22699776549E+02 -0.25514641713E+03  0.28370986938E+03  0.00000000000E+00 0. -1.
         21    1    1    2  504  505  0.16174516054E+02  0.26717142088E+02 -0.68727122350E+02  0.75490648410E+02  0.00000000000E+00 0. -1.
         21    1    1    2  505  506 -0.18552609802E+03 -0.17482489823E+02 -0.18382420893E+03  0.26175735002E+03  0.00000000000E+00 0. -1.
         21    1    1    2  506  501  0.47383078029E+02  0.13465124284E+02 -0.13511906208E+02  0.51078735936E+02  0.00000000000E+00 0. -1.
<scales pt_clust_3="146.31272" pt_clust_4="31.23173" pt_clust_5="14000.00000" pt_clust_6="50.68374"></scales>
<clustering>
<clus scale="   31.232">  2  4  1 -1</clus>
<clus scale="   50.684">  1  6  2 -1</clus>
<clus scale="  146.313">  2  3  1 -1</clus>
<clus scale="   50.684">  1  3  2 -1</clus>
</clustering>
</event>
<event>
 6    0  0.4227619E+002  0.1008732E+03  0.7546771E-02  0.1278470E+00
         21   -1    0    0  503  501  0.00000000000E+00  0.00000000000E+00  0.57601877279E+03  0.57601877279E+03  0.00000000000E+00 0.  1.
         21   -1    0    0  505  502 -0.00000000000E+00 -0.00000000000E+00 -0.24410138507E+04  0.24410138507E+04  0.00000000000E+00 0. -1.
         21    1    1    2  503  506 -0.10083268309E+03  0.19236618420E+02  0.53446633354E+03  0.54423481987E+03  0.00000000000E+00 0.  1.
         21    1    1    2  504  502  0.20355093472E+02 -0.34762112093E+02 -0.22588789441E+04  0.22592381057E+04  0.00000000000E+00 0. -1.
         21    1    1    2  505  501  0.38355297580E+02  0.50135479971E+02 -0.37443119081E+00  0.63125552695E+02  0.00000000000E+00 0. -1.
         21    1    1    2  506  504  0.42122292041E+02 -0.34609986298E+02 -0.14020803615E+03  0.15043414519E+03  0.00000000000E+00 0.  1.
<scales pt_clust_3="100.87322" pt_clust_4="40.28318" pt_clust_5="60.81404" pt_clust_6="14000.00000"></scales>
<clustering>
<clus scale="   40.283">  2  4  1 -1</clus>
<clus scale="   60.814">  2  5  1 -1</clus>
<clus scale="  100.873">  1  3  2 -1</clus>
<clus scale="  100.873">  1  3  2 -1</clus>
</clustering>
</event>
<event>
 6    0  0.4227619E+002  0.8151034E+02  0.7546771E-02  0.1324819E+00
         21   -1    0    0  506  501  0.00000000000E+00  0.00000000000E+00  0.10446484709E+04  0.10446484709E+04  0.00000000000E+00 0.  1.
         21   -1    0    0  505  502 -0.00000000000E+00 -0.00000000000E+00 -0.48248677297E+03  0.48248677297E+03  0.00000000000E+00 0. -1.
         21    1    1    2  503  502 -0.12175081788E+03  0.20901796454E+02 -0.68977937338E+02  0.14148534407E+03  0.00000000000E+00 0. -1.
         21    1    1    2  504  501  0.34784413165E+02  0.28206557217E+02 -0.32538245877E+03  0.32844985880E+03  0.00000000000E+00 0. -1.
         21    1    1    2  505  504  0.42412221116E+02  0.81275298360E+01 -0.39509591967E+02  0.58530855953E+02  0.00000000000E+00 0.  1.
         21    1    1    2  506  503  0.44554183595E+02 -0.57235883507E+02  0.99603168603E+03  0.99866918508E+03  0.00000000000E+00 0.  1.
<scales pt_clust_3="14000.00000" pt_clust_4="81.51034" pt_clust_5="43.18395" pt_clust_6="72.59274"></scales>
<clustering>
<clus scale="   43.184">  2  5  1 -1</clus>
<clus scale="   72.593">  1  6  2 -1</clus>
<clus scale="   81.510">  2  4  1 -1</clus>
<clus scale="   72.593">  1  3  2 -1</clus>
</clustering>
</event>
<event>
 6    0  0.4227619E+002  0.8585796E+02  0.7546771E-02  0.1313204E+00
         21   -1    0    0  503  501  0.00000000000E+00  0.00000000000E+00  0.27047560418E+03  0.27047560418E+03  0.00000000000E+00 0. -1.
         21   -1    0    0  505  502 -0.00000000000E+00 -0.00000000000E+00 -0.49498077786E+03  0.49498077786E+03  0.00000000000E+00 0.  1.
         21    1    1    2  503  504 -0.51038435290E+02  0.13430291251E+02  0.14171370808E+03  0.15122192188E+03  0.00000000000E+00 0. -1.
         21    1    1    2  504  502  0.30309133531E+02  0.79053058256E+02 -0.43607230953E+03  0.44421513789E+03  0.00000000000E+00 0.  1.
         21    1    1    2  505  506 -0.46663111081E+01 -0.11122721178E+03  0.23240356694E+02  0.11372502486E+03  0.00000000000E+00 0. -1.
         21    1    1    2  506  501  0.25395612867E+02  0.18743862276E+02  0.46613071072E+02  0.56294297408E+02  0.00000000000E+00 0. -1.
<scales pt_clust_3="42.82471" pt_clust_4="85.85796" pt_clust_5="14000.00000" pt_clust_6="31.56374"></scales>
<clustering>
<clus scale="   31.564">  1  6  2 -1</clus>
<clus scale="   42.825">  1  3  2 -1</clus>
<clus scale="   85.858">  2  4  1 -1</clus>
<clus scale="   31.564">  1  3  2 -1</clus>
</clustering>
</event>
<event>
 6    0  0.4227619E+002  0.1218862E+03  0.7546771E-02  0.1240017E+00
         21   -1    0    0  503  501  0.00000000000E+00  0.00000000000E+00  0.94454662526E+03  0.94454662526E+03  0.00000000000E+00 0. -1.
         21   -1    0    0  504  502 -0.00000000000E+00 -0.00000000000E+00 -0.92511482099E+02  0.92511482099E+02  0.00000000000E+00 0. -1.
         21    1    1    2  503  506  0.12520246900E+03  0.41890820335E+02  0.34716496628E+03  0.37142161069E+03  0.00000000000E+00 0. -1.
         21    1    1    2  504  505  0.92389665415E+01  0.10126662811E+03  0.25392901309E+03  0.27353287218E+03  0.00000000000E+00 0. -1.
         21    1    1    2  505  501 -0.76718096959E+02 -0.28623531948E+02  0.25081814394E+03  0.26384600492E+03  0.00000000000E+00 0. -1.
         21    1    1    2  506  502 -0.57723338583E+02 -0.11453391649E+03  0.12301984453E+00  0.12825761957E+03  0.00000000000E+00 0. -1.
<scales pt_clust_3="89.25072" pt_clust_4="121.88618" pt_clust_5="81.88390" pt_clust_6="14000.00000"></scales>
<clustering>
<clus scale="   81.884">  1  5  2 -1</clus>
<clus scale="   89.251">  1  3  2 -1</clus>
<clus scale="  121.886">  1  4  2 -1</clus>
<clus scale="   81.884">  1  3  2 -1</clus>
</clustering>
</event>
<event>
 6    0  0.5061261E+002  0.2633314E+03  0.7546771E-02  0.1105158E+00
         21   -1    0    0  506  501  0.00000000000E+00  0.00000000000E+00  0.18341543283E+04  0.18341543283E+04  0.00000000000E+00 0.  1.
         21   -1    0    0  505  502 -0.00000000000E+00 -0.00000000000E+00 -0.61023645376E+03  0.61023645376E+03  0.00000000000E+00 0. -1.
         21    1    1    2  503  502  0.21773845157E+03  0.55926408532E+02  0.16521786308E+03  0.27898877889E+03  0.00000000000E+00 0.  1.
         21    1    1    2  504  501 -0.22536467264E+03 -0.10586641001E+03  0.15212593584E+04  0.15415015303E+04  0.00000000000E+00 0.  1.
         21    1    1    2  505  504 -0.22561412334E+02  0.23584875964E+02 -0.53772771128E+03  0.53871732400E+03  0.00000000000E+00 0. -1.
         21    1    1    2  506  503  0.30187633401E+02  0.26355125516E+02  0.75168364325E+02  0.85183148842E+02  0.00000000000E+00 0.  1.
<scales pt_clust_3="35.18537" pt_clust_4="250.49020" pt_clust_5="32.63838" pt_clust_6="35.18537"></scales>
<clustering>
<clus scale="   32.638">  2  5  1 -1</clus>
<clus scale="   35.185">  3  6 -1 -1</clus>
<clus scale="  250.490">  1  4  2 -1</clus>
<clus scale="  250.490">  1  3  2 -1</clus>
</clustering>
</event>
<event>
 6    0  0.4227619E+002  0.1949970E+03  0.7546771E-02  0.1154030E+00
         21   -1    0    0  505  501  0.00000000000E+00  0.00000000000E+00  0.75356653693E+03  0.75356653693E+03  0.00000000000E+00 0.  1.
         21   -1    0    0  504  502 -0.00000000000E+00 -0.00000000000E+00 -0.34954266302E+03  0.34954266302E+03  0.00000000000E+00 0.  1.
         21    1    1    2  503  502  0.42745543549E+02 -0.49782347436E+02 -0.19448439877E+03  0.20525507295E+03  0.00000000000E+00 0.  1.
         21    1    1    2  504  506 -0.66043868359E+02  0.21768092956E+03  0.30586696193E+02  0.22952630705E+03  0.00000000000E+00 0.  1.
         21    1    1    2  505  503 -0.28543589131E+02  0.16408379539E+02  0.43265477093E+03  0.43390566050E+03  0.00000000000E+00 0.  1.
         21    1    1    2  506  501  0.51841913942E+02 -0.18430696167E+03  0.13526680555E+03  0.23442215945E+03  0.00000000000E+00 0.  1.
<scales pt_clust_3="65.09432" pt_clust_4="194.99696" pt_clust_5="32.92372" pt_clust_6="14000.00000"></scales>
<clustering>
<clus scale="   32.924">  1  5  2 -1</clus>
<clus scale="   65.094">  2  3  1 -1</clus>
<clus scale="  194.997">  2  4  1 -1</clus>
<clus scale="   32.924">  1  3  2 -1</clus>
</clustering>
</event>
<event>
 6    0  0.4227619E+002  0.1041082E+03  0.7546771E-02  0.1271887E+00
         21   -1    0    0  504  501  0.00000000000E+00  0.00000000000E+00  0.22274152772E+03  0.22274152772E+03  0.00000000000E+00 0. -1.
         21   -1    0    0  506  502 -0.00000000000E+00 -0.00000000000E+00 -0.50108966491E+03  0.50108966491E+03  0.00000000000E+00 0.  1.
         21    1    1    2  503  501 -0.87959791220E+02  0.69947647275E+02  0.16003387175E+03  0.19555162576E+03  0.00000000000E+00 0. -1.
         21    1    1    2  504  505  0.81753590064E+02 -0.18717640181E+02 -0.27576927901E+02  0.88286389068E+02  0.00000000000E+00 0.  1.
         21    1    1    2  505  502  0.48909707176E+02 -0.16988221838E+02 -0.36490103040E+03  0.36855599456E+03  0.00000000000E+00 0.  1.
         21    1    1    2  506  503 -0.42703506021E+02 -0.34241785257E+02 -0.45904050633E+02  0.71437183235E+02  0.00000000000E+00 0.  1.
<scales pt_clust_3="14000.00000" pt_clust_4="104.10819" pt_clust_5="51.77605" pt_clust_6="46.81046"></scales>
<clustering>
<clus scale="   51.776">  2  5  1 -1</clus>
<clus scale="   46.810">  2  6  1 -1</clus>
<clus scale="  104.108">  2  4  1 -1</clus>
<clus scale="  104.108">  1  3  2 -1</clus>
</clustering>
</event>
<event>
 6    0  0.4227619E+002  0.1016452E+03  0.7546771E-02  0.1276874E+00
         21   -1    0    0  505  501  0.00000000000E+00  0.00000000000E+00  0.11488800498E+04  0.11488800498E+04  0.00000000000E+00 0.  1.
         21   -1    0    0  506  502 -0.00000000000E+00 -0.00000000000E+00 -0.56124167213E+02  0.56124167213E+02  0.00000000000E+00 0.  1.
         21    1    1    2  503  502 -0.97856907127E+01 -0.43847015328E+02  0.79289277980E+02  0.91132376785E+02  0.00000000000E+00 0.  1.
         21    1    1    2  504  503 -0.99334090118E+01 -0.64580405598E+02 -0.81179591453E+01  0.65842255904E+02  0.00000000000E+00 0.  1.
         21    1    1    2  505  504  0.62311403698E+02 -0.14906890893E+02  0.66925559473E+03  0.67231538544E+03  0.00000000000E+00 0.  1.
         21    1    1    2  506  501 -0.42592303973E+02  0.12333431182E+03  0.35232896905E+03  0.37571419891E+03  0.00000000000E+00 0.  1.
<scales pt_clust_3="44.92572" pt_clust_4="101.64523" pt_clust_5="64.10518" pt_clust_6="14000.00000"></scales>
<clustering>
<clus scale="   44.926">  2  3  1 -1</clus>
<clus scale="   64.105">  1  5  2 -1</clus>
<clus scale="  101.645">  2  4  1 -1</clus>
<clus scale="   64.105">  1  3  2 -1</clus>
</clustering>
</event>
<event>
 6    0  0.4227619E+002  0.1934638E+03  0.7546771E-02  0.1155374E+00
         21   -1    0    0  504  501  0.00000000000E+00  0.00000000000E+00  0.13534909135E+04  0.13534909135E+04  0.00000000000E+00 0. -1.
         21   -1    0    0  506  502 -0.00000000000E+00 -0.00000000000E+00 -0.10202953008E+03  0.10202953008E+03  0.00000000000E+00 0. -1.
         21    1    1    2  503  501  0.25859358944E+02  0.18848702415E+02  0.62856547390E+03  0.62937948411E+03  0.00000000000E+00 0. -1.
         21    1    1    2  504  502  0.16302316714E+03  0.95464819903E+01  0.15782280337E+03  0.22710289652E+03  0.00000000000E+00 0. -1.
         21    1    1    2  505  503 -0.21153703712E+03 -0.95562954292E+02  0.47381263599E+03  0.52761596861E+03  0.00000000000E+00 0. -1.
         21    1    1    2  506  505  0.22654511036E+02  0.67167769887E+02 -0.87395298332E+01  0.71422094366E+02  0.00000000000E+00 0.  1.
<scales pt_clust_3="31.99969" pt_clust_4="193.46376" pt_clust_5="14000.00000" pt_clust_6="72.01991"></scales>
<clustering>
<clus scale="   32.000">  1  3  2 -1</clus>
<clus scale="   72.020">  2  6  1 -1</clus>
<clus scale="  193.464">  2  4  1 -1</clus>
<clus scale="   32.000">  1  3  2 -1</clus>
</clustering>
</event>
<event>
 6    0  0.4227619E+002  0.1087691E+03  0.7546771E-02  0.1262866E+00
         21   -1    0    0  505  501  0.00000000000E+00  0.00000000000E+00  0.10125986218E+04  0.10125986218E+04  0.00000000000E+00 0.  1.
         21   -1    0    0  504  502 -0.00000000000E+00 -0.00000000000E+00 -0.34846238018E+03  0.34846238018E+03  0.00000000000E+00 0. -1.
         21    1    1    2  503  501  0.59917624229E+02 -0.99660480794E+02  0.90033677885E+03  0.90781531628E+03  0.00000000000E+00 0.  1.
         21    1    1    2  504  506  0.33585095159E+02  0.41604354344E+02 -0.28354288538E+03  0.28854020304E+03  0.00000000000E+00 0. -1.
         21    1    1    2  505  502 -0.32900138768E+00  0.49616998368E+02 -0.15524336726E+02  0.51989997113E+02  0.00000000000E+00 0.  1.
         21    1    1    2  506  503 -0.93173718001E+02  0.84391280821E+01  0.62866684839E+02  0.11271548550E+03  0.00000000000E+00 0. -1.
<scales pt_clust_3="108.76908" pt_clust_4="92.87212" pt_clust_5="49.61809" pt_clust_6="14000.00000"></scales>
<clustering>
<clus scale="   49.618">  2  5  1 -1</clus>
<clus scale="   92.872">  2  4  1 -1</clus>
<clus scale="  108.769">  1  3  2 -1</clus>
<clus scale="  108.769">  1  3  2 -1</clus>
</clustering>
</event>
<event>
 6    0  0.4227619E+002  0.1516958E+03  0.7546771E-02  0.1198405E+00
         21   -1    0    0  505  501  0.00000000000E+00  0.00000000000E+00  0.31667241706E+03  0.31667241706E+03  0.00000000000E+00 0. -1.
         21   -1    0    0  506  502 -0.00000000000E+00 -0.00000000000E+00 -0.12709414761E+03  0.12709414761E+03  0.00000000000E+00 0. -1.
         21    1    1    2  503  504 -0.71963884464E+02  0.45167194353E+01 -0.46137330890E+00  0.72106964205E+02  0.00000000000E+00 0. -1.
         21    1    1    2  504  501  0.43385716919E+02 -0.17339384313E+02  0.11382613459E+03  0.12304212123E+03  0.00000000000E+00 0. -1.
         21    1    1    2  505  502  0.11530811549E+03  0.47790816639E+02  0.90286479698E+02  0.15405055037E+03  0.00000000000E+00 0. -1.
         21    1    1    2  506  503 -0.86729947942E+02 -0.34968151761E+02 -0.14072971524E+02  0.94566928866E+02  0.00000000000E+00 0. -1.
<scales pt_clust_3="33.52837" pt_clust_4="46.72231" pt_clust_5="146.81179" pt_clust_6="33.52837"></scales>
<clustering>
<clus scale="   33.528">  3  6 -1 -1</clus>
<clus scale="   46.722">  1  4  2 -1</clus>
<clus scale="  146.812">  1  5  2 -1</clus>
<clus scale="   46.722">  1  3  2 -1</clus>
</clustering>
</event>
<event>
 6    0  0.4227619E+002  0.9305262E+02  0.7546771E-02  0.1295623E+00
         21   -1    0    0  505  501  0.00000000000E+00  0.00000000000E+00  0.23493268905E+03  0.23493268905E+03  0.00000000000E+00 0. -1.
         21   -1    0    0  503  502 -0.00000000000E+00 -0.00000000000E+00 -0.58203489260E+03  0.58203489260E+03  0.00000000000E+00 0.  1.
         21    1    1    2  503  504 -0.10350772025E+02  0.62389489353E+02 -0.17272340444E+03  0.18393738420E+03  0.00000000000E+00 0.  1.
         21    1    1    2  504  501  0.30121257094E+02  0.56525237413E+02 -0.14687204588E+03  0.16023042924E+03  0.00000000000E+00 0.  1.
         21    1    1    2  505  506 -0.47094676235E+02 -0.67535609753E+02  0.21142109573E+03  0.22688729986E+03  0.00000000000E+00 0. -1.
         21    1    1    2  506  502  0.27324191166E+02 -0.51379117012E+02 -0.23892784896E+03  0.24591246836E+03  0.00000000000E+00 0.  1.
<scales pt_clust_3="41.90728" pt_clust_4="41.90728" pt_clust_5="82.94662" pt_clust_6="58.19300"></scales>
<clustering>
<clus scale="   41.907">  3  4 -1 -1</clus>
<clus scale="   58.193">  2  6  1 -1</clus>
<clus scale="   82.947">  1  5  2 -1</clus>
<clus scale="   82.947">  1  3  2 -1</clus>
</clustering>
</event>
<event>
 6    0  0.4227619E+002  0.6281226E+02  0.7546771E-02  0.1386395E+00
         21   -1    0    0  502  501  0.00000000000E+00  0.00000000000E+00  0.46155470747E+03  0.46155470747E+03  0.00000000000E+00 0.  1.
         21   -1    0    0  505  502 -0.00000000000E+00 -0.00000000000E+00 -0.23278659876E+03  0.23278659876E+03  0.00000000000E+00 0.  1.
         21    1    1    2  503  506  0.41642674644E+01  0.95777010743E+02  0.24805395288E+02  0.99024666350E+02  0.00000000000E+00 0.  1.
         21    1    1    2  504  501 -0.54538151512E+02 -0.20899582867E+02  0.36244744953E+03  0.36712308046E+03  0.00000000000E+00 0.  1.
         21    1    1    2  505  503  0.21950553656E+01 -0.45086723562E+02 -0.16510336258E+03  0.17116293770E+03  0.00000000000E+00 0.  1.
         21    1    1    2  506  504  0.48178828682E+02 -0.29790704313E+02  0.66186264677E+01  0.57030621713E+02  0.00000000000E+00 0.  1.
<scales pt_clust_3="14000.00000" pt_clust_4="58.93517" pt_clust_5="45.14013" pt_clust_6="62.81226"></scales>
<clustering>
<clus scale="   45.140">  2  5  1 -1</clus>
<clus scale="   58.935">  1  4  2 -1</clus>
<clus scale="   62.812">  1  6  2 -1</clus>
<clus scale="   58.935">  1  3  2 -1</clus>
</clustering>
</event>
<event>
 6    0  0.4227619E+002  0.9504520E+02  0.7546771E-02  0.1291074E+00
         21   -1    0    0  502  501  0.00000000000E+00  0.00000000000E+00  0.36448745532E+03  0.36448745532E+03  0.00000000000E+00 0.  1.
         21   -1    0    0  506  502 -0.00000000000E+00 -0.00000000000E+00 -0.33269111374E+03  0.33269111374E+03  0.00000000000E+00 0.  1.
         21    1    1    2  503  504 -0.61959062479E+01 -0.64119667762E+02  0.83826423085E+02  0.10571939394E+03  0.00000000000E+00 0.  1.
         21    1    1    2  504  501 -0.71403783755E+01 -0.33567876127E+02  0.24600069022E+03  0.24838302458E+03  0.00000000000E+00 0.  1.
         21    1    1    2  505  503 -0.62836915719E+01  0.12185609657E+03 -0.15802010723E+03  0.19964655605E+03  0.00000000000E+00 0.  1.
         21    1    1    2  506  505  0.19619976195E+02 -0.24168552684E+02 -0.14001066449E+03  0.14342959449E+03  0.00000000000E+00 0.  1.
<scales pt_clust_3="14000.00000" pt_clust_4="34.44123" pt_clust_5="95.04520" pt_clust_6="31.12977"></scales>
<clustering>
<clus scale="   31.130">  2  6  1 -1</clus>
<clus scale="   34.441">  1  4  2 -1</clus>
<clus scale="   95.045">  2  5  1 -1</clus>
<clus scale="   34.441">  1  3  2 -1</clus>
</clustering>
</event>
<event>
 6    0  0.4227619E+002  0.9274074E+02  0.7546771E-02  0.1296347E+00
         21   -1    0    0  506  501  0.00000000000E+00  0.00000000000E+00  0.47105215864E+03  0.47105215864E+03  0.00000000000E+00 0. -1.
         21   -1    0    0  505  502 -0.00000000000E+00 -0.00000000000E+00 -0.18737434580E+03  0.18737434580E+03  0.00000000000E+00 0.  1.
         21    1    1    2  503  501 -0.11182330175E+02  0.31007517044E+02  0.31817621585E+03  0.31987906302E+03  0.00000000000E+00 0. -1.
         21    1    1    2  504  502 -0.99170713247E+01  0.36493903113E+02 -0.59662470144E+01  0.38285106393E+02  0.00000000000E+00 0. -1.
         21    1    1    2  505  503 -0.46756124000E+02  0.37138805137E+02 -0.12767050791E+03  0.14094390575E+03  0.00000000000E+00 0.  1.
         21    1    1    2  506  504  0.67855525500E+02 -0.10464022529E+03  0.99138351908E+02  0.15931842928E+03  0.00000000000E+00 0. -1.
<scales pt_clust_3="32.96226" pt_clust_4="41.31063" pt_clust_5="92.74074" pt_clust_6="14000.00000"></scales>
<clustering>
<clus scale="   32.962">  1  3  2 -1</clus>
<clus scale="   41.311">  2  4  1 -1</clus>
<clus scale="   92.741">  2  5  1 -1</clus>
<clus scale="   32.962">  1  3  2 -1</clus>
</clustering>
</event>
<event>
 6    0  0.4227619E+002  0.1317011E+03  0.7546771E-02  0.1224953E+00
         21   -1    0    0  503  501  0.00000000000E+00  0.00000000000E+00  0.56807411583E+03  0.56807411583E+03  0.00000000000E+00 0. -1.
         21   -1    0    0  504  502 -0.00000000000E+00 -0.00000000000E+00 -0.14918641875E+04  0.14918641875E+04  0.00000000000E+00 0. -1.
         21    1    1    2  503  505  0.74565500549E+02  0.15748822058E+02  0.47288881667E+03  0.47899047193E+03  0.00000000000E+00 0. -1.
         21    1    1    2  504  506  0.53115119594E+02 -0.30154629731E+02 -0.94663996283E+03  0.94860831582E+03  0.00000000000E+00 0. -1.
         21    1    1    2  505  502 -0.38356465218E+02  0.11700414265E+03  0.35466143918E+02  0.12813678311E+03  0.00000000000E+00 0. -1.
         21    1    1    2  506  501 -0.89324154926E+02 -0.10259833497E+03 -0.48550506946E+03  0.50420273251E+03  0.00000000000E+00 0. -1.
<scales pt_clust_3="76.46722" pt_clust_4="61.07796" pt_clust_5="131.70111" pt_clust_6="14000.00000"></scales>
<clustering>
<clus scale="   61.078">  2  4  1 -1</clus>
<clus scale="   76.467">  1  3  2 -1</clus>
<clus scale="  131.701">  1  5  2 -1</clus>
<clus scale="   76.467">  1  3  2 -1</clus>
</clustering>
</event>
<event>
 6    0  0.4227619E+002  0.1495387E+03  0.7546771E-02  0.1201041E+00
         21   -1    0    0  502  501  0.00000000000E+00  0.00000000000E+00  0.11869643095E+04  0.11869643095E+04  0.00000000000E+00 0.  1.
         21   -1    0    0  504  502 -0.00000000000E+00 -0.00000000000E+00 -0.71179993544E+02  0.71179993544E+02  0.00000000000E+00 0. -1.
         21    1    1    2  503  506 -0.65833601312E+02  0.12874117517E+02  0.84007670914E+02  0.10750392893E+03  0.00000000000E+00 0. -1.
         21    1    1    2  504  503 -0.61775303079E+02 -0.25530425347E+02  0.34701111994E+02  0.75313729575E+02  0.00000000000E+00 0. -1.
         21    1    1    2  505  501 -0.23713082417E+02  0.24794197882E+02  0.88735669751E+03  0.88801969074E+03  0.00000000000E+00 0.  1.
         21    1    1    2  506  505  0.15132198681E+03 -0.12137890053E+02  0.10971883552E+03  0.18730695378E+03  0.00000000000E+00 0. -1.
<scales pt_clust_3="51.22603" pt_clust_4="51.22603" pt_clust_5="34.30834" pt_clust_6="139.55470"></scales>
<clustering>
<clus scale="   34.308">  1  5  2 -1</clus>
<clus scale="   51.226">  3  4 -1 -1</clus>
<clus scale="  139.555">  1  6  2 -1</clus>
<clus scale="   34.308">  1  3  2 -1</clus>
</clustering>
</event>
<event>
 6    0  0.4227619E+002  0.8788013E+02  0.7546771E-02  0.1308068E+00
         21   -1    0    0  505  501  0.00000000000E+00  0.00000000000E+00  0.90036596687E+03  0.90036596687E+03  0.00000000000E+00 0. -1.
         21   -1    0    0  506  502 -0.00000000000E+00 -0.00000000000E+00 -0.20468094848E+03  0.20468094848E+03  0.00000000000E+00 0. -1.
         21    1    1    2  503  501 -0.34797424187E+02  0.20942185270E+02  0.31190254340E+03  0.31453558214E+03  0.00000000000E+00 0. -1.
         21    1    1    2  504  502  0.34441684553E+02 -0.15977251381E+02  0.13292381577E+02  0.40226727489E+02  0.00000000000E+00 0. -1.
         21    1    1    2  505  504  0.17530255074E+02 -0.10583135778E+03  0.54094472257E+03  0.55147872036E+03  0.00000000000E+00 0. -1.
         21    1    1    2  506  503 -0.17174515439E+02  0.10086642389E+03 -0.17045462916E+03  0.19880588536E+03  0.00000000000E+00 0. -1.
<scales pt_clust_3="40.35336" pt_clust_4="37.96712" pt_clust_5="14000.00000" pt_clust_6="87.88013"></scales>
<clustering>
<clus scale="   37.967">  2  4  1 -1</clus>
<clus scale="   40.353">  1  3  2 -1</clus>
<clus scale="   87.880">  2  6  1 -1</clus>
<clus scale="   40.353">  1  3  2 -1</clus>
</clustering>
</event>
<event>
 6    0  0.4794299E+002  0.1471909E+03  0.7546771E-02  0.1203968E+00
         21   -1    0    0  504  501  0.00000000000E+00  0.00000000000E+00  0.22694560395E+04  0.22694560395E+04  0.00000000000E+00 0.  1.
         21   -1    0    0  503  502 -0.00000000000E+00 -0.00000000000E+00 -0.92516119284E+02  0.92516119284E+02  0.00000000000E+00 0.  1.
         21    1    1    2  503  501  0.51119070581E+02  0.23974806886E+02  0.83006814704E+02  0.10038965101E+03  0.00000000000E+00 0.  1.
         21    1    1    2  504  505 -0.30483583562E+02 -0.36397762149E+01  0.13512757715E+03  0.13857113316E+03  0.00000000000E+00 0.  1.
         21    1    1    2  505  506 -0.64323199671E+02 -0.11403038372E+03  0.20053624586E+04  0.20096315565E+04  0.00000000000E+00 0.  1.
         21    1    1    2  506  502  0.43687712652E+02  0.93695353049E+02 -0.46556930203E+02  0.11337981818E+03  0.00000000000E+00 0.  1.
<scales pt_clust_3="55.21034" pt_clust_4="30.70011" pt_clust_5="14000.00000" pt_clust_6="147.19092"></scales>
<clustering>
<clus scale="   30.700">  1  4  2 -1</clus>
<clus scale="   55.210">  2  3  1 -1</clus>
<clus scale="  147.191">  2  6  1 -1</clus>
<clus scale="   30.700">  1  3  2 -1</clus>
</clustering>
</event>
<event>
 6    0  0.4227619E+002  0.9226226E+02  0.7546771E-02  0.1297464E+00
         21   -1    0    0  505  501  0.00000000000E+00  0.00000000000E+00  0.73721266909E+02  0.73721266909E+02  0.00000000000E+00 0.  1.
         21   -1    0    0  506  502 -0.00000000000E+00 -0.00000000000E+00 -0.25174919778E+03  0.25174919778E+03  0.00000000000E+00 0. -1.
         21    1    1    2  503  501  0.59431370467E+02 -0.19149388984E+02 -0.13661847742E+01  0.62455210790E+02  0.00000000000E+00 0.  1.
         21    1    1    2  504  502  0.31696609592E+02  0.14048837525E+02 -0.57499866894E+02  0.67143723372E+02  0.00000000000E+00 0. -1.
         21    1    1    2  505  504  0.20053207500E+02  0.34357122454E+02 -0.22728712804E+02  0.45816344028E+02  0.00000000000E+00 0.  1.
         21    1    1    2  506  503 -0.11118118756E+03 -0.29256570995E+02 -0.96433166397E+02  0.15005518650E+03  0.00000000000E+00 0. -1.
<scales pt_clust_3="62.44027" pt_clust_4="33.68801" pt_clust_5="33.68801" pt_clust_6="84.91262"></scales>
<clustering>
<clus scale="   33.688">  4  5 -1 -1</clus>
<clus scale="   62.440">  1  3  2 -1</clus>
<clus scale="   84.913">  1  6  2 -1</clus>
<clus scale="   62.440">  1  3  2 -1</clus>
</clustering>
</event>
<event>
 6    0  0.4227619E+002  0.2377768E+03  0.7546771E-02  0.1121283E+00
         21   -1    0    0  502  501  0.00000000000E+00  0.00000000000E+00  0.11852678178E+03  0.11852678178E+03  0.00000000000E+00 0.  1.
         21   -1    0    0  506  502 -0.00000000000E+00 -0.00000000000E+00 -0.22500557230E+04  0.22500557230E+04  0.00000000000E+00 0. -1.
         21    1    1    2  503  501  0.12417411691E+02  0.30141246028E+02  0.66227372296E+02  0.73815660036E+02  0.00000000000E+00 0.  1.
         21    1    1    2  504  505  0.94446413592E+02  0.12803875621E+03 -0.10518954795E+04  0.10638600227E+04  0.00000000000E+00 0. -1.
         21    1    1    2  505  503 -0.11155107358E+03 -0.22277312004E+03 -0.33512615608E+03  0.41758956587E+03  0.00000000000E+00 0.  1.
         21    1    1    2  506  504  0.46872483000E+01  0.64593117800E+02 -0.81073467793E+03  0.81331725616E+03  0.00000000000E+00 0. -1.
<scales pt_clust_3="32.59888" pt_clust_4="54.81965" pt_clust_5="221.51505" pt_clust_6="54.81965"></scales>
<clustering>
<clus scale="   32.599">  1  3  2 -1</clus>
<clus scale="   54.820">  4  6 -1 -1</clus>
<clus scale="  221.515">  1  5  2 -1</clus>
<clus scale="   32.599">  1  3  2 -1</clus>
</clustering>
</event>
<event>
 6    0  0.4227619E+002  0.1413077E+03  0.7546771E-02  0.1211580E+00
         21   -1    0    0  503  501  0.00000000000E+00  0.00000000000E+00  0.26576676166E+04  0.26576676166E+04  0.00000000000E+00 0.  1.
         21   -1    0    0  504  502 -0.00000000000E+00 -0.00000000000E+00 -0.10266098587E+03  0.10266098587E+03  0.00000000000E+00 0.  1.
         21    1    1    2  503  506 -0.38599522738E+02 -0.10698692976E+02  0.22070710632E+04  0.22074344981E+04  0.00000000000E+00 0.  1.
         21    1    1    2  504  505 -0.62046190960E+02 -0.50571966764E+02 -0.92871868442E+01  0.80582290079E+02  0.00000000000E+00 0.  1.
         21    1    1    2  505  501 -0.50338019934E+02 -0.84912835428E+02  0.10822662670E+03  0.14648245150E+03  0.00000000000E+00 0.  1.
         21    1    1    2  506  502  0.15098373363E+03  0.14618349517E+03  0.24899612764E+03  0.32582936279E+03  0.00000000000E+00 0.  1.
<scales pt_clust_3="40.05478" pt_clust_4="82.95804" pt_clust_5="141.30766" pt_clust_6="14000.00000"></scales>
<clustering>
<clus scale="   40.055">  1  3  2 -1</clus>
<clus scale="   82.958">  2  4  1 -1</clus>
<clus scale="  141.308">  1  5  2 -1</clus>
<clus scale="   40.055">  1  3  2 -1</clus>
</clustering>
</event>
<event>
 6    0  0.4227619E+002  0.1058108E+03  0.7546771E-02  0.1268530E+00
         21   -1    0    0  505  501  0.00000000000E+00  0.00000000000E+00  0.13399659539E+03  0.13399659539E+03  0.00000000000E+00 0.  1.
         21   -1    0    0  504  502 -0.00000000000E+00 -0.00000000000E+00 -0.29207847237E+03  0.29207847237E+03  0.00000000000E+00 0.  1.
         21    1    1    2  503  501  0.33057863970E+02  0.64190771363E+01  0.15904254629E+02  0.37242076162E+02  0.00000000000E+00 0.  1.
         21    1    1    2  504  503 -0.11244583738E+03  0.74262361793E+01 -0.29175721827E+02  0.11640634893E+03  0.00000000000E+00 0.  1.
         21    1    1    2  505  506  0.73085011100E+02  0.94411748127E+02 -0.54234108536E+02  0.13113479920E+03  0.00000000000E+00 0.  1.
         21    1    1    2  506  502  0.63029623060E+01 -0.10825706144E+03 -0.90576301238E+02  0.14129184347E+03  0.00000000000E+00 0.  1.
<scales pt_clust_3="33.67532" pt_clust_4="99.53083" pt_clust_5="105.81085" pt_clust_6="14000.00000"></scales>
<clustering>
<clus scale="   33.675">  1  3  2 -1</clus>
<clus scale="   99.531">  1  4  2 -1</clus>
<clus scale="  105.811">  1  5  2 -1</clus>
<clus scale="   33.675">  1  3  2 -1</clus>
</clustering>
</event>
<event>
 6    0  0.4227619E+002  0.1512573E+03  0.7546771E-02  0.1198936E+00
         21   -1    0    0  504  501  0.00000000000E+00  0.00000000000E+00  0.87133009322E+03  0.87133009322E+03  0.00000000000E+00 0.  1.
         21   -1    0    0  506  502 -0.00000000000E+00 -0.00000000000E+00 -0.15984714610E+04  0.15984714610E+04  0.00000000000E+00 0.  1.
         21    1    1    2  503  505  0.44724913213E+02 -0.48422184304E+02  0.16033960371E+03  0.17336035969E+03  0.00000000000E+00 0. -1.
         21    1    1    2  504  503  0.38733619421E+02 -0.29098158652E+02  0.67232515048E+03  0.67406832300E+03  0.00000000000E+00 0.  1.
         21    1    1    2  505  502 -0.16321784581E+03  0.88263153145E+01 -0.14832127899E+04  0.14921923969E+04  0.00000000000E+00 0.  1.
         21    1    1    2  506  501  0.79759313174E+02  0.68694027642E+02 -0.76593332032E+02  0.13018047466E+03  0.00000000000E+00 0. -1.
<scales pt_clust_3="106.30204" pt_clust_4="48.44581" pt_clust_5="14000.00000" pt_clust_6="151.25732"></scales>
<clustering>
<clus scale="   48.446">  1  4  2 -1</clus>
<clus scale="  106.302">  1  3  2 -1</clus>
<clus scale="  151.257">  1  6  2 -1</clus>
<clus scale="   48.446">  1  3  2 -1</clus>
</clustering>
</event>
<event>
 6    0  0.4227619E+002  0.6827464E+02  0.7546771E-02  0.1366060E+00
         21   -1    0    0  504  501  0.00000000000E+00  0.00000000000E+00  0.48591304252E+03  0.48591304252E+03  0.00000000000E+00 0. -1.
         21   -1    0    0  506  502 -0.00000000000E+00 -0.00000000000E+00 -0.13887994253E+04  0.13887994253E+04  0.00000000000E+00 0. -1.
         21    1    1    2  503  502 -0.71082074787E+02 -0.57275905576E+02 -0.10402046281E+03  0.13839598043E+03  0.00000000000E+00 0. -1.
         21    1    1    2  504  505 -0.33735797305E+02 -0.79472315059E+01  0.44181530004E+03  0.44317267724E+03  0.00000000000E+00 0. -1.
         21    1    1    2  505  503  0.77573126038E+02  0.34287014215E+01 -0.34322581778E+02  0.84896322045E+02  0.00000000000E+00 0. -1.
         21    1    1    2  506  501  0.27244746054E+02  0.61794435660E+02 -0.12063586382E+04  0.12082474881E+04  0.00000000000E+00 0. -1.
<scales pt_clust_3="68.27464" pt_clust_4="34.65923" pt_clust_5="57.93812" pt_clust_6="14000.00000"></scales>
<clustering>
<clus scale="   34.659">  1  4  2 -1</clus>
<clus scale="   57.938">  1  5  2 -1</clus>
<clus scale="   68.275">  1  3  2 -1</clus>
<clus scale="   34.659">  1  3  2 -1</clus>
</clustering>
</event>
<event>
 6    0  0.4227619E+002  0.1699694E+03  0.7546771E-02  0.1177880E+00
         21   -1    0    0  504  501  0.00000000000E+00  0.00000000000E+00  0.68045084687E+03  0.68045084687E+03  0.00000000000E+00 0.  1.
         21   -1    0    0  505  502 -0.00000000000E+00 -0.00000000000E+00 -0.35152177995E+04  0.35152177995E+04  0.00000000000E+00 0.  1.
         21    1    1    2  503  501  0.11414376787E+03  0.56789375943E+02  0.61445799012E+03  0.62754478293E+03  0.00000000000E+00 0.  1.
         21    1    1    2  504  502  0.86317105081E+02 -0.16759504663E+03 -0.30701796917E+04  0.30759619767E+04  0.00000000000E+00 0.  1.
         21    1    1    2  505  506 -0.34040714377E+02  0.58889092437E+01 -0.25985477111E+03  0.26214109093E+03  0.00000000000E+00 0. -1.
         21    1    1    2  506  503 -0.16642015858E+03  0.10491676144E+03 -0.11919047987E+03  0.23002079581E+03  0.00000000000E+00 0.  1.
<scales pt_clust_3="127.43452" pt_clust_4="169.96936" pt_clust_5="34.54634" pt_clust_6="14000.00000"></scales>
<clustering>
<clus scale="   34.546">  2  5  1 -1</clus>
<clus scale="  127.435">  1  3  2 -1</clus>
<clus scale="  169.969">  2  4  1 -1</clus>
<clus scale="  127.435">  1  3  2 -1</clus>
</clustering>
</event>
<event>
 6    0  0.4227619E+002  0.9697137E+02  0.7546771E-02  0.1286797E+00
         21   -1    0    0  506  501  0.00000000000E+00  0.00000000000E+00  0.14885852517E+04  0.14885852517E+04  0.00000000000E+00 0. -1.
         21   -1    0    0  505  502 -0.00000000000E+00 -0.00000000000E+00 -0.40244646844E+03  0.40244646844E+03  0.00000000000E+00 0. -1.
         21    1    1    2  503  501 -0.53497527855E+01 -0.59270989532E+02  0.14420015338E+04  0.14432290509E+04  0.00000000000E+00 0. -1.
         21    1    1    2  504  502 -0.74525675193E+02  0.22795040023E+02 -0.22925182781E+03  0.24213651246E+03  0.00000000000E+00 0.  1.
         21    1    1    2  505  503 -0.32330247599E+02  0.14935564823E+02 -0.66767540366E+00  0.35619682716E+02  0.00000000000E+00 0.  1.
         21    1    1    2  506  504  0.11220567558E+03  0.21540384687E+02 -0.12594324728E+03  0.17004647406E+03  0.00000000000E+00 0. -1.
<scales pt_clust_3="59.49284" pt_clust_4="96.97137" pt_clust_5="35.61342" pt_clust_6="14000.00000"></scales>
<clustering>
<clus scale="   35.613">  2  5  1 -1</clus>
<clus scale="   59.493">  1  3  2 -1</clus>
<clus scale="   96.971">  2  4  1 -1</clus>
<clus scale="   59.493">  1  3  2 -1</clus>
</clustering>
</event>
<event>
 6    0  0.4227619E+002  0.1025514E+03  0.7546771E-02  0.1275020E+00
         21   -1    0    0  506  501  0.00000000000E+00  0.00000000000E+00  0.15136985149E+04  0.15136985149E+04  0.00000000000E+00 0. -1.
         21   -1    0    0  504  502 -0.00000000000E+00 -0.00000000000E+00 -0.61150595321E+02  0.61150595321E+02  0.00000000000E+00 0. -1.
         21    1    1    2  503  505 -0.15569198807E+02 -0.13493977601E+03  0.34071684685E+03  0.36679573720E+03  0.00000000000E+00 0. -1.
         21    1    1    2  504  503 -0.16425560069E+02  0.96820061991E+02  0.82503562570E+01  0.98549438384E+02  0.00000000000E+00 0. -1.
         21    1    1    2  505  501 -0.17458529617E+02 -0.24488667905E+02  0.46265827815E+03  0.46363474573E+03  0.00000000000E+00 0. -1.
         21    1    1    2  506  502  0.49453288492E+02  0.62608381920E+02  0.64092243835E+03  0.64586918893E+03  0.00000000000E+00 0. -1.
<scales pt_clust_3="102.55138" pt_clust_4="14000.00000" pt_clust_5="30.07483" pt_clust_6="61.39375"></scales>
<clustering>
<clus scale="   30.075">  1  5  2 -1</clus>
<clus scale="   61.394">  1  6  2 -1</clus>
<clus scale="  102.551">  1  3  2 -1</clus>
<clus scale="   30.075">  1  3  2 -1</clus>
</clustering>
</event>
<event>
 6    0  0.4227619E+002  0.1082589E+03  0.7546771E-02  0.1263829E+00
         21   -1    0    0  503  501  0.00000000000E+00  0.00000000000E+00  0.67086194079E+03  0.67086194079E+03  0.00000000000E+00 0.  1.
         21   -1    0    0  504  502 -0.00000000000E+00 -0.00000000000E+00 -0.47544845480E+02  0.47544845480E+02  0.00000000000E+00 0.  1.
         21    1    1    2  503  502 -0.10729702252E+03 -0.79637018734E+02  0.14561108404E+03  0.19762918203E+03  0.00000000000E+00 0.  1.
         21    1    1    2  504  505  0.31183912593E+02  0.24112088063E+02  0.29891580433E+02  0.49470554638E+02  0.00000000000E+00 0.  1.
         21    1    1    2  505  506  0.10459662683E+03  0.30417865461E+02  0.32689934156E+03  0.34457057390E+03  0.00000000000E+00 0.  1.
         21    1    1    2  506  501 -0.28483516905E+02  0.25107065209E+02  0.12091508927E+03  0.12673647570E+03  0.00000000000E+00 0. -1.
<scales pt_clust_3="14000.00000" pt_clust_4="38.99206" pt_clust_5="108.25888" pt_clust_6="37.96940"></scales>
<clustering>
<clus scale="   37.969">  1  6  2 -1</clus>
<clus scale="   38.992">  2  4  1 -1</clus>
<clus scale="  108.259">  1  5  2 -1</clus>
<clus scale="   37.969">  1  3  2 -1</clus>
</clustering>
</event>
<event>
 6    0  0.4227619E+002  0.1042776E+03  0.7546771E-02  0.1271549E+00
         21   -1    0    0  506  501  0.00000000000E+00  0.00000000000E+00  0.48210348325E+03  0.48210348325E+03  0.00000000000E+00 0.  1.
         21   -1    0    0  504  502 -0.00000000000E+00 -0.00000000000E+00 -0.79855481785E+03  0.79855481785E+03  0.00000000000E+00 0.  1.
         21    1    1    2  503  502  0.96701405700E+02 -0.76075905622E+02 -0.22607722400E+03  0.25739000853E+03  0.00000000000E+00 0.  1.
         21    1    1    2  504  505  0.29611162117E+02  0.42614577782E+02 -0.31681563570E+03  0.32103733457E+03  0.00000000000E+00 0.  1.
         21    1    1    2  505  501 -0.10371083589E+03  0.28264606012E+01 -0.22574502876E+03  0.24844465051E+03  0.00000000000E+00 0.  1.
         21    1    1    2  506  503 -0.22601731929E+02  0.30634867239E+02  0.45218655386E+03  0.45378630749E+03  0.00000000000E+00 0.  1.
<scales pt_clust_3="14000.00000" pt_clust_4="52.84588" pt_clust_5="104.27763" pt_clust_6="38.07011"></scales>
<clustering>
<clus scale="   38.070">  1  6  2 -1</clus>
<clus scale="   52.846">  2  4  1 -1</clus>
<clus scale="  104.278">  2  5  1 -1</clus>
<clus scale="   38.070">  1  3  2 -1</clus>
</clustering>
</event>
<event>
 6    0  0.4227619E+002  0.8537182E+02  0.7546771E-02  0.1314463E+00
         21   -1    0    0  505  501  0.00000000000E+00  0.00000000000E+00  0.11051757158E+04  0.11051757158E+04  0.00000000000E+00 0.  1.
         21   -1    0    0  503  502 -0.00000000000E+00 -0.00000000000E+00 -0.15109420121E+03  0.15109420121E+03  0.00000000000E+00 0.  1.
         21    1    1    2  503  501  0.59046529243E+02  0.10522861066E+02  0.69047004339E+02  0.91458799625E+02  0.00000000000E+00 0. -1.
         21    1    1    2  504  502 -0.86156038537E+02 -0.24331045636E+02 -0.37188998382E+02  0.96942685948E+02  0.00000000000E+00 0.  1.
         21    1    1    2  505  506 -0.54720399652E+02  0.65293706357E+02  0.96021909733E+03  0.96399082211E+03  0.00000000000E+00 0.  1.
         21    1    1    2  506  504  0.81829908946E+02 -0.51485521787E+02 -0.37995588729E+02  0.10387760930E+03  0.00000000000E+00 0.  1.
<scales pt_clust_3="59.97686" pt_clust_4="60.97796" pt_clust_5="85.37182" pt_clust_6="14000.00000"></scales>
<clustering>
<clus scale="   59.977">  2  3  1 -1</clus>
<clus scale="   60.978">  2  4  1 -1</clus>
<clus scale="   85.372">  1  5  2 -1</clus>
<clus scale="   85.372">  1  3  2 -1</clus>
</clustering>
</event>
<event>
 6    0  0.4227619E+002  0.1152661E+03  0.7546771E-02  0.1251117E+00
         21   -1    0    0  503  501  0.00000000000E+00  0.00000000000E+00  0.27234155974E+03  0.27234155974E+03  0.00000000000E+00 0. -1.
         21   -1    0    0  505  502 -0.00000000000E+00 -0.00000000000E+00 -0.76919754282E+03  0.76919754282E+03  0.00000000000E+00 0.  1.
         21    1    1    2  503  502  0.94033053138E+02 -0.30561381180E+02 -0.44783106376E+02  0.10854372261E+03  0.00000000000E+00 0.  1.
         21    1    1    2  504  506 -0.11117803005E+03 -0.61967222519E+02  0.56742911792E+02  0.13935655374E+03  0.00000000000E+00 0. -1.
         21    1    1    2  505  504  0.56526676725E+02  0.10080814034E+03 -0.64312651034E+03  0.65342884436E+03  0.00000000000E+00 0.  1.
         21    1    1    2  506  501 -0.39381699813E+02 -0.82795366388E+01  0.13431072184E+03  0.14020998184E+03  0.00000000000E+00 0. -1.
<scales pt_clust_3="90.76282" pt_clust_4="115.26607" pt_clust_5="14000.00000" pt_clust_6="40.24263"></scales>
<clustering>
<clus scale="   40.243">  1  6  2 -1</clus>
<clus scale="   90.763">  1  3  2 -1</clus>
<clus scale="  115.266">  1  4  2 -1</clus>
<clus scale="   40.243">  1  3  2 -1</clus>
</clustering>
</event>
<event>
 6    0  0.4227619E+002  0.7344647E+02  0.7546771E-02  0.1348750E+00
         21   -1    0    0  504  501  0.00000000000E+00  0.00000000000E+00  0.57662048257E+03  0.57662048257E+03  0.00000000000E+00 0. -1.
         21   -1    0    0  505  502 -0.00000000000E+00 -0.00000000000E+00 -0.10421810296E+03  0.10421810296E+03  0.00000000000E+00 0. -1.
         21    1    1    2  503  502 -0.53803635698E+02 -0.31498979557E+02 -0.43498492586E+02  0.76020627363E+02  0.00000000000E+00 0. -1.
         21    1    1    2  504  503 -0.99986208360E+02  0.59453237068E+01  0.23712398418E+03  0.25741090228E+03  0.00000000000E+00 0.  1.
         21    1    1    2  505  506  0.93922679883E+02 -0.12677415534E+02  0.48579932109E+02  0.10649974866E+03  0.00000000000E+00 0. -1.
         21    1    1    2  506  501  0.59867164175E+02  0.38231071385E+02  0.23019695590E+03  0.24090730722E+03  0.00000000000E+00 0. -1.
<scales pt_clust_3="62.34595" pt_clust_4="14000.00000" pt_clust_5="73.44647" pt_clust_6="63.52954"></scales>
<clustering>
<clus scale="   62.346">  2  3  1 -1</clus>
<clus scale="   63.530">  1  6  2 -1</clus>
<clus scale="   73.446">  2  5  1 -1</clus>
<clus scale="   63.530">  1  3  2 -1</clus>
</clustering>
</event>
<event>
 6    0  0.4227619E+002  0.7198647E+02  0.7546771E-02  0.1353465E+00
         21   -1    0    0  505  501  0.00000000000E+00  0.00000000000E+00  0.10304166458E+03  0.10304166458E+03  0.00000000000E+00 0. -1.
         21   -1    0    0  506  502 -0.00000000000E+00 -0.00000000000E+00 -0.30880536268E+03  0.30880536268E+03  0.00000000000E+00 0. -1.
         21    1    1    2  503  501  0.63450907766E+02  0.17207401263E+02  0.46440239168E+02  0.80491044027E+02  0.00000000000E+00 0. -1.
         21    1    1    2  504  502 -0.97840036078E+02 -0.61509827849E+02 -0.18843064267E+03  0.22104804609E+03  0.00000000000E+00 0. -1.
         21    1    1    2  505  504 -0.14872827473E+02  0.28663875592E+02 -0.60990497521E+01  0.32863614665E+02  0.00000000000E+00 0. -1.
         21    1    1    2  506  503  0.49261955785E+02  0.15638550995E+02 -0.57674244852E+02  0.77444322479E+02  0.00000000000E+00 0. -1.
<scales pt_clust_3="14000.00000" pt_clust_4="71.98647" pt_clust_5="32.29270" pt_clust_6="51.19833"></scales>
<clustering>
<clus scale="   32.293">  1  5  2 -1</clus>
<clus scale="   51.198">  2  6  1 -1</clus>
<clus scale="   71.986">  2  4  1 -1</clus>
<clus scale="   32.293">  1  3  2 -1</clus>
</clustering>
</event>
<event>
 6    0  0.4227619E+002  0.8384156E+02  0.7546771E-02  0.1318490E+00
         21   -1    0    0  504  501  0.00000000000E+00  0.00000000000E+00  0.38571543700E+03  0.38571543700E+03  0.00000000000E+00 0. -1.
         21   -1    0    0  503  502 -0.00000000000E+00 -0.00000000000E+00 -0.80559707785E+02  0.80559707785E+02  0.00000000000E+00 0. -1.
         21    1    1    2  503  506 -0.61246153951E+02  0.25565003653E+02  0.49606657881E+02  0.82858199906E+02  0.00000000000E+00 0. -1.
         21    1    1    2  504  505  0.30791880788E+02 -0.44916224005E+01  0.10502593287E+03  0.10953885690E+03  0.00000000000E+00 0. -1.
         21    1    1    2  505  502  0.88977190907E+02 -0.31064898244E+02 -0.17339275529E+02  0.95825982283E+02  0.00000000000E+00 0. -1.
         21    1    1    2  506  501 -0.58522917744E+02  0.99915169916E+01  0.16786241399E+03  0.17805210570E+03  0.00000000000E+00 0. -1.
<scales pt_clust_3="14000.00000" pt_clust_4="31.11775" pt_clust_5="83.84156" pt_clust_6="40.04838"></scales>
<clustering>
<clus scale="   31.118">  1  4  2 -1</clus>
<clus scale="   40.048">  1  6  2 -1</clus>
<clus scale="   83.842">  2  5  1 -1</clus>
<clus scale="   31.118">  1  3  2 -1</clus>
</clustering>
</event>
<event>
 6    0  0.4227619E+002  0.1144165E+03  0.7546771E-02  0.1252603E+00
         21   -1    0    0  505  501  0.00000000000E+00  0.00000000000E+00  0.60527364635E+02  0.60527364635E+02  0.00000000000E+00 0. -1.
         21   -1    0    0  506  502 -0.00000000000E+00 -0.00000000000E+00 -0.14391524770E+04  0.14391524770E+04  0.00000000000E+00 0.  1.
         21    1    1    2  503  504 -0.69496918260E+02  0.17482475822E+02 -0.37621097684E+02  0.80937047138E+02  0.00000000000E+00 0.  1.
         21    1    1    2  504  502 -0.67311308520E+02  0.67483346310E+02 -0.22903003345E+03  0.24807170437E+03  0.00000000000E+00 0.  1.
         21    1    1    2  505  503  0.23558923220E+02 -0.36652555469E+02  0.77014145146E+01  0.44246406309E+02  0.00000000000E+00 0. -1.
         21    1    1    2  506  501  0.11324930356E+03 -0.48313266664E+02 -0.11196753957E+04  0.11264246838E+04  0.00000000000E+00 0.  1.
<scales pt_clust_3="55.00506" pt_clust_4="114.41646" pt_clust_5="43.57101" pt_clust_6="14000.00000"></scales>
<clustering>
<clus scale="   43.571">  1  5  2 -1</clus>
<clus scale="   55.005">  1  3  2 -1</clus>
<clus scale="  114.416">  1  4  2 -1</clus>
<clus scale="   43.571">  1  3  2 -1</clus>
</clustering>
</event>
<event>
 6    0  0.4227619E+002  0.7663784E+02  0.7546771E-02  0.1338873E+00
         21   -1    0    0  506  501  0.00000000000E+00  0.00000000000E+00  0.12987559986E+03  0.12987559986E+03  0.00000000000E+00 0. -1.
         21   -1    0    0  503  502 -0.00000000000E+00 -0.00000000000E+00 -0.88373525835E+03  0.88373525835E+03  0.00000000000E+00 0. -1.
         21    1    1    2  503  501 -0.46090256680E+02  0.67619343847E+02 -0.54861162504E+02  0.98521239204E+02  0.00000000000E+00 0.  1.
         21    1    1    2  504  502 -0.32650060349E+02 -0.44978135672E+02 -0.75842616536E+03  0.76045993151E+03  0.00000000000E+00 0. -1.
         21    1    1    2  505  504  0.88203375065E+02  0.59869669378E+01  0.79100382320E+02  0.11862777765E+03  0.00000000000E+00 0. -1.
         21    1    1    2  506  505 -0.94630580361E+01 -0.28628175113E+02 -0.19672712945E+02  0.36001909842E+02  0.00000000000E+00 0.  1.
<scales pt_clust_3="76.63784" pt_clust_4="55.81937" pt_clust_5="14000.00000" pt_clust_6="30.15165"></scales>
<clustering>
<clus scale="   30.152">  1  6  2 -1</clus>
<clus scale="   55.819">  2  4  1 -1</clus>
<clus scale="   76.638">  2  3  1 -1</clus>
<clus scale="   30.152">  1  3  2 -1</clus>
</clustering>
</event>
<event>
 6    0  0.4227619E+002  0.1371598E+03  0.7546771E-02  0.1217203E+00
         21   -1    0    0  506  501  0.00000000000E+00  0.00000000000E+00  0.46241106901E+02  0.46241106901E+02  0.00000000000E+00 0. -1.
         21   -1    0    0  503  502 -0.00000000000E+00 -0.00000000000E+00 -0.10336908544E+04  0.10336908544E+04  0.00000000000E+00 0. -1.
         21    1    1    2  503  504  0.44442638817E+02 -0.48769985943E+02 -0.32762873282E+03  0.33420689138E+03  0.00000000000E+00 0. -1.
         21    1    1    2  504  505  0.30172589542E+02 -0.35083661551E+02 -0.44410335111E+02  0.64136778311E+02  0.00000000000E+00 0. -1.
         21    1    1    2  505  501  0.77883880175E+02 -0.14540539813E+02 -0.66453308423E+02  0.10340874378E+03  0.00000000000E+00 0. -1.
         21    1    1    2  506  502 -0.15249910853E+03  0.98394187307E+02 -0.54895737111E+03  0.57817954780E+03  0.00000000000E+00 0. -1.
<scales pt_clust_3="65.98227" pt_clust_4="30.96768" pt_clust_5="30.96768" pt_clust_6="131.03749"></scales>
<clustering>
<clus scale="   30.968">  4  5 -1 -1</clus>
<clus scale="   65.982">  2  3  1 -1</clus>
<clus scale="  131.037">  2  6  1 -1</clus>
<clus scale="  137.160">  1  3  2 -1</clus>
</clustering>
</event>
<event>
 6    0  0.4227619E+002  0.8732086E+02  0.7546771E-02  0.1309472E+00
         21   -1    0    0  505  501  0.00000000000E+00  0.00000000000E+00  0.11992610802E+04  0.11992610802E+04  0.00000000000E+00 0.  1.
         21   -1    0    0  504  502 -0.00000000000E+00 -0.00000000000E+00 -0.92780422740E+02  0.92780422740E+02  0.00000000000E+00 0.  1.
         21    1    1    2  503  502  0.21076673405E+02  0.29801146761E+02 -0.13179851942E+02  0.38807769935E+02  0.00000000000E+00 0.  1.
         21    1    1    2  504  501  0.27420729840E+02 -0.14956176097E+03  0.53949600089E+02  0.16134179905E+03  0.00000000000E+00 0.  1.
         21    1    1    2  505  506 -0.53966625247E+02  0.66615562440E+02  0.10137380227E+04  0.10173567755E+04  0.00000000000E+00 0.  1.
         21    1    1    2  506  503  0.54692220016E+01  0.53145051770E+02  0.51972886602E+02  0.74535158541E+02  0.00000000000E+00 0.  1.
<scales pt_clust_3="36.50116" pt_clust_4="87.32086" pt_clust_5="14000.00000" pt_clust_6="58.87536"></scales>
<clustering>
<clus scale="   36.501">  2  3  1 -1</clus>
<clus scale="   58.875">  2  6  1 -1</clus>
<clus scale="   87.321">  2  4  1 -1</clus>
<clus scale="   87.321">  1  3  2 -1</clus>
</clustering>
</event>
<event>
 6    0  0.4227619E+002  0.7568946E+02  0.7546771E-02  0.1341749E+00
         21   -1    0    0  505  501  0.00000000000E+00  0.00000000000E+00  0.89122046746E+02  0.89122046746E+02  0.00000000000E+00 0.  1.
         21   -1    0    0  506  502 -0.00000000000E+00 -0.00000000000E+00 -0.14118396502E+04  0.14118396502E+04  0.00000000000E+00 0.  1.
         21    1    1    2  503  504 -0.44481936244E+02 -0.12716259205E+03 -0.79067997712E+03  0.80207468086E+03  0.00000000000E+00 0.  1.
         21    1    1    2  504  501  0.34422239506E+02  0.65967076147E+02  0.60535463769E+02  0.95922302317E+02  0.00000000000E+00 0.  1.
         21    1    1    2  505  502 -0.32736467408E+02  0.56387284043E+02 -0.42367462654E+03  0.42866232780E+03  0.00000000000E+00 0. -1.
         21    1    1    2  506  503  0.42796164146E+02  0.48082318635E+01 -0.16889846361E+03  0.17430238601E+03  0.00000000000E+00 0.  1.
<scales pt_clust_3="14000.00000" pt_clust_4="75.68946" pt_clust_5="60.77578" pt_clust_6="43.06542"></scales>
<clustering>
<clus scale="   43.065">  2  6  1 -1</clus>
<clus scale="   60.776">  2  5  1 -1</clus>
<clus scale="   75.689">  1  4  2 -1</clus>
<clus scale="   75.689">  1  3  2 -1</clus>
</clustering>
</event>
<event>
 6    0  0.4227619E+002  0.1639782E+03  0.7546771E-02  0.1184277E+00
         21   -1    0    0  506  501  0.00000000000E+00  0.00000000000E+00  0.17127290075E+04  0.17127290075E+04  0.00000000000E+00 0. -1.
         21   -1    0    0  504  502 -0.00000000000E+00 -0.00000000000E+00 -0.59060825581E+03  0.59060825581E+03  0.00000000000E+00 0. -1.
         21    1    1    2  503  505 -0.16577520262E+03  0.15709145926E+03  0.52735386854E+03  0.57468360603E+03  0.00000000000E+00 0. -1.
         21    1    1    2  504  503  0.86038900911E+02 -0.13066413466E+03 -0.32354274153E+02  0.15975796572E+03  0.00000000000E+00 0. -1.
         21    1    1    2  505  501  0.11772057192E+03 -0.40362751597E+01  0.10938072750E+04  0.11001312556E+04  0.00000000000E+00 0. -1.
         21    1    1    2  506  502 -0.37984270216E+02 -0.22391049441E+02 -0.46668611778E+03  0.46876443594E+03  0.00000000000E+00 0. -1.
<scales pt_clust_3="14000.00000" pt_clust_4="163.97815" pt_clust_5="116.83425" pt_clust_6="44.09267"></scales>
<clustering>
<clus scale="   44.093">  2  6  1 -1</clus>
<clus scale="  116.834">  1  5  2 -1</clus>
<clus scale="  163.978">  2  4  1 -1</clus>
<clus scale="  116.834">  1  3  2 -1</clus>
</clustering>
</event>
<event>
 6    0  0.4227619E+002  0.1018304E+03  0.7546771E-02  0.1276493E+00
         21   -1    0    0  504  501  0.00000000000E+00  0.00000000000E+00  0.17068847379E+04  0.17068847379E+04  0.00000000000E+00 0. -1.
         21   -1    0    0  505  502 -0.00000000000E+00 -0.00000000000E+00 -0.53094287172E+02  0.53094287172E+02  0.00000000000E+00 0. -1.
         21    1    1    2  503  501  0.24627961680E+02 -0.63199833145E+02  0.31198924549E+03  0.31927737894E+03  0.00000000000E+00 0. -1.
         21    1    1    2  504  506 -0.11107011946E+03  0.12112718408E+03  0.12642608789E+04  0.12748976179E+04  0.00000000000E+00 0. -1.
         21    1    1    2  505  503  0.62817059657E+02 -0.10174433013E+02 -0.89088420460E+01  0.64256280142E+02  0.00000000000E+00 0. -1.
         21    1    1    2  506  502  0.23625098122E+02 -0.47752917922E+02  0.86449168421E+02  0.10154774814E+03  0.00000000000E+00 0. -1.
<scales pt_clust_3="72.07614" pt_clust_4="101.83044" pt_clust_5="14000.00000" pt_clust_6="53.27745"></scales>
<clustering>
<clus scale="   53.277">  2  6  1 -1</clus>
<clus scale="   72.076">  1  3  2 -1</clus>
<clus scale="  101.830">  1  4  2 -1</clus>
<clus scale="   72.076">  1  3  2 -1</clus>
</clustering>
</event>
<event>
 6    0  0.4227619E+002  0.7594871E+02  0.7546771E-02  0.1340958E+00
         21   -1    0    0  504  501  0.00000000000E+00  0.00000000000E+00  0.13351004595E+04  0.13351004595E+04  0.00000000000E+00 0.  1.
         21   -1    0    0  503  502 -0.00000000000E+00 -0.00000000000E+00 -0.58274443705E+03  0.58274443705E+03  0.00000000000E+00 0. -1.
         21    1    1    2  503  501 -0.14471050168E+03  0.25086211037E+02  0.62301446714E+02  0.15953657118E+03  0.00000000000E+00 0.  1.
         21    1    1    2  504  505  0.34715313395E+02 -0.14911253718E+02  0.12086653294E+04  0.12092557120E+04  0.00000000000E+00 0.  1.
         21    1    1    2  505  506  0.37812892091E+02 -0.28391761678E+02 -0.32744675024E+02  0.57516264499E+02  0.00000000000E+00 0.  1.
         21    1    1    2  506  502  0.72182296193E+02  0.18216804359E+02 -0.48586607868E+03  0.49153634886E+03  0.00000000000E+00 0. -1.
<scales pt_clust_3="14000.00000" pt_clust_4="37.78225" pt_clust_5="50.89791" pt_clust_6="75.94871"></scales>
<clustering>
<clus scale="   37.782">  1  4  2 -1</clus>
<clus scale="   50.898">  1  5  2 -1</clus>
<clus scale="   75.949">  2  6  1 -1</clus>
<clus scale="   37.782">  1  3  2 -1</clus>
</clustering>
</event>
<event>
 6    0  0.4227619E+002  0.8243305E+02  0.7546771E-02  0.1322285E+00
         21   -1    0    0  505  501  0.00000000000E+00  0.00000000000E+00  0.33396816113E+03  0.33396816113E+03  0.00000000000E+00 0.  1.
         21   -1    0    0  506  502 -0.00000000000E+00 -0.00000000000E+00 -0.99172006671E+02  0.99172006671E+02  0.00000000000E+00 0.  1.
         21    1    1    2  503  501 -0.33859803718E+02 -0.10991408107E+03  0.17240120027E+03  0.20724325171E+03  0.00000000000E+00 0.  1.
         21    1    1    2  504  502 -0.19867075227E+02  0.59629394270E+02  0.52933098078E+02  0.82172247208E+02  0.00000000000E+00 0.  1.
         21    1    1    2  505  504  0.34109718446E+02  0.11705974995E+02  0.64386034722E+02  0.73797453955E+02  0.00000000000E+00 0.  1.
         21    1    1    2  506  503  0.19617160499E+02  0.38578711802E+02 -0.54924178616E+02  0.69927214924E+02  0.00000000000E+00 0.  1.
<scales pt_clust_3="82.43305" pt_clust_4="14000.00000" pt_clust_5="36.06248" pt_clust_6="44.01901"></scales>
<clustering>
<clus scale="   36.062">  1  5  2 -1</clus>
<clus scale="   44.019">  2  6  1 -1</clus>
<clus scale="   82.433">  1  3  2 -1</clus>
<clus scale="   36.062">  1  3  2 -1</clus>
</clustering>
</event>
<event>
 6    0  0.4227619E+002  0.1065856E+03  0.7546771E-02  0.1267027E+00
         21   -1    0    0  504  501  0.00000000000E+00  0.00000000000E+00  0.26886683235E+03  0.26886683235E+03  0.00000000000E+00 0. -1.
         21   -1    0    0  503  502 -0.00000000000E+00 -0.00000000000E+00 -0.28491888942E+03  0.28491888942E+03  0.00000000000E+00 0. -1.
         21    1    1    2  503  506  0.30621564700E+02  0.67383585809E+02 -0.73392241170E+02  0.10423362665E+03  0.00000000000E+00 0. -1.
         21    1    1    2  504  505  0.12232738894E+02 -0.86693118936E+02 -0.54640670223E+02  0.10320338955E+03  0.00000000000E+00 0. -1.
         21    1    1    2  505  502  0.95826288879E+01 -0.49859014575E+02 -0.10282083128E+03  0.11467288893E+03  0.00000000000E+00 0. -1.
         21    1    1    2  506  501 -0.52436932482E+02  0.69168547702E+02  0.21480168560E+03  0.23167581664E+03  0.00000000000E+00 0. -1.
<scales pt_clust_3="74.01505" pt_clust_4="45.39507" pt_clust_5="45.39507" pt_clust_6="88.35690"></scales>
<clustering>
<clus scale="   45.395">  4  5 -1 -1</clus>
<clus scale="   74.015">  2  3  1 -1</clus>
<clus scale="   88.357">  1  6  2 -1</clus>
<clus scale="   88.357">  1  3  2 -1</clus>
</clustering>
</event>
<event>
 6    0  0.4227619E+002  0.1174505E+03  0.7546771E-02  0.1247363E+00
         21   -1    0    0  505  501  0.00000000000E+00  0.00000000000E+00  0.22761156448E+03  0.22761156448E+03  0.00000000000E+00 0.  1.
         21   -1    0    0  503  502 -0.00000000000E+00 -0.00000000000E+00 -0.62442259705E+03  0.62442259705E+03  0.00000000000E+00 0.  1.
         21    1    1    2  503  504  0.44323523846E+02  0.49904545104E+02 -0.50799268748E+03  0.51235886732E+03  0.00000000000E+00 0.  1.
         21    1    1    2  504  506  0.68514446269E+00  0.77603650511E+02 -0.21377779893E+02  0.80497238888E+02  0.00000000000E+00 0.  1.
         21    1    1    2  505  502 -0.22119337648E+02 -0.17108469535E+03  0.92682127710E+02  0.19582955568E+03  0.00000000000E+00 0.  1.
         21    1    1    2  506  501 -0.22889330661E+02  0.43576499731E+02  0.39877307095E+02  0.63348499651E+02  0.00000000000E+00 0.  1.
<scales pt_clust_3="66.96411" pt_clust_4="14000.00000" pt_clust_5="117.45049" pt_clust_6="49.22228"></scales>
<clustering>
<clus scale="   49.222">  1  6  2 -1</clus>
<clus scale="   66.964">  2  3  1 -1</clus>
<clus scale="  117.450">  1  5  2 -1</clus>
<clus scale="   49.222">  1  3  2 -1</clus>
</clustering>
</event>
<event>
 6    0  0.4227619E+002  0.1138160E+03  0.7546771E-02  0.1253662E+00
         21   -1    0    0  504  501  0.00000000000E+00  0.00000000000E+00  0.34006983416E+03  0.34006983416E+03  0.00000000000E+00 0. -1.
         21   -1    0    0  505  502 -0.00000000000E+00 -0.00000000000E+00 -0.15704427894E+04  0.15704427894E+04  0.00000000000E+00 0.  1.
         21    1    1    2  503  502  0.90159239707E+02 -0.71250712440E+02 -0.12038398409E+04  0.12093120834E+04  0.00000000000E+00 0.  1.
         21    1    1    2  504  506 -0.53434979022E+02  0.51139416325E+02  0.19760532053E+02  0.76557269493E+02  0.00000000000E+00 0.  1.
         21    1    1    2  505  501  0.78206356686E+02 -0.75893630386E+01  0.27304398077E+03  0.28412470517E+03  0.00000000000E+00 0. -1.
         21    1    1    2  506  503 -0.11493061737E+03  0.27700659153E+02 -0.31933762715E+03  0.34051856549E+03  0.00000000000E+00 0.  1.
<scales pt_clust_3="113.81602" pt_clust_4="73.96308" pt_clust_5="49.38763" pt_clust_6="14000.00000"></scales>
<clustering>
<clus scale="   73.963">  1  4  2 -1</clus>
<clus scale="   49.388">  1  5  2 -1</clus>
<clus scale="  113.816">  2  3  1 -1</clus>
<clus scale="   73.963">  1  3  2 -1</clus>
</clustering>
</event>
<event>
 6    0  0.4227619E+002  0.1108579E+03  0.7546771E-02  0.1258989E+00
         21   -1    0    0  503  501  0.00000000000E+00  0.00000000000E+00  0.78378111651E+03  0.78378111651E+03  0.00000000000E+00 0. -1.
         21   -1    0    0  505  502 -0.00000000000E+00 -0.00000000000E+00 -0.25168972453E+03  0.25168972453E+03  0.00000000000E+00 0.  1.
         21    1    1    2  503  502  0.36203460964E+02 -0.10558285973E+03  0.43258938172E+03  0.44675720927E+03  0.00000000000E+00 0. -1.
         21    1    1    2  504  501  0.68089164299E+02  0.12222264009E+03  0.30029507182E+03  0.33128784796E+03  0.00000000000E+00 0. -1.
         21    1    1    2  505  506 -0.39402316357E+02 -0.56298601703E+01 -0.18567615725E+03  0.18989437388E+03  0.00000000000E+00 0.  1.
         21    1    1    2  506  504 -0.64890308906E+02 -0.11009920189E+02 -0.15116904309E+02  0.67531409939E+02  0.00000000000E+00 0. -1.
<scales pt_clust_3="14000.00000" pt_clust_4="110.85789" pt_clust_5="39.80249" pt_clust_6="91.54987"></scales>
<clustering>
<clus scale="   39.802">  2  5  1 -1</clus>
<clus scale="   91.550">  2  6  1 -1</clus>
<clus scale="  110.858">  2  4  1 -1</clus>
<clus scale="  110.858">  1  3  2 -1</clus>
</clustering>
</event>
<event>
 6    0  0.4227619E+002  0.1021342E+03  0.7546771E-02  0.1275871E+00
         21   -1    0    0  504  501  0.00000000000E+00  0.00000000000E+00  0.33040285540E+03  0.33040285540E+03  0.00000000000E+00 0. -1.
         21   -1    0    0  506  502 -0.00000000000E+00 -0.00000000000E+00 -0.23023579522E+03  0.23023579522E+03  0.00000000000E+00 0.  1.
         21    1    1    2  503  501  0.10554713223E+03  0.10221365731E+02  0.23840920975E+03  0.26092839004E+03  0.00000000000E+00 0. -1.
         21    1    1    2  504  505  0.30984445050E+01  0.49841151182E+02  0.22084130712E+02  0.54602651390E+02  0.00000000000E+00 0.  1.
         21    1    1    2  505  502 -0.37383231742E+02  0.93636902991E+01 -0.13781554957E+03  0.14310244727E+03  0.00000000000E+00 0.  1.
         21    1    1    2  506  503 -0.71262344992E+02 -0.69426207213E+02 -0.22510730715E+02  0.10200516192E+03  0.00000000000E+00 0.  1.
<scales pt_clust_3="102.13421" pt_clust_4="51.66763" pt_clust_5="38.53809" pt_clust_6="14000.00000"></scales>
<clustering>
<clus scale="   38.538">  2  5  1 -1</clus>
<clus scale="   51.668">  2  4  1 -1</clus>
<clus scale="  102.134">  1  3  2 -1</clus>
<clus scale="  102.134">  1  3  2 -1</clus>
</clustering>
</event>
<event>
 6    0  0.4227619E+002  0.8672753E+02  0.7546771E-02  0.1310976E+00
         21   -1    0    0  503  501  0.00000000000E+00  0.00000000000E+00  0.13823085591E+04  0.13823085591E+04  0.00000000000E+00 0.  1.
         21   -1    0    0  505  502 -0.00000000000E+00 -0.00000000000E+00 -0.80447363434E+02  0.80447363434E+02  0.00000000000E+00 0. -1.
         21    1    1    2  503  502  0.92411948280E+02 -0.14269347741E+02  0.33914190164E+03  0.35179654905E+03  0.00000000000E+00 0.  1.
         21    1    1    2  504  501 -0.28640350072E+02 -0.59401850602E+02  0.96507850895E+03  0.96732899158E+03  0.00000000000E+00 0.  1.
         21    1    1    2  505  506 -0.35751973616E+01  0.30554229306E+02 -0.47734199779E+02  0.56788174765E+02  0.00000000000E+00 0. -1.
         21    1    1    2  506  504 -0.60196400846E+02  0.43116969037E+02  0.45374984873E+02  0.86842207169E+02  0.00000000000E+00 0. -1.
<scales pt_clust_3="86.72753" pt_clust_4="64.91240" pt_clust_5="30.76269" pt_clust_6="14000.00000"></scales>
<clustering>
<clus scale="   30.763">  2  5  1 -1</clus>
<clus scale="   64.912">  1  4  2 -1</clus>
<clus scale="   86.728">  1  3  2 -1</clus>
<clus scale="   64.912">  1  3  2 -1</clus>
</clustering>
</event>
<event>
 6    0  0.4227619E+002  0.1311716E+03  0.7546771E-02  0.1225728E+00
         21   -1    0    0  504  501  0.00000000000E+00  0.00000000000E+00  0.50534487464E+03  0.50534487464E+03  0.00000000000E+00 0.  1.
         21   -1    0    0  505  502 -0.00000000000E+00 -0.00000000000E+00 -0.55255568992E+03  0.55255568992E+03  0.00000000000E+00 0. -1.
         21    1    1    2  503  501 -0.12562056097E+03 -0.58444934456E+02  0.43751062168E+03  0.45892469947E+03  0.00000000000E+00 0.  1.
         21    1    1    2  504  506  0.57361173733E+02  0.86415094419E+02 -0.14292365239E+02  0.10470026027E+03  0.00000000000E+00 0.  1.
         21    1    1    2  505  503  0.19325867358E+02 -0.48436511874E+02 -0.56214826946E+02  0.76679147102E+02  0.00000000000E+00 0. -1.
         21    1    1    2  506  502  0.48933519882E+02  0.20466351910E+02 -0.41421424477E+03  0.41759645772E+03  0.00000000000E+00 0. -1.
<scales pt_clust_3="14000.00000" pt_clust_4="131.17160" pt_clust_5="52.14964" pt_clust_6="68.74633"></scales>
<clustering>
<clus scale="   52.150">  2  5  1 -1</clus>
<clus scale="   68.746">  2  6  1 -1</clus>
<clus scale="  131.172">  2  4  1 -1</clus>
<clus scale="  131.172">  1  3  2 -1</clus>
</clustering>
</event>
<event>
 6    0  0.4227619E+002  0.9807933E+02  0.7546771E-02  0.1284387E+00
         21   -1    0    0  504  501  0.00000000000E+00  0.00000000000E+00  0.52103261323E+02  0.52103261323E+02  0.00000000000E+00 0. -1.
         21   -1    0    0  505  502 -0.00000000000E+00 -0.00000000000E+00 -0.12757301344E+04  0.12757301344E+04  0.00000000000E+00 0. -1.
         21    1    1    2  503  501 -0.10780649059E+02 -0.34550977300E+02 -0.19632726877E+02  0.41175677179E+02  0.00000000000E+00 0. -1.
         21    1    1    2  504  502  0.33590070349E+02  0.13140662991E+02  0.36280071289E-01  0.36068977891E+02  0.00000000000E+00 0. -1.
         21    1    1    2  505  506  0.95724229564E+02  0.85476293576E+01 -0.10566845672E+04  0.10610459296E+04  0.00000000000E+00 0. -1.
         21    1    1    2  506  503 -0.11853365085E+03  0.12862684952E+02 -0.14734585907E+03  0.18954281109E+03  0.00000000000E+00 0. -1.
<scales pt_clust_3="30.39449" pt_clust_4="36.06896" pt_clust_5="14000.00000" pt_clust_6="98.07933"></scales>
<clustering>
<clus scale="   36.069">  1  4  2 -1</clus>
<clus scale="   30.394">  1  3  2 -1</clus>
<clus scale="   98.079">  1  6  2 -1</clus>
<clus scale="   36.069">  1  3  2 -1</clus>
</clustering>
</event>
<event>
 6    0  0.4227619E+002  0.1283464E+03  0.7546771E-02  0.1229930E+00
         21   -1    0    0  505  501  0.00000000000E+00  0.00000000000E+00  0.59922498310E+03  0.59922498310E+03  0.00000000000E+00 0.  1.
         21   -1    0    0  503  502 -0.00000000000E+00 -0.00000000000E+00 -0.18414701735E+03  0.18414701735E+03  0.00000000000E+00 0.  1.
         21    1    1    2  503  501 -0.15862210367E+02 -0.29194093251E+02  0.43591521408E+00  0.33227922303E+02  0.00000000000E+00 0. -1.
         21    1    1    2  504  506  0.11988602046E+03  0.24117809529E+02  0.38900390093E+03  0.40777243847E+03  0.00000000000E+00 0.  1.
         21    1    1    2  505  504  0.98359729045E+01 -0.39716349724E+02  0.15735915185E+03  0.16259162792E+03  0.00000000000E+00 0.  1.
         21    1    1    2  506  502 -0.11385978300E+03  0.44792633447E+02 -0.13172100224E+03  0.17978001176E+03  0.00000000000E+00 0.  1.
<scales pt_clust_3="33.22506" pt_clust_4="128.34635" pt_clust_5="41.30016" pt_clust_6="14000.00000"></scales>
<clustering>
<clus scale="   33.225">  2  3  1 -1</clus>
<clus scale="   41.300">  1  5  2 -1</clus>
<clus scale="  128.346">  1  4  2 -1</clus>
<clus scale="   41.300">  1  3  2 -1</clus>
</clustering>
</event>
<event>
 6    0  0.4227619E+002  0.1180090E+03  0.7546771E-02  0.1246418E+00
         21   -1    0    0  503  501  0.00000000000E+00  0.00000000000E+00  0.42939605257E+03  0.42939605257E+03  0.00000000000E+00 0. -1.
         21   -1    0    0  504  502 -0.00000000000E+00 -0.00000000000E+00 -0.50327694812E+03  0.50327694812E+03  0.00000000000E+00 0. -1.
         21    1    1    2  503  506  0.18651200089E+02 -0.51977989378E+02  0.11613341504E+03  0.12859451284E+03  0.00000000000E+00 0. -1.
         21    1    1    2  504  505  0.73784184055E+01  0.31704143588E+02 -0.46734383191E+03  0.46847609438E+03  0.00000000000E+00 0. -1.
         21    1    1    2  505  501 -0.84884082784E+02  0.50745435924E+02  0.79257196361E+02  0.12673637975E+03  0.00000000000E+00 0. -1.
         21    1    1    2  506  502  0.58854464290E+02 -0.30471590134E+02  0.19807232496E+03  0.20886601372E+03  0.00000000000E+00 0. -1.
<scales pt_clust_3="42.64814" pt_clust_4="32.55140" pt_clust_5="107.59570" pt_clust_6="42.64814"></scales>
<clustering>
<clus scale="   32.551">  2  4  1 -1</clus>
<clus scale="   42.648">  3  6 -1 -1</clus>
<clus scale="  107.596">  2  5  1 -1</clus>
<clus scale="  118.009">  1  3  2 -1</clus>
</clustering>
</event>
<event>
 6    0  0.4227619E+002  0.7581821E+02  0.7546771E-02  0.1341356E+00
         21   -1    0    0  505  501  0.00000000000E+00  0.00000000000E+00  0.10971571856E+04  0.10971571856E+04  0.00000000000E+00 0. -1.
         21   -1    0    0  506  502 -0.00000000000E+00 -0.00000000000E+00 -0.17107503024E+03  0.17107503024E+03  0.00000000000E+00 0.  1.
         21    1    1    2  503  504  0.81619922791E+02  0.43180601290E+02  0.44015348271E+03  0.44973488242E+03  0.00000000000E+00 0. -1.
         21    1    1    2  504  501 -0.29111160439E+02 -0.38093057995E+02  0.55362455050E+03  0.55569657516E+03  0.00000000000E+00 0. -1.
         21    1    1    2  505  502  0.18633956494E+02 -0.32119353177E+02  0.84686841489E+02  0.92470202252E+02  0.00000000000E+00 0. -1.
         21    1    1    2  506  503 -0.71142718846E+02  0.27031809882E+02 -0.15238271928E+03  0.17033055606E+03  0.00000000000E+00 0.  1.
<scales pt_clust_3="14000.00000" pt_clust_4="58.86138" pt_clust_5="37.13324" pt_clust_6="75.81821"></scales>
<clustering>
<clus scale="   37.133">  1  5  2 -1</clus>
<clus scale="   58.861">  1  4  2 -1</clus>
<clus scale="   75.818">  2  6  1 -1</clus>
<clus scale="   37.133">  1  3  2 -1</clus>
</clustering>
</event>
<event>
 6    0  0.4227619E+002  0.9655546E+02  0.7546771E-02  0.1287711E+00
         21   -1    0    0  506  501  0.00000000000E+00  0.00000000000E+00  0.29908811409E+03  0.29908811409E+03  0.00000000000E+00 0. -1.
         21   -1    0    0  505  502 -0.00000000000E+00 -0.00000000000E+00 -0.19073337238E+04  0.19073337238E+04  0.00000000000E+00 0.  1.
         21    1    1    2  503  502  0.42175458033E+02  0.87459116451E+02 -0.17937258702E+04  0.17963519599E+04  0.00000000000E+00 0.  1.
         21    1    1    2  504  503 -0.14069299300E+02 -0.49825078838E+02  0.11022691553E+03  0.12178036201E+03  0.00000000000E+00 0. -1.
         21    1    1    2  505  501 -0.65946762502E+02 -0.65476132174E+02 -0.82143586558E+02  0.12403091623E+03  0.00000000000E+00 0.  1.
         21    1    1    2  506  504  0.37840603769E+02  0.27842094560E+02  0.15739693155E+03  0.16425859973E+03  0.00000000000E+00 0. -1.
<scales pt_clust_3="14000.00000" pt_clust_4="31.82717" pt_clust_5="96.55546" pt_clust_6="46.97971"></scales>
<clustering>
<clus scale="   46.980">  1  6  2 -1</clus>
<clus scale="   31.827">  1  4  2 -1</clus>
<clus scale="   96.555">  1  5  2 -1</clus>
<clus scale="   46.980">  1  3  2 -1</clus>
</clustering>
</event>
<event>
 6    0  0.4227619E+002  0.9119682E+02  0.7546771E-02  0.1299979E+00
         21   -1    0    0  505  501  0.00000000000E+00  0.00000000000E+00  0.19991724320E+03  0.19991724320E+03  0.00000000000E+00 0.  1.
         21   -1    0    0  504  502 -0.00000000000E+00 -0.00000000000E+00 -0.98478764942E+03  0.98478764942E+03  0.00000000000E+00 0.  1.
         21    1    1    2  503  506  0.55531814949E+02  0.10438541683E+03 -0.54297782877E+00  0.11823871000E+03  0.00000000000E+00 0.  1.
         21    1    1    2  504  501 -0.26588675508E+02 -0.14859495643E+02  0.18848646334E+02  0.35819460418E+02  0.00000000000E+00 0. -1.
         21    1    1    2  505  503  0.49507232122E+02 -0.43796761770E+02  0.10166332697E+03  0.12126233720E+03  0.00000000000E+00 0.  1.
         21    1    1    2  506  502 -0.78450371562E+02 -0.45729159418E+02 -0.90483940170E+03  0.90938438500E+03  0.00000000000E+00 0.  1.
<scales pt_clust_3="91.19682" pt_clust_4="30.45919" pt_clust_5="62.42149" pt_clust_6="14000.00000"></scales>
<clustering>
<clus scale="   30.459">  1  4  2 -1</clus>
<clus scale="   62.421">  1  5  2 -1</clus>
<clus scale="   91.197">  1  3  2 -1</clus>
<clus scale="   30.459">  1  3  2 -1</clus>
</clustering>
</event>
<event>
 6    0  0.4227619E+002  0.7546222E+02  0.7546771E-02  0.1342446E+00
         21   -1    0    0  503  501  0.00000000000E+00  0.00000000000E+00  0.43698552756E+03  0.43698552756E+03  0.00000000000E+00 0.  1.
         21   -1    0    0  505  502 -0.00000000000E+00 -0.00000000000E+00 -0.24693376104E+03  0.24693376104E+03  0.00000000000E+00 0.  1.
         21    1    1    2  503  504 -0.39761570442E+02  0.19785199302E+02  0.76689960047E+02  0.88621591994E+02  0.00000000000E+00 0.  1.
         21    1    1    2  504  502  0.43465309165E+02  0.24408291582E+02 -0.16359440030E+02  0.52465503685E+02  0.00000000000E+00 0.  1.
         21    1    1    2  505  506 -0.80326979079E+02 -0.87114520843E+02 -0.18299876883E+03  0.21801356082E+03  0.00000000000E+00 0.  1.
         21    1    1    2  506  501  0.76623240356E+02  0.42921029960E+02  0.31272001532E+03  0.32481863210E+03  0.00000000000E+00 0.  1.
<scales pt_clust_3="44.41212" pt_clust_4="48.61296" pt_clust_5="75.46222" pt_clust_6="14000.00000"></scales>
<clustering>
<clus scale="   44.412">  1  3  2 -1</clus>
<clus scale="   48.613">  2  4  1 -1</clus>
<clus scale="   75.462">  2  5  1 -1</clus>
<clus scale="   44.412">  1  3  2 -1</clus>
</clustering>
</event>
<event>
 6    0  0.4227619E+002  0.1135348E+03  0.7546771E-02  0.1254161E+00
         21   -1    0    0  506  501  0.00000000000E+00  0.00000000000E+00  0.77543121438E+02  0.77543121438E+02  0.00000000000E+00 0. -1.
         21   -1    0    0  503  502 -0.00000000000E+00 -0.00000000000E+00 -0.73599990624E+03  0.73599990624E+03  0.00000000000E+00 0.  1.
         21    1    1    2  503  504  0.38411188385E+02 -0.12209880038E+02 -0.36351420961E+03  0.36574182308E+03  0.00000000000E+00 0.  1.
         21    1    1    2  504  505  0.65759897678E+02  0.52444712539E+02 -0.13219743627E+03  0.15668750483E+03  0.00000000000E+00 0.  1.
         21    1    1    2  505  501  0.30434142517E+02  0.48106030684E+02  0.67666313983E+01  0.57325513686E+02  0.00000000000E+00 0.  1.
         21    1    1    2  506  502 -0.13460522858E+03 -0.88340863185E+02 -0.16951177032E+03  0.23378818607E+03  0.00000000000E+00 0. -1.
<scales pt_clust_3="40.30509" pt_clust_4="113.53476" pt_clust_5="57.68136" pt_clust_6="14000.00000"></scales>
<clustering>
<clus scale="   40.305">  2  3  1 -1</clus>
<clus scale="   57.681">  1  5  2 -1</clus>
<clus scale="  113.535">  2  4  1 -1</clus>
<clus scale="   57.681">  1  3  2 -1</clus>
</clustering>
</event>
<event>
 6    0  0.4227619E+002  0.9535005E+02  0.7546771E-02  0.1290390E+00
         21   -1    0    0  503  501  0.00000000000E+00  0.00000000000E+00  0.24961188158E+03  0.24961188158E+03  0.00000000000E+00 0. -1.
         21   -1    0    0  506  502 -0.00000000000E+00 -0.00000000000E+00 -0.33401502647E+03  0.33401502647E+03  0.00000000000E+00 0. -1.
         21    1    1    2  503  502  0.13942335095E+02  0.45783686137E+02  0.25009875344E+02  0.54000263786E+02  0.00000000000E+00 0. -1.
         21    1    1    2  504  501 -0.49403736858E+02  0.30159305158E+02  0.15520244554E+03  0.16564453509E+03  0.00000000000E+00 0. -1.
         21    1    1    2  505  504  0.11327112161E+03 -0.10316817441E+03 -0.10949104693E+03  0.18831438755E+03  0.00000000000E+00 0. -1.
         21    1    1    2  506  505 -0.77809719846E+02  0.27225183115E+02 -0.15512441884E+03  0.17566772162E+03  0.00000000000E+00 0. -1.
<scales pt_clust_3="47.85953" pt_clust_4="75.77853" pt_clust_5="14000.00000" pt_clust_6="95.35005"></scales>
<clustering>
<clus scale="   47.860">  1  3  2 -1</clus>
<clus scale="   75.779">  1  4  2 -1</clus>
<clus scale="   95.350">  2  6  1 -1</clus>
<clus scale="   47.860">  1  3  2 -1</clus>
</clustering>
</event>
<event>
 6    0  0.4227619E+002  0.2403383E+03  0.7546771E-02  0.1119568E+00
         21   -1    0    0  505  501  0.00000000000E+00  0.00000000000E+00  0.72426040768E+03  0.72426040768E+03  0.00000000000E+00 0.  1.
         21   -1    0    0  504  502 -0.00000000000E+00 -0.00000000000E+00 -0.47206803125E+03  0.47206803125E+03  0.00000000000E+00 0. -1.
         21    1    1    2  503  502 -0.27142670302E+03  0.24926361875E+02 -0.31761944971E+03  0.41854019336E+03  0.00000000000E+00 0. -1.
         21    1    1    2  504  506  0.18272328251E+03 -0.67371960654E+01 -0.22214882349E+01  0.18286093840E+03  0.00000000000E+00 0.  1.
         21    1    1    2  505  503  0.11305655291E+03  0.17499878850E+02  0.33519895272E+03  0.35418408747E+03  0.00000000000E+00 0.  1.
         21    1    1    2  506  501 -0.24353132404E+02 -0.35689044659E+02  0.23683436166E+03  0.24074321969E+03  0.00000000000E+00 0.  1.
<scales pt_clust_3="240.33828" pt_clust_4="14000.00000" pt_clust_5="96.08586" pt_clust_6="43.20628"></scales>
<clustering>
<clus scale="   43.206">  1  6  2 -1</clus>
<clus scale="   96.086">  1  5  2 -1</clus>
<clus scale="  240.338">  2  3  1 -1</clus>
<clus scale="   43.206">  1  3  2 -1</clus>
</clustering>
</event>
<event>
 6    0  0.4227619E+002  0.1013484E+03  0.7546771E-02  0.1277486E+00
         21   -1    0    0  503  501  0.00000000000E+00  0.00000000000E+00  0.30036499786E+03  0.30036499786E+03  0.00000000000E+00 0. -1.
         21   -1    0    0  506  502 -0.00000000000E+00 -0.00000000000E+00 -0.31445273312E+03  0.31445273312E+03  0.00000000000E+00 0. -1.
         21    1    1    2  503  505 -0.19870610851E+02  0.86406769896E+02 -0.11394884738E+03  0.14437905277E+03  0.00000000000E+00 0. -1.
         21    1    1    2  504  501 -0.40154427686E+02 -0.98549138295E+02  0.23342823305E+03  0.25654054398E+03  0.00000000000E+00 0. -1.
         21    1    1    2  505  502 -0.27457302945E+02 -0.28133335948E+02 -0.10699959453E+03  0.11399254934E+03  0.00000000000E+00 0. -1.
         21    1    1    2  506  504  0.87482341482E+02  0.40275704347E+02 -0.26567526401E+02  0.99905584883E+02  0.00000000000E+00 0. -1.
<scales pt_clust_3="78.05672" pt_clust_4="101.34836" pt_clust_5="39.31142" pt_clust_6="14000.00000"></scales>
<clustering>
<clus scale="   39.311">  2  5  1 -1</clus>
<clus scale="   78.057">  2  3  1 -1</clus>
<clus scale="  101.348">  1  4  2 -1</clus>
<clus scale="  101.348">  1  3  2 -1</clus>
</clustering>
</event>
<event>
 6    0  0.4227619E+002  0.8407324E+02  0.7546771E-02  0.1317874E+00
         21   -1    0    0  504  501  0.00000000000E+00  0.00000000000E+00  0.17863608397E+03  0.17863608397E+03  0.00000000000E+00 0.  1.
         21   -1    0    0  505  502 -0.00000000000E+00 -0.00000000000E+00 -0.19642196326E+04  0.19642196326E+04  0.00000000000E+00 0. -1.
         21    1    1    2  503  501  0.59806736305E+02  0.10155503311E+03  0.17948011831E+02  0.11921577742E+03  0.00000000000E+00 0.  1.
         21    1    1    2  504  506 -0.15116908440E+02 -0.38749496536E+02  0.97200140139E+02  0.10572564327E+03  0.00000000000E+00 0.  1.
         21    1    1    2  505  503 -0.58410389789E+01  0.47553701847E+02 -0.14919529767E+04  0.14927220628E+04  0.00000000000E+00 0. -1.
         21    1    1    2  506  502 -0.38848788886E+02 -0.11035923842E+03 -0.40877872399E+03  0.42519223310E+03  0.00000000000E+00 0. -1.
<scales pt_clust_3="14000.00000" pt_clust_4="41.59380" pt_clust_5="47.72873" pt_clust_6="84.07324"></scales>
<clustering>
<clus scale="   41.594">  1  4  2 -1</clus>
<clus scale="   47.729">  2  5  1 -1</clus>
<clus scale="   84.073">  2  6  1 -1</clus>
<clus scale="   41.594">  1  3  2 -1</clus>
</clustering>
</event>
<event>
 6    0  0.4227619E+002  0.1001142E+03  0.7546771E-02  0.1280056E+00
         21   -1    0    0  505  501  0.00000000000E+00  0.00000000000E+00  0.91829367751E+03  0.91829367751E+03  0.00000000000E+00 0.  1.
         21   -1    0    0  504  502 -0.00000000000E+00 -0.00000000000E+00 -0.48942989400E+02  0.48942989400E+02  0.00000000000E+00 0.  1.
         21    1    1    2  503  506  0.39330352529E+02 -0.23367986264E+01  0.10013259567E+02  0.40652215500E+02  0.00000000000E+00 0.  1.
         21    1    1    2  504  503  0.42383776630E+02  0.35921902426E+02  0.26557877160E+02  0.61579935324E+02  0.00000000000E+00 0.  1.
         21    1    1    2  505  502 -0.11486028654E+03 -0.76134005568E+00  0.20099729891E+03  0.23150243893E+03  0.00000000000E+00 0.  1.
         21    1    1    2  506  501  0.33146157382E+02 -0.32823763744E+02  0.63178225247E+03  0.63350207715E+03  0.00000000000E+00 0.  1.
<scales pt_clust_3="30.46550" pt_clust_4="30.46550" pt_clust_5="93.34909" pt_clust_6="46.64834"></scales>
<clustering>
<clus scale="   30.465">  3  4 -1 -1</clus>
<clus scale="   46.648">  1  6  2 -1</clus>
<clus scale="   93.349">  1  5  2 -1</clus>
<clus scale="   46.648">  1  3  2 -1</clus>
</clustering>
</event>
<event>
 6    0  0.4227619E+002  0.7514408E+02  0.7546771E-02  0.1343425E+00
         21   -1    0    0  506  501  0.00000000000E+00  0.00000000000E+00  0.64660826734E+02  0.64660826734E+02  0.00000000000E+00 0.  1.
         21   -1    0    0  504  502 -0.00000000000E+00 -0.00000000000E+00 -0.73818791519E+03  0.73818791519E+03  0.00000000000E+00 0. -1.
         21    1    1    2  503  502 -0.42372896091E+02 -0.29899058077E+01 -0.42689866002E+03  0.42900683886E+03  0.00000000000E+00 0. -1.
         21    1    1    2  504  501 -0.15112467673E+02 -0.59497376208E+02 -0.20326249895E+03  0.21232985644E+03  0.00000000000E+00 0. -1.
         21    1    1    2  505  503  0.94191110289E+02  0.27430227583E+02 -0.50360633043E+02  0.11027500171E+03  0.00000000000E+00 0.  1.
         21    1    1    2  506  505 -0.36705746525E+02  0.35057054433E+02  0.69947035603E+01  0.51237044912E+02  0.00000000000E+00 0.  1.
<scales pt_clust_3="42.47825" pt_clust_4="14000.00000" pt_clust_5="75.14408" pt_clust_6="52.84259"></scales>
<clustering>
<clus scale="   42.478">  2  3  1 -1</clus>
<clus scale="   52.843">  1  6  2 -1</clus>
<clus scale="   75.144">  1  5  2 -1</clus>
<clus scale="   52.843">  1  3  2 -1</clus>
</clustering>
</event>
<event>
 6    0  0.4227619E+002  0.8310524E+02  0.7546771E-02  0.1320463E+00
         21   -1    0    0  506  501  0.00000000000E+00  0.00000000000E+00  0.18001130212E+03  0.18001130212E+03  0.00000000000E+00 0.  1.
         21   -1    0    0  503  502 -0.00000000000E+00 -0.00000000000E+00 -0.93059429682E+03  0.93059429682E+03  0.00000000000E+00 0.  1.
         21    1    1    2  503  505  0.80176427417E+02 -0.63839668736E+02 -0.47962125219E+03  0.49044908846E+03  0.00000000000E+00 0.  1.
         21    1    1    2  504  502 -0.13295266586E+02  0.78060584923E+02 -0.39731480001E+03  0.40512870713E+03  0.00000000000E+00 0.  1.
         21    1    1    2  505  501  0.49127305862E+02  0.18477435038E+02  0.28161816300E+02  0.59565054219E+02  0.00000000000E+00 0.  1.
         21    1    1    2  506  504 -0.11600846669E+03 -0.32698351225E+02  0.98191241206E+02  0.15546274913E+03  0.00000000000E+00 0.  1.
<scales pt_clust_3="83.10524" pt_clust_4="14000.00000" pt_clust_5="52.48722" pt_clust_6="71.93122"></scales>
<clustering>
<clus scale="   52.487">  1  5  2 -1</clus>
<clus scale="   71.931">  1  6  2 -1</clus>
<clus scale="   83.105">  1  3  2 -1</clus>
<clus scale="   52.487">  1  3  2 -1</clus>
</clustering>
</event>
<event>
 6    0  0.4227619E+002  0.7652258E+02  0.7546771E-02  0.1339220E+00
         21   -1    0    0  505  501  0.00000000000E+00  0.00000000000E+00  0.16244755017E+04  0.16244755017E+04  0.00000000000E+00 0.  1.
         21   -1    0    0  506  502 -0.00000000000E+00 -0.00000000000E+00 -0.76528085483E+02  0.76528085483E+02  0.00000000000E+00 0.  1.
         21    1    1    2  503  502  0.59430983828E+01 -0.29711924307E+02 -0.31863384552E+02  0.43970377978E+02  0.00000000000E+00 0.  1.
         21    1    1    2  504  501  0.45506744758E+02  0.41780289401E+01  0.93376713918E+03  0.93488469340E+03  0.00000000000E+00 0.  1.
         21    1    1    2  505  503 -0.11552029666E+03 -0.23644602589E+02  0.62854030382E+03  0.63950521475E+03  0.00000000000E+00 0.  1.
         21    1    1    2  506  504  0.64070453522E+02  0.49178497956E+02  0.17503357777E+02  0.82643301055E+02  0.00000000000E+00 0.  1.
<scales pt_clust_3="30.30048" pt_clust_4="45.74655" pt_clust_5="76.52258" pt_clust_6="14000.00000"></scales>
<clustering>
<clus scale="   30.300">  2  3  1 -1</clus>
<clus scale="   45.747">  1  4  2 -1</clus>
<clus scale="   76.523">  1  5  2 -1</clus>
<clus scale="   45.747">  1  3  2 -1</clus>
</clustering>
</event>
<event>
 6    0  0.4227619E+002  0.1010502E+03  0.7546771E-02  0.1278103E+00
         21   -1    0    0  504  501  0.00000000000E+00  0.00000000000E+00  0.11507881207E+04  0.11507881207E+04  0.00000000000E+00 0. -1.
         21   -1    0    0  506  502 -0.00000000000E+00 -0.00000000000E+00 -0.47331702413E+03  0.47331702413E+03  0.00000000000E+00 0.  1.
         21    1    1    2  503  505  0.58679562151E+02  0.78483180380E+02  0.44479261900E+03  0.45545952020E+03  0.00000000000E+00 0. -1.
         21    1    1    2  504  502 -0.86451538270E+02 -0.70880298937E+02 -0.23314752632E+03  0.25856460368E+03  0.00000000000E+00 0.  1.
         21    1    1    2  505  501 -0.29054640870E+02  0.18679754114E+02  0.68309652664E+03  0.68396927568E+03  0.00000000000E+00 0. -1.
         21    1    1    2  506  503  0.56826616989E+02 -0.26282635557E+02 -0.21727052271E+03  0.22611174532E+03  0.00000000000E+00 0.  1.
<scales pt_clust_3="14000.00000" pt_clust_4="101.05024" pt_clust_5="34.54136" pt_clust_6="62.28658"></scales>
<clustering>
<clus scale="   34.541">  1  5  2 -1</clus>
<clus scale="   62.287">  2  6  1 -1</clus>
<clus scale="  101.050">  2  4  1 -1</clus>
<clus scale="   34.541">  1  3  2 -1</clus>
</clustering>
</event>
<event>
 6    0  0.4227619E+002  0.1608361E+03  0.7546771E-02  0.1187756E+00
         21   -1    0    0  505  501  0.00000000000E+00  0.00000000000E+00  0.41029809068E+03  0.41029809068E+03  0.00000000000E+00 0. -1.
         21   -1    0    0  503  502 -0.00000000000E+00 -0.00000000000E+00 -0.25337050393E+03  0.25337050393E+03  0.00000000000E+00 0. -1.
         21    1    1    2  503  504 -0.70965280463E+02 -0.57348888721E+02 -0.54021325401E+00  0.91242851222E+02  0.00000000000E+00 0.  1.
         21    1    1    2  504  501  0.10490856974E+03 -0.11969513782E+03  0.25777617981E+03  0.30295427526E+03  0.00000000000E+00 0. -1.
         21    1    1    2  505  506 -0.10171545399E+03  0.13764188006E+03 -0.77119944166E+02  0.18772002161E+03  0.00000000000E+00 0. -1.
         21    1    1    2  506  502  0.67772164720E+02  0.39402146486E+02 -0.23188435639E+02  0.81751446507E+02  0.00000000000E+00 0. -1.
<scales pt_clust_3="73.59380" pt_clust_4="160.83607" pt_clust_5="14000.00000" pt_clust_6="78.39385"></scales>
<clustering>
<clus scale="   78.394">  2  6  1 -1</clus>
<clus scale="   73.594">  2  3  1 -1</clus>
<clus scale="  160.836">  1  4  2 -1</clus>
<clus scale="  160.836">  1  3  2 -1</clus>
</clustering>
</event>
<event>
 6    0  0.4227619E+002  0.9866335E+02  0.7546771E-02  0.1283132E+00
         21   -1    0    0  504  501  0.00000000000E+00  0.00000000000E+00  0.57498809686E+02  0.57498809686E+02  0.00000000000E+00 0.  1.
         21   -1    0    0  506  502 -0.00000000000E+00 -0.00000000000E+00 -0.17896786401E+04  0.17896786401E+04  0.00000000000E+00 0.  1.
         21    1    1    2  503  505  0.10708909706E+03  0.61112575215E+02 -0.21932282153E+03  0.25160548802E+03  0.00000000000E+00 0.  1.
         21    1    1    2  504  502 -0.70168063047E+02 -0.57240350877E+02 -0.61722148153E+03  0.62382880031E+03  0.00000000000E+00 0.  1.
         21    1    1    2  505  501 -0.85875158917E+01 -0.51669173328E+02  0.18778575419E+02  0.55642463967E+02  0.00000000000E+00 0.  1.
         21    1    1    2  506  503 -0.28333518117E+02  0.47796948991E+02 -0.91441410275E+03  0.91610069747E+03  0.00000000000E+00 0.  1.
<scales pt_clust_3="14000.00000" pt_clust_4="98.66335" pt_clust_5="52.37794" pt_clust_6="53.91660"></scales>
<clustering>
<clus scale="   52.378">  1  5  2 -1</clus>
<clus scale="   53.917">  2  6  1 -1</clus>
<clus scale="   98.663">  2  4  1 -1</clus>
<clus scale="   52.378">  1  3  2 -1</clus>
</clustering>
</event>
<event>
 6    0  0.4227619E+002  0.1633397E+03  0.7546771E-02  0.1184977E+00
         21   -1    0    0  506  501  0.00000000000E+00  0.00000000000E+00  0.33292096939E+03  0.33292096939E+03  0.00000000000E+00 0.  1.
         21   -1    0    0  503  502 -0.00000000000E+00 -0.00000000000E+00 -0.44327664803E+03  0.44327664803E+03  0.00000000000E+00 0.  1.
         21    1    1    2  503  505  0.33308652939E+02  0.15486779810E+03 -0.23413614674E+03  0.28268929315E+03  0.00000000000E+00 0.  1.
         21    1    1    2  504  501 -0.29956610616E+02  0.39190326221E+01  0.13294357346E+03  0.13633323535E+03  0.00000000000E+00 0.  1.
         21    1    1    2  505  504 -0.12221338110E+03 -0.98996931155E+02  0.98881330162E+02  0.18577949390E+03  0.00000000000E+00 0.  1.
         21    1    1    2  506  502  0.11886133878E+03 -0.59789899568E+02 -0.10804443552E+03  0.17139559503E+03  0.00000000000E+00 0.  1.
<scales pt_clust_3="163.33969" pt_clust_4="30.21187" pt_clust_5="14000.00000" pt_clust_6="128.50542"></scales>
<clustering>
<clus scale="   30.212">  1  4  2 -1</clus>
<clus scale="  128.505">  2  6  1 -1</clus>
<clus scale="  163.340">  2  3  1 -1</clus>
<clus scale="   30.212">  1  3  2 -1</clus>
</clustering>
</event>
<event>
 6    0  0.4227619E+002  0.1332763E+03  0.7546771E-02  0.1222674E+00
         21   -1    0    0  506  501  0.00000000000E+00  0.00000000000E+00  0.19715496282E+03  0.19715496282E+03  0.00000000000E+00 0.  1.
         21   -1    0    0  505  502 -0.00000000000E+00 -0.00000000000E+00 -0.22956968017E+03  0.22956968017E+03  0.00000000000E+00 0.  1.
         21    1    1    2  503  502  0.88274446578E+02  0.10274976872E+03 -0.32767355434E+02  0.13936854908E+03  0.00000000000E+00 0.  1.
         21    1    1    2  504  501 -0.22853585711E+02  0.61939978190E+02  0.24186303637E+02  0.70312335771E+02  0.00000000000E+00 0.  1.
         21    1    1    2  505  504 -0.35090593007E+02 -0.95310129809E+01 -0.44650784165E+02  0.57583699539E+02  0.00000000000E+00 0.  1.
         21    1    1    2  506  503 -0.30330267859E+02 -0.15515873393E+03  0.20817118605E+02  0.15946005860E+03  0.00000000000E+00 0.  1.
<scales pt_clust_3="133.27629" pt_clust_4="66.60048" pt_clust_5="36.36193" pt_clust_6="14000.00000"></scales>
<clustering>
<clus scale="   36.362">  2  5  1 -1</clus>
<clus scale="   66.600">  1  4  2 -1</clus>
<clus scale="  133.276">  2  3  1 -1</clus>
<clus scale="   66.600">  1  3  2 -1</clus>
</clustering>
</event>
<event>
 6    0  0.4227619E+002  0.6716114E+02  0.7546771E-02  0.1370022E+00
         21   -1    0    0  506  501  0.00000000000E+00  0.00000000000E+00  0.83271877932E+03  0.83271877932E+03  0.00000000000E+00 0.  1.
         21   -1    0    0  505  502 -0.00000000000E+00 -0.00000000000E+00 -0.18840635034E+03  0.18840635034E+03  0.00000000000E+00 0.  1.
         21    1    1    2  503  502  0.20024570687E+02 -0.49693278405E+02 -0.46156725652E+02  0.70716678887E+02  0.00000000000E+00 0.  1.
         21    1    1    2  504  501  0.31639703037E+02 -0.33112397058E+02  0.30314769296E+03  0.30658771240E+03  0.00000000000E+00 0.  1.
         21    1    1    2  505  504  0.12477379393E+02  0.89602420153E+02 -0.10994959006E+03  0.14238395643E+03  0.00000000000E+00 0.  1.
         21    1    1    2  506  503 -0.64141653117E+02 -0.67967446889E+01  0.49727105173E+03  0.50143678195E+03  0.00000000000E+00 0.  1.
<scales pt_clust_3="14000.00000" pt_clust_4="45.79849" pt_clust_5="67.16114" pt_clust_6="51.22088"></scales>
<clustering>
<clus scale="   45.798">  1  4  2 -1</clus>
<clus scale="   51.221">  1  6  2 -1</clus>
<clus scale="   67.161">  1  5  2 -1</clus>
<clus scale="   45.798">  1  3  2 -1</clus>
</clustering>
</event>
<event>
 6    0  0.4227619E+002  0.7656869E+02  0.7546771E-02  0.1339081E+00
         21   -1    0    0  505  501  0.00000000000E+00  0.00000000000E+00  0.18726823014E+03  0.18726823014E+03  0.00000000000E+00 0.  1.
         21   -1    0    0  503  502 -0.00000000000E+00 -0.00000000000E+00 -0.21760490316E+03  0.21760490316E+03  0.00000000000E+00 0.  1.
         21    1    1    2  503  501 -0.40074695187E+02  0.17483816405E+02  0.65530915525E+02  0.78777953261E+02  0.00000000000E+00 0.  1.
         21    1    1    2  504  502 -0.10780619931E+02  0.70705475274E+02 -0.11826450239E+03  0.13820990748E+03  0.00000000000E+00 0.  1.
         21    1    1    2  505  506  0.69273954540E+02  0.23649962386E+02  0.88667225583E+01  0.73734796856E+02  0.00000000000E+00 0.  1.
         21    1    1    2  506  504 -0.18418639422E+02 -0.11183925406E+03  0.13530191289E+02  0.11415047571E+03  0.00000000000E+00 0.  1.
<scales pt_clust_3="43.72259" pt_clust_4="14000.00000" pt_clust_5="62.52146" pt_clust_6="76.56869"></scales>
<clustering>
<clus scale="   43.723">  1  3  2 -1</clus>
<clus scale="   62.521">  1  5  2 -1</clus>
<clus scale="   76.569">  1  6  2 -1</clus>
<clus scale="   43.723">  1  3  2 -1</clus>
</clustering>
</event>
<event>
 6    0  0.4227619E+002  0.8549450E+02  0.7546771E-02  0.1314144E+00
         21   -1    0    0  505  501  0.00000000000E+00  0.00000000000E+00  0.12251646199E+03  0.12251646199E+03  0.00000000000E+00 0. -1.
         21   -1    0    0  504  502 -0.00000000000E+00 -0.00000000000E+00 -0.11664768783E+04  0.11664768783E+04  0.00000000000E+00 0. -1.
         21    1    1    2  503  501  0.26726624365E+02 -0.18995505261E+02  0.65265693346E+02  0.73039389359E+02  0.00000000000E+00 0. -1.
         21    1    1    2  504  506 -0.43772708877E+02 -0.20952436368E+02 -0.56426188117E+03  0.56634488183E+03  0.00000000000E+00 0. -1.
         21    1    1    2  505  502  0.86736109691E+02  0.91399143966E+02 -0.54862275973E+03  0.56290664301E+03  0.00000000000E+00 0. -1.
         21    1    1    2  506  503 -0.69690025179E+02 -0.51451202338E+02  0.36585312948E+01  0.86702426048E+02  0.00000000000E+00 0. -1.
<scales pt_clust_3="32.78935" pt_clust_4="48.22172" pt_clust_5="14000.00000" pt_clust_6="85.49450"></scales>
<clustering>
<clus scale="   32.789">  1  3  2 -1</clus>
<clus scale="   48.222">  2  4  1 -1</clus>
<clus scale="   85.494">  1  6  2 -1</clus>
<clus scale="   32.789">  1  3  2 -1</clus>
</clustering>
</event>
<event>
 6    0  0.4227619E+002  0.7821816E+02  0.7546771E-02  0.1334185E+00
         21   -1    0    0  503  501  0.00000000000E+00  0.00000000000E+00  0.39821726101E+03  0.39821726101E+03  0.00000000000E+00 0.  1.
         21   -1    0    0  506  502 -0.00000000000E+00 -0.00000000000E+00 -0.29091248637E+03  0.29091248637E+03  0.00000000000E+00 0.  1.
         21    1    1    2  503  504  0.30436309900E+02 -0.57667700510E+02  0.17694847424E+03  0.18858073915E+03  0.00000000000E+00 0.  1.
         21    1    1    2  504  502  0.48378131226E+02  0.97660271473E+02  0.12594959820E+02  0.10971146348E+03  0.00000000000E+00 0.  1.
         21    1    1    2  505  501 -0.84104851694E+02  0.46673319461E+01  0.14038477354E+03  0.16371711794E+03  0.00000000000E+00 0.  1.
         21    1    1    2  506  505  0.52904105679E+01 -0.44659902909E+02 -0.22262343296E+03  0.22712042681E+03  0.00000000000E+00 0.  1.
<scales pt_clust_3="68.91744" pt_clust_4="14000.00000" pt_clust_5="78.21816" pt_clust_6="44.97216"></scales>
<clustering>
<clus scale="   44.972">  2  6  1 -1</clus>
<clus scale="   68.917">  1  3  2 -1</clus>
<clus scale="   78.218">  1  5  2 -1</clus>
<clus scale="   68.917">  1  3  2 -1</clus>
</clustering>
</event>
<event>
 6    0  0.4227619E+002  0.7402372E+02  0.7546771E-02  0.1346921E+00
         21   -1    0    0  504  501  0.00000000000E+00  0.00000000000E+00  0.42662958634E+02  0.42662958634E+02  0.00000000000E+00 0. -1.
         21   -1    0    0  505  502 -0.00000000000E+00 -0.00000000000E+00 -0.42777106969E+03  0.42777106969E+03  0.00000000000E+00 0.  1.
         21    1    1    2  503  502 -0.52397986816E+01  0.34150567940E+02 -0.65355242491E+02  0.73925804033E+02  0.00000000000E+00 0.  1.
         21    1    1    2  504  506 -0.67894107719E+02  0.58513201485E+00 -0.52056780361E+02  0.85556184019E+02  0.00000000000E+00 0.  1.
         21    1    1    2  505  501 -0.16306691436E+02 -0.61787851922E+02 -0.93061387154E+02  0.11288963021E+03  0.00000000000E+00 0.  1.
         21    1    1    2  506  503  0.89440597837E+02  0.27052151967E+02 -0.17463470105E+03  0.19806241006E+03  0.00000000000E+00 0. -1.
<scales pt_clust_3="34.55021" pt_clust_4="14000.00000" pt_clust_5="54.93652" pt_clust_6="74.02372"></scales>
<clustering>
<clus scale="   34.550">  2  3  1 -1</clus>
<clus scale="   54.937">  2  5  1 -1</clus>
<clus scale="   74.024">  2  6  1 -1</clus>
<clus scale="   74.024">  1  3  2 -1</clus>
</clustering>
</event>
<event>
 6    0  0.4227619E+002  0.8454674E+02  0.7546771E-02  0.1316622E+00
         21   -1    0    0  503  501  0.00000000000E+00  0.00000000000E+00  0.17990248807E+03  0.17990248807E+03  0.00000000000E+00 0.  1.
         21   -1    0    0  501  502 -0.00000000000E+00 -0.00000000000E+00 -0.22954094666E+03  0.22954094666E+03  0.00000000000E+00 0.  1.
         21    1    1    2  503  505 -0.40363632568E+02 -0.23079922476E+02  0.55194664725E+02  0.72168945327E+02  0.00000000000E+00 0.  1.
         21    1    1    2  504  502 -0.16390276169E+02  0.32931791746E+02 -0.75037939684E+02  0.83569351155E+02  0.00000000000E+00 0.  1.
         21    1    1    2  505  506 -0.46673950741E+02  0.37116851783E+02  0.77271865179E+02  0.97606657111E+02  0.00000000000E+00 0.  1.
         21    1    1    2  506  504  0.10342785948E+03 -0.46968721053E+02 -0.10706704881E+03  0.15609848114E+03  0.00000000000E+00 0.  1.
<scales pt_clust_3="46.42301" pt_clust_4="36.78511" pt_clust_5="84.54674" pt_clust_6="14000.00000"></scales>
<clustering>
<clus scale="   36.785">  2  4  1 -1</clus>
<clus scale="   46.423">  1  3  2 -1</clus>
<clus scale="   84.547">  1  5  2 -1</clus>
<clus scale="   46.423">  1  3  2 -1</clus>
</clustering>
</event>
<event>
 6    0  0.4227619E+002  0.8508103E+02  0.7546771E-02  0.1315221E+00
         21   -1    0    0  504  501  0.00000000000E+00  0.00000000000E+00  0.20428426658E+04  0.20428426658E+04  0.00000000000E+00 0. -1.
         21   -1    0    0  505  502 -0.00000000000E+00 -0.00000000000E+00 -0.39163764037E+02  0.39163764037E+02  0.00000000000E+00 0. -1.
         21    1    1    2  503  506 -0.20635634154E+02  0.50997544292E+02  0.87680066817E+03  0.87852489471E+03  0.00000000000E+00 0. -1.
         21    1    1    2  504  503  0.52017072603E+02 -0.91633618983E+01  0.95198199456E+03  0.95344609759E+03  0.00000000000E+00 0. -1.
         21    1    1    2  505  501  0.64445449206E+02  0.14270326485E+01  0.10687773288E+03  0.12481226755E+03  0.00000000000E+00 0. -1.
         21    1    1    2  506  502 -0.95826887655E+02 -0.43261215042E+02  0.68018506170E+02  0.12522317001E+03  0.00000000000E+00 0. -1.
<scales pt_clust_3="48.51797" pt_clust_4="52.81802" pt_clust_5="85.08103" pt_clust_6="14000.00000"></scales>
<clustering>
<clus scale="   52.818">  1  4  2 -1</clus>
<clus scale="   48.518">  1  3  2 -1</clus>
<clus scale="   85.081">  1  5  2 -1</clus>
<clus scale="   52.818">  1  3  2 -1</clus>
</clustering>
</event>
<event>
 6    0  0.4227619E+002  0.9688331E+02  0.7546771E-02  0.1286990E+00
         21   -1    0    0  503  501  0.00000000000E+00  0.00000000000E+00  0.87321852096E+03  0.87321852096E+03  0.00000000000E+00 0. -1.
         21   -1    0    0  504  502 -0.00000000000E+00 -0.00000000000E+00 -0.86363671648E+02  0.86363671648E+02  0.00000000000E+00 0. -1.
         21    1    1    2  503  505 -0.63296145645E+02 -0.14526572086E+02  0.10886320265E+03  0.12676206152E+03  0.00000000000E+00 0.  1.
         21    1    1    2  504  506  0.18007200477E+02 -0.61546772714E+02  0.29011764952E+01  0.64192533254E+02  0.00000000000E+00 0. -1.
         21    1    1    2  505  502 -0.60569409387E+02  0.34093662721E+02 -0.13397647914E+02  0.70785084311E+02  0.00000000000E+00 0. -1.
         21    1    1    2  506  501  0.10585835456E+03  0.41979682078E+02  0.68848811808E+03  0.69784251352E+03  0.00000000000E+00 0. -1.
<scales pt_clust_3="14000.00000" pt_clust_4="64.12694" pt_clust_5="48.57573" pt_clust_6="96.88331"></scales>
<clustering>
<clus scale="   64.127">  2  4  1 -1</clus>
<clus scale="   48.576">  2  5  1 -1</clus>
<clus scale="   96.883">  1  6  2 -1</clus>
<clus scale="   96.883">  1  3  2 -1</clus>
</clustering>
</event>
<event>
 6    0  0.4227619E+002  0.1957194E+03  0.7546771E-02  0.1153402E+00
         21   -1    0    0  505  501  0.00000000000E+00  0.00000000000E+00  0.16061083909E+04  0.16061083909E+04  0.00000000000E+00 0. -1.
         21   -1    0    0  506  502 -0.00000000000E+00 -0.00000000000E+00 -0.77933976027E+02  0.77933976027E+02  0.00000000000E+00 0.  1.
         21    1    1    2  503  504  0.16840035013E+03  0.76925181205E+02  0.10593132749E+03  0.21330168207E+03  0.00000000000E+00 0.  1.
         21    1    1    2  504  502  0.19508357379E+02 -0.27359362492E+02  0.27558584011E+02  0.43457867829E+02  0.00000000000E+00 0. -1.
         21    1    1    2  505  503 -0.22087682187E+03 -0.31321259594E+01  0.80189934539E+03  0.83176856203E+03  0.00000000000E+00 0. -1.
         21    1    1    2  506  501  0.32968114359E+02 -0.46433692754E+02  0.59278515798E+03  0.59551425500E+03  0.00000000000E+00 0. -1.
<scales pt_clust_3="195.71938" pt_clust_4="33.60224" pt_clust_5="14000.00000" pt_clust_6="57.60238"></scales>
<clustering>
<clus scale="   33.602">  2  4  1 -1</clus>
<clus scale="   57.602">  1  6  2 -1</clus>
<clus scale="  195.719">  2  3  1 -1</clus>
<clus scale="   57.602">  1  3  2 -1</clus>
</clustering>
</event>
<event>
 6    0  0.4227619E+002  0.6715597E+02  0.7546771E-02  0.1370040E+00
         21   -1    0    0  505  501  0.00000000000E+00  0.00000000000E+00  0.12166911660E+03  0.12166911660E+03  0.00000000000E+00 0. -1.
         21   -1    0    0  503  502 -0.00000000000E+00 -0.00000000000E+00 -0.11098110375E+04  0.11098110375E+04  0.00000000000E+00 0. -1.
         21    1    1    2  503  506 -0.81246293765E+02  0.66871914509E+02 -0.28098795873E+03  0.30004507353E+03  0.00000000000E+00 0. -1.
         21    1    1    2  504  502  0.53398496594E+02 -0.14593731958E+02 -0.77583419977E+03  0.77780658392E+03  0.00000000000E+00 0. -1.
         21    1    1    2  505  504 -0.27399700590E+01  0.31933066069E+02  0.54063399427E+02  0.62849656341E+02  0.00000000000E+00 0. -1.
         21    1    1    2  506  501  0.30587767230E+02 -0.84211248621E+02  0.14616838137E+02  0.90778840352E+02  0.00000000000E+00 0. -1.
<scales pt_clust_3="14000.00000" pt_clust_4="55.18623" pt_clust_5="32.05040" pt_clust_6="67.15597"></scales>
<clustering>
<clus scale="   32.050">  1  5  2 -1</clus>
<clus scale="   55.186">  2  4  1 -1</clus>
<clus scale="   67.156">  1  6  2 -1</clus>
<clus scale="   32.050">  1  3  2 -1</clus>
</clustering>
</event>
<event>
 6    0  0.4227619E+002  0.6722101E+02  0.7546771E-02  0.1369806E+00
         21   -1    0    0  504  501  0.00000000000E+00  0.00000000000E+00  0.26034274043E+03  0.26034274043E+03  0.00000000000E+00 0.  1.
         21   -1    0    0  503  502 -0.00000000000E+00 -0.00000000000E+00 -0.21184855947E+03  0.21184855947E+03  0.00000000000E+00 0.  1.
         21    1    1    2  503  505 -0.53437069648E+02 -0.67249850701E+00  0.33164089500E+02  0.62895385357E+02  0.00000000000E+00 0. -1.
         21    1    1    2  504  506  0.92435592172E+02 -0.75172161768E+01 -0.20764713316E+02  0.95036943124E+02  0.00000000000E+00 0.  1.
         21    1    1    2  505  501 -0.13793506700E+01 -0.48140870614E+02  0.16323971154E+03  0.17019591492E+03  0.00000000000E+00 0.  1.
         21    1    1    2  506  502 -0.37619171854E+02  0.56330585298E+02 -0.12714490676E+03  0.14406305650E+03  0.00000000000E+00 0.  1.
<scales pt_clust_3="59.79318" pt_clust_4="67.22101" pt_clust_5="48.16063" pt_clust_6="14000.00000"></scales>
<clustering>
<clus scale="   48.161">  1  5  2 -1</clus>
<clus scale="   59.793">  1  3  2 -1</clus>
<clus scale="   67.221">  1  4  2 -1</clus>
<clus scale="   48.161">  1  3  2 -1</clus>
</clustering>
</event>
<event>
 6    0  0.4227619E+002  0.1056917E+03  0.7546771E-02  0.1268763E+00
         21   -1    0    0  506  501  0.00000000000E+00  0.00000000000E+00  0.11364548807E+03  0.11364548807E+03  0.00000000000E+00 0. -1.
         21   -1    0    0  505  502 -0.00000000000E+00 -0.00000000000E+00 -0.16951206948E+04  0.16951206948E+04  0.00000000000E+00 0.  1.
         21    1    1    2  503  501 -0.11142912796E+03 -0.52645907160E+02  0.49852180767E+02  0.13294089674E+03  0.00000000000E+00 0. -1.
         21    1    1    2  504  503  0.90387805297E+02 -0.54923710361E+02 -0.60824109311E+03  0.61736844481E+03  0.00000000000E+00 0.  1.
         21    1    1    2  505  504 -0.33319987869E+02  0.11409149454E+03 -0.98408044053E+03  0.99123226549E+03  0.00000000000E+00 0.  1.
         21    1    1    2  506  502  0.54361310531E+02 -0.65218770227E+01 -0.39005853903E+02  0.67224575872E+02  0.00000000000E+00 0. -1.
<scales pt_clust_3="84.98162" pt_clust_4="105.69172" pt_clust_5="14000.00000" pt_clust_6="54.75114"></scales>
<clustering>
<clus scale="   54.751">  1  6  2 -1</clus>
<clus scale="   84.982">  1  3  2 -1</clus>
<clus scale="  105.692">  1  4  2 -1</clus>
<clus scale="   54.751">  1  3  2 -1</clus>
</clustering>
</event>
<event>
 6    0  0.4227619E+002  0.1609667E+03  0.7546771E-02  0.1187610E+00
         21   -1    0    0  503  501  0.00000000000E+00  0.00000000000E+00  0.58072256571E+03  0.58072256571E+03  0.00000000000E+00 0. -1.
         21   -1    0    0  504  502 -0.00000000000E+00 -0.00000000000E+00 -0.70835529779E+02  0.70835529779E+02  0.00000000000E+00 0. -1.
         21    1    1    2  503  506 -0.25123725150E+02 -0.23657722036E+02  0.19255260429E+03  0.19562053777E+03  0.00000000000E+00 0. -1.
         21    1    1    2  504  505 -0.74692096751E+02  0.12120900460E+02  0.61658633548E+02  0.97609490502E+02  0.00000000000E+00 0. -1.
         21    1    1    2  505  501 -0.71615310635E+02 -0.21013213575E+02  0.57051348169E+02  0.93942345031E+02  0.00000000000E+00 0. -1.
         21    1    1    2  506  502  0.17143113254E+03  0.32550035150E+02  0.19862444993E+03  0.26438572219E+03  0.00000000000E+00 0. -1.
<scales pt_clust_3="34.50927" pt_clust_4="33.16425" pt_clust_5="33.16425" pt_clust_6="157.46477"></scales>
<clustering>
<clus scale="   33.164">  4  5 -1 -1</clus>
<clus scale="   34.509">  1  3  2 -1</clus>
<clus scale="  157.465">  1  6  2 -1</clus>
<clus scale="   34.509">  1  3  2 -1</clus>
</clustering>
</event>
<event>
 6    0  0.4227619E+002  0.1234718E+03  0.7546771E-02  0.1237477E+00
         21   -1    0    0  505  501  0.00000000000E+00  0.00000000000E+00  0.10706076052E+04  0.10706076052E+04  0.00000000000E+00 0.  1.
         21   -1    0    0  504  502 -0.00000000000E+00 -0.00000000000E+00 -0.42460652376E+02  0.42460652376E+02  0.00000000000E+00 0.  1.
         21    1    1    2  503  502  0.34451329055E+02  0.36193272217E+02  0.48539893153E+03  0.48796410704E+03  0.00000000000E+00 0.  1.
         21    1    1    2  504  506 -0.13345935570E+03 -0.40336744233E+02  0.11974533455E+03  0.18378628269E+03  0.00000000000E+00 0.  1.
         21    1    1    2  505  503  0.17196676320E+02 -0.31321197413E+02  0.98229518466E+02  0.10452646259E+03  0.00000000000E+00 0. -1.
         21    1    1    2  506  501  0.81811350324E+02  0.35464669430E+02  0.32477316826E+03  0.33679140524E+03  0.00000000000E+00 0.  1.
<scales pt_clust_3="47.69995" pt_clust_4="123.47177" pt_clust_5="35.73154" pt_clust_6="14000.00000"></scales>
<clustering>
<clus scale="   35.732">  1  5  2 -1</clus>
<clus scale="   47.700">  1  3  2 -1</clus>
<clus scale="  123.472">  2  4  1 -1</clus>
<clus scale="   35.732">  1  3  2 -1</clus>
</clustering>
</event>
<event>
 6    0  0.4227619E+002  0.1282565E+03  0.7546771E-02  0.1230066E+00
         21   -1    0    0  504  501  0.00000000000E+00  0.00000000000E+00  0.41172595462E+03  0.41172595462E+03  0.00000000000E+00 0. -1.
         21   -1    0    0  506  502 -0.00000000000E+00 -0.00000000000E+00 -0.97152212237E+03  0.97152212237E+03  0.00000000000E+00 0.  1.
         21    1    1    2  503  501  0.12654944297E+03  0.27661532962E+02  0.38470756321E+03  0.40593082060E+03  0.00000000000E+00 0. -1.
         21    1    1    2  504  505 -0.55851110090E+02 -0.82642669395E+02 -0.45550287661E+03  0.46629607323E+03  0.00000000000E+00 0.  1.
         21    1    1    2  505  502 -0.39507567881E+02  0.41109377463E+02 -0.46687016430E+03  0.47033879188E+03  0.00000000000E+00 0.  1.
         21    1    1    2  506  503 -0.31190765003E+02  0.13871758971E+02 -0.22130690052E+02  0.40682391284E+02  0.00000000000E+00 0.  1.
<scales pt_clust_3="14000.00000" pt_clust_4="128.25651" pt_clust_5="73.05690" pt_clust_6="34.13634"></scales>
<clustering>
<clus scale="   34.136">  2  6  1 -1</clus>
<clus scale="   73.057">  2  5  1 -1</clus>
<clus scale="  128.257">  2  4  1 -1</clus>
<clus scale="  128.257">  1  3  2 -1</clus>
</clustering>
</event>
<event>
 6    0  0.4227619E+002  0.1175892E+03  0.7546771E-02  0.1247128E+00
         21   -1    0    0  504  501  0.00000000000E+00  0.00000000000E+00  0.54384361284E+03  0.54384361284E+03  0.00000000000E+00 0. -1.
         21   -1    0    0  505  502 -0.00000000000E+00 -0.00000000000E+00 -0.47776431302E+03  0.47776431302E+03  0.00000000000E+00 0.  1.
         21    1    1    2  503  502 -0.62676933191E+02  0.72037055550E+02 -0.10396519977E+03  0.14116124854E+03  0.00000000000E+00 0.  1.
         21    1    1    2  504  503  0.45740318015E+02  0.39126789648E+02  0.10327982874E+03  0.11953997400E+03  0.00000000000E+00 0.  1.
         21    1    1    2  505  506 -0.58218732309E+02 -0.96084489813E+02 -0.33425323415E+03  0.35262852198E+03  0.00000000000E+00 0.  1.
         21    1    1    2  506  501  0.75155347485E+02 -0.15079355385E+02  0.40101790501E+03  0.40827818133E+03  0.00000000000E+00 0. -1.
<scales pt_clust_3="95.50018" pt_clust_4="60.19205" pt_clust_5="117.58921" pt_clust_6="14000.00000"></scales>
<clustering>
<clus scale="   60.192">  1  4  2 -1</clus>
<clus scale="   95.500">  2  3  1 -1</clus>
<clus scale="  117.589">  2  5  1 -1</clus>
<clus scale="   60.192">  1  3  2 -1</clus>
</clustering>
</event>
<event>
 6    0  0.4227619E+002  0.1123480E+03  0.7546771E-02  0.1256283E+00
         21   -1    0    0  504  501  0.00000000000E+00  0.00000000000E+00  0.24255847617E+03  0.24255847617E+03  0.00000000000E+00 0.  1.
         21   -1    0    0  506  502 -0.00000000000E+00 -0.00000000000E+00 -0.38459703350E+03  0.38459703350E+03  0.00000000000E+00 0. -1.
         21    1    1    2  503  502 -0.21174086803E+02 -0.44041833876E+02 -0.11671542358E+03  0.12653266450E+03  0.00000000000E+00 0. -1.
         21    1    1    2  504  503  0.38868631184E+02 -0.18567230557E+01  0.18472326744E+03  0.18877739124E+03  0.00000000000E+00 0.  1.
         21    1    1    2  505  501 -0.12043728440E+03  0.26446414325E+02 -0.13683214522E+03  0.18419443061E+03  0.00000000000E+00 0.  1.
         21    1    1    2  506  505  0.10274274001E+03  0.19452142606E+02 -0.73214255970E+02  0.12765102332E+03  0.00000000000E+00 0.  1.
<scales pt_clust_3="47.63768" pt_clust_4="38.91295" pt_clust_5="14000.00000" pt_clust_6="112.34798"></scales>
<clustering>
<clus scale="   38.913">  1  4  2 -1</clus>
<clus scale="   47.638">  2  3  1 -1</clus>
<clus scale="  112.348">  2  6  1 -1</clus>
<clus scale="   38.913">  1  3  2 -1</clus>
</clustering>
</event>
<event>
 6    0  0.4227619E+002  0.9174270E+02  0.7546771E-02  0.1298686E+00
         21   -1    0    0  506  501  0.00000000000E+00  0.00000000000E+00  0.71922553574E+02  0.71922553574E+02  0.00000000000E+00 0. -1.
         21   -1    0    0  503  502 -0.00000000000E+00 -0.00000000000E+00 -0.54218774291E+03  0.54218774291E+03  0.00000000000E+00 0. -1.
         21    1    1    2  503  501  0.41556603581E+02 -0.67633321288E+02 -0.25395218380E+03  0.26606940656E+03  0.00000000000E+00 0. -1.
         21    1    1    2  504  502 -0.10445303616E+03 -0.17799579534E+02 -0.20343330497E+03  0.22937386810E+03  0.00000000000E+00 0. -1.
         21    1    1    2  505  504  0.48178955648E+02  0.55873188195E+02  0.15194026551E+02  0.75325184163E+02  0.00000000000E+00 0. -1.
         21    1    1    2  506  505  0.14717476934E+02  0.29559712627E+02 -0.28073727117E+02  0.43341837664E+02  0.00000000000E+00 0. -1.
<scales pt_clust_3="77.77764" pt_clust_4="91.74270" pt_clust_5="14000.00000" pt_clust_6="33.02091"></scales>
<clustering>
<clus scale="   33.021">  1  6  2 -1</clus>
<clus scale="   77.778">  2  3  1 -1</clus>
<clus scale="   91.743">  2  4  1 -1</clus>
<clus scale="   33.021">  1  3  2 -1</clus>
</clustering>
</event>
<event>
 6    0  0.4227619E+002  0.1472502E+03  0.7546771E-02  0.1203893E+00
         21   -1    0    0  506  501  0.00000000000E+00  0.00000000000E+00  0.34779835318E+03  0.34779835318E+03  0.00000000000E+00 0. -1.
         21   -1    0    0  505  502 -0.00000000000E+00 -0.00000000000E+00 -0.21591810230E+04  0.21591810230E+04  0.00000000000E+00 0. -1.
         21    1    1    2  503  504  0.75670045826E+01  0.13829440443E+03 -0.14797403358E+03  0.20267934396E+03  0.00000000000E+00 0.  1.
         21    1    1    2  504  502  0.47931845846E+02 -0.34560705832E+01 -0.18771335247E+04  0.18777485656E+04  0.00000000000E+00 0. -1.
         21    1    1    2  505  501 -0.60850198041E+01 -0.16567237262E+03 -0.36401233864E+02  0.16973335660E+03  0.00000000000E+00 0. -1.
         21    1    1    2  506  503 -0.49413830624E+02  0.30834038781E+02  0.25012612226E+03  0.25681811003E+03  0.00000000000E+00 0. -1.
<scales pt_clust_3="147.25022" pt_clust_4="48.05628" pt_clust_5="14000.00000" pt_clust_6="57.74082"></scales>
<clustering>
<clus scale="   48.056">  2  4  1 -1</clus>
<clus scale="   57.741">  1  6  2 -1</clus>
<clus scale="  147.250">  2  3  1 -1</clus>
<clus scale="   57.741">  1  3  2 -1</clus>
</clustering>
</event>
<event>
 6    0  0.4227619E+002  0.1014406E+03  0.7546771E-02  0.1277295E+00
         21   -1    0    0  503  501  0.00000000000E+00  0.00000000000E+00  0.73630141792E+03  0.73630141792E+03  0.00000000000E+00 0.  1.
         21   -1    0    0  505  502 -0.00000000000E+00 -0.00000000000E+00 -0.76877120440E+03  0.76877120440E+03  0.00000000000E+00 0. -1.
         21    1    1    2  503  506 -0.49630540778E+02 -0.11916994474E+02  0.69363114429E+03  0.69550655616E+03  0.00000000000E+00 0.  1.
         21    1    1    2  504  502  0.12217114531E+03 -0.60605514187E+02 -0.64992160734E+03  0.66407598420E+03  0.00000000000E+00 0. -1.
         21    1    1    2  505  501 -0.22931621389E+02  0.19886424578E+02 -0.65742172426E+02  0.72411065296E+02  0.00000000000E+00 0.  1.
         21    1    1    2  506  504 -0.49608983142E+02  0.52636084083E+02 -0.10437151011E+02  0.73079016668E+02  0.00000000000E+00 0.  1.
<scales pt_clust_3="51.06488" pt_clust_4="101.44061" pt_clust_5="30.35340" pt_clust_6="14000.00000"></scales>
<clustering>
<clus scale="   30.353">  2  5  1 -1</clus>
<clus scale="   51.065">  1  3  2 -1</clus>
<clus scale="  101.441">  2  4  1 -1</clus>
<clus scale="   51.065">  1  3  2 -1</clus>
</clustering>
</event>
<event>
 6    0  0.4227619E+002  0.7701481E+02  0.7546771E-02  0.1337743E+00
         21   -1    0    0  503  501  0.00000000000E+00  0.00000000000E+00  0.15966403812E+04  0.15966403812E+04  0.00000000000E+00 0. -1.
         21   -1    0    0  506  502 -0.00000000000E+00 -0.00000000000E+00 -0.54563475820E+03  0.54563475820E+03  0.00000000000E+00 0. -1.
         21    1    1    2  503  505 -0.35674727999E+02  0.33233116552E+02  0.36147938043E+02  0.60694313394E+02  0.00000000000E+00 0.  1.
         21    1    1    2  504  501  0.10209709706E+02 -0.85810058875E+02  0.15298668167E+04  0.15323054791E+04  0.00000000000E+00 0. -1.
         21    1    1    2  505  502  0.61596432857E+02 -0.40939532142E+02 -0.33658033246E+03  0.34461062960E+03  0.00000000000E+00 0. -1.
         21    1    1    2  506  504 -0.36131414564E+02  0.93516474465E+02 -0.17842879927E+03  0.20466471734E+03  0.00000000000E+00 0. -1.
<scales pt_clust_3="48.75578" pt_clust_4="58.58036" pt_clust_5="77.01481" pt_clust_6="14000.00000"></scales>
<clustering>
<clus scale="   48.756">  1  3  2 -1</clus>
<clus scale="   58.580">  1  4  2 -1</clus>
<clus scale="   77.015">  2  5  1 -1</clus>
<clus scale="   48.756">  1  3  2 -1</clus>
</clustering>
</event>
<event>
 6    0  0.4227619E+002  0.1925322E+03  0.7546771E-02  0.1156197E+00
         21   -1    0    0  505  501  0.00000000000E+00  0.00000000000E+00  0.10522766035E+04  0.10522766035E+04  0.00000000000E+00 0.  1.
         21   -1    0    0  504  502 -0.00000000000E+00 -0.00000000000E+00 -0.51270975114E+02  0.51270975114E+02  0.00000000000E+00 0.  1.
         21    1    1    2  503  501  0.55983151046E+01 -0.38514592512E+02  0.35948733012E+03  0.36158796369E+03  0.00000000000E+00 0. -1.
         21    1    1    2  504  503  0.28596705438E+02 -0.14908607268E+03  0.36876336619E+03  0.39878672103E+03  0.00000000000E+00 0.  1.
         21    1    1    2  505  506 -0.59145852441E+02  0.12899995251E+03  0.21226434754E+03  0.25533384586E+03  0.00000000000E+00 0.  1.
         21    1    1    2  506  502  0.24950831898E+02  0.58600712678E+02  0.60490584507E+02  0.87839047996E+02  0.00000000000E+00 0.  1.
<scales pt_clust_3="38.91934" pt_clust_4="173.37699" pt_clust_5="57.09966" pt_clust_6="57.09966"></scales>
<clustering>
<clus scale="   38.919">  1  3  2 -1</clus>
<clus scale="   57.100">  5  6 -1 -1</clus>
<clus scale="  173.377">  1  4  2 -1</clus>
<clus scale="   38.919">  1  3  2 -1</clus>
</clustering>
</event>
<event>
 6    0  0.4227619E+002  0.1366941E+03  0.7546771E-02  0.1217848E+00
         21   -1    0    0  503  501  0.00000000000E+00  0.00000000000E+00  0.40087166654E+03  0.40087166654E+03  0.00000000000E+00 0. -1.
         21   -1    0    0  504  502 -0.00000000000E+00 -0.00000000000E+00 -0.52665893289E+03  0.52665893289E+03  0.00000000000E+00 0. -1.
         21    1    1    2  503  506 -0.14847541370E+02 -0.36768913148E+02  0.31962460696E+03  0.32207497859E+03  0.00000000000E+00 0. -1.
         21    1    1    2  504  505  0.32536128228E+02  0.22862678197E+02 -0.25565764502E+03  0.25873177839E+03  0.00000000000E+00 0. -1.
         21    1    1    2  505  501  0.37775761772E+02  0.14321054185E+03 -0.80382653506E+02  0.16851598874E+03  0.00000000000E+00 0.  1.
         21    1    1    2  506  502 -0.55464348630E+02 -0.12930430690E+03 -0.10937157479E+03  0.17820785371E+03  0.00000000000E+00 0. -1.
<scales pt_clust_3="39.65353" pt_clust_4="39.12837" pt_clust_5="136.69407" pt_clust_6="14000.00000"></scales>
<clustering>
<clus scale="   39.654">  1  3  2 -1</clus>
<clus scale="   39.128">  2  4  1 -1</clus>
<clus scale="  136.694">  1  5  2 -1</clus>
<clus scale="   39.654">  1  3  2 -1</clus>
</clustering>
</event>
<event>
 6    0  0.4227619E+002  0.1089898E+03  0.7546771E-02  0.1262452E+00
         21   -1    0    0  506  501  0.00000000000E+00  0.00000000000E+00  0.86350391243E+02  0.86350391243E+02  0.00000000000E+00 0.  1.
         21   -1    0    0  504  502 -0.00000000000E+00 -0.00000000000E+00 -0.18466190685E+04  0.18466190685E+04  0.00000000000E+00 0. -1.
         21    1    1    2  503  502 -0.10397756830E+03  0.24493984831E+00 -0.17533703850E+04  0.17564507114E+04  0.00000000000E+00 0. -1.
         21    1    1    2  504  505  0.62200133081E+02  0.10297634615E+02 -0.27450683251E+02  0.68763637520E+02  0.00000000000E+00 0.  1.
         21    1    1    2  505  501  0.59273248547E+02  0.24194433975E+02  0.56002122068E+00  0.64023450801E+02  0.00000000000E+00 0.  1.
         21    1    1    2  506  503 -0.17495813333E+02 -0.34737008439E+02  0.19992369747E+02  0.43731660014E+02  0.00000000000E+00 0.  1.
<scales pt_clust_3="104.47470" pt_clust_4="30.80830" pt_clust_5="30.80830" pt_clust_6="38.89426"></scales>
<clustering>
<clus scale="   30.808">  4  5 -1 -1</clus>
<clus scale="   38.894">  1  6  2 -1</clus>
<clus scale="  104.475">  2  3  1 -1</clus>
<clus scale="   38.894">  1  3  2 -1</clus>
</clustering>
</event>
<event>
 6    0  0.4227619E+002  0.1510897E+03  0.7546771E-02  0.1199140E+00
         21   -1    0    0  506  501  0.00000000000E+00  0.00000000000E+00  0.22829896463E+03  0.22829896463E+03  0.00000000000E+00 0. -1.
         21   -1    0    0  504  502 -0.00000000000E+00 -0.00000000000E+00 -0.61867430747E+03  0.61867430747E+03  0.00000000000E+00 0. -1.
         21    1    1    2  503  502 -0.14346533173E+03  0.10900146848E+03 -0.91895507488E+02  0.20225826519E+03  0.00000000000E+00 0. -1.
         21    1    1    2  504  505  0.82232942108E+02 -0.12124342060E+03 -0.44531612069E+03  0.46879491375E+03  0.00000000000E+00 0. -1.
         21    1    1    2  505  501  0.22320958841E+02 -0.30625994793E+02  0.45531996647E+02  0.59239678251E+02  0.00000000000E+00 0.  1.
         21    1    1    2  506  503  0.38911430785E+02  0.42867946914E+02  0.10130428869E+03  0.11668041492E+03  0.00000000000E+00 0. -1.
<scales pt_clust_3="14000.00000" pt_clust_4="151.08967" pt_clust_5="37.89692" pt_clust_6="57.90060"></scales>
<clustering>
<clus scale="   37.897">  1  5  2 -1</clus>
<clus scale="   57.901">  1  6  2 -1</clus>
<clus scale="  151.090">  2  4  1 -1</clus>
<clus scale="   37.897">  1  3  2 -1</clus>
</clustering>
</event>
<event>
 6    0  0.4227619E+002  0.9230407E+02  0.7546771E-02  0.1297366E+00
         21   -1    0    0  504  501  0.00000000000E+00  0.00000000000E+00  0.79371140127E+03  0.79371140127E+03  0.00000000000E+00 0. -1.
         21   -1    0    0  505  502 -0.00000000000E+00 -0.00000000000E+00 -0.25870944511E+03  0.25870944511E+03  0.00000000000E+00 0. -1.
         21    1    1    2  503  506 -0.67360991749E+02 -0.87468806324E+01  0.12520850186E+03  0.14244711323E+03  0.00000000000E+00 0. -1.
         21    1    1    2  504  503 -0.13468087543E+02 -0.43646829834E+02  0.59871732008E+03  0.60045721288E+03  0.00000000000E+00 0. -1.
         21    1    1    2  505  501 -0.40784644430E+02  0.16285346112E+02 -0.17669137568E+03  0.18206713586E+03  0.00000000000E+00 0. -1.
         21    1    1    2  506  502  0.12161372372E+03  0.36108364355E+02 -0.12232490101E+02  0.12744938442E+03  0.00000000000E+00 0. -1.
<scales pt_clust_3="92.30407" pt_clust_4="45.64126" pt_clust_5="43.91583" pt_clust_6="14000.00000"></scales>
<clustering>
<clus scale="   43.916">  2  5  1 -1</clus>
<clus scale="   45.641">  1  4  2 -1</clus>
<clus scale="   92.304">  1  3  2 -1</clus>
<clus scale="   45.641">  1  3  2 -1</clus>
</clustering>
</event>
<event>
 6    0  0.4227619E+002  0.1514178E+03  0.7546771E-02  0.1198742E+00
         21   -1    0    0  503  501  0.00000000000E+00  0.00000000000E+00  0.95435697058E+03  0.95435697058E+03  0.00000000000E+00 0. -1.
         21   -1    0    0  504  502 -0.00000000000E+00 -0.00000000000E+00 -0.64284108884E+02  0.64284108884E+02  0.00000000000E+00 0. -1.
         21    1    1    2  503  506 -0.85153575370E+01  0.39342125967E+02  0.21130393378E+03  0.21510385078E+03  0.00000000000E+00 0.  1.
         21    1    1    2  504  505 -0.15896400989E+03  0.47076557705E+02  0.19262482029E+03  0.25414578516E+03  0.00000000000E+00 0. -1.
         21    1    1    2  505  501  0.39888532705E+02 -0.25160214144E+02  0.34947142778E+03  0.35263920691E+03  0.00000000000E+00 0. -1.
         21    1    1    2  506  502  0.12759083472E+03 -0.61258469528E+02  0.13667267985E+03  0.19675223661E+03  0.00000000000E+00 0. -1.
<scales pt_clust_3="40.25313" pt_clust_4="151.41783" pt_clust_5="36.44409" pt_clust_6="14000.00000"></scales>
<clustering>
<clus scale="   40.253">  1  3  2 -1</clus>
<clus scale="   36.444">  1  5  2 -1</clus>
<clus scale="  151.418">  1  4  2 -1</clus>
<clus scale="   40.253">  1  3  2 -1</clus>
</clustering>
</event>
<event>
 6    0  0.4227619E+002  0.1016548E+03  0.7546771E-02  0.1276854E+00
         21   -1    0    0  504  501  0.00000000000E+00  0.00000000000E+00  0.21631158822E+03  0.21631158822E+03  0.00000000000E+00 0.  1.
         21   -1    0    0  506  502 -0.00000000000E+00 -0.00000000000E+00 -0.10721500036E+04  0.10721500036E+04  0.00000000000E+00 0. -1.
         21    1    1    2  503  501 -0.92811174862E+02 -0.18784498047E+02  0.95560073619E+02  0.13453066274E+03  0.00000000000E+00 0.  1.
         21    1    1    2  504  505 -0.34259095903E+01  0.29824887422E+02  0.11213106570E+02  0.32046755300E+02  0.00000000000E+00 0.  1.
         21    1    1    2  505  502  0.39492092960E+01  0.32899086313E+02  0.73562507746E+02  0.80680782595E+02  0.00000000000E+00 0. -1.
         21    1    1    2  506  503  0.92287875157E+02 -0.43939475688E+02 -0.10361741033E+04  0.10412033912E+04  0.00000000000E+00 0. -1.
<scales pt_clust_3="14000.00000" pt_clust_4="30.02101" pt_clust_5="44.78905" pt_clust_6="101.65476"></scales>
<clustering>
<clus scale="   30.021">  1  4  2 -1</clus>
<clus scale="   44.789">  1  5  2 -1</clus>
<clus scale="  101.655">  2  6  1 -1</clus>
<clus scale="   30.021">  1  3  2 -1</clus>
</clustering>
</event>
<event>
 6    0  0.4227619E+002  0.8187167E+02  0.7546771E-02  0.1323822E+00
         21   -1    0    0  504  501  0.00000000000E+00  0.00000000000E+00  0.13270792078E+03  0.13270792078E+03  0.00000000000E+00 0.  1.
         21   -1    0    0  506  502 -0.00000000000E+00 -0.00000000000E+00 -0.21293072815E+04  0.21293072815E+04  0.00000000000E+00 0.  1.
         21    1    1    2  503  501 -0.66718761528E+02  0.62689254042E+02  0.74797047306E+02  0.11821985450E+03  0.00000000000E+00 0.  1.
         21    1    1    2  504  505  0.84721608736E+02  0.21645921255E+02 -0.24558677192E+02  0.90826348155E+02  0.00000000000E+00 0.  1.
         21    1    1    2  505  502 -0.17119937255E+02 -0.48418660648E+02 -0.19311096612E+04  0.19317924274E+04  0.00000000000E+00 0.  1.
         21    1    1    2  506  503 -0.88290995289E+00 -0.35916514648E+02 -0.11572806964E+03  0.12117657223E+03  0.00000000000E+00 0.  1.
<scales pt_clust_3="81.87167" pt_clust_4="14000.00000" pt_clust_5="84.84140" pt_clust_6="35.92736"></scales>
<clustering>
<clus scale="   35.927">  2  6  1 -1</clus>
<clus scale="   84.841">  2  5  1 -1</clus>
<clus scale="   81.872">  1  3  2 -1</clus>
<clus scale="   81.872">  1  3  2 -1</clus>
</clustering>
</event>
<event>
 6    0  0.4227619E+002  0.1407959E+03  0.7546771E-02  0.1212262E+00
         21   -1    0    0  503  501  0.00000000000E+00  0.00000000000E+00  0.17666989075E+04  0.17666989075E+04  0.00000000000E+00 0.  1.
         21   -1    0    0  506  502 -0.00000000000E+00 -0.00000000000E+00 -0.50224842167E+02  0.50224842167E+02  0.00000000000E+00 0. -1.
         21    1    1    2  503  504  0.75889529336E+02  0.28232134102E+02  0.94824495799E+02  0.12469145545E+03  0.00000000000E+00 0. -1.
         21    1    1    2  504  502  0.36981922116E+02 -0.22187100830E+01  0.95707949991E+01  0.38264675025E+02  0.00000000000E+00 0. -1.
         21    1    1    2  505  501  0.69535021859E+02  0.31743584074E+02  0.11670669257E+04  0.11695674343E+04  0.00000000000E+00 0.  1.
         21    1    1    2  506  505 -0.18240647331E+03 -0.57757008094E+02  0.44501184889E+03  0.48440018491E+03  0.00000000000E+00 0. -1.
<scales pt_clust_3="32.01192" pt_clust_4="32.01192" pt_clust_5="76.43804" pt_clust_6="132.60406"></scales>
<clustering>
<clus scale="   32.012">  3  4 -1 -1</clus>
<clus scale="   76.438">  1  5  2 -1</clus>
<clus scale="  132.604">  1  6  2 -1</clus>
<clus scale="   76.438">  1  3  2 -1</clus>
</clustering>
</event>
<event>
 6    0  0.4227619E+002  0.1708928E+03  0.7546771E-02  0.1176920E+00
         21   -1    0    0  505  501  0.00000000000E+00  0.00000000000E+00  0.57938746587E+03  0.57938746587E+03  0.00000000000E+00 0.  1.
         21   -1    0    0  506  502 -0.00000000000E+00 -0.00000000000E+00 -0.13156433907E+03  0.13156433907E+03  0.00000000000E+00 0.  1.
         21    1    1    2  503  504 -0.12899205083E+03 -0.11587533700E+03  0.32664550246E+03  0.36981526088E+03  0.00000000000E+00 0.  1.
         21    1    1    2  504  502  0.23398670417E+02 -0.22135755546E+02 -0.30399417356E+02  0.44290112062E+02  0.00000000000E+00 0. -1.
         21    1    1    2  505  503  0.53211769400E+02 -0.36467594251E+02  0.75822745660E+02  0.99551326422E+02  0.00000000000E+00 0.  1.
         21    1    1    2  506  501  0.52381611012E+02  0.17447868679E+03  0.75754296036E+02  0.19729510558E+03  0.00000000000E+00 0.  1.
<scales pt_clust_3="14000.00000" pt_clust_4="32.21008" pt_clust_5="68.51783" pt_clust_6="170.89281"></scales>
<clustering>
<clus scale="   32.210">  2  4  1 -1</clus>
<clus scale="   68.518">  1  5  2 -1</clus>
<clus scale="  170.893">  2  6  1 -1</clus>
<clus scale="   68.518">  1  3  2 -1</clus>
</clustering>
</event>
<event>
 6    0  0.4227619E+002  0.1161414E+03  0.7546771E-02  0.1249602E+00
         21   -1    0    0  504  501  0.00000000000E+00  0.00000000000E+00  0.11348905298E+03  0.11348905298E+03  0.00000000000E+00 0.  1.
         21   -1    0    0  506  502 -0.00000000000E+00 -0.00000000000E+00 -0.13549238297E+04  0.13549238297E+04  0.00000000000E+00 0.  1.
         21    1    1    2  503  502 -0.16301195686E+03 -0.28730529489E+02 -0.14076106363E+03  0.21728326774E+03  0.00000000000E+00 0.  1.
         21    1    1    2  504  503  0.52792061437E+02 -0.78435999420E+02 -0.17314407677E+02  0.96119698652E+02  0.00000000000E+00 0.  1.
         21    1    1    2  505  501  0.61304818267E+02  0.72376333967E+02 -0.29342688174E+02  0.99285486404E+02  0.00000000000E+00 0.  1.
         21    1    1    2  506  505  0.48915077161E+02  0.34790194942E+02 -0.10540166173E+04  0.10557244299E+04  0.00000000000E+00 0.  1.
<scales pt_clust_3="116.14136" pt_clust_4="94.93455" pt_clust_5="14000.00000" pt_clust_6="60.02535"></scales>
<clustering>
<clus scale="   60.025">  2  6  1 -1</clus>
<clus scale="   94.935">  1  4  2 -1</clus>
<clus scale="  116.141">  2  3  1 -1</clus>
<clus scale="   94.935">  1  3  2 -1</clus>
</clustering>
</event>
<event>
 6    0  0.4227619E+002  0.1106208E+03  0.7546771E-02  0.1259425E+00
         21   -1    0    0  503  501  0.00000000000E+00  0.00000000000E+00  0.26104572003E+03  0.26104572003E+03  0.00000000000E+00 0. -1.
         21   -1    0    0  506  502 -0.00000000000E+00 -0.00000000000E+00 -0.37443320511E+03  0.37443320511E+03  0.00000000000E+00 0. -1.
         21    1    1    2  503  502  0.78332551474E+02 -0.66016507244E+00  0.38050512544E+02  0.87087691112E+02  0.00000000000E+00 0.  1.
         21    1    1    2  504  501  0.58980442647E+02  0.12381186907E+02  0.17346927540E+03  0.18363979936E+03  0.00000000000E+00 0. -1.
         21    1    1    2  505  504 -0.97075184433E+02  0.28033789426E+02 -0.14944935257E+03  0.18040120223E+03  0.00000000000E+00 0. -1.
         21    1    1    2  506  505 -0.40237809688E+02 -0.39754811260E+02 -0.17545792046E+03  0.18435023244E+03  0.00000000000E+00 0. -1.
<scales pt_clust_3="14000.00000" pt_clust_4="59.02846" pt_clust_5="110.62082" pt_clust_6="56.56436"></scales>
<clustering>
<clus scale="   56.564">  2  6  1 -1</clus>
<clus scale="   59.028">  1  4  2 -1</clus>
<clus scale="  110.621">  2  5  1 -1</clus>
<clus scale="   59.028">  1  3  2 -1</clus>
</clustering>
</event>
<event>
 6    0  0.4227619E+002  0.6175988E+02  0.7546771E-02  0.1390591E+00
         21   -1    0    0  506  501  0.00000000000E+00  0.00000000000E+00  0.16710368972E+03  0.16710368972E+03  0.00000000000E+00 0.  1.
         21   -1    0    0  503  502 -0.00000000000E+00 -0.00000000000E+00 -0.84072895839E+03  0.84072895839E+03  0.00000000000E+00 0.  1.
         21    1    1    2  503  505 -0.27937670383E+02 -0.94990222032E+02 -0.53466657074E+03  0.54375729657E+03  0.00000000000E+00 0.  1.
         21    1    1    2  504  502  0.13060943412E+02  0.35411931740E+02 -0.17121581286E+03  0.17532668857E+03  0.00000000000E+00 0.  1.
         21    1    1    2  505  501 -0.41628274353E+02  0.39979252628E+02  0.14778611022E+03  0.15865682539E+03  0.00000000000E+00 0.  1.
         21    1    1    2  506  504  0.56505001324E+02  0.19599037664E+02 -0.11552899530E+03  0.13009183758E+03  0.00000000000E+00 0.  1.
<scales pt_clust_3="14000.00000" pt_clust_4="37.74378" pt_clust_5="57.84074" pt_clust_6="61.75988"></scales>
<clustering>
<clus scale="   37.744">  2  4  1 -1</clus>
<clus scale="   57.841">  1  5  2 -1</clus>
<clus scale="   61.760">  1  6  2 -1</clus>
<clus scale="   57.841">  1  3  2 -1</clus>
</clustering>
</event>
<event>
 6    0  0.4227619E+002  0.7955972E+02  0.7546771E-02  0.1330306E+00
         21   -1    0    0  505  501  0.00000000000E+00  0.00000000000E+00  0.18611427047E+04  0.18611427047E+04  0.00000000000E+00 0. -1.
         21   -1    0    0  503  502 -0.00000000000E+00 -0.00000000000E+00 -0.98438495857E+02  0.98438495857E+02  0.00000000000E+00 0. -1.
         21    1    1    2  503  501 -0.11973449669E+02  0.51288003414E+02  0.40250389669E+03  0.40593498203E+03  0.00000000000E+00 0. -1.
         21    1    1    2  504  502 -0.38523045435E+02  0.17310421786E+02 -0.81048900217E+02  0.91392559644E+02  0.00000000000E+00 0. -1.
         21    1    1    2  505  506  0.52181818463E+02 -0.12556593151E+03  0.13330045127E+04  0.13399219292E+04  0.00000000000E+00 0. -1.
         21    1    1    2  506  504 -0.16853233583E+01  0.56967506313E+02  0.10824469964E+03  0.12233172970E+03  0.00000000000E+00 0. -1.
<scales pt_clust_3="56.46101" pt_clust_4="42.23359" pt_clust_5="14000.00000" pt_clust_6="79.55972"></scales>
<clustering>
<clus scale="   42.234">  2  4  1 -1</clus>
<clus scale="   56.461">  1  3  2 -1</clus>
<clus scale="   79.560">  2  6  1 -1</clus>
<clus scale="   56.461">  1  3  2 -1</clus>
</clustering>
</event>
<event>
 6    0  0.4227619E+002  0.9895754E+02  0.7546771E-02  0.1282503E+00
         21   -1    0    0  504  501  0.00000000000E+00  0.00000000000E+00  0.12511579138E+03  0.12511579138E+03  0.00000000000E+00 0.  1.
         21   -1    0    0  506  502 -0.00000000000E+00 -0.00000000000E+00 -0.31557353658E+03  0.31557353658E+03  0.00000000000E+00 0. -1.
         21    1    1    2  503  505  0.39278251720E+02  0.24598333445E+02 -0.11731934902E+03  0.12614154241E+03  0.00000000000E+00 0. -1.
         21    1    1    2  504  503 -0.83657191364E+02 -0.88047135986E+02 -0.17410320941E+02  0.12269451128E+03  0.00000000000E+00 0.  1.
         21    1    1    2  505  502  0.49648852879E+02 -0.49725066530E+01 -0.98903194301E+02  0.11077714682E+03  0.00000000000E+00 0. -1.
         21    1    1    2  506  501 -0.52699132345E+01  0.68421309194E+02  0.43175119055E+02  0.81076127453E+02  0.00000000000E+00 0.  1.
<scales pt_clust_3="31.74628" pt_clust_4="93.31410" pt_clust_5="31.74628" pt_clust_6="68.62396"></scales>
<clustering>
<clus scale="   31.746">  3  5 -1 -1</clus>
<clus scale="   68.624">  1  6  2 -1</clus>
<clus scale="   93.314">  1  4  2 -1</clus>
<clus scale="   68.624">  1  3  2 -1</clus>
</clustering>
</event>
<event>
 6    0  0.4227619E+002  0.1074432E+03  0.7546771E-02  0.1265379E+00
         21   -1    0    0  504  501  0.00000000000E+00  0.00000000000E+00  0.12153535487E+03  0.12153535487E+03  0.00000000000E+00 0. -1.
         21   -1    0    0  506  502 -0.00000000000E+00 -0.00000000000E+00 -0.32824890407E+03  0.32824890407E+03  0.00000000000E+00 0. -1.
         21    1    1    2  503  505  0.94554188879E+02  0.87657705371E+02 -0.97846585749E+02  0.16185895801E+03  0.00000000000E+00 0. -1.
         21    1    1    2  504  502 -0.55768161037E+02 -0.19811372477E+02  0.25812988478E+02  0.64566931467E+02  0.00000000000E+00 0. -1.
         21    1    1    2  505  501  0.35932074860E+02 -0.45764343005E+01  0.19181200884E+02  0.40987513001E+02  0.00000000000E+00 0. -1.
         21    1    1    2  506  503 -0.74718102702E+02 -0.63269898593E+02 -0.15386115282E+03  0.18237085646E+03  0.00000000000E+00 0. -1.
<scales pt_clust_3="107.44315" pt_clust_4="43.95636" pt_clust_5="36.22234" pt_clust_6="14000.00000"></scales>
<clustering>
<clus scale="   36.222">  1  5  2 -1</clus>
<clus scale="   43.956">  1  4  2 -1</clus>
<clus scale="  107.443">  1  3  2 -1</clus>
<clus scale="   36.222">  1  3  2 -1</clus>
</clustering>
</event>
<event>
 6    0  0.4227619E+002  0.9029299E+02  0.7546771E-02  0.1302144E+00
         21   -1    0    0  504  501  0.00000000000E+00  0.00000000000E+00  0.25549616701E+03  0.25549616701E+03  0.00000000000E+00 0.  1.
         21   -1    0    0  506  502 -0.00000000000E+00 -0.00000000000E+00 -0.14185505204E+03  0.14185505204E+03  0.00000000000E+00 0.  1.
         21    1    1    2  503  502  0.30886631923E+02  0.96482305141E+02 -0.74626376136E+02  0.12582493891E+03  0.00000000000E+00 0.  1.
         21    1    1    2  504  505  0.36950322446E+02  0.21865024959E+02  0.53234618325E+02  0.68391009888E+02  0.00000000000E+00 0.  1.
         21    1    1    2  505  503 -0.22149016608E+02 -0.65176380454E+02  0.26151073624E+02  0.73637070539E+02  0.00000000000E+00 0.  1.
         21    1    1    2  506  501 -0.45687937761E+02 -0.53170949645E+02  0.10888179915E+03  0.12949819971E+03  0.00000000000E+00 0.  1.
<scales pt_clust_3="90.29299" pt_clust_4="42.93490" pt_clust_5="14000.00000" pt_clust_6="45.98760"></scales>
<clustering>
<clus scale="   42.935">  1  4  2 -1</clus>
<clus scale="   45.988">  1  6  2 -1</clus>
<clus scale="   90.293">  2  3  1 -1</clus>
<clus scale="   42.935">  1  3  2 -1</clus>
</clustering>
</event>
<event>
 6    0  0.4227619E+002  0.1452423E+03  0.7546771E-02  0.1206444E+00
         21   -1    0    0  502  501  0.00000000000E+00  0.00000000000E+00  0.47247262326E+03  0.47247262326E+03  0.00000000000E+00 0. -1.
         21   -1    0    0  503  502 -0.00000000000E+00 -0.00000000000E+00 -0.33832180861E+03  0.33832180861E+03  0.00000000000E+00 0. -1.
         21    1    1    2  503  504 -0.14783011209E+02  0.32807762718E+02 -0.14373389958E+01  0.36013228936E+02  0.00000000000E+00 0.  1.
         21    1    1    2  504  506  0.70782355049E+02  0.99405597350E+02 -0.86623819565E+02  0.14965059534E+03  0.00000000000E+00 0. -1.
         21    1    1    2  505  501  0.76752608010E+01  0.13541877289E+03  0.30834553268E+03  0.33685920086E+03  0.00000000000E+00 0. -1.
         21    1    1    2  506  505 -0.63674604642E+02 -0.26763213296E+03 -0.86133559471E+02  0.28827140673E+03  0.00000000000E+00 0. -1.
<scales pt_clust_3="35.98453" pt_clust_4="129.25168" pt_clust_5="145.24226" pt_clust_6="14000.00000"></scales>
<clustering>
<clus scale="   35.985">  2  3  1 -1</clus>
<clus scale="  129.252">  2  4  1 -1</clus>
<clus scale="  145.242">  1  5  2 -1</clus>
<clus scale="  145.242">  1  3  2 -1</clus>
</clustering>
</event>
<event>
 6    0  0.4227619E+002  0.1025362E+03  0.7546771E-02  0.1275051E+00
         21   -1    0    0  505  501  0.00000000000E+00  0.00000000000E+00  0.13014866161E+04  0.13014866161E+04  0.00000000000E+00 0. -1.
         21   -1    0    0  506  502 -0.00000000000E+00 -0.00000000000E+00 -0.55175536257E+02  0.55175536257E+02  0.00000000000E+00 0. -1.
         21    1    1    2  503  504  0.83878354499E+02 -0.13557093067E+01  0.57512188563E+02  0.10171070806E+03  0.00000000000E+00 0. -1.
         21    1    1    2  504  502  0.19467366606E+02 -0.23335796111E+02 -0.16287960690E+02  0.34479492545E+02  0.00000000000E+00 0.  1.
         21    1    1    2  505  503  0.17466674579E+02  0.38600006755E+02  0.68693827825E+03  0.68824359305E+03  0.00000000000E+00 0. -1.
         21    1    1    2  506  501 -0.12081239568E+03 -0.13908501337E+02  0.51814857372E+03  0.53222835870E+03  0.00000000000E+00 0. -1.
<scales pt_clust_3="14000.00000" pt_clust_4="30.38976" pt_clust_5="42.08230" pt_clust_6="102.53621"></scales>
<clustering>
<clus scale="   30.390">  2  4  1 -1</clus>
<clus scale="   42.082">  1  5  2 -1</clus>
<clus scale="  102.536">  1  6  2 -1</clus>
<clus scale="   42.082">  1  3  2 -1</clus>
</clustering>
</event>
<event>
 6    0  0.4227619E+002  0.1004197E+03  0.7546771E-02  0.1279416E+00
         21   -1    0    0  506  501  0.00000000000E+00  0.00000000000E+00  0.18430808246E+03  0.18430808246E+03  0.00000000000E+00 0.  1.
         21   -1    0    0  504  502 -0.00000000000E+00 -0.00000000000E+00 -0.77439685474E+03  0.77439685474E+03  0.00000000000E+00 0.  1.
         21    1    1    2  503  502 -0.10109313261E+03 -0.74515901097E+02 -0.68563029173E+03  0.69703754412E+03  0.00000000000E+00 0.  1.
         21    1    1    2  504  505  0.60236670453E+01  0.37545883387E+02 -0.45254573886E+02  0.59109680947E+02  0.00000000000E+00 0.  1.
         21    1    1    2  505  501  0.29393048915E+02  0.25446580917E+02 -0.78307990248E+01  0.39658557945E+02  0.00000000000E+00 0.  1.
         21    1    1    2  506  503  0.65676416654E+02  0.11523436793E+02  0.14862689236E+03  0.16289915418E+03  0.00000000000E+00 0.  1.
<scales pt_clust_3="100.41967" pt_clust_4="38.02602" pt_clust_5="39.84355" pt_clust_6="14000.00000"></scales>
<clustering>
<clus scale="   38.026">  2  4  1 -1</clus>
<clus scale="   39.844">  1  5  2 -1</clus>
<clus scale="  100.420">  2  3  1 -1</clus>
<clus scale="   39.844">  1  3  2 -1</clus>
</clustering>
</event>
<event>
 6    0  0.4227619E+002  0.9322084E+02  0.7546771E-02  0.1295234E+00
         21   -1    0    0  506  501  0.00000000000E+00  0.00000000000E+00  0.92612149112E+03  0.92612149112E+03  0.00000000000E+00 0. -1.
         21   -1    0    0  504  502 -0.00000000000E+00 -0.00000000000E+00 -0.77958026380E+03  0.77958026380E+03  0.00000000000E+00 0. -1.
         21    1    1    2  503  505  0.28794663758E+02  0.93267328685E+02  0.97453354930E+02  0.13793144546E+03  0.00000000000E+00 0.  1.
         21    1    1    2  504  503 -0.55550432241E+02  0.51435303609E+01 -0.21013053952E+02  0.59614216954E+02  0.00000000000E+00 0. -1.
         21    1    1    2  505  501  0.47806128932E+02 -0.34445542805E+02  0.78644729002E+03  0.78865154623E+03  0.00000000000E+00 0. -1.
         21    1    1    2  506  502 -0.21050360449E+02 -0.63965316241E+02 -0.71634636368E+03  0.71950454628E+03  0.00000000000E+00 0. -1.
<scales pt_clust_3="93.22084" pt_clust_4="55.78805" pt_clust_5="58.85135" pt_clust_6="14000.00000"></scales>
<clustering>
<clus scale="   55.788">  2  4  1 -1</clus>
<clus scale="   58.851">  1  5  2 -1</clus>
<clus scale="   93.221">  1  3  2 -1</clus>
<clus scale="   58.851">  1  3  2 -1</clus>
</clustering>
</event>
<event>
 6    0  0.4227619E+002  0.1247905E+03  0.7546771E-02  0.1235397E+00
         21   -1    0    0  505  501  0.00000000000E+00  0.00000000000E+00  0.51004454627E+03  0.51004454627E+03  0.00000000000E+00 0.  1.
         21   -1    0    0  504  502 -0.00000000000E+00 -0.00000000000E+00 -0.21458071907E+03  0.21458071907E+03  0.00000000000E+00 0. -1.
         21    1    1    2  503  506 -0.32392166164E+02 -0.22962931484E+02 -0.66789678252E+02  0.77700770731E+02  0.00000000000E+00 0.  1.
         21    1    1    2  504  501  0.67799280229E+02 -0.50517755707E+02  0.25859730841E+03  0.27206865670E+03  0.00000000000E+00 0.  1.
         21    1    1    2  505  503  0.50767575150E+02  0.56054238685E+02  0.21792727074E+03  0.23067665616E+03  0.00000000000E+00 0.  1.
         21    1    1    2  506  502 -0.86174689214E+02  0.17426448506E+02 -0.11427107370E+03  0.14417918176E+03  0.00000000000E+00 0. -1.
<scales pt_clust_3="32.63970" pt_clust_4="114.95092" pt_clust_5="75.62688" pt_clust_6="32.63970"></scales>
<clustering>
<clus scale="   32.640">  3  6 -1 -1</clus>
<clus scale="   75.627">  1  5  2 -1</clus>
<clus scale="  114.951">  1  4  2 -1</clus>
<clus scale="   75.627">  1  3  2 -1</clus>
</clustering>
</event>
<event>
 6    0  0.4227619E+002  0.7024824E+02  0.7546771E-02  0.1359251E+00
         21   -1    0    0  504  501  0.00000000000E+00  0.00000000000E+00  0.16803180869E+04  0.16803180869E+04  0.00000000000E+00 0. -1.
         21   -1    0    0  505  502 -0.00000000000E+00 -0.00000000000E+00 -0.99796436184E+02  0.99796436184E+02  0.00000000000E+00 0. -1.
         21    1    1    2  503  502 -0.34175760682E+02 -0.58959591494E+02 -0.71534294446E+02  0.98799652475E+02  0.00000000000E+00 0. -1.
         21    1    1    2  504  503  0.38873178067E+02 -0.55411723831E+02  0.51559154687E+03  0.52001560199E+03  0.00000000000E+00 0. -1.
         21    1    1    2  505  506  0.48260221082E+02  0.13719070272E+03  0.46141576053E+03  0.48379214743E+03  0.00000000000E+00 0. -1.
         21    1    1    2  506  501 -0.52957638467E+02 -0.22819387390E+02  0.67504863773E+03  0.67750712115E+03  0.00000000000E+00 0. -1.
<scales pt_clust_3="70.24824" pt_clust_4="68.16779" pt_clust_5="14000.00000" pt_clust_6="57.66486"></scales>
<clustering>
<clus scale="   57.665">  1  6  2 -1</clus>
<clus scale="   68.168">  1  4  2 -1</clus>
<clus scale="   70.248">  2  3  1 -1</clus>
<clus scale="   57.665">  1  3  2 -1</clus>
</clustering>
</event>
<event>
 6    0  0.4227619E+002  0.8494593E+02  0.7546771E-02  0.1315574E+00
         21   -1    0    0  504  501  0.00000000000E+00  0.00000000000E+00  0.51304353374E+03  0.51304353374E+03  0.00000000000E+00 0.  1.
         21   -1    0    0  505  502 -0.00000000000E+00 -0.00000000000E+00 -0.36170630424E+03  0.36170630424E+03  0.00000000000E+00 0.  1.
         21    1    1    2  503  501  0.56117898074E+02  0.52383966521E+02  0.39937625491E+03  0.40668746160E+03  0.00000000000E+00 0.  1.
         21    1    1    2  504  506 -0.24980255175E+02 -0.34033312721E+02  0.70590561354E+02  0.82251485553E+02  0.00000000000E+00 0.  1.
         21    1    1    2  505  503 -0.41947042602E+02 -0.80567579007E+02 -0.30882400004E+03  0.32190519127E+03  0.00000000000E+00 0.  1.
         21    1    1    2  506  502  0.10809399703E+02  0.62216925207E+02 -0.98055867305E+01  0.63905699552E+02  0.00000000000E+00 0.  1.
<scales pt_clust_3="39.14873" pt_clust_4="42.21705" pt_clust_5="84.94593" pt_clust_6="14000.00000"></scales>
<clustering>
<clus scale="   42.217">  1  4  2 -1</clus>
<clus scale="   39.149">  1  3  2 -1</clus>
<clus scale="   84.946">  2  5  1 -1</clus>
<clus scale="   42.217">  1  3  2 -1</clus>
</clustering>
</event>
<event>
 6    0  0.4227619E+002  0.5524500E+02  0.7546771E-02  0.1418944E+00
         21   -1    0    0  503  501  0.00000000000E+00  0.00000000000E+00  0.13262887122E+04  0.13262887122E+04  0.00000000000E+00 0. -1.
         21   -1    0    0  504  502 -0.00000000000E+00 -0.00000000000E+00 -0.23872489912E+03  0.23872489912E+03  0.00000000000E+00 0.  1.
         21    1    1    2  503  506  0.48919580713E+02 -0.25113059765E+02  0.12705752021E+04  0.12717645754E+04  0.00000000000E+00 0. -1.
         21    1    1    2  504  505  0.25473807639E+02 -0.40277774788E+02 -0.73933790275E+01  0.48227337382E+02  0.00000000000E+00 0. -1.
         21    1    1    2  505  501 -0.11586534793E+03  0.43982955195E+02 -0.13346191840E+03  0.18213007127E+03  0.00000000000E+00 0.  1.
         21    1    1    2  506  502  0.41471959575E+02  0.21407879358E+02 -0.42156091526E+02  0.62891627283E+02  0.00000000000E+00 0.  1.
<scales pt_clust_3="14000.00000" pt_clust_4="48.76280" pt_clust_5="55.24500" pt_clust_6="46.67141"></scales>
<clustering>
<clus scale="   46.671">  2  6  1 -1</clus>
<clus scale="   48.763">  2  4  1 -1</clus>
<clus scale="   55.245">  2  5  1 -1</clus>
<clus scale="   55.245">  1  3  2 -1</clus>
</clustering>
</event>
<event>
 6    0  0.4227619E+002  0.8857190E+02  0.7546771E-02  0.1306347E+00
         21   -1    0    0  504  501  0.00000000000E+00  0.00000000000E+00  0.18376520088E+03  0.18376520088E+03  0.00000000000E+00 0.  1.
         21   -1    0    0  503  502 -0.00000000000E+00 -0.00000000000E+00 -0.29113982485E+03  0.29113982485E+03  0.00000000000E+00 0.  1.
         21    1    1    2  503  505 -0.57225323326E+01  0.30651093208E+02 -0.16958995051E+03  0.17243256133E+03  0.00000000000E+00 0.  1.
         21    1    1    2  504  506 -0.10409443549E+02 -0.11168959818E+03  0.79181734751E+02  0.13730502530E+03  0.00000000000E+00 0.  1.
         21    1    1    2  505  501  0.51651980288E+02  0.22527007184E+02  0.45555916338E+02  0.72461953008E+02  0.00000000000E+00 0. -1.
         21    1    1    2  506  502 -0.35520004407E+02  0.58511497783E+02 -0.62522324542E+02  0.92705486095E+02  0.00000000000E+00 0. -1.
<scales pt_clust_3="31.18071" pt_clust_4="88.57190" pt_clust_5="57.23665" pt_clust_6="14000.00000"></scales>
<clustering>
<clus scale="   31.181">  2  3  1 -1</clus>
<clus scale="   57.237">  1  5  2 -1</clus>
<clus scale="   88.572">  1  4  2 -1</clus>
<clus scale="   57.237">  1  3  2 -1</clus>
</clustering>
</event>
<event>
 6    0  0.4227619E+002  0.1156335E+03  0.7546771E-02  0.1250479E+00
         21   -1    0    0  503  501  0.00000000000E+00  0.00000000000E+00  0.68242527654E+03  0.68242527654E+03  0.00000000000E+00 0. -1.
         21   -1    0    0  504  502 -0.00000000000E+00 -0.00000000000E+00 -0.90884397760E+02  0.90884397760E+02  0.00000000000E+00 0. -1.
         21    1    1    2  503  505  0.25648522606E+02 -0.11517075156E+03  0.53364735318E+03  0.54653604298E+03  0.00000000000E+00 0. -1.
         21    1    1    2  504  506  0.37282511484E+02  0.35099400578E+02 -0.17926581041E+02  0.54252335354E+02  0.00000000000E+00 0. -1.
         21    1    1    2  505  502 -0.42869051242E+02 -0.19383719998E+02  0.48234005117E+02  0.67379547379E+02  0.00000000000E+00 0. -1.
         21    1    1    2  506  501 -0.20061982848E+02  0.99455070975E+02  0.27586101528E+02  0.10514174859E+03  0.00000000000E+00 0. -1.
<scales pt_clust_3="115.63347" pt_clust_4="32.17616" pt_clust_5="47.04768" pt_clust_6="14000.00000"></scales>
<clustering>
<clus scale="   47.048">  2  5  1 -1</clus>
<clus scale="   32.176">  2  4  1 -1</clus>
<clus scale="  115.633">  1  3  2 -1</clus>
<clus scale="  115.633">  1  3  2 -1</clus>
</clustering>
</event>
<event>
 6    0  0.4227619E+002  0.6808605E+02  0.7546771E-02  0.1366725E+00
         21   -1    0    0  506  501  0.00000000000E+00  0.00000000000E+00  0.60261103952E+03  0.60261103952E+03  0.00000000000E+00 0. -1.
         21   -1    0    0  503  502 -0.00000000000E+00 -0.00000000000E+00 -0.57962234812E+02  0.57962234812E+02  0.00000000000E+00 0. -1.
         21    1    1    2  503  505  0.66682802799E+02 -0.56940899272E+02  0.26917900441E+03  0.28310103958E+03  0.00000000000E+00 0. -1.
         21    1    1    2  504  502 -0.64584746978E+02 -0.43321995537E+02  0.14399824213E+02  0.79090706008E+02  0.00000000000E+00 0. -1.
         21    1    1    2  505  501 -0.83152302399E+01  0.29960475485E+02  0.20739583331E+03  0.20971362573E+03  0.00000000000E+00 0. -1.
         21    1    1    2  506  504  0.62171744181E+01  0.70302419324E+02  0.53674142782E+02  0.88667903008E+02  0.00000000000E+00 0. -1.
<scales pt_clust_3="70.67901" pt_clust_4="14000.00000" pt_clust_5="31.09298" pt_clust_6="68.08605"></scales>
<clustering>
<clus scale="   31.093">  1  5  2 -1</clus>
<clus scale="   70.679">  1  3  2 -1</clus>
<clus scale="   68.086">  1  6  2 -1</clus>
<clus scale="   31.093">  1  3  2 -1</clus>
</clustering>
</event>
<event>
 6    0  0.4227619E+002  0.6975775E+02  0.7546771E-02  0.1360919E+00
         21   -1    0    0  506  501  0.00000000000E+00  0.00000000000E+00  0.48516595244E+03  0.48516595244E+03  0.00000000000E+00 0. -1.
         21   -1    0    0  505  502 -0.00000000000E+00 -0.00000000000E+00 -0.13822010873E+03  0.13822010873E+03  0.00000000000E+00 0.  1.
         21    1    1    2  503  502  0.47653057028E+02 -0.51653639161E+02 -0.10769879957E+03  0.12859993667E+03  0.00000000000E+00 0.  1.
         21    1    1    2  504  501  0.13398537219E+02  0.61922359660E+02  0.97623353449E+02  0.11637963122E+03  0.00000000000E+00 0. -1.
         21    1    1    2  505  504 -0.92396753073E+02 -0.94904046239E+01  0.24279931197E+03  0.25995909996E+03  0.00000000000E+00 0. -1.
         21    1    1    2  506  503  0.31345158827E+02 -0.77831587479E+00  0.11422197786E+03  0.11844739332E+03  0.00000000000E+00 0. -1.
<scales pt_clust_3="69.75775" pt_clust_4="65.66855" pt_clust_5="14000.00000" pt_clust_6="31.35482"></scales>
<clustering>
<clus scale="   31.355">  1  6  2 -1</clus>
<clus scale="   65.669">  1  4  2 -1</clus>
<clus scale="   69.758">  2  3  1 -1</clus>
<clus scale="   31.355">  1  3  2 -1</clus>
</clustering>
</event>
<event>
 6    0  0.4227619E+002  0.7018758E+02  0.7546771E-02  0.1359456E+00
         21   -1    0    0  503  501  0.00000000000E+00  0.00000000000E+00  0.56442884736E+02  0.56442884736E+02  0.00000000000E+00 0. -1.
         21   -1    0    0  504  502 -0.00000000000E+00 -0.00000000000E+00 -0.43335052966E+03  0.43335052966E+03  0.00000000000E+00 0. -1.
         21    1    1    2  503  506 -0.61165300815E+02 -0.72689775882E+02 -0.13758162618E+03  0.16719360455E+03  0.00000000000E+00 0. -1.
         21    1    1    2  504  505 -0.12036746924E+02  0.72475259363E+02 -0.11956394321E+03  0.14033204556E+03  0.00000000000E+00 0. -1.
         21    1    1    2  505  501  0.47164561034E+02  0.43051257449E+02 -0.14215455542E+02  0.65421600116E+02  0.00000000000E+00 0. -1.
         21    1    1    2  506  502  0.26037486705E+02 -0.42836740930E+02 -0.10554662000E+03  0.11684616417E+03  0.00000000000E+00 0. -1.
<scales pt_clust_3="70.18758" pt_clust_4="55.21742" pt_clust_5="14000.00000" pt_clust_6="50.12920"></scales>
<clustering>
<clus scale="   50.129">  2  6  1 -1</clus>
<clus scale="   55.217">  2  4  1 -1</clus>
<clus scale="   70.188">  2  3  1 -1</clus>
<clus scale="   70.188">  1  3  2 -1</clus>
</clustering>
</event>
<event>
 6    0  0.4227619E+002  0.9888979E+02  0.7546771E-02  0.1282648E+00
         21   -1    0    0  503  501  0.00000000000E+00  0.00000000000E+00  0.45166726881E+03  0.45166726881E+03  0.00000000000E+00 0.  1.
         21   -1    0    0  506  502 -0.00000000000E+00 -0.00000000000E+00 -0.17707366128E+04  0.17707366128E+04  0.00000000000E+00 0. -1.
         21    1    1    2  503  502  0.28158321931E+02  0.80228389390E+02  0.73227275011E+02  0.11221283066E+03  0.00000000000E+00 0.  1.
         21    1    1    2  504  501 -0.62055448164E+02  0.13178191879E+02  0.35039374227E+03  0.35609032282E+03  0.00000000000E+00 0.  1.
         21    1    1    2  505  504  0.75392554514E+02 -0.12321512480E+03 -0.11117415450E+04  0.11210866457E+04  0.00000000000E+00 0. -1.
         21    1    1    2  506  505 -0.41495428281E+02  0.29808543535E+02 -0.63094881623E+03  0.63301408242E+03  0.00000000000E+00 0. -1.
<scales pt_clust_3="14000.00000" pt_clust_4="63.55632" pt_clust_5="98.88979" pt_clust_6="51.09227"></scales>
<clustering>
<clus scale="   51.092">  2  6  1 -1</clus>
<clus scale="   63.556">  1  4  2 -1</clus>
<clus scale="   98.890">  2  5  1 -1</clus>
<clus scale="   63.556">  1  3  2 -1</clus>
</clustering>
</event>
<event>
 6    0  0.4227619E+002  0.1245566E+03  0.7546771E-02  0.1235764E+00
         21   -1    0    0  503  501  0.00000000000E+00  0.00000000000E+00  0.11345946288E+04  0.11345946288E+04  0.00000000000E+00 0. -1.
         21   -1    0    0  505  502 -0.00000000000E+00 -0.00000000000E+00 -0.45421268034E+02  0.45421268034E+02  0.00000000000E+00 0. -1.
         21    1    1    2  503  502  0.39231047734E+02 -0.42891277332E+01  0.75649061264E+01  0.40183324001E+02  0.00000000000E+00 0. -1.
         21    1    1    2  504  501 -0.30022278659E+02  0.82305140163E+02  0.68919599219E+03  0.69474210248E+03  0.00000000000E+00 0. -1.
         21    1    1    2  505  506 -0.26561453976E+02 -0.11171550855E+03  0.10630170739E+03  0.15647977083E+03  0.00000000000E+00 0. -1.
         21    1    1    2  506  504  0.17352684901E+02  0.33699496115E+02  0.28611075509E+03  0.28861069954E+03  0.00000000000E+00 0. -1.
<scales pt_clust_3="39.46482" pt_clust_4="30.44171" pt_clust_5="115.63930" pt_clust_6="30.44171"></scales>
<clustering>
<clus scale="   30.442">  4  6 -1 -1</clus>
<clus scale="   39.465">  2  3  1 -1</clus>
<clus scale="  115.639">  2  5  1 -1</clus>
<clus scale="  124.557">  1  3  2 -1</clus>
</clustering>
</event>
<event>
 6    0  0.4227619E+002  0.9324761E+02  0.7546771E-02  0.1295172E+00
         21   -1    0    0  505  501  0.00000000000E+00  0.00000000000E+00  0.22953055980E+04  0.22953055980E+04  0.00000000000E+00 0.  1.
         21   -1    0    0  506  502 -0.00000000000E+00 -0.00000000000E+00 -0.12878759771E+03  0.12878759771E+03  0.00000000000E+00 0.  1.
         21    1    1    2  503  504  0.10407999531E+03  0.14074365465E+01 -0.80795019810E+02  0.13176669355E+03  0.00000000000E+00 0.  1.
         21    1    1    2  504  502 -0.72006051778E+01 -0.32610154935E+02  0.28934917614E+01  0.33520787794E+02  0.00000000000E+00 0.  1.
         21    1    1    2  505  503 -0.49855256932E+02  0.44790377073E+02  0.15568720935E+03  0.16949994595E+03  0.00000000000E+00 0.  1.
         21    1    1    2  506  501 -0.47024133204E+02 -0.13587658685E+02  0.20887323190E+04  0.20893057684E+04  0.00000000000E+00 0.  1.
<scales pt_clust_3="93.24761" pt_clust_4="33.39567" pt_clust_5="14000.00000" pt_clust_6="48.98827"></scales>
<clustering>
<clus scale="   33.396">  2  4  1 -1</clus>
<clus scale="   48.988">  1  6  2 -1</clus>
<clus scale="   93.248">  2  3  1 -1</clus>
<clus scale="   48.988">  1  3  2 -1</clus>
</clustering>
</event>
<event>
 6    0  0.4227619E+002  0.1012946E+03  0.7546771E-02  0.1277597E+00
         21   -1    0    0  506  501  0.00000000000E+00  0.00000000000E+00  0.14541578983E+04  0.14541578983E+04  0.00000000000E+00 0.  1.
         21   -1    0    0  505  502 -0.00000000000E+00 -0.00000000000E+00 -0.34422063340E+03  0.34422063340E+03  0.00000000000E+00 0.  1.
         21    1    1    2  503  502  0.56106836657E+02 -0.97727568187E+01 -0.16178202825E+03  0.17151358127E+03  0.00000000000E+00 0.  1.
         21    1    1    2  504  501  0.22697005931E+02  0.33044209105E+02  0.13433784714E+04  0.13439764847E+04  0.00000000000E+00 0.  1.
         21    1    1    2  505  504 -0.14571185046E+03 -0.46258470591E+02 -0.12238864130E+03  0.19583352365E+03  0.00000000000E+00 0.  1.
         21    1    1    2  506  503  0.66908007871E+02  0.22987018305E+02  0.50729463005E+02  0.87054942103E+02  0.00000000000E+00 0. -1.
<scales pt_clust_3="57.70899" pt_clust_4="40.08833" pt_clust_5="14000.00000" pt_clust_6="101.29458"></scales>
<clustering>
<clus scale="   40.088">  1  4  2 -1</clus>
<clus scale="   57.709">  2  3  1 -1</clus>
<clus scale="  101.295">  1  6  2 -1</clus>
<clus scale="   40.088">  1  3  2 -1</clus>
</clustering>
</event>
<event>
 6    0  0.4227619E+002  0.1320154E+03  0.7546771E-02  0.1224496E+00
         21   -1    0    0  506  501  0.00000000000E+00  0.00000000000E+00  0.66193832271E+02  0.66193832271E+02  0.00000000000E+00 0.  1.
         21   -1    0    0  503  502 -0.00000000000E+00 -0.00000000000E+00 -0.10762093931E+04  0.10762093931E+04  0.00000000000E+00 0.  1.
         21    1    1    2  503  505 -0.40371374810E+02 -0.21547561755E+02 -0.44155918591E+03  0.44392416017E+03  0.00000000000E+00 0.  1.
         21    1    1    2  504  501 -0.31583538836E+02 -0.10216965226E+03 -0.85677867143E+02  0.13702866374E+03  0.00000000000E+00 0.  1.
         21    1    1    2  505  504 -0.32213187369E+02 -0.37316086354E+02 -0.27218426396E+03  0.27661246047E+03  0.00000000000E+00 0.  1.
         21    1    1    2  506  502  0.10416810101E+03  0.16103330037E+03 -0.21059424381E+03  0.28483794098E+03  0.00000000000E+00 0.  1.
<scales pt_clust_3="30.61774" pt_clust_4="132.01541" pt_clust_5="98.70820" pt_clust_6="14000.00000"></scales>
<clustering>
<clus scale="   30.618">  3  5 -1 -1</clus>
<clus scale="   98.708">  2  3  1 -1</clus>
<clus scale="  132.015">  1  4  2 -1</clus>
<clus scale="  132.015">  1  3  2 -1</clus>
</clustering>
</event>
<event>
 6    0  0.4227619E+002  0.1115440E+03  0.7546771E-02  0.1257737E+00
         21   -1    0    0  506  501  0.00000000000E+00  0.00000000000E+00  0.25462103343E+03  0.25462103343E+03  0.00000000000E+00 0.  1.
         21   -1    0    0  503  502 -0.00000000000E+00 -0.00000000000E+00 -0.30424312398E+03  0.30424312398E+03  0.00000000000E+00 0.  1.
         21    1    1    2  503  504  0.41416579033E+02  0.61355510728E+02 -0.30860911494E+02  0.80201169404E+02  0.00000000000E+00 0.  1.
         21    1    1    2  504  501  0.88833612722E+01  0.59107518104E+02  0.66199948210E+00  0.59775003532E+02  0.00000000000E+00 0.  1.
         21    1    1    2  505  502  0.98095956455E+01 -0.10034892016E+03 -0.20192149009E+03  0.22569541888E+03  0.00000000000E+00 0.  1.
         21    1    1    2  506  505 -0.60109535951E+02 -0.20114108673E+02  0.18249831155E+03  0.19319256559E+03  0.00000000000E+00 0.  1.
<scales pt_clust_3="36.38876" pt_clust_4="36.38876" pt_clust_5="103.93332" pt_clust_6="63.38560"></scales>
<clustering>
<clus scale="   36.389">  3  4 -1 -1</clus>
<clus scale="   63.386">  1  6  2 -1</clus>
<clus scale="  103.933">  2  5  1 -1</clus>
<clus scale="   63.386">  1  3  2 -1</clus>
</clustering>
</event>
<event>
 6    0  0.4227619E+002  0.1433218E+03  0.7546771E-02  0.1208928E+00
         21   -1    0    0  504  501  0.00000000000E+00  0.00000000000E+00  0.17539609520E+04  0.17539609520E+04  0.00000000000E+00 0. -1.
         21   -1    0    0  505  502 -0.00000000000E+00 -0.00000000000E+00 -0.13795475969E+04  0.13795475969E+04  0.00000000000E+00 0. -1.
         21    1    1    2  503  502 -0.23377109358E+02  0.20127447981E+02 -0.10172300997E+04  0.10176977347E+04  0.00000000000E+00 0. -1.
         21    1    1    2  504  506  0.43146421466E+02 -0.78269397217E+01  0.16664183139E+04  0.16669951624E+04  0.00000000000E+00 0. -1.
         21    1    1    2  505  501  0.81362800867E+02  0.92809232594E+02  0.15067432289E+02  0.12434020482E+03  0.00000000000E+00 0.  1.
         21    1    1    2  506  503 -0.10113211297E+03 -0.10510974085E+03 -0.28984229130E+03  0.32447544702E+03  0.00000000000E+00 0. -1.
<scales pt_clust_3="30.84807" pt_clust_4="43.82941" pt_clust_5="14000.00000" pt_clust_6="143.32177"></scales>
<clustering>
<clus scale="   30.848">  2  3  1 -1</clus>
<clus scale="   43.829">  1  4  2 -1</clus>
<clus scale="  143.322">  2  6  1 -1</clus>
<clus scale="   43.829">  1  3  2 -1</clus>
</clustering>
</event>
<event>
 6    0  0.4227619E+002  0.1151271E+03  0.7546771E-02  0.1251359E+00
         21   -1    0    0  503  501  0.00000000000E+00  0.00000000000E+00  0.14271528446E+04  0.14271528446E+04  0.00000000000E+00 0.  1.
         21   -1    0    0  501  502 -0.00000000000E+00 -0.00000000000E+00 -0.19449834663E+03  0.19449834663E+03  0.00000000000E+00 0. -1.
         21    1    1    2  503  504 -0.72941308391E+02  0.80136940033E+02  0.12869386227E+04  0.12914926954E+04  0.00000000000E+00 0.  1.
         21    1    1    2  504  505  0.62126277305E+02 -0.36323838242E+02  0.76248127627E+02  0.10484690040E+03  0.00000000000E+00 0.  1.
         21    1    1    2  505  506  0.41723178545E+02  0.90606930307E+01  0.30865722374E+02  0.52684083021E+02  0.00000000000E+00 0.  1.
         21    1    1    2  506  502 -0.30908147459E+02 -0.52873794821E+02 -0.16139797479E+03  0.17262751237E+03  0.00000000000E+00 0. -1.
<scales pt_clust_3="106.95607" pt_clust_4="32.81136" pt_clust_5="32.81136" pt_clust_6="61.24501"></scales>
<clustering>
<clus scale="   32.811">  4  5 -1 -1</clus>
<clus scale="   61.245">  2  6  1 -1</clus>
<clus scale="  106.956">  1  3  2 -1</clus>
<clus scale="  106.956">  1  3  2 -1</clus>
</clustering>
</event>
<event>
 6    0  0.4227619E+002  0.1414394E+03  0.7546771E-02  0.1211405E+00
         21   -1    0    0  504  501  0.00000000000E+00  0.00000000000E+00  0.49824117741E+03  0.49824117741E+03  0.00000000000E+00 0. -1.
         21   -1    0    0  505  502 -0.00000000000E+00 -0.00000000000E+00 -0.73389460160E+02  0.73389460160E+02  0.00000000000E+00 0. -1.
         21    1    1    2  503  501 -0.86624376794E+02 -0.10891302055E+03  0.17187121797E+03  0.22114597954E+03  0.00000000000E+00 0. -1.
         21    1    1    2  504  506  0.20312179850E+02  0.90929170677E+02  0.13217577557E+03  0.16171312370E+03  0.00000000000E+00 0. -1.
         21    1    1    2  505  503 -0.31699264723E+02 -0.14914418988E+02  0.83482674693E+01  0.36013564770E+02  0.00000000000E+00 0. -1.
         21    1    1    2  506  502  0.98011461667E+02  0.32898268865E+02  0.11245645624E+03  0.15275796955E+03  0.00000000000E+00 0. -1.
<scales pt_clust_3="32.97092" pt_clust_4="93.17027" pt_clust_5="32.97092" pt_clust_6="125.24713"></scales>
<clustering>
<clus scale="   32.971">  3  5 -1 -1</clus>
<clus scale="   93.170">  1  4  2 -1</clus>
<clus scale="  125.247">  2  6  1 -1</clus>
<clus scale="   93.170">  1  3  2 -1</clus>
</clustering>
</event>
<event>
 6    0  0.4227619E+002  0.1893687E+03  0.7546771E-02  0.1159032E+00
         21   -1    0    0  505  501  0.00000000000E+00  0.00000000000E+00  0.67127833879E+03  0.67127833879E+03  0.00000000000E+00 0.  1.
         21   -1    0    0  504  502 -0.00000000000E+00 -0.00000000000E+00 -0.40479048508E+03  0.40479048508E+03  0.00000000000E+00 0.  1.
         21    1    1    2  503  506 -0.12924716642E+03 -0.32077562388E+02 -0.22868978959E+02  0.13511769031E+03  0.00000000000E+00 0.  1.
         21    1    1    2  504  503 -0.23617692878E+02 -0.36575997427E+02 -0.16689885814E+02  0.46627795285E+02  0.00000000000E+00 0. -1.
         21    1    1    2  505  502  0.15260177844E+03  0.10699746638E+03 -0.26390598083E+03  0.32308222996E+03  0.00000000000E+00 0.  1.
         21    1    1    2  506  501  0.26308084986E+00 -0.38343906565E+02  0.56995269932E+03  0.57124110833E+03  0.00000000000E+00 0.  1.
<scales pt_clust_3="33.26980" pt_clust_4="33.26980" pt_clust_5="180.20807" pt_clust_6="38.34481"></scales>
<clustering>
<clus scale="   33.270">  3  4 -1 -1</clus>
<clus scale="   38.345">  1  6  2 -1</clus>
<clus scale="  180.208">  2  5  1 -1</clus>
<clus scale="   38.345">  1  3  2 -1</clus>
</clustering>
</event>
<event>
 6    0  0.4227619E+002  0.2269263E+03  0.7546771E-02  0.1128822E+00
         21   -1    0    0  505  501  0.00000000000E+00  0.00000000000E+00  0.21501204216E+03  0.21501204216E+03  0.00000000000E+00 0. -1.
         21   -1    0    0  506  502 -0.00000000000E+00 -0.00000000000E+00 -0.11607123131E+04  0.11607123131E+04  0.00000000000E+00 0. -1.
         21    1    1    2  503  504 -0.29607522205E+02 -0.20000963472E+03 -0.74816806892E+02  0.21558760155E+03  0.00000000000E+00 0.  1.
         21    1    1    2  504  502  0.87745217351E+02  0.34267392760E+02 -0.17172408955E+03  0.19586383103E+03  0.00000000000E+00 0. -1.
         21    1    1    2  505  503 -0.10888521427E+03  0.24541298555E+03 -0.99998775879E+01  0.26866991070E+03  0.00000000000E+00 0. -1.
         21    1    1    2  506  501  0.50747519125E+02 -0.79670743592E+02 -0.68915949694E+03  0.69560301200E+03  0.00000000000E+00 0. -1.
<scales pt_clust_3="226.92628" pt_clust_4="94.19914" pt_clust_5="14000.00000" pt_clust_6="125.78534"></scales>
<clustering>
<clus scale="   94.199">  2  4  1 -1</clus>
<clus scale="  125.785">  2  6  1 -1</clus>
<clus scale="  226.926">  2  3  1 -1</clus>
<clus scale="  226.926">  1  3  2 -1</clus>
</clustering>
</event>
<event>
 6    0  0.4227619E+002  0.1060919E+03  0.7546771E-02  0.1267983E+00
         21   -1    0    0  506  501  0.00000000000E+00  0.00000000000E+00  0.91229436900E+03  0.91229436900E+03  0.00000000000E+00 0. -1.
         21   -1    0    0  503  502 -0.00000000000E+00 -0.00000000000E+00 -0.25923799059E+03  0.25923799059E+03  0.00000000000E+00 0. -1.
         21    1    1    2  503  504 -0.28630983140E+02  0.32281866602E+02 -0.16513492123E+03  0.17067921466E+03  0.00000000000E+00 0. -1.
         21    1    1    2  504  501 -0.44823377224E+02 -0.78004390291E+02  0.12378384511E+02  0.90813239418E+02  0.00000000000E+00 0. -1.
         21    1    1    2  505  502  0.14245599809E+03  0.73525387007E+02  0.77722021234E+02  0.17815837480E+03  0.00000000000E+00 0. -1.
         21    1    1    2  506  505 -0.69001637723E+02 -0.27802863318E+02  0.72809089390E+03  0.73188153071E+03  0.00000000000E+00 0. -1.
<scales pt_clust_3="43.14918" pt_clust_4="106.09186" pt_clust_5="14000.00000" pt_clust_6="74.69787"></scales>
<clustering>
<clus scale="   43.149">  2  3  1 -1</clus>
<clus scale="   74.698">  1  6  2 -1</clus>
<clus scale="  106.092">  2  4  1 -1</clus>
<clus scale="   74.698">  1  3  2 -1</clus>
</clustering>
</event>
<event>
 6    0  0.4227619E+002  0.6751095E+02  0.7546771E-02  0.1368768E+00
         21   -1    0    0  504  501  0.00000000000E+00  0.00000000000E+00  0.41595906722E+03  0.41595906722E+03  0.00000000000E+00 0.  1.
         21   -1    0    0  505  502 -0.00000000000E+00 -0.00000000000E+00 -0.54763791588E+03  0.54763791588E+03  0.00000000000E+00 0. -1.
         21    1    1    2  503  502  0.10748314142E+03 -0.78340140894E+01 -0.10905219856E+03  0.15331790331E+03  0.00000000000E+00 0.  1.
         21    1    1    2  504  506 -0.17627407452E+02 -0.36906821692E+02  0.36332340750E+03  0.36561829470E+03  0.00000000000E+00 0.  1.
         21    1    1    2  505  501 -0.62547548810E+02 -0.74609825655E+01 -0.38029528905E+03  0.38547680734E+03  0.00000000000E+00 0. -1.
         21    1    1    2  506  503 -0.27308185154E+02  0.52201818347E+02 -0.56547685603E+01  0.59183977752E+02  0.00000000000E+00 0.  1.
<scales pt_clust_3="67.51095" pt_clust_4="40.90035" pt_clust_5="14000.00000" pt_clust_6="49.19624"></scales>
<clustering>
<clus scale="   40.900">  1  4  2 -1</clus>
<clus scale="   49.196">  1  6  2 -1</clus>
<clus scale="   67.511">  1  3  2 -1</clus>
<clus scale="   40.900">  1  3  2 -1</clus>
</clustering>
</event>
<event>
 6    0  0.4227619E+002  0.1133529E+03  0.7546771E-02  0.1254484E+00
         21   -1    0    0  504  501  0.00000000000E+00  0.00000000000E+00  0.23878044447E+03  0.23878044447E+03  0.00000000000E+00 0. -1.
         21   -1    0    0  503  502 -0.00000000000E+00 -0.00000000000E+00 -0.46826088197E+03  0.46826088197E+03  0.00000000000E+00 0.  1.
         21    1    1    2  503  505  0.41366246888E+02 -0.12528108635E+03 -0.17071042348E+03  0.21575116607E+03  0.00000000000E+00 0.  1.
         21    1    1    2  504  506 -0.25072145789E+01 -0.47457023325E+02  0.13191868543E+03  0.14021766919E+03  0.00000000000E+00 0. -1.
         21    1    1    2  505  501 -0.28762828167E+02  0.13959793420E+03  0.14236499979E+02  0.14323952475E+03  0.00000000000E+00 0. -1.
         21    1    1    2  506  502 -0.10096204142E+02  0.33140175470E+02 -0.20492519944E+03  0.20783296642E+03  0.00000000000E+00 0.  1.
<scales pt_clust_3="14000.00000" pt_clust_4="47.00765" pt_clust_5="113.35290" pt_clust_6="34.64397"></scales>
<clustering>
<clus scale="   34.644">  2  6  1 -1</clus>
<clus scale="   47.008">  1  4  2 -1</clus>
<clus scale="  113.353">  1  5  2 -1</clus>
<clus scale="   47.008">  1  3  2 -1</clus>
</clustering>
</event>
<event>
 6    0  0.4227619E+002  0.1266598E+03  0.7546771E-02  0.1232498E+00
         21   -1    0    0  503  501  0.00000000000E+00  0.00000000000E+00  0.37015342661E+03  0.37015342661E+03  0.00000000000E+00 0.  1.
         21   -1    0    0  505  502 -0.00000000000E+00 -0.00000000000E+00 -0.28677768124E+03  0.28677768124E+03  0.00000000000E+00 0. -1.
         21    1    1    2  503  502  0.34083976544E+02  0.74711750433E+01  0.30362272575E+03  0.30562116338E+03  0.00000000000E+00 0.  1.
         21    1    1    2  504  501 -0.19598470646E+02 -0.86545086217E+02 -0.18458999982E+02  0.90636012050E+02  0.00000000000E+00 0. -1.
         21    1    1    2  505  506 -0.33648174139E+02  0.11344879309E+03 -0.18077233107E+03  0.21605893631E+03  0.00000000000E+00 0. -1.
         21    1    1    2  506  504  0.19162668241E+02 -0.34374881918E+02 -0.21015649328E+02  0.44614996107E+02  0.00000000000E+00 0. -1.
<scales pt_clust_3="34.89321" pt_clust_4="30.61087" pt_clust_5="118.02516" pt_clust_6="30.61087"></scales>
<clustering>
<clus scale="   30.611">  4  6 -1 -1</clus>
<clus scale="   34.893">  1  3  2 -1</clus>
<clus scale="  118.025">  2  5  1 -1</clus>
<clus scale="   34.893">  1  3  2 -1</clus>
</clustering>
</event>
<event>
 6    0  0.4227619E+002  0.1445077E+03  0.7546771E-02  0.1207389E+00
         21   -1    0    0  504  501  0.00000000000E+00  0.00000000000E+00  0.15497749866E+03  0.15497749866E+03  0.00000000000E+00 0. -1.
         21   -1    0    0  503  502 -0.00000000000E+00 -0.00000000000E+00 -0.75842912774E+03  0.75842912774E+03  0.00000000000E+00 0. -1.
         21    1    1    2  503  501 -0.18181983163E+03  0.88369279897E+02  0.38083451830E+02  0.20571322297E+03  0.00000000000E+00 0. -1.
         21    1    1    2  504  505  0.51611917426E+02  0.48058818869E+01 -0.13933259032E+02  0.53675154665E+02  0.00000000000E+00 0. -1.
         21    1    1    2  505  506  0.76931704999E+02 -0.49071219146E+02 -0.18761381593E+03  0.20862745675E+03  0.00000000000E+00 0. -1.
         21    1    1    2  506  502  0.53276209201E+02 -0.44103942638E+02 -0.43998800596E+03  0.44539079201E+03  0.00000000000E+00 0. -1.
<scales pt_clust_3="144.50769" pt_clust_4="51.83519" pt_clust_5="14000.00000" pt_clust_6="69.90041"></scales>
<clustering>
<clus scale="   51.835">  1  4  2 -1</clus>
<clus scale="   69.900">  2  6  1 -1</clus>
<clus scale="  144.508">  1  3  2 -1</clus>
<clus scale="   51.835">  1  3  2 -1</clus>
</clustering>
</event>
<event>
 6    0  0.4227619E+002  0.8227813E+02  0.7546771E-02  0.1322708E+00
         21   -1    0    0  506  501  0.00000000000E+00  0.00000000000E+00  0.72130403912E+03  0.72130403912E+03  0.00000000000E+00 0.  1.
         21   -1    0    0  504  502 -0.00000000000E+00 -0.00000000000E+00 -0.23065611463E+03  0.23065611463E+03  0.00000000000E+00 0. -1.
         21    1    1    2  503  501  0.18672577450E+02 -0.80236163031E+02  0.65401145933E+03  0.65917941104E+03  0.00000000000E+00 0.  1.
         21    1    1    2  504  505  0.58610323085E+02  0.99098696080E+01 -0.16384752312E+03  0.17429683394E+03  0.00000000000E+00 0. -1.
         21    1    1    2  505  503 -0.45584882993E+02  0.71998669805E+02  0.88034620907E+01  0.85669661818E+02  0.00000000000E+00 0. -1.
         21    1    1    2  506  502 -0.31698017542E+02 -0.16723763822E+01 -0.83194738006E+01  0.32814246955E+02  0.00000000000E+00 0. -1.
<scales pt_clust_3="14000.00000" pt_clust_4="34.19083" pt_clust_5="82.27813" pt_clust_6="31.74210"></scales>
<clustering>
<clus scale="   31.742">  2  6  1 -1</clus>
<clus scale="   34.191">  2  4  1 -1</clus>
<clus scale="   82.278">  2  5  1 -1</clus>
<clus scale="   82.278">  1  3  2 -1</clus>
</clustering>
</event>
<event>
 6    0  0.4227619E+002  0.2137957E+03  0.7546771E-02  0.1138595E+00
         21   -1    0    0  503  501  0.00000000000E+00  0.00000000000E+00  0.10552395155E+04  0.10552395155E+04  0.00000000000E+00 0. -1.
         21   -1    0    0  505  502 -0.00000000000E+00 -0.00000000000E+00 -0.16516852044E+03  0.16516852044E+03  0.00000000000E+00 0. -1.
         21    1    1    2  503  504  0.41663616032E+02 -0.26009814809E+02  0.22931690974E+03  0.23451782972E+03  0.00000000000E+00 0.  1.
         21    1    1    2  504  502 -0.57474150817E+02 -0.20366634597E+03  0.10412203001E+03  0.23584879823E+03  0.00000000000E+00 0. -1.
         21    1    1    2  505  506 -0.65547169929E+02  0.25657749615E+02 -0.61858563010E+02  0.93708235597E+02  0.00000000000E+00 0. -1.
         21    1    1    2  506  501  0.81357704715E+02  0.20401841117E+03  0.61849061829E+03  0.65633317235E+03  0.00000000000E+00 0. -1.
<scales pt_clust_3="49.11586" pt_clust_4="14000.00000" pt_clust_5="69.45642" pt_clust_6="213.79574"></scales>
<clustering>
<clus scale="   49.116">  1  3  2 -1</clus>
<clus scale="   69.456">  2  5  1 -1</clus>
<clus scale="  213.796">  1  6  2 -1</clus>
<clus scale="   49.116">  1  3  2 -1</clus>
</clustering>
</event>
<event>
 6    0  0.4227619E+002  0.7156284E+02  0.7546771E-02  0.1354858E+00
         21   -1    0    0  504  501  0.00000000000E+00  0.00000000000E+00  0.79788561374E+03  0.79788561374E+03  0.00000000000E+00 0. -1.
         21   -1    0    0  506  502 -0.00000000000E+00 -0.00000000000E+00 -0.55745454902E+03  0.55745454902E+03  0.00000000000E+00 0. -1.
         21    1    1    2  503  505 -0.34732370242E+02 -0.28096640184E+02  0.96878906289E+02  0.10668308777E+03  0.00000000000E+00 0.  1.
         21    1    1    2  504  502  0.16002413535E+01  0.70390598524E+02 -0.26244501691E+03  0.27172556750E+03  0.00000000000E+00 0. -1.
         21    1    1    2  505  501 -0.40378449875E+02  0.14875133453E+02  0.68317469032E+03  0.68452855769E+03  0.00000000000E+00 0. -1.
         21    1    1    2  506  503  0.73510578764E+02 -0.57169091794E+02 -0.27717751497E+03  0.29240294980E+03  0.00000000000E+00 0. -1.
<scales pt_clust_3="14000.00000" pt_clust_4="70.99591" pt_clust_5="43.03125" pt_clust_6="71.56284"></scales>
<clustering>
<clus scale="   43.031">  1  5  2 -1</clus>
<clus scale="   70.996">  2  4  1 -1</clus>
<clus scale="   71.563">  2  6  1 -1</clus>
<clus scale="   43.031">  1  3  2 -1</clus>
</clustering>
</event>
<event>
 6    0  0.4227619E+002  0.1053864E+03  0.7546771E-02  0.1269360E+00
         21   -1    0    0  505  501  0.00000000000E+00  0.00000000000E+00  0.27248243022E+03  0.27248243022E+03  0.00000000000E+00 0. -1.
         21   -1    0    0  503  502 -0.00000000000E+00 -0.00000000000E+00 -0.10652333878E+03  0.10652333878E+03  0.00000000000E+00 0. -1.
         21    1    1    2  503  504  0.26580905186E+02  0.10713256554E+03  0.10919963095E+03  0.15526909068E+03  0.00000000000E+00 0. -1.
         21    1    1    2  504  501 -0.57541574733E+02  0.19584304667E+02  0.39847929559E+02  0.72680363938E+02  0.00000000000E+00 0. -1.
         21    1    1    2  505  506  0.54866382063E+02 -0.90840515070E+02  0.19359495790E+02  0.10787543342E+03  0.00000000000E+00 0. -1.
         21    1    1    2  506  502 -0.23905712516E+02 -0.35876355139E+02 -0.24479648648E+01  0.43180880965E+02  0.00000000000E+00 0. -1.
<scales pt_clust_3="14000.00000" pt_clust_4="63.48234" pt_clust_5="105.38645" pt_clust_6="43.11144"></scales>
<clustering>
<clus scale="   43.111">  2  6  1 -1</clus>
<clus scale="   63.482">  1  4  2 -1</clus>
<clus scale="  105.386">  2  5  1 -1</clus>
<clus scale="   63.482">  1  3  2 -1</clus>
</clustering>
</event>
<event>
 6    0  0.4227619E+002  0.1173595E+03  0.7546771E-02  0.1247518E+00
         21   -1    0    0  503  501  0.00000000000E+00  0.00000000000E+00  0.45235335039E+02  0.45235335039E+02  0.00000000000E+00 0.  1.
         21   -1    0    0  506  502 -0.00000000000E+00 -0.00000000000E+00 -0.10766425417E+04  0.10766425417E+04  0.00000000000E+00 0.  1.
         21    1    1    2  503  502 -0.39487353673E+01  0.30519408563E+02 -0.13779608983E+03  0.14119061294E+03  0.00000000000E+00 0.  1.
         21    1    1    2  504  501 -0.22845614541E+02  0.28442176634E+02  0.36164063465E+01  0.36660031510E+02  0.00000000000E+00 0.  1.
         21    1    1    2  505  504 -0.99754935253E+02 -0.21503422337E+02 -0.12868556012E+03  0.16423585986E+03  0.00000000000E+00 0.  1.
         21    1    1    2  506  505  0.12654928516E+03 -0.37458162861E+02 -0.76854196303E+03  0.77979137241E+03  0.00000000000E+00 0.  1.
<scales pt_clust_3="30.77380" pt_clust_4="36.94539" pt_clust_5="14000.00000" pt_clust_6="117.35953"></scales>
<clustering>
<clus scale="   30.774">  2  3  1 -1</clus>
<clus scale="   36.945">  1  4  2 -1</clus>
<clus scale="  117.360">  2  6  1 -1</clus>
<clus scale="   36.945">  1  3  2 -1</clus>
</clustering>
</event>
<event>
 6    0  0.4227619E+002  0.8177068E+02  0.7546771E-02  0.1324100E+00
         21   -1    0    0  505  501  0.00000000000E+00  0.00000000000E+00  0.93556632836E+03  0.93556632836E+03  0.00000000000E+00 0. -1.
         21   -1    0    0  503  502 -0.00000000000E+00 -0.00000000000E+00 -0.37356691436E+03  0.37356691436E+03  0.00000000000E+00 0. -1.
         21    1    1    2  503  506  0.63927966949E+02 -0.11858960856E+03 -0.86287807731E+02  0.15998708067E+03  0.00000000000E+00 0. -1.
         21    1    1    2  504  502 -0.14967072746E+02  0.53895076950E+02 -0.24320837673E+03  0.24955762280E+03  0.00000000000E+00 0. -1.
         21    1    1    2  505  504 -0.17869151975E+02  0.31313694195E+02  0.92292740677E+02  0.99084832432E+02  0.00000000000E+00 0. -1.
         21    1    1    2  506  501 -0.31091742228E+02  0.33380837420E+02  0.79920285778E+03  0.80050370682E+03  0.00000000000E+00 0. -1.
<scales pt_clust_3="14000.00000" pt_clust_4="56.06685" pt_clust_5="36.05349" pt_clust_6="81.77068"></scales>
<clustering>
<clus scale="   36.053">  1  5  2 -1</clus>
<clus scale="   56.067">  2  4  1 -1</clus>
<clus scale="   81.771">  1  6  2 -1</clus>
<clus scale="   36.053">  1  3  2 -1</clus>
</clustering>
</event>
<event>
 6    0  0.4227619E+002  0.8324297E+02  0.7546771E-02  0.1320092E+00
         21   -1    0    0  503  501  0.00000000000E+00  0.00000000000E+00  0.62935055579E+03  0.62935055579E+03  0.00000000000E+00 0.  1.
         21   -1    0    0  504  502 -0.00000000000E+00 -0.00000000000E+00 -0.44226967004E+02  0.44226967004E+02  0.00000000000E+00 0. -1.
         21    1    1    2  503  506 -0.36891869048E+02 -0.19051487142E+02  0.11025127768E+03  0.11781049781E+03  0.00000000000E+00 0.  1.
         21    1    1    2  504  505 -0.23615541685E+02 -0.24371071585E+02  0.22215154446E+02  0.40560523003E+02  0.00000000000E+00 0. -1.
         21    1    1    2  505  501  0.75309401660E+02 -0.51871008377E+02  0.38912084299E+03  0.39972132535E+03  0.00000000000E+00 0.  1.
         21    1    1    2  506  502 -0.14801990927E+02  0.95293567104E+02  0.63536313669E+02  0.11548517663E+03  0.00000000000E+00 0. -1.
<scales pt_clust_3="45.00394" pt_clust_4="33.93587" pt_clust_5="14000.00000" pt_clust_6="83.24297"></scales>
<clustering>
<clus scale="   33.936">  2  4  1 -1</clus>
<clus scale="   45.004">  1  3  2 -1</clus>
<clus scale="   83.243">  2  6  1 -1</clus>
<clus scale="   45.004">  1  3  2 -1</clus>
</clustering>
</event>
<event>
 6    0  0.4227619E+002  0.8651221E+02  0.7546771E-02  0.1311525E+00
         21   -1    0    0  502  501  0.00000000000E+00  0.00000000000E+00  0.30103356875E+03  0.30103356875E+03  0.00000000000E+00 0.  1.
         21   -1    0    0  503  502 -0.00000000000E+00 -0.00000000000E+00 -0.19728047917E+03  0.19728047917E+03  0.00000000000E+00 0.  1.
         21    1    1    2  503  505 -0.32821783049E+02 -0.35050227686E+02 -0.11156069327E+03  0.12145606690E+03  0.00000000000E+00 0. -1.
         21    1    1    2  504  501 -0.18055236087E+02 -0.42425631392E+02  0.60632944474E+02  0.76172696583E+02  0.00000000000E+00 0.  1.
         21    1    1    2  505  506  0.96833762147E+02 -0.18081606483E+02 -0.15951526623E+02  0.99790646787E+02  0.00000000000E+00 0.  1.
         21    1    1    2  506  504 -0.45956743011E+02  0.95557465561E+02  0.17063236500E+03  0.20089463766E+03  0.00000000000E+00 0.  1.
<scales pt_clust_3="48.94089" pt_clust_4="46.10776" pt_clust_5="14000.00000" pt_clust_6="86.51221"></scales>
<clustering>
<clus scale="   46.108">  1  4  2 -1</clus>
<clus scale="   48.941">  2  3  1 -1</clus>
<clus scale="   86.512">  1  6  2 -1</clus>
<clus scale="   46.108">  1  3  2 -1</clus>
</clustering>
</event>
<event>
 6    0  0.4227619E+002  0.1742659E+03  0.7546771E-02  0.1173471E+00
         21   -1    0    0  503  501  0.00000000000E+00  0.00000000000E+00  0.34337429047E+03  0.34337429047E+03  0.00000000000E+00 0. -1.
         21   -1    0    0  506  502 -0.00000000000E+00 -0.00000000000E+00 -0.26599962473E+03  0.26599962473E+03  0.00000000000E+00 0. -1.
         21    1    1    2  503  502  0.10293542686E+03 -0.10499418401E+03  0.11851600521E+03  0.18885318179E+03  0.00000000000E+00 0. -1.
         21    1    1    2  504  505 -0.38070260922E+02 -0.18615724898E+02  0.47685154522E+02  0.63794701519E+02  0.00000000000E+00 0.  1.
         21    1    1    2  505  501 -0.14152710136E+03  0.60547337375E+02  0.70258793344E+02  0.16921051541E+03  0.00000000000E+00 0.  1.
         21    1    1    2  506  504  0.76661935423E+02  0.63062571534E+02 -0.15908528734E+03  0.18751551648E+03  0.00000000000E+00 0. -1.
<scales pt_clust_3="154.92396" pt_clust_4="41.86733" pt_clust_5="41.86733" pt_clust_6="99.26702"></scales>
<clustering>
<clus scale="   41.867">  4  5 -1 -1</clus>
<clus scale="   99.267">  2  6  1 -1</clus>
<clus scale="  154.924">  1  3  2 -1</clus>
<clus scale="  154.924">  1  3  2 -1</clus>
</clustering>
</event>
<event>
 6    0  0.4227619E+002  0.1136868E+03  0.7546771E-02  0.1253891E+00
         21   -1    0    0  505  501  0.00000000000E+00  0.00000000000E+00  0.33077291259E+03  0.33077291259E+03  0.00000000000E+00 0.  1.
         21   -1    0    0  504  502 -0.00000000000E+00 -0.00000000000E+00 -0.41477996190E+03  0.41477996190E+03  0.00000000000E+00 0.  1.
         21    1    1    2  503  502  0.46911190865E+02  0.12100182058E+03 -0.34162890242E+03  0.36544822804E+03  0.00000000000E+00 0.  1.
         21    1    1    2  504  506  0.32499235770E+02 -0.25765666386E+02 -0.34369333992E+02  0.53863911935E+02  0.00000000000E+00 0. -1.
         21    1    1    2  505  503 -0.24488811771E+02 -0.63813204848E+02  0.81099683963E+02  0.10606123587E+03  0.00000000000E+00 0.  1.
         21    1    1    2  506  501 -0.54921614864E+02 -0.31422949342E+02  0.21089150314E+03  0.22017949864E+03  0.00000000000E+00 0.  1.
<scales pt_clust_3="113.68680" pt_clust_4="41.47373" pt_clust_5="14000.00000" pt_clust_6="63.08421"></scales>
<clustering>
<clus scale="   41.474">  2  4  1 -1</clus>
<clus scale="   63.084">  1  6  2 -1</clus>
<clus scale="  113.687">  2  3  1 -1</clus>
<clus scale="   63.084">  1  3  2 -1</clus>
</clustering>
</event>
<event>
 6    0  0.4227619E+002  0.8063450E+02  0.7546771E-02  0.1327260E+00
         21   -1    0    0  505  501  0.00000000000E+00  0.00000000000E+00  0.23047222846E+03  0.23047222846E+03  0.00000000000E+00 0.  1.
         21   -1    0    0  503  502 -0.00000000000E+00 -0.00000000000E+00 -0.36073341023E+03  0.36073341023E+03  0.00000000000E+00 0. -1.
         21    1    1    2  503  506 -0.64171419315E+02 -0.14445521169E+02 -0.27348649688E+03  0.28128545663E+03  0.00000000000E+00 0. -1.
         21    1    1    2  504  501  0.49743976327E+02  0.37352046809E+02  0.12843825299E+03  0.14270957716E+03  0.00000000000E+00 0.  1.
         21    1    1    2  505  502 -0.18630409630E+02  0.49561686287E+02 -0.43487448071E+02  0.68517231777E+02  0.00000000000E+00 0.  1.
         21    1    1    2  506  504  0.33057852618E+02 -0.72468211928E+02  0.58274510186E+02  0.98693373117E+02  0.00000000000E+00 0.  1.
<scales pt_clust_3="80.63450" pt_clust_4="62.56574" pt_clust_5="52.94764" pt_clust_6="14000.00000"></scales>
<clustering>
<clus scale="   52.948">  2  5  1 -1</clus>
<clus scale="   62.566">  1  4  2 -1</clus>
<clus scale="   80.635">  2  3  1 -1</clus>
<clus scale="   62.566">  1  3  2 -1</clus>
</clustering>
</event>
<event>
 6    0  0.4227619E+002  0.9922910E+02  0.7546771E-02  0.1281925E+00
         21   -1    0    0  504  501  0.00000000000E+00  0.00000000000E+00  0.10548561590E+04  0.10548561590E+04  0.00000000000E+00 0. -1.
         21   -1    0    0  503  502 -0.00000000000E+00 -0.00000000000E+00 -0.20437678634E+03  0.20437678634E+03  0.00000000000E+00 0.  1.
         21    1    1    2  503  505 -0.95747303516E+02 -0.69065606639E+02 -0.76552305214E+00  0.11806011255E+03  0.00000000000E+00 0. -1.
         21    1    1    2  504  506 -0.81687254664E+01  0.59050155777E+02  0.18038769888E+03  0.18998255415E+03  0.00000000000E+00 0. -1.
         21    1    1    2  505  501  0.62421385623E+02  0.26148652856E+02  0.80603427572E+03  0.80887046866E+03  0.00000000000E+00 0. -1.
         21    1    1    2  506  502  0.41494643359E+02 -0.16133201995E+02 -0.13517707892E+03  0.14231980994E+03  0.00000000000E+00 0.  1.
<scales pt_clust_3="99.22910" pt_clust_4="58.09823" pt_clust_5="14000.00000" pt_clust_6="44.52062"></scales>
<clustering>
<clus scale="   44.521">  2  6  1 -1</clus>
<clus scale="   58.098">  1  4  2 -1</clus>
<clus scale="   99.229">  2  3  1 -1</clus>
<clus scale="   58.098">  1  3  2 -1</clus>
</clustering>
</event>
<event>
 6    0  0.4227619E+002  0.8989577E+02  0.7546771E-02  0.1303104E+00
         21   -1    0    0  505  501  0.00000000000E+00  0.00000000000E+00  0.31710031330E+04  0.31710031330E+04  0.00000000000E+00 0.  1.
         21   -1    0    0  503  502 -0.00000000000E+00 -0.00000000000E+00 -0.16330995407E+02  0.16330995407E+02  0.00000000000E+00 0.  1.
         21    1    1    2  503  506  0.99230458767E+02 -0.19673041042E+02  0.77941502487E+03  0.78595260257E+03  0.00000000000E+00 0. -1.
         21    1    1    2  504  502 -0.24281749775E+02 -0.25977947797E+02  0.19451649317E+02  0.40531762916E+02  0.00000000000E+00 0.  1.
         21    1    1    2  505  504 -0.54570459523E+02  0.75087009665E+02  0.93563029064E+03  0.94022339624E+03  0.00000000000E+00 0.  1.
         21    1    1    2  506  501 -0.20378249469E+02 -0.29436020826E+02  0.14201751727E+04  0.14206263666E+04  0.00000000000E+00 0.  1.
<scales pt_clust_3="89.89577" pt_clust_4="35.55921" pt_clust_5="14000.00000" pt_clust_6="37.17263"></scales>
<clustering>
<clus scale="   35.559">  2  4  1 -1</clus>
<clus scale="   37.173">  1  6  2 -1</clus>
<clus scale="   89.896">  2  3  1 -1</clus>
<clus scale="   37.173">  1  3  2 -1</clus>
</clustering>
</event>
<event>
 6    0  0.4227619E+002  0.7114395E+02  0.7546771E-02  0.1356246E+00
         21   -1    0    0  504  501  0.00000000000E+00  0.00000000000E+00  0.24636633465E+02  0.24636633465E+02  0.00000000000E+00 0.  1.
         21   -1    0    0  503  502 -0.00000000000E+00 -0.00000000000E+00 -0.16621213110E+04  0.16621213110E+04  0.00000000000E+00 0. -1.
         21    1    1    2  503  506  0.33240437465E+02  0.34565341754E+02 -0.59561455255E+03  0.59754195229E+03  0.00000000000E+00 0. -1.
         21    1    1    2  504  505 -0.37920577729E+02  0.37404026726E+02 -0.33136590254E+02  0.62730096798E+02  0.00000000000E+00 0.  1.
         21    1    1    2  505  502 -0.26583988823E+02 -0.10654422023E+03 -0.91736193853E+03  0.92391087535E+03  0.00000000000E+00 0. -1.
         21    1    1    2  506  501  0.31264129087E+02  0.34574851751E+02 -0.91371596169E+02  0.10257502000E+03  0.00000000000E+00 0.  1.
<scales pt_clust_3="50.31399" pt_clust_4="71.14395" pt_clust_5="14000.00000" pt_clust_6="46.61401"></scales>
<clustering>
<clus scale="   46.614">  1  6  2 -1</clus>
<clus scale="   50.314">  2  3  1 -1</clus>
<clus scale="   71.144">  1  4  2 -1</clus>
<clus scale="   46.614">  1  3  2 -1</clus>
</clustering>
</event>
<event>
 6    0  0.4227619E+002  0.8007237E+02  0.7546771E-02  0.1328846E+00
         21   -1    0    0  505  501  0.00000000000E+00  0.00000000000E+00  0.17185419607E+03  0.17185419607E+03  0.00000000000E+00 0.  1.
         21   -1    0    0  506  502 -0.00000000000E+00 -0.00000000000E+00 -0.48648898007E+03  0.48648898007E+03  0.00000000000E+00 0. -1.
         21    1    1    2  503  502 -0.43847396773E+02  0.56157052016E+02 -0.12766098025E+03  0.14619690343E+03  0.00000000000E+00 0. -1.
         21    1    1    2  504  503  0.65895086683E+02 -0.31598611710E+02 -0.41590768091E+02  0.84085829373E+02  0.00000000000E+00 0. -1.
         21    1    1    2  505  504 -0.82905215282E+02 -0.72140205341E+01  0.12511256873E+03  0.15026134456E+03  0.00000000000E+00 0.  1.
         21    1    1    2  506  501  0.60857525372E+02 -0.17344419772E+02 -0.27049560439E+03  0.27779909879E+03  0.00000000000E+00 0. -1.
<scales pt_clust_3="45.20745" pt_clust_4="80.07237" pt_clust_5="14000.00000" pt_clust_6="63.28086"></scales>
<clustering>
<clus scale="   63.281">  2  6  1 -1</clus>
<clus scale="   45.207">  2  3  1 -1</clus>
<clus scale="   80.072">  2  4  1 -1</clus>
<clus scale="   80.072">  1  3  2 -1</clus>
</clustering>
</event>
<event>
 6    0  0.4227619E+002  0.7659098E+02  0.7546771E-02  0.1339014E+00
         21   -1    0    0  503  501  0.00000000000E+00  0.00000000000E+00  0.79678285134E+02  0.79678285134E+02  0.00000000000E+00 0.  1.
         21   -1    0    0  504  502 -0.00000000000E+00 -0.00000000000E+00 -0.14111000757E+04  0.14111000757E+04  0.00000000000E+00 0.  1.
         21    1    1    2  503  506  0.12977649078E+02 -0.46244694575E+02  0.58914198781E+02  0.76012327750E+02  0.00000000000E+00 0.  1.
         21    1    1    2  504  501 -0.63879022101E+02 -0.38295495178E+02 -0.21848026021E+03  0.23082612182E+03  0.00000000000E+00 0.  1.
         21    1    1    2  505  502  0.72853602125E+02 -0.63447357679E+01 -0.60841684819E+03  0.61279602167E+03  0.00000000000E+00 0.  1.
         21    1    1    2  506  505 -0.21952229103E+02  0.90884925521E+02 -0.56343888096E+03  0.57114388960E+03  0.00000000000E+00 0.  1.
<scales pt_clust_3="48.03115" pt_clust_4="14000.00000" pt_clust_5="76.59098" pt_clust_6="72.44329"></scales>
<clustering>
<clus scale="   48.031">  1  3  2 -1</clus>
<clus scale="   76.591">  2  5  1 -1</clus>
<clus scale="   72.443">  2  6  1 -1</clus>
<clus scale="   48.031">  1  3  2 -1</clus>
</clustering>
</event>
<event>
 6    0  0.4227619E+002  0.7788960E+02  0.7546771E-02  0.1335149E+00
         21   -1    0    0  505  501  0.00000000000E+00  0.00000000000E+00  0.70167783358E+03  0.70167783358E+03  0.00000000000E+00 0.  1.
         21   -1    0    0  504  502 -0.00000000000E+00 -0.00000000000E+00 -0.15561778251E+03  0.15561778251E+03  0.00000000000E+00 0. -1.
         21    1    1    2  503  506  0.85833056785E+02  0.70378736814E+02  0.24063678407E+03  0.26500290957E+03  0.00000000000E+00 0.  1.
         21    1    1    2  504  503 -0.40845860579E+02 -0.36436616358E+02 -0.13141037961E+03  0.14235413309E+03  0.00000000000E+00 0. -1.
         21    1    1    2  505  502 -0.73472755607E+02 -0.21020536090E+02  0.31864380254E+03  0.32767969368E+03  0.00000000000E+00 0.  1.
         21    1    1    2  506  501  0.28485559400E+02 -0.12921584365E+02  0.11818984407E+03  0.12225887975E+03  0.00000000000E+00 0.  1.
<scales pt_clust_3="14000.00000" pt_clust_4="54.61740" pt_clust_5="77.88960" pt_clust_6="31.27930"></scales>
<clustering>
<clus scale="   31.279">  1  6  2 -1</clus>
<clus scale="   54.617">  2  4  1 -1</clus>
<clus scale="   77.890">  1  5  2 -1</clus>
<clus scale="   31.279">  1  3  2 -1</clus>
</clustering>
</event>
<event>
 6    0  0.4227619E+002  0.1155405E+03  0.7546771E-02  0.1250641E+00
         21   -1    0    0  503  501  0.00000000000E+00  0.00000000000E+00  0.12272691088E+04  0.12272691088E+04  0.00000000000E+00 0.  1.
         21   -1    0    0  505  502 -0.00000000000E+00 -0.00000000000E+00 -0.67960859799E+02  0.67960859799E+02  0.00000000000E+00 0.  1.
         21    1    1    2  503  504 -0.97803087305E+01  0.49773520271E+02  0.15203563156E+03  0.16027442410E+03  0.00000000000E+00 0.  1.
         21    1    1    2  504  502  0.98137807871E+01  0.57372485190E+02 -0.30811816902E+02  0.65858032243E+02  0.00000000000E+00 0.  1.
         21    1    1    2  505  506 -0.73470908261E+02 -0.15161423475E+03  0.63485511840E+03  0.65683016975E+03  0.00000000000E+00 0.  1.
         21    1    1    2  506  501  0.73437436205E+02  0.44468229290E+02  0.40322931598E+03  0.41226734253E+03  0.00000000000E+00 0.  1.
<scales pt_clust_3="50.72532" pt_clust_4="58.98216" pt_clust_5="115.54052" pt_clust_6="14000.00000"></scales>
<clustering>
<clus scale="   50.725">  1  3  2 -1</clus>
<clus scale="   58.982">  2  4  1 -1</clus>
<clus scale="  115.541">  2  5  1 -1</clus>
<clus scale="   50.725">  1  3  2 -1</clus>
</clustering>
</event>
<event>
 6    0  0.4227619E+002  0.3660566E+03  0.7546771E-02  0.1056211E+00
         21   -1    0    0  506  501  0.00000000000E+00  0.00000000000E+00  0.45286508261E+03  0.45286508261E+03  0.00000000000E+00 0. -1.
         21   -1    0    0  505  502 -0.00000000000E+00 -0.00000000000E+00 -0.29479718920E+04  0.29479718920E+04  0.00000000000E+00 0. -1.
         21    1    1    2  503  504  0.30425496369E+03 -0.47389496339E+03 -0.27552083003E+03  0.62694437316E+03  0.00000000000E+00 0. -1.
         21    1    1    2  504  502 -0.51565987115E+02  0.26119529113E+03 -0.23077668721E+04  0.23230733882E+04  0.00000000000E+00 0. -1.
         21    1    1    2  505  501 -0.24822923327E+03  0.12783142961E+03  0.17484573380E+03  0.32943839678E+03  0.00000000000E+00 0. -1.
         21    1    1    2  506  503 -0.44597433055E+01  0.84868242658E+02 -0.86664841049E+02  0.12138081643E+03  0.00000000000E+00 0. -1.
<scales pt_clust_3="14000.00000" pt_clust_4="267.71522" pt_clust_5="366.05663" pt_clust_6="84.98534"></scales>
<clustering>
<clus scale="   84.985">  1  6  2 -1</clus>
<clus scale="  267.715">  2  4  1 -1</clus>
<clus scale="  366.057">  1  5  2 -1</clus>
<clus scale="   84.985">  1  3  2 -1</clus>
</clustering>
</event>
<event>
 6    0  0.4227619E+002  0.1342029E+03  0.7546771E-02  0.1221349E+00
         21   -1    0    0  503  501  0.00000000000E+00  0.00000000000E+00  0.27374429501E+04  0.27374429501E+04  0.00000000000E+00 0. -1.
         21   -1    0    0  504  502 -0.00000000000E+00 -0.00000000000E+00 -0.37158424668E+02  0.37158424668E+02  0.00000000000E+00 0. -1.
         21    1    1    2  503  505  0.27980754637E+02  0.22427948642E+02  0.50608936737E+03  0.50735823959E+03  0.00000000000E+00 0. -1.
         21    1    1    2  504  501 -0.10712114721E+03  0.72932782414E+02  0.18571289979E+04  0.18616450376E+04  0.00000000000E+00 0. -1.
         21    1    1    2  505  506  0.29661053717E+02  0.31543605357E+02  0.22524374750E+03  0.22936765887E+03  0.00000000000E+00 0. -1.
         21    1    1    2  506  502  0.49479338855E+02 -0.12690433641E+03  0.11182241262E+03  0.17623043874E+03  0.00000000000E+00 0. -1.
<scales pt_clust_3="35.85994" pt_clust_4="14000.00000" pt_clust_5="46.91955" pt_clust_6="134.20294"></scales>
<clustering>
<clus scale="   35.860">  1  3  2 -1</clus>
<clus scale="   46.920">  1  5  2 -1</clus>
<clus scale="  134.203">  2  6  1 -1</clus>
<clus scale="   35.860">  1  3  2 -1</clus>
</clustering>
</event>
<event>
 6    0  0.4227619E+002  0.8274861E+02  0.7546771E-02  0.1321427E+00
         21   -1    0    0  505  501  0.00000000000E+00  0.00000000000E+00  0.12460607362E+03  0.12460607362E+03  0.00000000000E+00 0.  1.
         21   -1    0    0  506  502 -0.00000000000E+00 -0.00000000000E+00 -0.27591069942E+04  0.27591069942E+04  0.00000000000E+00 0. -1.
         21    1    1    2  503  502  0.54585415836E+02  0.50020554161E+02 -0.46728071381E+03  0.47310980645E+03  0.00000000000E+00 0.  1.
         21    1    1    2  504  501  0.20802307138E+02 -0.35254496693E+02 -0.70675099035E+02  0.81673650236E+02  0.00000000000E+00 0.  1.
         21    1    1    2  505  503  0.20510159983E+02 -0.38715872343E+02  0.11091645005E+03  0.11925621294E+03  0.00000000000E+00 0.  1.
         21    1    1    2  506  504 -0.95897882956E+02  0.23949814874E+02 -0.22074615578E+04  0.22096733982E+04  0.00000000000E+00 0. -1.
<scales pt_clust_3="73.83695" pt_clust_4="40.93428" pt_clust_5="14000.00000" pt_clust_6="82.74861"></scales>
<clustering>
<clus scale="   40.934">  1  4  2 -1</clus>
<clus scale="   73.837">  2  3  1 -1</clus>
<clus scale="   82.749">  2  6  1 -1</clus>
<clus scale="   40.934">  1  3  2 -1</clus>
</clustering>
</event>
<event>
 6    0  0.4227619E+002  0.1249933E+03  0.7546771E-02  0.1235080E+00
         21   -1    0    0  504  501  0.00000000000E+00  0.00000000000E+00  0.11650580834E+03  0.11650580834E+03  0.00000000000E+00 0. -1.
         21   -1    0    0  506  502 -0.00000000000E+00 -0.00000000000E+00 -0.31108211245E+03  0.31108211245E+03  0.00000000000E+00 0. -1.
         21    1    1    2  503  505  0.11929976598E+03  0.19148454291E+02 -0.19253381143E+01  0.12084206383E+03  0.00000000000E+00 0. -1.
         21    1    1    2  504  502 -0.11921776483E+03 -0.78253193676E+02 -0.11138820690E+03  0.18095239818E+03  0.00000000000E+00 0. -1.
         21    1    1    2  505  501 -0.12344566488E+02  0.31196754829E+02  0.53488846418E+01  0.33974054815E+02  0.00000000000E+00 0. -1.
         21    1    1    2  506  503  0.12262565341E+02  0.27907984555E+02 -0.86611643740E+02  0.91819403951E+02  0.00000000000E+00 0. -1.
<scales pt_clust_3="124.99333" pt_clust_4="14000.00000" pt_clust_5="34.96129" pt_clust_6="30.48321"></scales>
<clustering>
<clus scale="   30.483">  2  6  1 -1</clus>
<clus scale="   34.961">  1  5  2 -1</clus>
<clus scale="  124.993">  1  3  2 -1</clus>
<clus scale="   34.961">  1  3  2 -1</clus>
</clustering>
</event>
<event>
 6    0  0.4227619E+002  0.1071082E+03  0.7546771E-02  0.1266021E+00
         21   -1    0    0  504  501  0.00000000000E+00  0.00000000000E+00  0.12325942682E+03  0.12325942682E+03  0.00000000000E+00 0.  1.
         21   -1    0    0  503  502 -0.00000000000E+00 -0.00000000000E+00 -0.85989919482E+03  0.85989919482E+03  0.00000000000E+00 0. -1.
         21    1    1    2  503  505 -0.78047665423E+02  0.51116777540E+02 -0.53933852383E+03  0.54734852362E+03  0.00000000000E+00 0. -1.
         21    1    1    2  504  506  0.49706997446E+02 -0.61164675317E+02  0.88218031164E+02  0.11829760828E+03  0.00000000000E+00 0.  1.
         21    1    1    2  505  501 -0.21547409188E+02  0.59026417416E+02 -0.18246675430E+03  0.19298322523E+03  0.00000000000E+00 0. -1.
         21    1    1    2  506  502  0.49888077165E+02 -0.48978519638E+02 -0.10305252102E+03  0.12452926451E+03  0.00000000000E+00 0. -1.
<scales pt_clust_3="58.24791" pt_clust_4="80.21619" pt_clust_5="58.24791" pt_clust_6="69.91220"></scales>
<clustering>
<clus scale="   58.248">  3  5 -1 -1</clus>
<clus scale="   69.912">  2  6  1 -1</clus>
<clus scale="   80.216">  1  4  2 -1</clus>
<clus scale="   80.216">  1  3  2 -1</clus>
</clustering>
</event>
<event>
 6    0  0.4227619E+002  0.2591771E+03  0.7546771E-02  0.1107639E+00
         21   -1    0    0  503  501  0.00000000000E+00  0.00000000000E+00  0.81578940491E+03  0.81578940491E+03  0.00000000000E+00 0. -1.
         21   -1    0    0  504  502 -0.00000000000E+00 -0.00000000000E+00 -0.20960119763E+03  0.20960119763E+03  0.00000000000E+00 0. -1.
         21    1    1    2  503  505 -0.14657876516E+03 -0.15701151337E+03  0.42312980295E+03  0.47452795479E+03  0.00000000000E+00 0. -1.
         21    1    1    2  504  501 -0.29713069101E+02 -0.31815668843E+02  0.26757122123E+03  0.27108939796E+03  0.00000000000E+00 0. -1.
         21    1    1    2  505  506  0.14054704686E+03  0.15193363184E+03 -0.37911151435E+02  0.21041519971E+03  0.00000000000E+00 0. -1.
         21    1    1    2  506  502  0.35744787407E+02  0.36893550373E+02 -0.46601665472E+02  0.69358050078E+02  0.00000000000E+00 0.  1.
<scales pt_clust_3="250.55269" pt_clust_4="43.53278" pt_clust_5="33.03184" pt_clust_6="33.03184"></scales>
<clustering>
<clus scale="   33.032">  5  6 -1 -1</clus>
<clus scale="   43.533">  1  4  2 -1</clus>
<clus scale="  250.553">  1  3  2 -1</clus>
<clus scale="   43.533">  1  3  2 -1</clus>
</clustering>
</event>
<event>
 6    0  0.4227619E+002  0.1593335E+03  0.7546771E-02  0.1189451E+00
         21   -1    0    0  504  501  0.00000000000E+00  0.00000000000E+00  0.29010704435E+03  0.29010704435E+03  0.00000000000E+00 0.  1.
         21   -1    0    0  505  502 -0.00000000000E+00 -0.00000000000E+00 -0.90107327865E+03  0.90107327865E+03  0.00000000000E+00 0.  1.
         21    1    1    2  503  501 -0.11486019365E+03 -0.21564049447E+02 -0.13621477446E+03  0.17947795713E+03  0.00000000000E+00 0.  1.
         21    1    1    2  504  506  0.86295303925E+02  0.25614585991E+02  0.18240461754E+03  0.20340705739E+03  0.00000000000E+00 0.  1.
         21    1    1    2  505  503 -0.19648789715E+02 -0.49674951011E+02 -0.71696134082E+03  0.71894870465E+03  0.00000000000E+00 0.  1.
         21    1    1    2  506  502  0.48213679441E+02  0.45624414467E+02  0.59805263435E+02  0.89346603826E+02  0.00000000000E+00 0. -1.
<scales pt_clust_3="146.68248" pt_clust_4="52.38931" pt_clust_5="53.41981" pt_clust_6="52.38931"></scales>
<clustering>
<clus scale="   53.420">  2  5  1 -1</clus>
<clus scale="   52.389">  4  6 -1 -1</clus>
<clus scale="  146.682">  2  3  1 -1</clus>
<clus scale="  159.334">  1  3  2 -1</clus>
</clustering>
</event>
<event>
 6    0  0.4227619E+002  0.1769837E+03  0.7546771E-02  0.1170755E+00
         21   -1    0    0  506  501  0.00000000000E+00  0.00000000000E+00  0.50356666184E+03  0.50356666184E+03  0.00000000000E+00 0. -1.
         21   -1    0    0  505  502 -0.00000000000E+00 -0.00000000000E+00 -0.27600871545E+03  0.27600871545E+03  0.00000000000E+00 0.  1.
         21    1    1    2  503  504  0.48575843065E+02 -0.11806520434E+03 -0.12417479524E+03  0.17809656027E+03  0.00000000000E+00 0.  1.
         21    1    1    2  504  501 -0.22494362753E+02  0.16737098786E+03  0.41939723797E+03  0.45212065553E+03  0.00000000000E+00 0. -1.
         21    1    1    2  505  503  0.26810134928E+02 -0.24357883175E+02 -0.81566934203E+02  0.89248274845E+02  0.00000000000E+00 0. -1.
         21    1    1    2  506  502 -0.52891615240E+02 -0.24947900349E+02  0.13902437864E+02  0.60109886650E+02  0.00000000000E+00 0. -1.
<scales pt_clust_3="30.01967" pt_clust_4="167.77075" pt_clust_5="30.01967" pt_clust_6="58.48009"></scales>
<clustering>
<clus scale="   30.020">  3  5 -1 -1</clus>
<clus scale="   58.480">  2  6  1 -1</clus>
<clus scale="  167.771">  1  4  2 -1</clus>
<clus scale="  167.771">  1  3  2 -1</clus>
</clustering>
</event>
<event>
 6    0  0.4227619E+002  0.1141514E+03  0.7546771E-02  0.1253070E+00
         21   -1    0    0  506  501  0.00000000000E+00  0.00000000000E+00  0.79940097018E+03  0.79940097018E+03  0.00000000000E+00 0. -1.
         21   -1    0    0  504  502 -0.00000000000E+00 -0.00000000000E+00 -0.32438901885E+03  0.32438901885E+03  0.00000000000E+00 0.  1.
         21    1    1    2  503  502  0.39042922572E+02  0.39675941224E+02 -0.20125210166E+02  0.59190828675E+02  0.00000000000E+00 0. -1.
         21    1    1    2  504  505 -0.66991494608E+02  0.17023572325E+01 -0.26207543015E+03  0.27050746655E+03  0.00000000000E+00 0.  1.
         21    1    1    2  505  501 -0.44129415033E+02  0.71197899396E+02  0.14500523804E+03  0.16746063779E+03  0.00000000000E+00 0. -1.
         21    1    1    2  506  503  0.72077987069E+02 -0.11257619785E+03  0.61220735362E+03  0.62663105602E+03  0.00000000000E+00 0. -1.
<scales pt_clust_3="55.66444" pt_clust_4="49.34547" pt_clust_5="114.15140" pt_clust_6="14000.00000"></scales>
<clustering>
<clus scale="   55.664">  2  3  1 -1</clus>
<clus scale="   49.345">  2  4  1 -1</clus>
<clus scale="  114.151">  2  5  1 -1</clus>
<clus scale="  114.151">  1  3  2 -1</clus>
</clustering>
</event>
<event>
 6    0  0.4227619E+002  0.1439835E+03  0.7546771E-02  0.1208067E+00
         21   -1    0    0  506  501  0.00000000000E+00  0.00000000000E+00  0.78254837416E+03  0.78254837416E+03  0.00000000000E+00 0.  1.
         21   -1    0    0  504  502 -0.00000000000E+00 -0.00000000000E+00 -0.78741507009E+02  0.78741507009E+02  0.00000000000E+00 0.  1.
         21    1    1    2  503  505  0.11892761927E+03 -0.42539619100E+02  0.19000479828E+03  0.22815613336E+03  0.00000000000E+00 0.  1.
         21    1    1    2  504  503 -0.10501592954E+03  0.12127938450E+03  0.63585402778E+02  0.17256922671E+03  0.00000000000E+00 0.  1.
         21    1    1    2  505  501  0.17238450650E+02 -0.28538880642E+02  0.23625194847E+03  0.23859299036E+03  0.00000000000E+00 0.  1.
         21    1    1    2  506  502 -0.31150140386E+02 -0.50200884755E+02  0.21396471761E+03  0.22197153074E+03  0.00000000000E+00 0.  1.
<scales pt_clust_3="14000.00000" pt_clust_4="143.98347" pt_clust_5="33.34114" pt_clust_6="66.21536"></scales>
<clustering>
<clus scale="   33.341">  1  5  2 -1</clus>
<clus scale="   66.215">  1  6  2 -1</clus>
<clus scale="  143.983">  2  4  1 -1</clus>
<clus scale="   33.341">  1  3  2 -1</clus>
</clustering>
</event>
<event>
 6    0  0.4227619E+002  0.1673438E+03  0.7546771E-02  0.1180647E+00
         21   -1    0    0  506  501  0.00000000000E+00  0.00000000000E+00  0.34877896144E+03  0.34877896144E+03  0.00000000000E+00 0.  1.
         21   -1    0    0  505  502 -0.00000000000E+00 -0.00000000000E+00 -0.51277364942E+03  0.51277364942E+03  0.00000000000E+00 0.  1.
         21    1    1    2  503  501  0.79239010877E+01 -0.51569901264E+02  0.24144669157E+03  0.24701973159E+03  0.00000000000E+00 0.  1.
         21    1    1    2  504  502  0.67149592136E+02  0.12355683411E+02 -0.14946348433E+03  0.16432000421E+03  0.00000000000E+00 0.  1.
         21    1    1    2  505  503 -0.15247646535E+03 -0.24964136823E+02  0.20647662639E+02  0.15588010324E+03  0.00000000000E+00 0.  1.
         21    1    1    2  506  504  0.77402972127E+02  0.64178354676E+02 -0.27662555787E+03  0.29433277182E+03  0.00000000000E+00 0. -1.
<scales pt_clust_3="52.17512" pt_clust_4="37.37903" pt_clust_5="161.07869" pt_clust_6="37.37903"></scales>
<clustering>
<clus scale="   37.379">  4  6 -1 -1</clus>
<clus scale="   52.175">  1  3  2 -1</clus>
<clus scale="  161.079">  1  5  2 -1</clus>
<clus scale="   52.175">  1  3  2 -1</clus>
</clustering>
</event>
<event>
 6    0  0.4227619E+002  0.1320125E+03  0.7546771E-02  0.1224500E+00
         21   -1    0    0  503  501  0.00000000000E+00  0.00000000000E+00  0.17244605101E+03  0.17244605101E+03  0.00000000000E+00 0. -1.
         21   -1    0    0  504  502 -0.00000000000E+00 -0.00000000000E+00 -0.12370093404E+04  0.12370093404E+04  0.00000000000E+00 0. -1.
         21    1    1    2  503  505 -0.46869960787E+02  0.32765976679E+02  0.41822040876E+02  0.70848327820E+02  0.00000000000E+00 0. -1.
         21    1    1    2  504  506  0.12474221458E+03  0.25376667842E+02 -0.11696816308E+04  0.11765881662E+04  0.00000000000E+00 0. -1.
         21    1    1    2  505  502 -0.22964732625E+02  0.27662093616E+02 -0.90499038160E+01  0.37073860425E+02  0.00000000000E+00 0. -1.
         21    1    1    2  506  501 -0.54907521166E+02 -0.85804738138E+02  0.72346204391E+02  0.12494503695E+03  0.00000000000E+00 0. -1.
<scales pt_clust_3="35.85365" pt_clust_4="124.02645" pt_clust_5="35.85365" pt_clust_6="101.86898"></scales>
<clustering>
<clus scale="   35.854">  3  5 -1 -1</clus>
<clus scale="  101.869">  1  6  2 -1</clus>
<clus scale="  124.026">  2  4  1 -1</clus>
<clus scale="  101.869">  1  3  2 -1</clus>
</clustering>
</event>
<event>
 6    0  0.4227619E+002  0.1270259E+03  0.7546771E-02  0.1231937E+00
         21   -1    0    0  503  501  0.00000000000E+00  0.00000000000E+00  0.90588364641E+03  0.90588364641E+03  0.00000000000E+00 0.  1.
         21   -1    0    0  504  502 -0.00000000000E+00 -0.00000000000E+00 -0.81190046595E+02  0.81190046595E+02  0.00000000000E+00 0. -1.
         21    1    1    2  503  505  0.23826722606E+02  0.13469898947E+03  0.67666881293E+03  0.69035658385E+03  0.00000000000E+00 0.  1.
         21    1    1    2  504  506 -0.31285973987E+02 -0.13744526443E+00 -0.14904291914E+02  0.34654999307E+02  0.00000000000E+00 0. -1.
         21    1    1    2  505  502  0.73309661031E+02 -0.99681260218E+02  0.13327809172E+03  0.18186178755E+03  0.00000000000E+00 0.  1.
         21    1    1    2  506  501 -0.65850409650E+02 -0.34880283987E+02  0.29650987083E+02  0.80200322300E+02  0.00000000000E+00 0. -1.
<scales pt_clust_3="127.02593" pt_clust_4="31.15971" pt_clust_5="14000.00000" pt_clust_6="113.90470"></scales>
<clustering>
<clus scale="   31.160">  4  6 -1 -1</clus>
<clus scale="  113.905">  2  4  1 -1</clus>
<clus scale="  127.026">  1  3  2 -1</clus>
<clus scale="  127.026">  1  3  2 -1</clus>
</clustering>
</event>
<event>
 6    0  0.4227619E+002  0.8754768E+02  0.7546771E-02  0.1308901E+00
         21   -1    0    0  504  501  0.00000000000E+00  0.00000000000E+00  0.16339229414E+03  0.16339229414E+03  0.00000000000E+00 0.  1.
         21   -1    0    0  506  502 -0.00000000000E+00 -0.00000000000E+00 -0.28012192645E+03  0.28012192645E+03  0.00000000000E+00 0. -1.
         21    1    1    2  503  501 -0.15554572825E+02  0.28516354618E+02 -0.57927706583E+01  0.32995202809E+02  0.00000000000E+00 0. -1.
         21    1    1    2  504  505 -0.81238598752E+02 -0.98339536074E+01  0.15770319159E+02  0.83337383791E+02  0.00000000000E+00 0. -1.
         21    1    1    2  505  502  0.12132918949E+02 -0.65088039150E+02 -0.19695437561E+03  0.20778519349E+03  0.00000000000E+00 0. -1.
         21    1    1    2  506  503  0.84660252629E+02  0.46405638139E+02  0.70247194804E+02  0.11939644050E+03  0.00000000000E+00 0.  1.
<scales pt_clust_3="32.48272" pt_clust_4="87.54768" pt_clust_5="65.09369" pt_clust_6="14000.00000"></scales>
<clustering>
<clus scale="   32.483">  1  3  2 -1</clus>
<clus scale="   65.094">  2  5  1 -1</clus>
<clus scale="   87.548">  2  4  1 -1</clus>
<clus scale="   32.483">  1  3  2 -1</clus>
</clustering>
</event>
<event>
 6    0  0.4227619E+002  0.1058456E+03  0.7546771E-02  0.1268462E+00
         21   -1    0    0  505  501  0.00000000000E+00  0.00000000000E+00  0.10405474204E+03  0.10405474204E+03  0.00000000000E+00 0.  1.
         21   -1    0    0  506  502 -0.00000000000E+00 -0.00000000000E+00 -0.49810516615E+03  0.49810516615E+03  0.00000000000E+00 0. -1.
         21    1    1    2  503  501  0.11164407565E+02 -0.39518557272E+02  0.39752883384E+02  0.57154633255E+02  0.00000000000E+00 0.  1.
         21    1    1    2  504  502 -0.42852067324E+02 -0.86536519182E+02 -0.13226939731E+03  0.16376831895E+03  0.00000000000E+00 0.  1.
         21    1    1    2  505  504  0.61834938484E+02  0.10968184421E+03 -0.64009082419E+02  0.14124740422E+03  0.00000000000E+00 0.  1.
         21    1    1    2  506  503 -0.30147278725E+02  0.16373232241E+02 -0.23752482777E+03  0.23998955177E+03  0.00000000000E+00 0. -1.
<scales pt_clust_3="40.27016" pt_clust_4="14000.00000" pt_clust_5="105.84563" pt_clust_6="34.30658"></scales>
<clustering>
<clus scale="   34.307">  2  6  1 -1</clus>
<clus scale="   40.270">  1  3  2 -1</clus>
<clus scale="  105.846">  1  5  2 -1</clus>
<clus scale="   40.270">  1  3  2 -1</clus>
</clustering>
</event>
<event>
 6    0  0.4227619E+002  0.1258276E+03  0.7546771E-02  0.1233782E+00
         21   -1    0    0  506  501  0.00000000000E+00  0.00000000000E+00  0.48578898742E+03  0.48578898742E+03  0.00000000000E+00 0.  1.
         21   -1    0    0  503  502 -0.00000000000E+00 -0.00000000000E+00 -0.41598225517E+03  0.41598225517E+03  0.00000000000E+00 0.  1.
         21    1    1    2  503  501  0.88273090159E+02  0.32966396756E+02  0.25003216725E+03  0.26719844015E+03  0.00000000000E+00 0.  1.
         21    1    1    2  504  505  0.85237095393E+02 -0.54681683940E+02 -0.61974568610E+02  0.11872782380E+03  0.00000000000E+00 0.  1.
         21    1    1    2  505  502 -0.66740379794E+02  0.13422348372E+03 -0.26362444356E+03  0.30326237670E+03  0.00000000000E+00 0.  1.
         21    1    1    2  506  504 -0.10676980576E+03 -0.11250819653E+03  0.14537357717E+03  0.21258260194E+03  0.00000000000E+00 0.  1.
<scales pt_clust_3="94.22803" pt_clust_4="125.82757" pt_clust_5="14000.00000" pt_clust_6="94.20226"></scales>
<clustering>
<clus scale="   94.228">  1  3  2 -1</clus>
<clus scale="   94.202">  1  6  2 -1</clus>
<clus scale="  125.828">  1  4  2 -1</clus>
<clus scale="   94.228">  1  3  2 -1</clus>
</clustering>
</event>
<event>
 6    0  0.4227619E+002  0.1044534E+03  0.7546771E-02  0.1271200E+00
         21   -1    0    0  503  501  0.00000000000E+00  0.00000000000E+00  0.50959059777E+03  0.50959059777E+03  0.00000000000E+00 0.  1.
         21   -1    0    0  506  502 -0.00000000000E+00 -0.00000000000E+00 -0.69782848613E+03  0.69782848613E+03  0.00000000000E+00 0.  1.
         21    1    1    2  503  505 -0.21164525689E+02 -0.40993506708E+02  0.27435081090E+02  0.53675771203E+02  0.00000000000E+00 0. -1.
         21    1    1    2  504  501 -0.17117128969E+02 -0.56638728731E+02  0.43399486785E+03  0.43800968827E+03  0.00000000000E+00 0.  1.
         21    1    1    2  505  502 -0.16758811354E+02 -0.83473039974E+02 -0.85504930959E+02  0.12066357934E+03  0.00000000000E+00 0.  1.
         21    1    1    2  506  504  0.55040466012E+02  0.18110527541E+03 -0.56416290633E+03  0.59507004509E+03  0.00000000000E+00 0.  1.
<scales pt_clust_3="46.13464" pt_clust_4="104.45339" pt_clust_5="86.80256" pt_clust_6="14000.00000"></scales>
<clustering>
<clus scale="   46.135">  1  3  2 -1</clus>
<clus scale="   86.803">  2  5  1 -1</clus>
<clus scale="  104.453">  1  4  2 -1</clus>
<clus scale="   46.135">  1  3  2 -1</clus>
</clustering>
</event>
<event>
 6    0  0.4227619E+002  0.1236321E+03  0.7546771E-02  0.1237223E+00
         21   -1    0    0  503  501  0.00000000000E+00  0.00000000000E+00  0.85298520400E+03  0.85298520400E+03  0.00000000000E+00 0.  1.
         21   -1    0    0  506  502 -0.00000000000E+00 -0.00000000000E+00 -0.11461995179E+03  0.11461995179E+03  0.00000000000E+00 0.  1.
         21    1    1    2  503  504 -0.44084238833E+02 -0.10801938778E+02  0.27887629006E+03  0.28254572577E+03  0.00000000000E+00 0.  1.
         21    1    1    2  504  505 -0.12740140648E+03 -0.43462872897E+02  0.78303543655E+02  0.15572920292E+03  0.00000000000E+00 0.  1.
         21    1    1    2  505  502  0.18739612164E+02  0.27757606294E+02 -0.56122490630E+02  0.65355885166E+02  0.00000000000E+00 0.  1.
         21    1    1    2  506  501  0.15274603315E+03  0.26507205381E+02  0.43730790913E+03  0.46397434193E+03  0.00000000000E+00 0.  1.
<scales pt_clust_3="44.55021" pt_clust_4="14000.00000" pt_clust_5="33.49116" pt_clust_6="123.63210"></scales>
<clustering>
<clus scale="   33.491">  2  5  1 -1</clus>
<clus scale="   44.550">  1  3  2 -1</clus>
<clus scale="  123.632">  1  6  2 -1</clus>
<clus scale="   44.550">  1  3  2 -1</clus>
</clustering>
</event>
<event>
 6    0  0.4227619E+002  0.8590454E+02  0.7546771E-02  0.1313084E+00
         21   -1    0    0  505  501  0.00000000000E+00  0.00000000000E+00  0.53645689256E+03  0.53645689256E+03  0.00000000000E+00 0. -1.
         21   -1    0    0  504  502 -0.00000000000E+00 -0.00000000000E+00 -0.10212901419E+03  0.10212901419E+03  0.00000000000E+00 0. -1.
         21    1    1    2  503  501  0.47770054344E+02 -0.75089333394E+02  0.36076690953E+03  0.37158195475E+03  0.00000000000E+00 0. -1.
         21    1    1    2  504  503 -0.43028281646E+02  0.58756889575E+02 -0.30710954242E+02  0.79037761889E+02  0.00000000000E+00 0. -1.
         21    1    1    2  505  506  0.40362920661E+02  0.43673667035E+02  0.11914756951E+03  0.13316417640E+03  0.00000000000E+00 0. -1.
         21    1    1    2  506  502 -0.45104693358E+02 -0.27341223217E+02 -0.14875646424E+02  0.54802013708E+02  0.00000000000E+00 0. -1.
<scales pt_clust_3="14000.00000" pt_clust_4="85.90454" pt_clust_5="54.21049" pt_clust_6="52.74444"></scales>
<clustering>
<clus scale="   52.744">  2  6  1 -1</clus>
<clus scale="   54.210">  1  5  2 -1</clus>
<clus scale="   85.905">  2  4  1 -1</clus>
<clus scale="   54.210">  1  3  2 -1</clus>
</clustering>
</event>
<event>
 6    0  0.4227619E+002  0.1182302E+03  0.7546771E-02  0.1246046E+00
         21   -1    0    0  504  501  0.00000000000E+00  0.00000000000E+00  0.23183111654E+03  0.23183111654E+03  0.00000000000E+00 0. -1.
         21   -1    0    0  506  502 -0.00000000000E+00 -0.00000000000E+00 -0.58229464581E+03  0.58229464581E+03  0.00000000000E+00 0. -1.
         21    1    1    2  503  501 -0.20002467271E+02 -0.32205601460E+02  0.93541237760E+02  0.10093197028E+03  0.00000000000E+00 0.  1.
         21    1    1    2  504  502 -0.11608723686E+03  0.53180917661E+02  0.12227678503E+02  0.12827303959E+03  0.00000000000E+00 0. -1.
         21    1    1    2  505  503  0.10713797858E+03 -0.32359928556E+02  0.14772927207E+02  0.11288910845E+03  0.00000000000E+00 0. -1.
         21    1    1    2  506  505  0.28951725554E+02  0.11384612355E+02 -0.47100537274E+03  0.47203164403E+03  0.00000000000E+00 0. -1.
<scales pt_clust_3="37.08474" pt_clust_4="118.23015" pt_clust_5="14000.00000" pt_clust_6="31.10967"></scales>
<clustering>
<clus scale="   31.110">  2  6  1 -1</clus>
<clus scale="   37.085">  1  3  2 -1</clus>
<clus scale="  118.230">  2  4  1 -1</clus>
<clus scale="   37.085">  1  3  2 -1</clus>
</clustering>
</event>
<event>
 6    0  0.4227619E+002  0.9237122E+02  0.7546771E-02  0.1297209E+00
         21   -1    0    0  505  501  0.00000000000E+00  0.00000000000E+00  0.11476471678E+03  0.11476471678E+03  0.00000000000E+00 0.  1.
         21   -1    0    0  504  502 -0.00000000000E+00 -0.00000000000E+00 -0.26305937055E+04  0.26305937055E+04  0.00000000000E+00 0. -1.
         21    1    1    2  503  501 -0.50238606435E+02  0.41757176035E+02  0.65562303625E+02  0.92552660597E+02  0.00000000000E+00 0.  1.
         21    1    1    2  504  503 -0.78048505340E+02 -0.84574995340E+02 -0.81826343810E+02  0.14120924036E+03  0.00000000000E+00 0.  1.
         21    1    1    2  505  506  0.71479318919E+02 -0.29109610175E+02 -0.28887588934E+03  0.29900826390E+03  0.00000000000E+00 0. -1.
         21    1    1    2  506  502  0.56807792855E+02  0.71927429480E+02 -0.22106890592E+04  0.22125882574E+04  0.00000000000E+00 0. -1.
<scales pt_clust_3="65.32671" pt_clust_4="14000.00000" pt_clust_5="68.40065" pt_clust_6="92.37122"></scales>
<clustering>
<clus scale="   65.327">  1  3  2 -1</clus>
<clus scale="   68.401">  1  5  2 -1</clus>
<clus scale="   92.371">  2  6  1 -1</clus>
<clus scale="   65.327">  1  3  2 -1</clus>
</clustering>
</event>
<event>
 6    0  0.4227619E+002  0.1054497E+03  0.7546771E-02  0.1269236E+00
         21   -1    0    0  503  501  0.00000000000E+00  0.00000000000E+00  0.94990720372E+02  0.94990720372E+02  0.00000000000E+00 0.  1.
         21   -1    0    0  505  502 -0.00000000000E+00 -0.00000000000E+00 -0.51793076881E+03  0.51793076881E+03  0.00000000000E+00 0.  1.
         21    1    1    2  503  502 -0.13981876073E+03 -0.27195711079E+02 -0.15432986907E+03  0.21001571618E+03  0.00000000000E+00 0.  1.
         21    1    1    2  504  501  0.43647090611E+02 -0.67275539354E+01  0.33231397746E+02  0.55268927047E+02  0.00000000000E+00 0.  1.
         21    1    1    2  505  506  0.19009820542E+02  0.36548769648E+02 -0.25288126090E+03  0.25621498386E+03  0.00000000000E+00 0.  1.
         21    1    1    2  506  504  0.77161849582E+02 -0.26255046339E+01 -0.48960316212E+02  0.91421862096E+02  0.00000000000E+00 0.  1.
<scales pt_clust_3="105.44975" pt_clust_4="44.74538" pt_clust_5="41.19692" pt_clust_6="14000.00000"></scales>
<clustering>
<clus scale="   41.197">  2  5  1 -1</clus>
<clus scale="   44.745">  1  4  2 -1</clus>
<clus scale="  105.450">  2  3  1 -1</clus>
<clus scale="   44.745">  1  3  2 -1</clus>
</clustering>
</event>
<event>
 6    0  0.4227619E+002  0.1381549E+03  0.7546771E-02  0.1215833E+00
         21   -1    0    0  503  501  0.00000000000E+00  0.00000000000E+00  0.17067531213E+03  0.17067531213E+03  0.00000000000E+00 0.  1.
         21   -1    0    0  506  502 -0.00000000000E+00 -0.00000000000E+00 -0.73068064158E+03  0.73068064158E+03  0.00000000000E+00 0.  1.
         21    1    1    2  503  502 -0.28985933616E+02 -0.18247994060E+02 -0.85547313046E+02  0.92149424329E+02  0.00000000000E+00 0.  1.
         21    1    1    2  504  501 -0.92079844613E+02 -0.20985905438E+02  0.64662819664E+02  0.11445691879E+03  0.00000000000E+00 0.  1.
         21    1    1    2  505  504 -0.49653919767E+01  0.12805458978E+03  0.59522553287E+01  0.12828898014E+03  0.00000000000E+00 0.  1.
         21    1    1    2  506  505  0.12603117021E+03 -0.88820690283E+02 -0.54507309140E+03  0.56646063046E+03  0.00000000000E+00 0.  1.
<scales pt_clust_3="34.25162" pt_clust_4="95.69559" pt_clust_5="138.15487" pt_clust_6="14000.00000"></scales>
<clustering>
<clus scale="   34.252">  2  3  1 -1</clus>
<clus scale="   95.696">  1  4  2 -1</clus>
<clus scale="  138.155">  1  5  2 -1</clus>
<clus scale="   95.696">  1  3  2 -1</clus>
</clustering>
</event>
<event>
 6    0  0.4227619E+002  0.1191789E+03  0.7546771E-02  0.1244458E+00
         21   -1    0    0  506  501  0.00000000000E+00  0.00000000000E+00  0.35999627962E+03  0.35999627962E+03  0.00000000000E+00 0.  1.
         21   -1    0    0  504  502 -0.00000000000E+00 -0.00000000000E+00 -0.46447816806E+03  0.46447816806E+03  0.00000000000E+00 0.  1.
         21    1    1    2  503  501 -0.54504695404E+02 -0.29287754557E+02  0.22803099781E+03  0.23627668177E+03  0.00000000000E+00 0.  1.
         21    1    1    2  504  503 -0.73824930059E+01  0.11060991986E+03 -0.28739612007E+03  0.30803503925E+03  0.00000000000E+00 0.  1.
         21    1    1    2  505  502  0.40141885956E+02 -0.14879381366E+03 -0.10572820216E+03  0.18689414845E+03  0.00000000000E+00 0.  1.
         21    1    1    2  506  505  0.21745302454E+02  0.67471648362E+02  0.60611435970E+02  0.93268578213E+02  0.00000000000E+00 0.  1.
<scales pt_clust_3="61.87515" pt_clust_4="14000.00000" pt_clust_5="119.17892" pt_clust_6="51.05702"></scales>
<clustering>
<clus scale="   61.875">  1  3  2 -1</clus>
<clus scale="   51.057">  1  6  2 -1</clus>
<clus scale="  119.179">  1  5  2 -1</clus>
<clus scale="   61.875">  1  3  2 -1</clus>
</clustering>
</event>
<event>
 6    0  0.4227619E+002  0.1055377E+03  0.7546771E-02  0.1269064E+00
         21   -1    0    0  502  501  0.00000000000E+00  0.00000000000E+00  0.10398089515E+03  0.10398089515E+03  0.00000000000E+00 0. -1.
         21   -1    0    0  503  502 -0.00000000000E+00 -0.00000000000E+00 -0.84123214285E+03  0.84123214285E+03  0.00000000000E+00 0.  1.
         21    1    1    2  503  505  0.43348021751E+02 -0.18120567167E+02 -0.42765184511E+03  0.43022494880E+03  0.00000000000E+00 0.  1.
         21    1    1    2  504  506 -0.89885161283E+02 -0.32279591797E+02 -0.36906328595E+02  0.10238843370E+03  0.00000000000E+00 0. -1.
         21    1    1    2  505  504  0.75995889052E+02  0.29900096251E+02 -0.33275599435E+03  0.34263091321E+03  0.00000000000E+00 0.  1.
         21    1    1    2  506  501 -0.29458749519E+02  0.20500062714E+02  0.60062920365E+02  0.69968742288E+02  0.00000000000E+00 0. -1.
<scales pt_clust_3="45.82524" pt_clust_4="105.53767" pt_clust_5="14000.00000" pt_clust_6="35.88970"></scales>
<clustering>
<clus scale="   35.890">  1  6  2 -1</clus>
<clus scale="   45.825">  2  3  1 -1</clus>
<clus scale="  105.538">  1  4  2 -1</clus>
<clus scale="   35.890">  1  3  2 -1</clus>
</clustering>
</event>
<event>
 6    0  0.4227619E+002  0.1114640E+03  0.7546771E-02  0.1257883E+00
         21   -1    0    0  503  501  0.00000000000E+00  0.00000000000E+00  0.30621627234E+03  0.30621627234E+03  0.00000000000E+00 0. -1.
         21   -1    0    0  506  502 -0.00000000000E+00 -0.00000000000E+00 -0.18684341566E+03  0.18684341566E+03  0.00000000000E+00 0. -1.
         21    1    1    2  503  505 -0.19018742223E+02 -0.13099758767E+03  0.22298192942E+03  0.25931259394E+03  0.00000000000E+00 0. -1.
         21    1    1    2  504  502  0.10226151799E+02  0.36044618466E+02 -0.10120725494E+03  0.10791986450E+03  0.00000000000E+00 0. -1.
         21    1    1    2  505  504 -0.30835321685E+02  0.42841864906E+02  0.20273672852E+02  0.56544356597E+02  0.00000000000E+00 0. -1.
         21    1    1    2  506  501  0.39627912109E+02  0.52111104302E+02 -0.22675490658E+02  0.69282872965E+02  0.00000000000E+00 0. -1.
<scales pt_clust_3="14000.00000" pt_clust_4="37.46717" pt_clust_5="58.27659" pt_clust_6="111.46395"></scales>
<clustering>
<clus scale="   37.467">  2  4  1 -1</clus>
<clus scale="   58.277">  2  5  1 -1</clus>
<clus scale="  111.464">  2  6  1 -1</clus>
<clus scale="  111.464">  1  3  2 -1</clus>
</clustering>
</event>
<event>
 6    0  0.4227619E+002  0.9069881E+02  0.7546771E-02  0.1301168E+00
         21   -1    0    0  503  501  0.00000000000E+00  0.00000000000E+00  0.28653353378E+03  0.28653353378E+03  0.00000000000E+00 0. -1.
         21   -1    0    0  504  502 -0.00000000000E+00 -0.00000000000E+00 -0.43931928146E+03  0.43931928146E+03  0.00000000000E+00 0. -1.
         21    1    1    2  503  502 -0.74792228047E+02  0.95648181648E+02  0.13089770497E+03  0.17854036293E+03  0.00000000000E+00 0. -1.
         21    1    1    2  504  506 -0.23421648899E+02 -0.88205339345E+02 -0.36846845428E+03  0.37960210395E+03  0.00000000000E+00 0. -1.
         21    1    1    2  505  501  0.36983878711E+02 -0.71190077945E+01  0.98071303090E+02  0.10505459555E+03  0.00000000000E+00 0. -1.
         21    1    1    2  506  505  0.61229998235E+02 -0.32383450856E+00 -0.13286301459E+02  0.62655752802E+02  0.00000000000E+00 0. -1.
<scales pt_clust_3="90.69881" pt_clust_4="14000.00000" pt_clust_5="37.66281" pt_clust_6="66.17784"></scales>
<clustering>
<clus scale="   37.663">  1  5  2 -1</clus>
<clus scale="   66.178">  1  6  2 -1</clus>
<clus scale="   90.699">  1  3  2 -1</clus>
<clus scale="   37.663">  1  3  2 -1</clus>
</clustering>
</event>
<event>
 6    0  0.4227619E+002  0.1037966E+03  0.7546771E-02  0.1272509E+00
         21   -1    0    0  505  501  0.00000000000E+00  0.00000000000E+00  0.44657633565E+03  0.44657633565E+03  0.00000000000E+00 0.  1.
         21   -1    0    0  503  502 -0.00000000000E+00 -0.00000000000E+00 -0.40961616088E+03  0.40961616088E+03  0.00000000000E+00 0.  1.
         21    1    1    2  503  504  0.27853096392E+02 -0.11839731570E+03 -0.60564678214E+02  0.13587420502E+03  0.00000000000E+00 0.  1.
         21    1    1    2  504  501 -0.29986278254E+02  0.21975379975E+02  0.12838847225E+03  0.13366261263E+03  0.00000000000E+00 0.  1.
         21    1    1    2  505  506  0.30851684962E+02  0.82853477425E+02  0.27000697622E+03  0.28411316829E+03  0.00000000000E+00 0.  1.
         21    1    1    2  506  502 -0.28718503100E+02  0.13568458301E+02 -0.30087059549E+03  0.30254251059E+03  0.00000000000E+00 0.  1.
<scales pt_clust_3="14000.00000" pt_clust_4="37.93889" pt_clust_5="103.79660" pt_clust_6="31.76249"></scales>
<clustering>
<clus scale="   31.762">  2  6  1 -1</clus>
<clus scale="   37.939">  1  4  2 -1</clus>
<clus scale="  103.797">  1  5  2 -1</clus>
<clus scale="   37.939">  1  3  2 -1</clus>
</clustering>
</event>
<event>
 6    0  0.4227619E+002  0.8046542E+02  0.7546771E-02  0.1327736E+00
         21   -1    0    0  504  501  0.00000000000E+00  0.00000000000E+00  0.14960984322E+04  0.14960984322E+04  0.00000000000E+00 0. -1.
         21   -1    0    0  503  502 -0.00000000000E+00 -0.00000000000E+00 -0.15585087520E+02  0.15585087520E+02  0.00000000000E+00 0. -1.
         21    1    1    2  503  505 -0.40514425912E+02 -0.69912278709E+02  0.32951797628E+03  0.33928047706E+03  0.00000000000E+00 0. -1.
         21    1    1    2  504  506 -0.44262031947E+02  0.15976240437E+02  0.37190112504E+03  0.37486639558E+03  0.00000000000E+00 0. -1.
         21    1    1    2  505  501  0.10457132777E+03  0.19853065352E+02  0.71047083132E+03  0.71839968608E+03  0.00000000000E+00 0. -1.
         21    1    1    2  506  502 -0.19794869907E+02  0.34082972920E+02  0.68623412069E+02  0.79136961034E+02  0.00000000000E+00 0. -1.
<scales pt_clust_3="14000.00000" pt_clust_4="51.51950" pt_clust_5="80.46542" pt_clust_6="39.41429"></scales>
<clustering>
<clus scale="   39.414">  2  6  1 -1</clus>
<clus scale="   51.519">  1  4  2 -1</clus>
<clus scale="   80.465">  1  5  2 -1</clus>
<clus scale="   51.519">  1  3  2 -1</clus>
</clustering>
</event>
<event>
 6    0  0.4227619E+002  0.1019420E+03  0.7546771E-02  0.1276264E+00
         21   -1    0    0  505  501  0.00000000000E+00  0.00000000000E+00  0.49516543771E+03  0.49516543771E+03  0.00000000000E+00 0.  1.
         21   -1    0    0  504  502 -0.00000000000E+00 -0.00000000000E+00 -0.36746417403E+03  0.36746417403E+03  0.00000000000E+00 0. -1.
         21    1    1    2  503  502 -0.13742956188E+03  0.31309870707E+01 -0.22076172450E+03  0.26006235130E+03  0.00000000000E+00 0. -1.
         21    1    1    2  504  506  0.42650657230E+02  0.27131048180E+02 -0.92272913742E+02  0.10521151528E+03  0.00000000000E+00 0. -1.
         21    1    1    2  505  503  0.59566322558E+02 -0.10794234855E+03  0.14891664638E+03  0.19332838634E+03  0.00000000000E+00 0.  1.
         21    1    1    2  506  501  0.35212582094E+02  0.77680313296E+02  0.29181925553E+03  0.30402735882E+03  0.00000000000E+00 0.  1.
<scales pt_clust_3="101.94195" pt_clust_4="50.54871" pt_clust_5="14000.00000" pt_clust_6="86.25225"></scales>
<clustering>
<clus scale="   50.549">  2  4  1 -1</clus>
<clus scale="   86.252">  1  6  2 -1</clus>
<clus scale="  101.942">  2  3  1 -1</clus>
<clus scale="   86.252">  1  3  2 -1</clus>
</clustering>
</event>
<event>
 6    0  0.4227619E+002  0.5899052E+02  0.7546771E-02  0.1402118E+00
         21   -1    0    0  504  501  0.00000000000E+00  0.00000000000E+00  0.38988873705E+03  0.38988873705E+03  0.00000000000E+00 0.  1.
         21   -1    0    0  505  502 -0.00000000000E+00 -0.00000000000E+00 -0.12586864360E+04  0.12586864360E+04  0.00000000000E+00 0.  1.
         21    1    1    2  503  501 -0.50716838594E+02  0.66373652043E+02  0.22849714643E+03  0.24328708418E+03  0.00000000000E+00 0.  1.
         21    1    1    2  504  502  0.29017483023E+01 -0.33174399689E+02  0.14609228853E+03  0.14983963997E+03  0.00000000000E+00 0. -1.
         21    1    1    2  505  506 -0.12717535124E+02  0.50781365265E+02 -0.19304950090E+03  0.20002148024E+03  0.00000000000E+00 0. -1.
         21    1    1    2  506  503  0.60532625416E+02 -0.83980617620E+02 -0.10503376330E+04  0.10554269686E+04  0.00000000000E+00 0.  1.
<scales pt_clust_3="58.99052" pt_clust_4="33.30107" pt_clust_5="51.87581" pt_clust_6="14000.00000"></scales>
<clustering>
<clus scale="   33.301">  1  4  2 -1</clus>
<clus scale="   51.876">  2  5  1 -1</clus>
<clus scale="   58.991">  1  3  2 -1</clus>
<clus scale="   33.301">  1  3  2 -1</clus>
</clustering>
</event>
<event>
 6    0  0.4227619E+002  0.1036046E+03  0.7546771E-02  0.1272893E+00
         21   -1    0    0  504  501  0.00000000000E+00  0.00000000000E+00  0.45102757572E+03  0.45102757572E+03  0.00000000000E+00 0.  1.
         21   -1    0    0  501  502 -0.00000000000E+00 -0.00000000000E+00 -0.27459937622E+03  0.27459937622E+03  0.00000000000E+00 0.  1.
         21    1    1    2  503  506  0.87624218348E+02  0.31864475651E+02  0.37137960651E+02  0.10036222681E+03  0.00000000000E+00 0.  1.
         21    1    1    2  504  503  0.13875719705E+02 -0.29563204865E+02  0.35235966105E+03  0.35386981987E+03  0.00000000000E+00 0.  1.
         21    1    1    2  505  502  0.27051168787E+02  0.18729912570E+02 -0.73249715293E+02  0.80300038282E+02  0.00000000000E+00 0.  1.
         21    1    1    2  506  505 -0.12855110684E+03 -0.21031183357E+02 -0.13981970691E+03  0.19109486697E+03  0.00000000000E+00 0.  1.
<scales pt_clust_3="103.60464" pt_clust_4="32.65760" pt_clust_5="32.72789" pt_clust_6="14000.00000"></scales>
<clustering>
<clus scale="   32.658">  1  4  2 -1</clus>
<clus scale="   32.728">  2  5  1 -1</clus>
<clus scale="  103.605">  1  3  2 -1</clus>
<clus scale="   32.658">  1  3  2 -1</clus>
</clustering>
</event>
<event>
 6    0  0.4227619E+002  0.2292429E+03  0.7546771E-02  0.1127174E+00
         21   -1    0    0  502  501  0.00000000000E+00  0.00000000000E+00  0.25138473389E+03  0.25138473389E+03  0.00000000000E+00 0. -1.
         21   -1    0    0  506  502 -0.00000000000E+00 -0.00000000000E+00 -0.53626805510E+03  0.53626805510E+03  0.00000000000E+00 0. -1.
         21    1    1    2  503  501 -0.18098624994E+03  0.37977592818E+02  0.12574398361E+03  0.22362886584E+03  0.00000000000E+00 0. -1.
         21    1    1    2  504  503 -0.29444635121E+02  0.36243338787E+02  0.34200017147E+02  0.57880975429E+02  0.00000000000E+00 0.  1.
         21    1    1    2  505  504  0.18480338968E+03 -0.91852961268E+02 -0.34964088643E+03  0.40600247388E+03  0.00000000000E+00 0. -1.
         21    1    1    2  506  505  0.25627495380E+02  0.17632029663E+02 -0.95186435545E+02  0.10014047384E+03  0.00000000000E+00 0. -1.
<scales pt_clust_3="31.46703" pt_clust_4="31.46703" pt_clust_5="220.62752" pt_clust_6="31.10719"></scales>
<clustering>
<clus scale="   31.107">  2  6  1 -1</clus>
<clus scale="   31.467">  3  4 -1 -1</clus>
<clus scale="  220.628">  2  5  1 -1</clus>
<clus scale="  229.243">  1  3  2 -1</clus>
</clustering>
</event>
<event>
 6    0  0.4227619E+002  0.7697532E+02  0.7546771E-02  0.1337861E+00
         21   -1    0    0  505  501  0.00000000000E+00  0.00000000000E+00  0.47956030144E+03  0.47956030144E+03  0.00000000000E+00 0.  1.
         21   -1    0    0  506  502 -0.00000000000E+00 -0.00000000000E+00 -0.84717577608E+02  0.84717577608E+02  0.00000000000E+00 0. -1.
         21    1    1    2  503  502 -0.33312828634E+02  0.59736101352E+02 -0.37302772582E+02  0.77907914865E+02  0.00000000000E+00 0. -1.
         21    1    1    2  504  501  0.63107878383E+02 -0.68280022582E+02  0.28064904169E+03  0.29564953983E+03  0.00000000000E+00 0.  1.
         21    1    1    2  505  503 -0.35521903772E+02  0.50872543789E+02  0.12733158274E+03  0.14164446097E+03  0.00000000000E+00 0.  1.
         21    1    1    2  506  504  0.57268540219E+01 -0.42328622559E+02  0.24164871984E+02  0.49075963391E+02  0.00000000000E+00 0.  1.
<scales pt_clust_3="38.75629" pt_clust_4="76.97532" pt_clust_5="14000.00000" pt_clust_6="42.71427"></scales>
<clustering>
<clus scale="   42.714">  2  6  1 -1</clus>
<clus scale="   38.756">  2  3  1 -1</clus>
<clus scale="   76.975">  2  4  1 -1</clus>
<clus scale="   76.975">  1  3  2 -1</clus>
</clustering>
</event>
<event>
 6    0  0.4227619E+002  0.1273269E+03  0.7546771E-02  0.1231477E+00
         21   -1    0    0  503  501  0.00000000000E+00  0.00000000000E+00  0.24297727062E+03  0.24297727062E+03  0.00000000000E+00 0. -1.
         21   -1    0    0  505  502 -0.00000000000E+00 -0.00000000000E+00 -0.23165361226E+03  0.23165361226E+03  0.00000000000E+00 0. -1.
         21    1    1    2  503  502  0.29369201730E+02  0.73527597230E+01 -0.10584253798E+03  0.11008749217E+03  0.00000000000E+00 0. -1.
         21    1    1    2  504  501  0.10236090674E+03 -0.57361365222E+02  0.17176165308E+03  0.20801477572E+03  0.00000000000E+00 0. -1.
         21    1    1    2  505  506 -0.51471502506E+02  0.41193256128E+02 -0.22919659526E+02  0.69796208446E+02  0.00000000000E+00 0. -1.
         21    1    1    2  506  504 -0.80258605964E+02  0.88153493708E+01 -0.31675797219E+02  0.86732406546E+02  0.00000000000E+00 0. -1.
<scales pt_clust_3="30.27562" pt_clust_4="120.60382" pt_clust_5="38.45429" pt_clust_6="38.45429"></scales>
<clustering>
<clus scale="   30.276">  2  3  1 -1</clus>
<clus scale="   38.454">  5  6 -1 -1</clus>
<clus scale="  120.604">  1  4  2 -1</clus>
<clus scale="  120.604">  1  3  2 -1</clus>
</clustering>
</event>
<event>
 6    0  0.4227619E+002  0.1418530E+03  0.7546771E-02  0.1210857E+00
         21   -1    0    0  506  501  0.00000000000E+00  0.00000000000E+00  0.20281627574E+03  0.20281627574E+03  0.00000000000E+00 0.  1.
         21   -1    0    0  505  502 -0.00000000000E+00 -0.00000000000E+00 -0.33286770616E+04  0.33286770616E+04  0.00000000000E+00 0.  1.
         21    1    1    2  503  502  0.47961188180E+02 -0.75488161206E+02 -0.10351626033E+04  0.10390189379E+04  0.00000000000E+00 0.  1.
         21    1    1    2  504  503 -0.11771891841E+03 -0.11037079530E+02 -0.14594572022E+03  0.18782894912E+03  0.00000000000E+00 0. -1.
         21    1    1    2  505  501  0.98464783408E+02  0.19524725333E+02 -0.21160784330E+04  0.21184580390E+04  0.00000000000E+00 0.  1.
         21    1    1    2  506  504 -0.28707053174E+02  0.67000515404E+02  0.17132597057E+03  0.18618741138E+03  0.00000000000E+00 0.  1.
<scales pt_clust_3="83.67504" pt_clust_4="141.85305" pt_clust_5="14000.00000" pt_clust_6="72.89145"></scales>
<clustering>
<clus scale="   72.891">  1  6  2 -1</clus>
<clus scale="   83.675">  2  3  1 -1</clus>
<clus scale="  141.853">  1  4  2 -1</clus>
<clus scale="   72.891">  1  3  2 -1</clus>
</clustering>
</event>
<event>
 6    0  0.4227619E+002  0.9567382E+02  0.7546771E-02  0.1289666E+00
         21   -1    0    0  506  501  0.00000000000E+00  0.00000000000E+00  0.35651110435E+03  0.35651110435E+03  0.00000000000E+00 0.  1.
         21   -1    0    0  504  502 -0.00000000000E+00 -0.00000000000E+00 -0.15447011810E+03  0.15447011810E+03  0.00000000000E+00 0. -1.
         21    1    1    2  503  502 -0.97633849846E+02  0.16455004049E+02 -0.11317251433E+03  0.15037005617E+03  0.00000000000E+00 0. -1.
         21    1    1    2  504  501 -0.41360018011E+01 -0.42745943072E+02  0.60027666323E+02  0.73808149172E+02  0.00000000000E+00 0.  1.
         21    1    1    2  505  503  0.78215957555E+02  0.59597836465E+01  0.93023132163E+02  0.12168220147E+03  0.00000000000E+00 0.  1.
         21    1    1    2  506  505  0.23553894092E+02  0.20331155376E+02  0.16216270209E+03  0.16512081563E+03  0.00000000000E+00 0.  1.
<scales pt_clust_3="14000.00000" pt_clust_4="35.91935" pt_clust_5="95.67382" pt_clust_6="31.11498"></scales>
<clustering>
<clus scale="   31.115">  1  6  2 -1</clus>
<clus scale="   35.919">  1  4  2 -1</clus>
<clus scale="   95.674">  1  5  2 -1</clus>
<clus scale="   31.115">  1  3  2 -1</clus>
</clustering>
</event>
