<event>
 5    0  0.5532658E-005  0.4168063E+03  0.7546771E-02  0.1038111E+00
         21   -1    0    0  502  501  0.00000000000E+00  0.00000000000E+00  0.46115036317E+03  0.46115036317E+03  0.00000000000E+00 0.  1.
         21   -1    0    0  501  502 -0.00000000000E+00 -0.00000000000E+00 -0.37672628156E+03  0.37672628156E+03  0.00000000000E+00 0. -1.
         25    1    1    2    0    0  0.15061033144E+03 -0.21713880195E+03 -0.27526000516E+02  0.29362461061E+03  0.12500000000E+03 0.  0.
         25    1    1    2    0    0 -0.38203197527E+02 -0.55098204317E+02 -0.88026991252E+02  0.16694025161E+03  0.12500000000E+03 0.  0.
         25    1    1    2    0    0 -0.11240713391E+03  0.27223700627E+03  0.19997707337E+03  0.37731178250E+03  0.12500000000E+03 0.  0.
</event>
<event>
 5    0  0.5532658E-005  0.2627034E+03  0.7546771E-02  0.1105530E+00
         21   -1    0    0  502  501  0.00000000000E+00  0.00000000000E+00  0.13596483076E+04  0.13596483076E+04  0.00000000000E+00 0. -1.
         21   -1    0    0  501  502 -0.00000000000E+00 -0.00000000000E+00 -0.50758042497E+02  0.50758042497E+02  0.00000000000E+00 0. -1.
         25    1    1    2    0    0 -0.49270651741E+02  0.64219548379E+02  0.58839188901E+03  0.60694461244E+03  0.12500000000E+03 0.  0.
         25    1    1    2    0    0  0.27620884337E+02 -0.63095446948E+02  0.63411768403E+03  0.64998014268E+03  0.12500000000E+03 0.  0.
         25    1    1    2    0    0  0.21649767404E+02 -0.11241014306E+01  0.86380692039E+02  0.15348159495E+03  0.12500000000E+03 0.  0.
</event>
<event>
 5    0  0.5532658E-005  0.2508633E+03  0.7546771E-02  0.1112760E+00
         21   -1    0    0  502  501  0.00000000000E+00  0.00000000000E+00  0.47263743319E+03  0.47263743319E+03  0.00000000000E+00 0.  1.
         21   -1    0    0  501  502 -0.00000000000E+00 -0.00000000000E+00 -0.13315157418E+03  0.13315157418E+03  0.00000000000E+00 0.  1.
         25    1    1    2    0    0  0.41331672070E+01 -0.55574840875E+02  0.31475270036E+03  0.34321991258E+03  0.12500000000E+03 0.  0.
         25    1    1    2    0    0  0.12850842037E+02  0.36629805390E+02  0.32186961727E+02  0.13478830546E+03  0.12500000000E+03 0.  0.
         25    1    1    2    0    0 -0.16984009244E+02  0.18945035485E+02 -0.74538030752E+01  0.12778078932E+03  0.12500000000E+03 0.  0.
</event>
<event>
 5    0  0.5532658E-005  0.3878680E+03  0.7546771E-02  0.1048063E+00
         21   -1    0    0  502  501  0.00000000000E+00  0.00000000000E+00  0.10972901852E+04  0.10972901852E+04  0.00000000000E+00 0. -1.
         21   -1    0    0  501  502 -0.00000000000E+00 -0.00000000000E+00 -0.13710283729E+03  0.13710283729E+03  0.00000000000E+00 0. -1.
         25    1    1    2    0    0  0.99539481737E+02 -0.22243465298E+03  0.49365984984E+03  0.56454435664E+03  0.12500000000E+03 0.  0.
         25    1    1    2    0    0  0.10284273060E+03  0.16964573831E+03  0.26317784968E+03  0.35248245961E+03  0.12500000000E+03 0.  0.
         25    1    1    2    0    0 -0.20238221234E+03  0.52788914669E+02  0.20334964843E+03  0.31736620630E+03  0.12500000000E+03 0.  0.
</event>
<event>
 5    0  0.5532658E-005  0.2919053E+03  0.7546771E-02  0.1089359E+00
         21   -1    0    0  502  501  0.00000000000E+00  0.00000000000E+00  0.52705925230E+03  0.52705925230E+03  0.00000000000E+00 0. -1.
         21   -1    0    0  501  502 -0.00000000000E+00 -0.00000000000E+00 -0.16166820772E+03  0.16166820772E+03  0.00000000000E+00 0. -1.
         25    1    1    2    0    0 -0.12273799150E+03  0.69569658333E+02  0.19523761647E+03  0.27138032132E+03  0.12500000000E+03 0.  0.
         25    1    1    2    0    0  0.86033674837E+02  0.88871149679E+02  0.83487368592E+02  0.19466642023E+03  0.12500000000E+03 0.  0.
         25    1    1    2    0    0  0.36704316663E+02 -0.15844080801E+03  0.86666059521E+02  0.22268071847E+03  0.12500000000E+03 0.  0.
</event>
<event>
 5    0  0.5532658E-005  0.3253678E+03  0.7546771E-02  0.1073205E+00
         21   -1    0    0  502  501  0.00000000000E+00  0.00000000000E+00  0.37052634429E+02  0.37052634429E+02  0.00000000000E+00 0. -1.
         21   -1    0    0  501  502 -0.00000000000E+00 -0.00000000000E+00 -0.28571309554E+04  0.28571309554E+04  0.00000000000E+00 0. -1.
         25    1    1    2    0    0 -0.40693261112E+02  0.86607044112E+02 -0.77556940592E+03  0.79138462519E+03  0.12500000000E+03 0.  0.
         25    1    1    2    0    0  0.11504277487E+03  0.13889375632E+03 -0.10530494476E+04  0.10756693055E+04  0.12500000000E+03 0.  0.
         25    1    1    2    0    0 -0.74349513758E+02 -0.22550080043E+03 -0.99145946745E+03  0.10271296592E+04  0.12500000000E+03 0.  0.
</event>
<event>
 5    0  0.5551004E-005  0.2889077E+03  0.7546771E-02  0.1090921E+00
         21   -1    0    0  502  501  0.00000000000E+00  0.00000000000E+00  0.36021695897E+03  0.36021695897E+03  0.00000000000E+00 0.  1.
         21   -1    0    0  501  502 -0.00000000000E+00 -0.00000000000E+00 -0.23171494231E+03  0.23171494231E+03  0.00000000000E+00 0.  1.
         25    1    1    2    0    0 -0.10854086281E+03 -0.33793022581E+02 -0.40058832603E+02  0.17364560848E+03  0.12500000000E+03 0.  0.
         25    1    1    2    0    0 -0.58975139238E+02 -0.43894037862E+02  0.12419886311E+03  0.19093221626E+03  0.12500000000E+03 0.  0.
         25    1    1    2    0    0  0.16751600205E+03  0.77687060443E+02  0.44361986157E+02  0.22735407654E+03  0.12500000000E+03 0.  0.
</event>
<event>
 5    0  0.5532658E-005  0.2531325E+03  0.7546771E-02  0.1111341E+00
         21   -1    0    0  502  501  0.00000000000E+00  0.00000000000E+00  0.10802205563E+03  0.10802205563E+03  0.00000000000E+00 0. -1.
         21   -1    0    0  501  502 -0.00000000000E+00 -0.00000000000E+00 -0.59317571599E+03  0.59317571599E+03  0.00000000000E+00 0. -1.
         25    1    1    2    0    0 -0.78671585270E+02  0.60050084870E+02 -0.29463427195E+03  0.33500684356E+03  0.12500000000E+03 0.  0.
         25    1    1    2    0    0  0.48256427944E+02 -0.10057377633E+03 -0.58506498129E+02  0.17745922812E+03  0.12500000000E+03 0.  0.
         25    1    1    2    0    0  0.30415157326E+02  0.40523691456E+02 -0.13201289028E+03  0.18873169995E+03  0.12500000000E+03 0.  0.
</event>
<event>
 5    0  0.5753649E-005  0.2927568E+03  0.7546771E-02  0.1088919E+00
         21   -1    0    0  502  501  0.00000000000E+00  0.00000000000E+00  0.60237491101E+03  0.60237491101E+03  0.00000000000E+00 0. -1.
         21   -1    0    0  501  502 -0.00000000000E+00 -0.00000000000E+00 -0.14228107440E+03  0.14228107440E+03  0.00000000000E+00 0. -1.
         25    1    1    2    0    0 -0.46718592770E+02  0.93669444041E+02  0.19854098630E+03  0.25690487519E+03  0.12500000000E+03 0.  0.
         25    1    1    2    0    0  0.13118776190E+03 -0.14306115578E+03  0.74888050209E+02  0.24271370631E+03  0.12500000000E+03 0.  0.
         25    1    1    2    0    0 -0.84469169132E+02  0.49391711735E+02  0.18666480010E+03  0.24503740392E+03  0.12500000000E+03 0.  0.
</event>
<event>
 5    0  0.5532658E-005  0.2761182E+03  0.7546771E-02  0.1097828E+00
         21   -1    0    0  502  501  0.00000000000E+00  0.00000000000E+00  0.11695742685E+03  0.11695742685E+03  0.00000000000E+00 0. -1.
         21   -1    0    0  501  502 -0.00000000000E+00 -0.00000000000E+00 -0.65187166953E+03  0.65187166953E+03  0.00000000000E+00 0. -1.
         25    1    1    2    0    0 -0.52041225109E+01  0.96356204428E+02 -0.13819109375E+02  0.15851677768E+03  0.12500000000E+03 0.  0.
         25    1    1    2    0    0 -0.53514367697E+01 -0.59033558606E+02 -0.42772480534E+03  0.44954099704E+03  0.12500000000E+03 0.  0.
         25    1    1    2    0    0  0.10555559281E+02 -0.37322645822E+02 -0.93370327970E+02  0.16077132166E+03  0.12500000000E+03 0.  0.
</event>
<event>
 5    0  0.5532658E-005  0.3013001E+03  0.7546771E-02  0.1084593E+00
         21   -1    0    0  502  501  0.00000000000E+00  0.00000000000E+00  0.98747885682E+02  0.98747885682E+02  0.00000000000E+00 0.  1.
         21   -1    0    0  501  502 -0.00000000000E+00 -0.00000000000E+00 -0.91932828888E+03  0.91932828888E+03  0.00000000000E+00 0.  1.
         25    1    1    2    0    0  0.20616890095E+02  0.10324282098E+03 -0.20429514406E+03  0.26162118058E+03  0.12500000000E+03 0.  0.
         25    1    1    2    0    0 -0.37506261428E+02 -0.19364913117E+03 -0.52936197545E+03  0.57858085580E+03  0.12500000000E+03 0.  0.
         25    1    1    2    0    0  0.16889371333E+02  0.90406310192E+02 -0.86923283688E+02  0.17787413818E+03  0.12500000000E+03 0.  0.
</event>
<event>
 5    0  0.5532658E-005  0.4435901E+03  0.7546771E-02  0.1029651E+00
         21   -1    0    0  502  501  0.00000000000E+00  0.00000000000E+00  0.56999631193E+03  0.56999631193E+03  0.00000000000E+00 0. -1.
         21   -1    0    0  501  502 -0.00000000000E+00 -0.00000000000E+00 -0.34521650722E+03  0.34521650722E+03  0.00000000000E+00 0. -1.
         25    1    1    2    0    0 -0.17787813837E+03 -0.23019516040E+03  0.18324787513E+03  0.36583497334E+03  0.12500000000E+03 0.  0.
         25    1    1    2    0    0  0.16808030384E+03 -0.46299153578E+02 -0.70442092912E+02  0.22579125008E+03  0.12500000000E+03 0.  0.
         25    1    1    2    0    0  0.97978345282E+01  0.27649431398E+03  0.11197402249E+03  0.32358659573E+03  0.12500000000E+03 0.  0.
</event>
<event>
 5    0  0.5532658E-005  0.3000593E+03  0.7546771E-02  0.1085211E+00
         21   -1    0    0  502  501  0.00000000000E+00  0.00000000000E+00  0.28381875778E+03  0.28381875778E+03  0.00000000000E+00 0. -1.
         21   -1    0    0  501  502 -0.00000000000E+00 -0.00000000000E+00 -0.31722922833E+03  0.31722922833E+03  0.00000000000E+00 0. -1.
         25    1    1    2    0    0  0.99921869669E+02  0.10986498468E+03 -0.38906236803E+02  0.19797320566E+03  0.12500000000E+03 0.  0.
         25    1    1    2    0    0 -0.51725678738E+02 -0.19289620710E+03  0.46646348062E+02  0.24017779736E+03  0.12500000000E+03 0.  0.
         25    1    1    2    0    0 -0.48196190931E+02  0.83031222425E+02 -0.41150581806E+02  0.16289698309E+03  0.12500000000E+03 0.  0.
</event>
<event>
 5    0  0.5532658E-005  0.2815659E+03  0.7546771E-02  0.1094837E+00
         21   -1    0    0  502  501  0.00000000000E+00  0.00000000000E+00  0.74116266901E+02  0.74116266901E+02  0.00000000000E+00 0.  1.
         21   -1    0    0  501  502 -0.00000000000E+00 -0.00000000000E+00 -0.10696619276E+04  0.10696619276E+04  0.00000000000E+00 0.  1.
         25    1    1    2    0    0 -0.69657132398E+02  0.98985470379E+02 -0.12557314847E+03  0.21457831917E+03  0.12500000000E+03 0.  0.
         25    1    1    2    0    0 -0.42094569107E+02 -0.73929008122E+02 -0.49729346767E+03  0.51977230012E+03  0.12500000000E+03 0.  0.
         25    1    1    2    0    0  0.11175170150E+03 -0.25056462257E+02 -0.37267904461E+03  0.40942757526E+03  0.12500000000E+03 0.  0.
</event>
<event>
 5    0  0.5532658E-005  0.2647156E+03  0.7546771E-02  0.1104343E+00
         21   -1    0    0  502  501  0.00000000000E+00  0.00000000000E+00  0.72807865382E+03  0.72807865382E+03  0.00000000000E+00 0. -1.
         21   -1    0    0  501  502 -0.00000000000E+00 -0.00000000000E+00 -0.96245556994E+02  0.96245556994E+02  0.00000000000E+00 0. -1.
         25    1    1    2    0    0  0.21232389092E+02 -0.98976471317E+02  0.30214204303E+03  0.34228930803E+03  0.12500000000E+03 0.  0.
         25    1    1    2    0    0  0.48291455848E+02  0.44055051831E+02  0.29194694952E+03  0.32423900696E+03  0.12500000000E+03 0.  0.
         25    1    1    2    0    0 -0.69523844941E+02  0.54921419485E+02  0.37744104276E+02  0.15779589583E+03  0.12500000000E+03 0.  0.
</event>
<event>
 5    0  0.5532658E-005  0.2595574E+03  0.7546771E-02  0.1107409E+00
         21   -1    0    0  502  501  0.00000000000E+00  0.00000000000E+00  0.16894166647E+03  0.16894166647E+03  0.00000000000E+00 0.  1.
         21   -1    0    0  501  502 -0.00000000000E+00 -0.00000000000E+00 -0.39877686448E+03  0.39877686448E+03  0.00000000000E+00 0.  1.
         25    1    1    2    0    0 -0.40282042975E+02 -0.22451624246E+02 -0.16638861377E+03  0.21315930477E+03  0.12500000000E+03 0.  0.
         25    1    1    2    0    0  0.45651957140E+02 -0.76549512004E+02  0.46952465939E+02  0.16054115683E+03  0.12500000000E+03 0.  0.
         25    1    1    2    0    0 -0.53699141641E+01  0.99001136250E+02 -0.11039905018E+03  0.19401806936E+03  0.12500000000E+03 0.  0.
</event>
<event>
 5    0  0.5532658E-005  0.3240661E+03  0.7546771E-02  0.1073793E+00
         21   -1    0    0  502  501  0.00000000000E+00  0.00000000000E+00  0.44686671184E+03  0.44686671184E+03  0.00000000000E+00 0.  1.
         21   -1    0    0  501  502 -0.00000000000E+00 -0.00000000000E+00 -0.23501147893E+03  0.23501147893E+03  0.00000000000E+00 0.  1.
         25    1    1    2    0    0 -0.16131425197E+03 -0.18788760790E+02  0.64545294648E+02  0.21486367883E+03  0.12500000000E+03 0.  0.
         25    1    1    2    0    0 -0.16421440994E+02 -0.44412866273E+02  0.19435263751E+03  0.23588156800E+03  0.12500000000E+03 0.  0.
         25    1    1    2    0    0  0.17773569297E+03  0.63201627063E+02 -0.47042699252E+02  0.23113294393E+03  0.12500000000E+03 0.  0.
</event>
<event>
 5    0  0.5532658E-005  0.2187333E+03  0.7546771E-02  0.1134831E+00
         21   -1    0    0  502  501  0.00000000000E+00  0.00000000000E+00  0.98501481999E+03  0.98501481999E+03  0.00000000000E+00 0.  1.
         21   -1    0    0  501  502 -0.00000000000E+00 -0.00000000000E+00 -0.48572124101E+02  0.48572124101E+02  0.00000000000E+00 0.  1.
         25    1    1    2    0    0 -0.51937426155E+02  0.32216038194E+02  0.15397935342E+03  0.20753315550E+03  0.12500000000E+03 0.  0.
         25    1    1    2    0    0  0.19918573203E+02 -0.21222014643E+02  0.48355200409E+03  0.50029457735E+03  0.12500000000E+03 0.  0.
         25    1    1    2    0    0  0.32018852952E+02 -0.10994023551E+02  0.29891133837E+03  0.32575921124E+03  0.12500000000E+03 0.  0.
</event>
<event>
 5    0  0.5532658E-005  0.2485989E+03  0.7546771E-02  0.1114194E+00
         21   -1    0    0  502  501  0.00000000000E+00  0.00000000000E+00  0.21638482718E+03  0.21638482718E+03  0.00000000000E+00 0.  1.
         21   -1    0    0  501  502 -0.00000000000E+00 -0.00000000000E+00 -0.28560878569E+03  0.28560878569E+03  0.00000000000E+00 0.  1.
         25    1    1    2    0    0  0.69495787645E+02  0.11281176768E+03 -0.70776502754E+02  0.19542382856E+03  0.12500000000E+03 0.  0.
         25    1    1    2    0    0 -0.16489147084E+02 -0.10900476523E+03 -0.23908530364E+02  0.16837621162E+03  0.12500000000E+03 0.  0.
         25    1    1    2    0    0 -0.53006640561E+02 -0.38070024526E+01  0.25461074615E+02  0.13819357269E+03  0.12500000000E+03 0.  0.
</event>
<event>
 5    0  0.5532658E-005  0.2916216E+03  0.7546771E-02  0.1089506E+00
         21   -1    0    0  502  501  0.00000000000E+00  0.00000000000E+00  0.10465235465E+03  0.10465235465E+03  0.00000000000E+00 0. -1.
         21   -1    0    0  501  502 -0.00000000000E+00 -0.00000000000E+00 -0.81262534501E+03  0.81262534501E+03  0.00000000000E+00 0. -1.
         25    1    1    2    0    0  0.78899309245E+02 -0.12181107420E+02 -0.38862415147E+03  0.41596539698E+03  0.12500000000E+03 0.  0.
         25    1    1    2    0    0 -0.71085945276E+02 -0.12144968734E+03 -0.92400126152E+02  0.20968076088E+03  0.12500000000E+03 0.  0.
         25    1    1    2    0    0 -0.78133639686E+01  0.13363079476E+03 -0.22694871274E+03  0.29163154181E+03  0.12500000000E+03 0.  0.
</event>
<event>
 5    0  0.5532658E-005  0.3197597E+03  0.7546771E-02  0.1075760E+00
         21   -1    0    0  502  501  0.00000000000E+00  0.00000000000E+00  0.11009994434E+03  0.11009994434E+03  0.00000000000E+00 0. -1.
         21   -1    0    0  501  502 -0.00000000000E+00 -0.00000000000E+00 -0.92866749843E+03  0.92866749843E+03  0.00000000000E+00 0. -1.
         25    1    1    2    0    0  0.15924435914E+03  0.13403735207E+03 -0.24098469731E+03  0.34208683401E+03  0.12500000000E+03 0.  0.
         25    1    1    2    0    0 -0.24036571343E+02 -0.15261808107E+03 -0.23911918253E+03  0.31092285038E+03  0.12500000000E+03 0.  0.
         25    1    1    2    0    0 -0.13520778780E+03  0.18580728997E+02 -0.33846367425E+03  0.38575775839E+03  0.12500000000E+03 0.  0.
</event>
<event>
 5    0  0.5532658E-005  0.4203796E+03  0.7546771E-02  0.1036943E+00
         21   -1    0    0  502  501  0.00000000000E+00  0.00000000000E+00  0.28813134204E+03  0.28813134204E+03  0.00000000000E+00 0. -1.
         21   -1    0    0  501  502 -0.00000000000E+00 -0.00000000000E+00 -0.61332801947E+03  0.61332801947E+03  0.00000000000E+00 0. -1.
         25    1    1    2    0    0  0.11699577667E+03 -0.30932894201E+03 -0.64165617547E+02  0.35932524625E+03  0.12500000000E+03 0.  0.
         25    1    1    2    0    0 -0.13833874311E+03  0.24339702090E+03 -0.25549497301E+03  0.39910199056E+03  0.12500000000E+03 0.  0.
         25    1    1    2    0    0  0.21342966445E+02  0.65931921104E+02 -0.55360868714E+01  0.14303212470E+03  0.12500000000E+03 0.  0.
</event>
<event>
 5    0  0.5532658E-005  0.3067749E+03  0.7546771E-02  0.1081902E+00
         21   -1    0    0  502  501  0.00000000000E+00  0.00000000000E+00  0.34947946521E+03  0.34947946521E+03  0.00000000000E+00 0. -1.
         21   -1    0    0  501  502 -0.00000000000E+00 -0.00000000000E+00 -0.26928868064E+03  0.26928868064E+03  0.00000000000E+00 0. -1.
         25    1    1    2    0    0 -0.14549800326E+01 -0.16547260753E+01 -0.54374285467E+02  0.13633201387E+03  0.12500000000E+03 0.  0.
         25    1    1    2    0    0 -0.11298950725E+02 -0.69805534933E+02 -0.12167996278E+03  0.18823254856E+03  0.12500000000E+03 0.  0.
         25    1    1    2    0    0  0.12753930758E+02  0.71460261008E+02  0.25624503282E+03  0.29420358342E+03  0.12500000000E+03 0.  0.
</event>
<event>
 5    0  0.5994496E-005  0.4769455E+03  0.7546771E-02  0.1019978E+00
         21   -1    0    0  502  501  0.00000000000E+00  0.00000000000E+00  0.39969255722E+03  0.39969255722E+03  0.00000000000E+00 0.  1.
         21   -1    0    0  501  502 -0.00000000000E+00 -0.00000000000E+00 -0.56913004498E+03  0.56913004498E+03  0.00000000000E+00 0.  1.
         25    1    1    2    0    0 -0.20508886594E+03 -0.34472234219E+02  0.78156501738E+02  0.25491805866E+03  0.12500000000E+03 0.  0.
         25    1    1    2    0    0  0.10501689878E+03 -0.17311306532E+03 -0.35764936799E+03  0.42957508405E+03  0.12500000000E+03 0.  0.
         25    1    1    2    0    0  0.10007196716E+03  0.20758529954E+03  0.11005537850E+03  0.28432945949E+03  0.12500000000E+03 0.  0.
</event>
<event>
 5    0  0.5532658E-005  0.3016107E+03  0.7546771E-02  0.1084438E+00
         21   -1    0    0  502  501  0.00000000000E+00  0.00000000000E+00  0.13040687011E+04  0.13040687011E+04  0.00000000000E+00 0.  1.
         21   -1    0    0  501  502 -0.00000000000E+00 -0.00000000000E+00 -0.69757825945E+02  0.69757825945E+02  0.00000000000E+00 0.  1.
         25    1    1    2    0    0  0.13156898023E+03  0.29631613524E+02  0.21614738215E+03  0.28378357932E+03  0.12500000000E+03 0.  0.
         25    1    1    2    0    0 -0.33871908313E+02  0.10658873993E+03  0.59260769969E+03  0.61588745026E+03  0.12500000000E+03 0.  0.
         25    1    1    2    0    0 -0.97697071920E+02 -0.13622035345E+03  0.42555579329E+03  0.47415549745E+03  0.12500000000E+03 0.  0.
</event>
<event>
 5    0  0.5532658E-005  0.3344052E+03  0.7546771E-02  0.1069204E+00
         21   -1    0    0  502  501  0.00000000000E+00  0.00000000000E+00  0.49375286865E+03  0.49375286865E+03  0.00000000000E+00 0.  1.
         21   -1    0    0  501  502 -0.00000000000E+00 -0.00000000000E+00 -0.22648345933E+03  0.22648345933E+03  0.00000000000E+00 0.  1.
         25    1    1    2    0    0  0.47351530581E+02  0.81157938952E+02 -0.79869695152E+02  0.17559312830E+03  0.12500000000E+03 0.  0.
         25    1    1    2    0    0  0.10162792276E+03 -0.90692453731E+02  0.53759089033E+02  0.19253154417E+03  0.12500000000E+03 0.  0.
         25    1    1    2    0    0 -0.14897945334E+03  0.95345147791E+01  0.29338001544E+03  0.35211165551E+03  0.12500000000E+03 0.  0.
</event>
<event>
 5    0  0.6478228E-005  0.2846154E+03  0.7546771E-02  0.1093194E+00
         21   -1    0    0  502  501  0.00000000000E+00  0.00000000000E+00  0.35449337366E+03  0.35449337366E+03  0.00000000000E+00 0.  1.
         21   -1    0    0  501  502 -0.00000000000E+00 -0.00000000000E+00 -0.22851188611E+03  0.22851188611E+03  0.00000000000E+00 0.  1.
         25    1    1    2    0    0 -0.11068602565E+03 -0.15671852995E+02  0.22011190936E+02  0.16913454933E+03  0.12500000000E+03 0.  0.
         25    1    1    2    0    0 -0.17386658473E+02 -0.59264339532E+01 -0.85341301642E+02  0.15246493459E+03  0.12500000000E+03 0.  0.
         25    1    1    2    0    0  0.12807268412E+03  0.21598286948E+02  0.18931159826E+03  0.26140577586E+03  0.12500000000E+03 0.  0.
</event>
<event>
 5    0  0.5532658E-005  0.3394008E+03  0.7546771E-02  0.1067051E+00
         21   -1    0    0  502  501  0.00000000000E+00  0.00000000000E+00  0.18962697076E+03  0.18962697076E+03  0.00000000000E+00 0.  1.
         21   -1    0    0  501  502 -0.00000000000E+00 -0.00000000000E+00 -0.60747104425E+03  0.60747104425E+03  0.00000000000E+00 0.  1.
         25    1    1    2    0    0  0.37217269965E+02 -0.16754765882E+03 -0.46767623598E+02  0.21741562450E+03  0.12500000000E+03 0.  0.
         25    1    1    2    0    0  0.23392276039E+02  0.17797911369E+03 -0.42555821508E+02  0.22284470250E+03  0.12500000000E+03 0.  0.
         25    1    1    2    0    0 -0.60609546003E+02 -0.10431454874E+02 -0.32852062838E+03  0.35683768801E+03  0.12500000000E+03 0.  0.
</event>
<event>
 5    0  0.5532658E-005  0.3444194E+03  0.7546771E-02  0.1064929E+00
         21   -1    0    0  502  501  0.00000000000E+00  0.00000000000E+00  0.33467773220E+03  0.33467773220E+03  0.00000000000E+00 0.  1.
         21   -1    0    0  501  502 -0.00000000000E+00 -0.00000000000E+00 -0.35444455733E+03  0.35444455733E+03  0.00000000000E+00 0.  1.
         25    1    1    2    0    0 -0.26227313701E+02  0.95314135254E+02  0.66130764745E+02  0.17254255825E+03  0.12500000000E+03 0.  0.
         25    1    1    2    0    0 -0.31292960835E+02 -0.26241960767E+03 -0.37241395351E+02  0.29471209920E+03  0.12500000000E+03 0.  0.
         25    1    1    2    0    0  0.57520274536E+02  0.16710547242E+03 -0.48656194523E+02  0.22186763207E+03  0.12500000000E+03 0.  0.
</event>
<event>
 5    0  0.5532658E-005  0.4640699E+03  0.7546771E-02  0.1023607E+00
         21   -1    0    0  502  501  0.00000000000E+00  0.00000000000E+00  0.30481617463E+03  0.30481617463E+03  0.00000000000E+00 0.  1.
         21   -1    0    0  501  502 -0.00000000000E+00 -0.00000000000E+00 -0.70652690345E+03  0.70652690345E+03  0.00000000000E+00 0. -1.
         25    1    1    2    0    0 -0.18985439001E+03  0.48366997505E+02 -0.36340526093E+03  0.43136114745E+03  0.12500000000E+03 0.  0.
         25    1    1    2    0    0  0.30301424693E+03  0.60679983295E+02 -0.13182252232E+03  0.35847157713E+03  0.12500000000E+03 0.  0.
         25    1    1    2    0    0 -0.11315985693E+03 -0.10904698080E+03  0.93517054434E+02  0.22151035351E+03  0.12500000000E+03 0.  0.
</event>
<event>
 5    0  0.5532658E-005  0.2814465E+03  0.7546771E-02  0.1094902E+00
         21   -1    0    0  502  501  0.00000000000E+00  0.00000000000E+00  0.84024710460E+02  0.84024710460E+02  0.00000000000E+00 0. -1.
         21   -1    0    0  501  502 -0.00000000000E+00 -0.00000000000E+00 -0.94272396073E+03  0.94272396073E+03  0.00000000000E+00 0. -1.
         25    1    1    2    0    0  0.67323265548E+02 -0.81868404996E+02 -0.56293004120E+02  0.17328808422E+03  0.12500000000E+03 0.  0.
         25    1    1    2    0    0 -0.78892726209E+02  0.63666049151E+02 -0.50815557624E+03  0.53303331765E+03  0.12500000000E+03 0.  0.
         25    1    1    2    0    0  0.11569460661E+02  0.18202355845E+02 -0.29425066991E+03  0.32042726932E+03  0.12500000000E+03 0.  0.
</event>
<event>
 5    0  0.5532658E-005  0.2575328E+03  0.7546771E-02  0.1108635E+00
         21   -1    0    0  502  501  0.00000000000E+00  0.00000000000E+00  0.22270898648E+02  0.22270898648E+02  0.00000000000E+00 0.  1.
         21   -1    0    0  501  502 -0.00000000000E+00 -0.00000000000E+00 -0.29780183662E+04  0.29780183662E+04  0.00000000000E+00 0.  1.
         25    1    1    2    0    0 -0.64387683200E+02  0.94933693831E+02 -0.60499421731E+03  0.62833206424E+03  0.12500000000E+03 0.  0.
         25    1    1    2    0    0  0.44802160245E+02  0.16795480266E+02 -0.13956260519E+04  0.14020293857E+04  0.12500000000E+03 0.  0.
         25    1    1    2    0    0  0.19585522955E+02 -0.11172917410E+03 -0.95512719831E+03  0.96992781484E+03  0.12500000000E+03 0.  0.
</event>
<event>
 5    0  0.5532658E-005  0.2508048E+03  0.7546771E-02  0.1112797E+00
         21   -1    0    0  502  501  0.00000000000E+00  0.00000000000E+00  0.17600535229E+03  0.17600535229E+03  0.00000000000E+00 0.  1.
         21   -1    0    0  501  502 -0.00000000000E+00 -0.00000000000E+00 -0.35739271230E+03  0.35739271230E+03  0.00000000000E+00 0.  1.
         25    1    1    2    0    0 -0.24845426917E+02 -0.80260167638E+02 -0.19962129308E+03  0.25006529227E+03  0.12500000000E+03 0.  0.
         25    1    1    2    0    0  0.18194843235E+02  0.62700368827E+02 -0.36375232442E+02  0.14563840876E+03  0.12500000000E+03 0.  0.
         25    1    1    2    0    0  0.66505836816E+01  0.17559798811E+02  0.54609165515E+02  0.13769436356E+03  0.12500000000E+03 0.  0.
</event>
<event>
 5    0  0.5532658E-005  0.4224863E+03  0.7546771E-02  0.1036260E+00
         21   -1    0    0  502  501  0.00000000000E+00  0.00000000000E+00  0.51180668854E+03  0.51180668854E+03  0.00000000000E+00 0. -1.
         21   -1    0    0  501  502 -0.00000000000E+00 -0.00000000000E+00 -0.34875411009E+03  0.34875411009E+03  0.00000000000E+00 0. -1.
         25    1    1    2    0    0 -0.93292118975E+02 -0.16612014905E+03  0.40837885575E+02  0.23149958160E+03  0.12500000000E+03 0.  0.
         25    1    1    2    0    0  0.30693447799E+03  0.29527459623E+02  0.43211328148E+02  0.33551879759E+03  0.12500000000E+03 0.  0.
         25    1    1    2    0    0 -0.21364235902E+03  0.13659268943E+03  0.79003364725E+02  0.29354241944E+03  0.12500000000E+03 0.  0.
</event>
<event>
 5    0  0.5532658E-005  0.3246690E+03  0.7546771E-02  0.1073520E+00
         21   -1    0    0  502  501  0.00000000000E+00  0.00000000000E+00  0.30052233420E+03  0.30052233420E+03  0.00000000000E+00 0.  1.
         21   -1    0    0  501  502 -0.00000000000E+00 -0.00000000000E+00 -0.35075584526E+03  0.35075584526E+03  0.00000000000E+00 0. -1.
         25    1    1    2    0    0 -0.28291447119E+02 -0.42763330950E+02  0.15651359731E+03  0.20676221753E+03  0.12500000000E+03 0.  0.
         25    1    1    2    0    0  0.89243195163E+02 -0.78516452757E+02 -0.19393594500E+03  0.25954832305E+03  0.12500000000E+03 0.  0.
         25    1    1    2    0    0 -0.60951748044E+02  0.12127978371E+03 -0.12811163363E+02  0.18496763888E+03  0.12500000000E+03 0.  0.
</event>
<event>
 5    0  0.5532658E-005  0.2945917E+03  0.7546771E-02  0.1087976E+00
         21   -1    0    0  502  501  0.00000000000E+00  0.00000000000E+00  0.12629850734E+04  0.12629850734E+04  0.00000000000E+00 0. -1.
         21   -1    0    0  501  502 -0.00000000000E+00 -0.00000000000E+00 -0.68713614927E+02  0.68713614927E+02  0.00000000000E+00 0. -1.
         25    1    1    2    0    0 -0.39021817003E+02  0.14870883068E+03  0.59648401399E+03  0.62853416571E+03  0.12500000000E+03 0.  0.
         25    1    1    2    0    0  0.63327153472E+02 -0.60887684382E+02  0.49349173547E+03  0.51660113381E+03  0.12500000000E+03 0.  0.
         25    1    1    2    0    0 -0.24305336469E+02 -0.87821146293E+02  0.10429570897E+03  0.18656338876E+03  0.12500000000E+03 0.  0.
</event>
<event>
 5    0  0.5532658E-005  0.3194344E+03  0.7546771E-02  0.1075910E+00
         21   -1    0    0  502  501  0.00000000000E+00  0.00000000000E+00  0.44554311910E+03  0.44554311910E+03  0.00000000000E+00 0. -1.
         21   -1    0    0  501  502 -0.00000000000E+00 -0.00000000000E+00 -0.22902018055E+03  0.22902018055E+03  0.00000000000E+00 0. -1.
         25    1    1    2    0    0 -0.12458855990E+02 -0.85503949711E+02  0.31846970158E+02  0.15525906742E+03  0.12500000000E+03 0.  0.
         25    1    1    2    0    0 -0.15650867173E+03  0.16212834740E+03  0.65755372381E+02  0.26594987188E+03  0.12500000000E+03 0.  0.
         25    1    1    2    0    0  0.16896752772E+03 -0.76624397686E+02  0.11892059601E+03  0.25335436034E+03  0.12500000000E+03 0.  0.
</event>
<event>
 5    0  0.5532658E-005  0.4613150E+03  0.7546771E-02  0.1024401E+00
         21   -1    0    0  502  501  0.00000000000E+00  0.00000000000E+00  0.84686689851E+03  0.84686689851E+03  0.00000000000E+00 0.  1.
         21   -1    0    0  501  502 -0.00000000000E+00 -0.00000000000E+00 -0.25129274641E+03  0.25129274641E+03  0.00000000000E+00 0.  1.
         25    1    1    2    0    0  0.61710665027E+02  0.23382700842E+02  0.20635067732E+02  0.14284874132E+03  0.12500000000E+03 0.  0.
         25    1    1    2    0    0 -0.11211303926E+02 -0.23424531570E+03  0.64316303339E+03  0.69590247074E+03  0.12500000000E+03 0.  0.
         25    1    1    2    0    0 -0.50499361101E+02  0.21086261486E+03 -0.68223949026E+02  0.25940843286E+03  0.12500000000E+03 0.  0.
</event>
<event>
 5    0  0.5532658E-005  0.4178533E+03  0.7546771E-02  0.1037767E+00
         21   -1    0    0  502  501  0.00000000000E+00  0.00000000000E+00  0.14924976073E+04  0.14924976073E+04  0.00000000000E+00 0.  1.
         21   -1    0    0  501  502 -0.00000000000E+00 -0.00000000000E+00 -0.11698605939E+03  0.11698605939E+03  0.00000000000E+00 0.  1.
         25    1    1    2    0    0  0.31967638459E+02 -0.13213237690E+03  0.28905934824E+03  0.34301778633E+03  0.12500000000E+03 0.  0.
         25    1    1    2    0    0  0.34934132381E+02  0.32530184745E+03  0.89060145532E+03  0.95699406361E+03  0.12500000000E+03 0.  0.
         25    1    1    2    0    0 -0.66901770840E+02 -0.19316947055E+03  0.19585074433E+03  0.30947181673E+03  0.12500000000E+03 0.  0.
</event>
<event>
 5    0  0.5532658E-005  0.2613316E+03  0.7546771E-02  0.1106346E+00
         21   -1    0    0  502  501  0.00000000000E+00  0.00000000000E+00  0.72186992613E+02  0.72186992613E+02  0.00000000000E+00 0. -1.
         21   -1    0    0  501  502 -0.00000000000E+00 -0.00000000000E+00 -0.94607320537E+03  0.94607320537E+03  0.00000000000E+00 0. -1.
         25    1    1    2    0    0 -0.84189757082E+02  0.63607213741E+00 -0.29169413047E+03  0.32832725372E+03  0.12500000000E+03 0.  0.
         25    1    1    2    0    0  0.80658153702E+02 -0.78069661778E+02 -0.12427329044E+03  0.20897239187E+03  0.12500000000E+03 0.  0.
         25    1    1    2    0    0  0.35316033800E+01  0.77433589640E+02 -0.45791879185E+03  0.48096055239E+03  0.12500000000E+03 0.  0.
</event>
<event>
 5    0  0.5532658E-005  0.2838396E+03  0.7546771E-02  0.1093610E+00
         21   -1    0    0  502  501  0.00000000000E+00  0.00000000000E+00  0.13041767514E+04  0.13041767514E+04  0.00000000000E+00 0.  1.
         21   -1    0    0  501  502 -0.00000000000E+00 -0.00000000000E+00 -0.61774528658E+02  0.61774528658E+02  0.00000000000E+00 0.  1.
         25    1    1    2    0    0 -0.77593753380E+02  0.97517601086E+02  0.31588133657E+03  0.36185147765E+03  0.12500000000E+03 0.  0.
         25    1    1    2    0    0 -0.45487826554E+02  0.49799172115E+02  0.22458871107E+03  0.26573330436E+03  0.12500000000E+03 0.  0.
         25    1    1    2    0    0  0.12308157993E+03 -0.14731677320E+03  0.70193217506E+03  0.73836649800E+03  0.12500000000E+03 0.  0.
</event>
<event>
 5    0  0.5532658E-005  0.2645295E+03  0.7546771E-02  0.1104452E+00
         21   -1    0    0  502  501  0.00000000000E+00  0.00000000000E+00  0.47611022197E+03  0.47611022197E+03  0.00000000000E+00 0. -1.
         21   -1    0    0  501  502 -0.00000000000E+00 -0.00000000000E+00 -0.14697408500E+03  0.14697408500E+03  0.00000000000E+00 0. -1.
         25    1    1    2    0    0  0.99989173663E+01  0.51966502369E+02  0.21489825185E+03  0.25417858754E+03  0.12500000000E+03 0.  0.
         25    1    1    2    0    0 -0.44004844692E+00  0.52229491618E+02 -0.43283891843E+02  0.14222028242E+03  0.12500000000E+03 0.  0.
         25    1    1    2    0    0 -0.95588689193E+01 -0.10419599399E+03  0.15752177696E+03  0.22668543702E+03  0.12500000000E+03 0.  0.
</event>
<event>
 5    0  0.5532658E-005  0.3687437E+03  0.7546771E-02  0.1055174E+00
         21   -1    0    0  502  501  0.00000000000E+00  0.00000000000E+00  0.14706991224E+04  0.14706991224E+04  0.00000000000E+00 0. -1.
         21   -1    0    0  501  502 -0.00000000000E+00 -0.00000000000E+00 -0.92453932330E+02  0.92453932330E+02  0.00000000000E+00 0. -1.
         25    1    1    2    0    0 -0.85069594471E+02  0.80846555022E+02  0.25683629643E+03  0.30880881549E+03  0.12500000000E+03 0.  0.
         25    1    1    2    0    0 -0.14414967707E+03  0.11240295959E+02  0.83266721899E+03  0.85432146832E+03  0.12500000000E+03 0.  0.
         25    1    1    2    0    0  0.22921927154E+03 -0.92086850981E+02  0.28874167463E+03  0.40002277089E+03  0.12500000000E+03 0.  0.
</event>
<event>
 5    0  0.5532658E-005  0.2137539E+03  0.7546771E-02  0.1138627E+00
         21   -1    0    0  502  501  0.00000000000E+00  0.00000000000E+00  0.95024329011E+02  0.95024329011E+02  0.00000000000E+00 0.  1.
         21   -1    0    0  501  502 -0.00000000000E+00 -0.00000000000E+00 -0.48083213219E+03  0.48083213219E+03  0.00000000000E+00 0.  1.
         25    1    1    2    0    0 -0.42524137575E+02 -0.30865369344E+01 -0.21294642874E+03  0.25057735432E+03  0.12500000000E+03 0.  0.
         25    1    1    2    0    0  0.40152296829E+02  0.38177621365E+02 -0.47384960762E+02  0.14470684925E+03  0.12500000000E+03 0.  0.
         25    1    1    2    0    0  0.23718407462E+01 -0.35091084430E+02 -0.12547641368E+03  0.18057225763E+03  0.12500000000E+03 0.  0.
</event>
<event>
 5    0  0.5532658E-005  0.2467969E+03  0.7546771E-02  0.1115346E+00
         21   -1    0    0  502  501  0.00000000000E+00  0.00000000000E+00  0.23835699108E+03  0.23835699108E+03  0.00000000000E+00 0. -1.
         21   -1    0    0  501  502 -0.00000000000E+00 -0.00000000000E+00 -0.25553556944E+03  0.25553556944E+03  0.00000000000E+00 0.  1.
         25    1    1    2    0    0 -0.70850957051E+02  0.15366505809E+02  0.14876612410E+02  0.14526631135E+03  0.12500000000E+03 0.  0.
         25    1    1    2    0    0 -0.13289408359E+01  0.10180136696E+03 -0.16865577952E+02  0.16209482447E+03  0.12500000000E+03 0.  0.
         25    1    1    2    0    0  0.72179897887E+02 -0.11716787277E+03 -0.15189612817E+02  0.18653142471E+03  0.12500000000E+03 0.  0.
</event>
<event>
 5    0  0.6603564E-005  0.2882718E+03  0.7546771E-02  0.1091255E+00
         21   -1    0    0  502  501  0.00000000000E+00  0.00000000000E+00  0.36960960644E+03  0.36960960644E+03  0.00000000000E+00 0.  1.
         21   -1    0    0  501  502 -0.00000000000E+00 -0.00000000000E+00 -0.22483346202E+03  0.22483346202E+03  0.00000000000E+00 0.  1.
         25    1    1    2    0    0  0.11179793114E+02 -0.96225019107E+02  0.38292734910E+02  0.16271316979E+03  0.12500000000E+03 0.  0.
         25    1    1    2    0    0 -0.80634485033E+02  0.12882976533E+03  0.18086665460E+03  0.26727658962E+03  0.12500000000E+03 0.  0.
         25    1    1    2    0    0  0.69454691918E+02 -0.32604746228E+02 -0.74383245090E+02  0.16445330905E+03  0.12500000000E+03 0.  0.
</event>
<event>
 5    0  0.5532658E-005  0.2144729E+03  0.7546771E-02  0.1138072E+00
         21   -1    0    0  502  501  0.00000000000E+00  0.00000000000E+00  0.28127264961E+03  0.28127264961E+03  0.00000000000E+00 0. -1.
         21   -1    0    0  501  502 -0.00000000000E+00 -0.00000000000E+00 -0.16353747655E+03  0.16353747655E+03  0.00000000000E+00 0. -1.
         25    1    1    2    0    0 -0.26996403570E+02 -0.16102808054E+02  0.13729339520E+03  0.18831511516E+03  0.12500000000E+03 0.  0.
         25    1    1    2    0    0  0.99107264804E+01  0.21810765153E+02  0.68999847526E+01  0.12746192281E+03  0.12500000000E+03 0.  0.
         25    1    1    2    0    0  0.17085677089E+02 -0.57079570993E+01 -0.26458206893E+02  0.12903308819E+03  0.12500000000E+03 0.  0.
</event>
<event>
 5    0  0.5532658E-005  0.4689812E+03  0.7546771E-02  0.1022208E+00
         21   -1    0    0  502  501  0.00000000000E+00  0.00000000000E+00  0.87256091536E+03  0.87256091536E+03  0.00000000000E+00 0.  1.
         21   -1    0    0  501  502 -0.00000000000E+00 -0.00000000000E+00 -0.25206645399E+03  0.25206645399E+03  0.00000000000E+00 0.  1.
         25    1    1    2    0    0 -0.32492317607E+02 -0.89891788211E+02  0.68978523297E+03  0.70750614974E+03  0.12500000000E+03 0.  0.
         25    1    1    2    0    0  0.15819651857E+03 -0.45755481691E+01 -0.77568094545E+02  0.21607610562E+03  0.12500000000E+03 0.  0.
         25    1    1    2    0    0 -0.12570420096E+03  0.94467336380E+02  0.82773229494E+01  0.20104511399E+03  0.12500000000E+03 0.  0.
</event>
<event>
 5    0  0.5532658E-005  0.3414461E+03  0.7546771E-02  0.1066182E+00
         21   -1    0    0  502  501  0.00000000000E+00  0.00000000000E+00  0.14373032072E+03  0.14373032072E+03  0.00000000000E+00 0. -1.
         21   -1    0    0  501  502 -0.00000000000E+00 -0.00000000000E+00 -0.81114035411E+03  0.81114035411E+03  0.00000000000E+00 0. -1.
         25    1    1    2    0    0 -0.11173028002E+03 -0.18236232040E+03 -0.41747346763E+03  0.48543667718E+03  0.12500000000E+03 0.  0.
         25    1    1    2    0    0  0.12210692977E+03  0.11795653668E+03 -0.25181801332E+03  0.32842222622E+03  0.12500000000E+03 0.  0.
         25    1    1    2    0    0 -0.10376649757E+02  0.64405783724E+02  0.18814475541E+01  0.14101177143E+03  0.12500000000E+03 0.  0.
</event>
<event>
 5    0  0.5532658E-005  0.2937371E+03  0.7546771E-02  0.1088414E+00
         21   -1    0    0  502  501  0.00000000000E+00  0.00000000000E+00  0.70577980801E+02  0.70577980801E+02  0.00000000000E+00 0. -1.
         21   -1    0    0  501  502 -0.00000000000E+00 -0.00000000000E+00 -0.12224983546E+04  0.12224983546E+04  0.00000000000E+00 0. -1.
         25    1    1    2    0    0  0.59133780225E+02 -0.20188943668E+02 -0.42089116194E+03  0.44348479975E+03  0.12500000000E+03 0.  0.
         25    1    1    2    0    0  0.47694256295E+02  0.98578495808E+01 -0.41164426835E+02  0.14032615337E+03  0.12500000000E+03 0.  0.
         25    1    1    2    0    0 -0.10682803652E+03  0.10331094087E+02 -0.68986478501E+03  0.70926538227E+03  0.12500000000E+03 0.  0.
</event>
<event>
 5    0  0.5532658E-005  0.2984011E+03  0.7546771E-02  0.1086043E+00
         21   -1    0    0  502  501  0.00000000000E+00  0.00000000000E+00  0.25977721667E+03  0.25977721667E+03  0.00000000000E+00 0. -1.
         21   -1    0    0  501  502 -0.00000000000E+00 -0.00000000000E+00 -0.34276760675E+03  0.34276760675E+03  0.00000000000E+00 0. -1.
         25    1    1    2    0    0 -0.10044980628E+03  0.52830713906E+02  0.14973509032E+02  0.16950060144E+03  0.12500000000E+03 0.  0.
         25    1    1    2    0    0 -0.35768112320E+02 -0.77066101162E+02 -0.17505585798E+03  0.23127493427E+03  0.12500000000E+03 0.  0.
         25    1    1    2    0    0  0.13621791860E+03  0.24235387256E+02  0.77091958873E+02  0.20176928772E+03  0.12500000000E+03 0.  0.
</event>
<event>
 5    0  0.5532658E-005  0.2368193E+03  0.7546771E-02  0.1121930E+00
         21   -1    0    0  502  501  0.00000000000E+00  0.00000000000E+00  0.85491780070E+03  0.85491780070E+03  0.00000000000E+00 0.  1.
         21   -1    0    0  501  502 -0.00000000000E+00 -0.00000000000E+00 -0.65600882288E+02  0.65600882288E+02  0.00000000000E+00 0.  1.
         25    1    1    2    0    0  0.10587361299E+02  0.97624793455E+02  0.13139783651E+03  0.20623550605E+03  0.12500000000E+03 0.  0.
         25    1    1    2    0    0 -0.25933832655E+02 -0.17968695777E+02  0.31766627376E+03  0.34282983999E+03  0.12500000000E+03 0.  0.
         25    1    1    2    0    0  0.15346471357E+02 -0.79656097678E+02  0.34025280814E+03  0.37145333695E+03  0.12500000000E+03 0.  0.
</event>
<event>
 5    0  0.5532658E-005  0.2971370E+03  0.7546771E-02  0.1086681E+00
         21   -1    0    0  502  501  0.00000000000E+00  0.00000000000E+00  0.30453812518E+03  0.30453812518E+03  0.00000000000E+00 0. -1.
         21   -1    0    0  501  502 -0.00000000000E+00 -0.00000000000E+00 -0.28991579440E+03  0.28991579440E+03  0.00000000000E+00 0. -1.
         25    1    1    2    0    0 -0.92792082408E+02 -0.10686600187E+02 -0.48925596653E+02  0.16353375183E+03  0.12500000000E+03 0.  0.
         25    1    1    2    0    0  0.13431432495E+03  0.82619442847E+02  0.15603423137E+03  0.25463305281E+03  0.12500000000E+03 0.  0.
         25    1    1    2    0    0 -0.41522242544E+02 -0.71932842660E+02 -0.92486303929E+02  0.17628711494E+03  0.12500000000E+03 0.  0.
</event>
<event>
 5    0  0.5532658E-005  0.2650123E+03  0.7546771E-02  0.1104169E+00
         21   -1    0    0  502  501  0.00000000000E+00  0.00000000000E+00  0.19039712043E+03  0.19039712043E+03  0.00000000000E+00 0.  1.
         21   -1    0    0  501  502 -0.00000000000E+00 -0.00000000000E+00 -0.36886854419E+03  0.36886854419E+03  0.00000000000E+00 0.  1.
         25    1    1    2    0    0  0.23482294277E+02 -0.54391423369E+01  0.34148535852E+02  0.13180335699E+03  0.12500000000E+03 0.  0.
         25    1    1    2    0    0  0.83944279316E+02  0.36994457601E+02 -0.20820016579E+03  0.25959110339E+03  0.12500000000E+03 0.  0.
         25    1    1    2    0    0 -0.10742657359E+03 -0.31555315264E+02 -0.44197938166E+01  0.16787120424E+03  0.12500000000E+03 0.  0.
</event>
<event>
 5    0  0.5532658E-005  0.2449503E+03  0.7546771E-02  0.1116538E+00
         21   -1    0    0  502  501  0.00000000000E+00  0.00000000000E+00  0.52243091326E+02  0.52243091326E+02  0.00000000000E+00 0. -1.
         21   -1    0    0  501  502 -0.00000000000E+00 -0.00000000000E+00 -0.11484894995E+04  0.11484894995E+04  0.00000000000E+00 0. -1.
         25    1    1    2    0    0  0.31444419200E+01  0.88197782793E+02 -0.35993764299E+03  0.39111231539E+03  0.12500000000E+03 0.  0.
         25    1    1    2    0    0 -0.85211258204E+02 -0.11146558875E+02 -0.22505624608E+03  0.27140471293E+03  0.12500000000E+03 0.  0.
         25    1    1    2    0    0  0.82066816284E+02 -0.77051223919E+02 -0.51125251910E+03  0.53821556251E+03  0.12500000000E+03 0.  0.
</event>
<event>
 5    0  0.5532658E-005  0.4775185E+03  0.7546771E-02  0.1019819E+00
         21   -1    0    0  502  501  0.00000000000E+00  0.00000000000E+00  0.33741197641E+03  0.33741197641E+03  0.00000000000E+00 0.  1.
         21   -1    0    0  501  502 -0.00000000000E+00 -0.00000000000E+00 -0.67580255083E+03  0.67580255083E+03  0.00000000000E+00 0.  1.
         25    1    1    2    0    0  0.26234643107E+03  0.66488841262E+02 -0.70440096069E+02  0.30632209036E+03  0.12500000000E+03 0.  0.
         25    1    1    2    0    0 -0.27296776638E+03  0.18102461543E+03 -0.24651775410E+03  0.42857591621E+03  0.12500000000E+03 0.  0.
         25    1    1    2    0    0  0.10621335311E+02 -0.24751345669E+03 -0.21432724248E+02  0.27831652067E+03  0.12500000000E+03 0.  0.
</event>
<event>
 5    0  0.5532658E-005  0.3421378E+03  0.7546771E-02  0.1065889E+00
         21   -1    0    0  502  501  0.00000000000E+00  0.00000000000E+00  0.33310648146E+03  0.33310648146E+03  0.00000000000E+00 0.  1.
         21   -1    0    0  501  502 -0.00000000000E+00 -0.00000000000E+00 -0.35141402903E+03  0.35141402903E+03  0.00000000000E+00 0.  1.
         25    1    1    2    0    0 -0.19850524894E+01  0.19247066965E+03 -0.32021124429E+02  0.23173098955E+03  0.12500000000E+03 0.  0.
         25    1    1    2    0    0  0.16281982494E+03 -0.10909070100E+03  0.47701756899E+01  0.23250555051E+03  0.12500000000E+03 0.  0.
         25    1    1    2    0    0 -0.16083477246E+03 -0.83379968650E+02  0.89434011685E+01  0.22028397043E+03  0.12500000000E+03 0.  0.
</event>
<event>
 5    0  0.5532658E-005  0.2775876E+03  0.7546771E-02  0.1097014E+00
         21   -1    0    0  502  501  0.00000000000E+00  0.00000000000E+00  0.40097561967E+04  0.40097561967E+04  0.00000000000E+00 0. -1.
         21   -1    0    0  501  502 -0.00000000000E+00 -0.00000000000E+00 -0.19216854879E+02  0.19216854879E+02  0.00000000000E+00 0. -1.
         25    1    1    2    0    0 -0.90084083022E+02  0.79321737260E+01  0.10674958120E+04  0.10785872102E+04  0.12500000000E+03 0.  0.
         25    1    1    2    0    0 -0.72590756901E+01 -0.11781331185E+03  0.20025428977E+04  0.20099093829E+04  0.12500000000E+03 0.  0.
         25    1    1    2    0    0  0.97343158712E+02  0.10988113812E+03  0.92050063217E+03  0.94047645845E+03  0.12500000000E+03 0.  0.
</event>
<event>
 5    0  0.5532658E-005  0.2632458E+03  0.7546771E-02  0.1105209E+00
         21   -1    0    0  502  501  0.00000000000E+00  0.00000000000E+00  0.22816081762E+03  0.22816081762E+03  0.00000000000E+00 0.  1.
         21   -1    0    0  501  502 -0.00000000000E+00 -0.00000000000E+00 -0.30372579391E+03  0.30372579391E+03  0.00000000000E+00 0.  1.
         25    1    1    2    0    0  0.96721905408E+02  0.10045087487E+03 -0.32391967517E+01  0.18729921955E+03  0.12500000000E+03 0.  0.
         25    1    1    2    0    0  0.28218961313E+02 -0.72053993215E+02  0.10426299581E+02  0.14738315860E+03  0.12500000000E+03 0.  0.
         25    1    1    2    0    0 -0.12494086672E+03 -0.28396881652E+02 -0.82752079122E+02  0.19720423338E+03  0.12500000000E+03 0.  0.
</event>
<event>
 5    0  0.5532658E-005  0.2948143E+03  0.7546771E-02  0.1087862E+00
         21   -1    0    0  502  501  0.00000000000E+00  0.00000000000E+00  0.68357807370E+02  0.68357807370E+02  0.00000000000E+00 0.  1.
         21   -1    0    0  501  502 -0.00000000000E+00 -0.00000000000E+00 -0.12714787681E+04  0.12714787681E+04  0.00000000000E+00 0.  1.
         25    1    1    2    0    0  0.18266418426E+03 -0.18759120740E+02 -0.62098541397E+03  0.65951951692E+03  0.12500000000E+03 0.  0.
         25    1    1    2    0    0 -0.18710589606E+03  0.66571224113E+01 -0.40083474181E+03  0.45972429114E+03  0.12500000000E+03 0.  0.
         25    1    1    2    0    0  0.44417117929E+01  0.12101998328E+02 -0.18130080499E+03  0.22059276746E+03  0.12500000000E+03 0.  0.
</event>
<event>
 5    0  0.5532658E-005  0.2334785E+03  0.7546771E-02  0.1124215E+00
         21   -1    0    0  502  501  0.00000000000E+00  0.00000000000E+00  0.79655242358E+02  0.79655242358E+02  0.00000000000E+00 0.  1.
         21   -1    0    0  501  502 -0.00000000000E+00 -0.00000000000E+00 -0.68435159513E+03  0.68435159513E+03  0.00000000000E+00 0.  1.
         25    1    1    2    0    0 -0.50643112599E+02  0.38475703298E+02 -0.28461024050E+03  0.31729023558E+03  0.12500000000E+03 0.  0.
         25    1    1    2    0    0  0.70743128081E+02  0.24169962062E+02 -0.24926960344E+03  0.28870246351E+03  0.12500000000E+03 0.  0.
         25    1    1    2    0    0 -0.20100015482E+02 -0.62645665360E+02 -0.70816508835E+02  0.15801413840E+03  0.12500000000E+03 0.  0.
</event>
<event>
 5    0  0.5532658E-005  0.4063695E+03  0.7546771E-02  0.1041596E+00
         21   -1    0    0  502  501  0.00000000000E+00  0.00000000000E+00  0.93981613189E+03  0.93981613189E+03  0.00000000000E+00 0.  1.
         21   -1    0    0  501  502 -0.00000000000E+00 -0.00000000000E+00 -0.17571111638E+03  0.17571111638E+03  0.00000000000E+00 0.  1.
         25    1    1    2    0    0 -0.16913337481E+03 -0.13364727754E+03  0.67241880020E+03  0.71710510815E+03  0.12500000000E+03 0.  0.
         25    1    1    2    0    0  0.96896565845E+02  0.86141101580E+01 -0.43706400070E+02  0.16431188872E+03  0.12500000000E+03 0.  0.
         25    1    1    2    0    0  0.72236808969E+02  0.12503316739E+03  0.13539261538E+03  0.23411025141E+03  0.12500000000E+03 0.  0.
</event>
<event>
 5    0  0.5532658E-005  0.3672437E+03  0.7546771E-02  0.1055752E+00
         21   -1    0    0  502  501  0.00000000000E+00  0.00000000000E+00  0.19989671194E+03  0.19989671194E+03  0.00000000000E+00 0.  1.
         21   -1    0    0  501  502 -0.00000000000E+00 -0.00000000000E+00 -0.67468817673E+03  0.67468817673E+03  0.00000000000E+00 0.  1.
         25    1    1    2    0    0 -0.26210159658E+03 -0.20875932865E+02 -0.36513863394E+02  0.29341321327E+03  0.12500000000E+03 0.  0.
         25    1    1    2    0    0  0.17118001463E+03  0.26035010444E+02 -0.17618438050E+03  0.27685078131E+03  0.12500000000E+03 0.  0.
         25    1    1    2    0    0  0.90921581954E+02 -0.51590775791E+01 -0.26209322089E+03  0.30432089409E+03  0.12500000000E+03 0.  0.
</event>
<event>
 5    0  0.5532658E-005  0.4005705E+03  0.7546771E-02  0.1043582E+00
         21   -1    0    0  502  501  0.00000000000E+00  0.00000000000E+00  0.31939581224E+03  0.31939581224E+03  0.00000000000E+00 0.  1.
         21   -1    0    0  501  502 -0.00000000000E+00 -0.00000000000E+00 -0.50237581298E+03  0.50237581298E+03  0.00000000000E+00 0.  1.
         25    1    1    2    0    0 -0.15924233832E+03  0.26078453436E+03 -0.23825524454E+03  0.40713297241E+03  0.12500000000E+03 0.  0.
         25    1    1    2    0    0  0.11534829093E+03 -0.15221938425E+03 -0.16657835803E+02  0.22886339300E+03  0.12500000000E+03 0.  0.
         25    1    1    2    0    0  0.43894047389E+02 -0.10856515011E+03  0.71933079605E+02  0.18577525981E+03  0.12500000000E+03 0.  0.
</event>
<event>
 5    0  0.5532658E-005  0.3770034E+03  0.7546771E-02  0.1052047E+00
         21   -1    0    0  502  501  0.00000000000E+00  0.00000000000E+00  0.87260675755E+03  0.87260675755E+03  0.00000000000E+00 0.  1.
         21   -1    0    0  501  502 -0.00000000000E+00 -0.00000000000E+00 -0.16288161220E+03  0.16288161220E+03  0.00000000000E+00 0.  1.
         25    1    1    2    0    0 -0.87778820296E+02 -0.34107688720E+02  0.35498566856E+03  0.38795396712E+03  0.12500000000E+03 0.  0.
         25    1    1    2    0    0 -0.28955420848E+02  0.10769103733E+03 -0.71705546720E+02  0.18221542566E+03  0.12500000000E+03 0.  0.
         25    1    1    2    0    0  0.11673424114E+03 -0.73583348610E+02  0.42644502350E+03  0.46531897696E+03  0.12500000000E+03 0.  0.
</event>
<event>
 5    0  0.5532658E-005  0.2570515E+03  0.7546771E-02  0.1108928E+00
         21   -1    0    0  502  501  0.00000000000E+00  0.00000000000E+00  0.31431500975E+02  0.31431500975E+02  0.00000000000E+00 0.  1.
         21   -1    0    0  501  502 -0.00000000000E+00 -0.00000000000E+00 -0.21022061880E+04  0.21022061880E+04  0.00000000000E+00 0.  1.
         25    1    1    2    0    0  0.40810529290E+02  0.12888728263E+03 -0.83961809661E+03  0.85957022929E+03  0.12500000000E+03 0.  0.
         25    1    1    2    0    0 -0.98906536876E+02 -0.95824165493E+02 -0.68015661740E+03  0.70512608654E+03  0.12500000000E+03 0.  0.
         25    1    1    2    0    0  0.58096007587E+02 -0.33063117137E+02 -0.55099997298E+03  0.56894137311E+03  0.12500000000E+03 0.  0.
</event>
<event>
 5    0  0.5532658E-005  0.2256011E+03  0.7546771E-02  0.1129775E+00
         21   -1    0    0  502  501  0.00000000000E+00  0.00000000000E+00  0.40587196795E+03  0.40587196795E+03  0.00000000000E+00 0. -1.
         21   -1    0    0  501  502 -0.00000000000E+00 -0.00000000000E+00 -0.12539875233E+03  0.12539875233E+03  0.00000000000E+00 0. -1.
         25    1    1    2    0    0  0.71914578605E+02 -0.46793089879E+02  0.19958993873E+03  0.25064405741E+03  0.12500000000E+03 0.  0.
         25    1    1    2    0    0 -0.34361959138E+02  0.47744790642E+02  0.39002407063E+02  0.14354963262E+03  0.12500000000E+03 0.  0.
         25    1    1    2    0    0 -0.37552619467E+02 -0.95170076250E+00  0.41880869832E+02  0.13707703025E+03  0.12500000000E+03 0.  0.
</event>
<event>
 5    0  0.5532658E-005  0.3921508E+03  0.7546771E-02  0.1046532E+00
         21   -1    0    0  502  501  0.00000000000E+00  0.00000000000E+00  0.12658365131E+04  0.12658365131E+04  0.00000000000E+00 0. -1.
         21   -1    0    0  501  502 -0.00000000000E+00 -0.00000000000E+00 -0.12148664570E+03  0.12148664570E+03  0.00000000000E+00 0. -1.
         25    1    1    2    0    0  0.14029735388E+03  0.40175409188E+02  0.29585389457E+03  0.35277746235E+03  0.12500000000E+03 0.  0.
         25    1    1    2    0    0 -0.16043367111E+03  0.21725354735E+03  0.35020095189E+03  0.45956911708E+03  0.12500000000E+03 0.  0.
         25    1    1    2    0    0  0.20136317236E+02 -0.25742895654E+03  0.49829502089E+03  0.57497657933E+03  0.12500000000E+03 0.  0.
</event>
<event>
 5    0  0.5532658E-005  0.2757707E+03  0.7546771E-02  0.1098022E+00
         21   -1    0    0  502  501  0.00000000000E+00  0.00000000000E+00  0.34701717075E+02  0.34701717075E+02  0.00000000000E+00 0.  1.
         21   -1    0    0  501  502 -0.00000000000E+00 -0.00000000000E+00 -0.21915184129E+04  0.21915184129E+04  0.00000000000E+00 0.  1.
         25    1    1    2    0    0  0.10759251672E+03 -0.57147503630E+02 -0.12583302704E+04  0.12703787059E+04  0.12500000000E+03 0.  0.
         25    1    1    2    0    0 -0.59484097514E+02  0.11257068442E+03 -0.55650283709E+03  0.58440647202E+03  0.12500000000E+03 0.  0.
         25    1    1    2    0    0 -0.48108419205E+02 -0.55423180787E+02 -0.34198358827E+03  0.37143495206E+03  0.12500000000E+03 0.  0.
</event>
<event>
 5    0  0.5532658E-005  0.2444584E+03  0.7546771E-02  0.1116858E+00
         21   -1    0    0  502  501  0.00000000000E+00  0.00000000000E+00  0.57170956425E+03  0.57170956425E+03  0.00000000000E+00 0. -1.
         21   -1    0    0  501  502 -0.00000000000E+00 -0.00000000000E+00 -0.10452844576E+03  0.10452844576E+03  0.00000000000E+00 0. -1.
         25    1    1    2    0    0 -0.50509745332E+02  0.63160632472E+02  0.33230345057E+03  0.36413058527E+03  0.12500000000E+03 0.  0.
         25    1    1    2    0    0  0.71567708558E+02 -0.55539170441E+02  0.78009414497E+02  0.17296532922E+03  0.12500000000E+03 0.  0.
         25    1    1    2    0    0 -0.21057963226E+02 -0.76214620305E+01  0.56868253424E+02  0.13914209552E+03  0.12500000000E+03 0.  0.
</event>
<event>
 5    0  0.5532658E-005  0.2708280E+03  0.7546771E-02  0.1100807E+00
         21   -1    0    0  502  501  0.00000000000E+00  0.00000000000E+00  0.17351659837E+03  0.17351659837E+03  0.00000000000E+00 0.  1.
         21   -1    0    0  501  502 -0.00000000000E+00 -0.00000000000E+00 -0.42271341625E+03  0.42271341625E+03  0.00000000000E+00 0.  1.
         25    1    1    2    0    0  0.18244652092E+02 -0.41744085188E+01 -0.18687479055E+03  0.22560469933E+03  0.12500000000E+03 0.  0.
         25    1    1    2    0    0 -0.10257624088E+03 -0.75350255240E+02 -0.86823410646E+02  0.19840073285E+03  0.12500000000E+03 0.  0.
         25    1    1    2    0    0  0.84331588792E+02  0.79524663758E+02  0.24501383304E+02  0.17222458244E+03  0.12500000000E+03 0.  0.
</event>
<event>
 5    0  0.5532658E-005  0.2706079E+03  0.7546771E-02  0.1100932E+00
         21   -1    0    0  502  501  0.00000000000E+00  0.00000000000E+00  0.94400337686E+03  0.94400337686E+03  0.00000000000E+00 0.  1.
         21   -1    0    0  501  502 -0.00000000000E+00 -0.00000000000E+00 -0.77572433335E+02  0.77572433335E+02  0.00000000000E+00 0.  1.
         25    1    1    2    0    0 -0.53132082789E+02  0.84659600480E+02  0.12639011123E+03  0.20393559373E+03  0.12500000000E+03 0.  0.
         25    1    1    2    0    0 -0.80293168965E+02 -0.69041512551E+02  0.36737492499E+03  0.40224750956E+03  0.12500000000E+03 0.  0.
         25    1    1    2    0    0  0.13342525175E+03 -0.15618087929E+02  0.37266590731E+03  0.41539270690E+03  0.12500000000E+03 0.  0.
</event>
<event>
 5    0  0.5532658E-005  0.2470927E+03  0.7546771E-02  0.1115156E+00
         21   -1    0    0  502  501  0.00000000000E+00  0.00000000000E+00  0.26480070281E+03  0.26480070281E+03  0.00000000000E+00 0.  1.
         21   -1    0    0  501  502 -0.00000000000E+00 -0.00000000000E+00 -0.23056896861E+03  0.23056896861E+03  0.00000000000E+00 0.  1.
         25    1    1    2    0    0  0.72005233966E+02  0.48696795091E+02  0.10446717538E+03  0.18464702083E+03  0.12500000000E+03 0.  0.
         25    1    1    2    0    0 -0.13833571820E+02 -0.94586386196E+02 -0.35332122487E+02  0.16128022521E+03  0.12500000000E+03 0.  0.
         25    1    1    2    0    0 -0.58171662146E+02  0.45889591105E+02 -0.34903318688E+02  0.14944242538E+03  0.12500000000E+03 0.  0.
</event>
<event>
 5    0  0.5532658E-005  0.3839504E+03  0.7546771E-02  0.1049483E+00
         21   -1    0    0  502  501  0.00000000000E+00  0.00000000000E+00  0.37052038989E+03  0.37052038989E+03  0.00000000000E+00 0.  1.
         21   -1    0    0  501  502 -0.00000000000E+00 -0.00000000000E+00 -0.39786729458E+03  0.39786729458E+03  0.00000000000E+00 0.  1.
         25    1    1    2    0    0  0.78203947650E+02 -0.20511629931E+03 -0.66315401156E+00  0.25261431757E+03  0.12500000000E+03 0.  0.
         25    1    1    2    0    0 -0.77184078675E+02  0.31352311288E+03 -0.45627943558E+02  0.34922919916E+03  0.12500000000E+03 0.  0.
         25    1    1    2    0    0 -0.10198689743E+01 -0.10840681358E+03  0.18944192879E+02  0.16654416773E+03  0.12500000000E+03 0.  0.
</event>
<event>
 5    0  0.5532658E-005  0.8623566E+03  0.7546771E-02  0.9473901E-01
         21   -1    0    0  502  501  0.00000000000E+00  0.00000000000E+00  0.23201263911E+04  0.23201263911E+04  0.00000000000E+00 0. -1.
         21   -1    0    0  501  502 -0.00000000000E+00 -0.00000000000E+00 -0.32052513474E+03  0.32052513474E+03  0.00000000000E+00 0. -1.
         25    1    1    2    0    0 -0.31250168076E+03 -0.33488303928E+03  0.34523483161E+03  0.58704006629E+03  0.12500000000E+03 0.  0.
         25    1    1    2    0    0  0.33035632821E+03  0.47243652348E+03  0.17479152299E+04  0.18447667125E+04  0.12500000000E+03 0.  0.
         25    1    1    2    0    0 -0.17854647458E+02 -0.13755348420E+03 -0.93548805164E+02  0.20884474712E+03  0.12500000000E+03 0.  0.
</event>
<event>
 5    0  0.5532658E-005  0.2364380E+03  0.7546771E-02  0.1122189E+00
         21   -1    0    0  502  501  0.00000000000E+00  0.00000000000E+00  0.73512956729E+02  0.73512956729E+02  0.00000000000E+00 0. -1.
         21   -1    0    0  501  502 -0.00000000000E+00 -0.00000000000E+00 -0.76044981712E+03  0.76044981712E+03  0.00000000000E+00 0. -1.
         25    1    1    2    0    0 -0.26065524384E+01 -0.45026821800E+02 -0.16203972436E+03  0.20956164026E+03  0.12500000000E+03 0.  0.
         25    1    1    2    0    0  0.27174894590E+02  0.10978490421E+03 -0.15957054529E+03  0.23211841593E+03  0.12500000000E+03 0.  0.
         25    1    1    2    0    0 -0.24568342151E+02 -0.64758082413E+02 -0.36532659075E+03  0.39228271767E+03  0.12500000000E+03 0.  0.
</event>
<event>
 5    0  0.5532658E-005  0.3156214E+03  0.7546771E-02  0.1077682E+00
         21   -1    0    0  502  501  0.00000000000E+00  0.00000000000E+00  0.56075848145E+02  0.56075848145E+02  0.00000000000E+00 0.  1.
         21   -1    0    0  501  502 -0.00000000000E+00 -0.00000000000E+00 -0.17764662720E+04  0.17764662720E+04  0.00000000000E+00 0.  1.
         25    1    1    2    0    0 -0.13090867469E+03  0.11621117473E+02 -0.41136422860E+03  0.44957497712E+03  0.12500000000E+03 0.  0.
         25    1    1    2    0    0  0.53566987220E+02 -0.17685557324E+03 -0.72105421298E+03  0.75477910276E+03  0.12500000000E+03 0.  0.
         25    1    1    2    0    0  0.77341687468E+02  0.16523445576E+03 -0.58797198224E+03  0.62818804023E+03  0.12500000000E+03 0.  0.
</event>
<event>
 5    0  0.5532658E-005  0.3054910E+03  0.7546771E-02  0.1082527E+00
         21   -1    0    0  502  501  0.00000000000E+00  0.00000000000E+00  0.85104995325E+02  0.85104995325E+02  0.00000000000E+00 0. -1.
         21   -1    0    0  501  502 -0.00000000000E+00 -0.00000000000E+00 -0.10965834471E+04  0.10965834471E+04  0.00000000000E+00 0. -1.
         25    1    1    2    0    0  0.84333634337E+02 -0.21021611218E+02 -0.54823384840E+02  0.16181679006E+03  0.12500000000E+03 0.  0.
         25    1    1    2    0    0 -0.55271906057E+02  0.28390918046E+02 -0.15755463603E+03  0.21049819752E+03  0.12500000000E+03 0.  0.
         25    1    1    2    0    0 -0.29061728280E+02 -0.73693068273E+01 -0.79910043094E+03  0.80937345488E+03  0.12500000000E+03 0.  0.
</event>
<event>
 5    0  0.5532658E-005  0.4322032E+03  0.7546771E-02  0.1033166E+00
         21   -1    0    0  502  501  0.00000000000E+00  0.00000000000E+00  0.17889846996E+03  0.17889846996E+03  0.00000000000E+00 0. -1.
         21   -1    0    0  501  502 -0.00000000000E+00 -0.00000000000E+00 -0.10441653106E+04  0.10441653106E+04  0.00000000000E+00 0. -1.
         25    1    1    2    0    0  0.21181829605E+03 -0.10423891175E+03 -0.63321521335E+01  0.26720373765E+03  0.12500000000E+03 0.  0.
         25    1    1    2    0    0 -0.14447365562E+03  0.51482382156E+02 -0.73189187502E+03  0.75816475094E+03  0.12500000000E+03 0.  0.
         25    1    1    2    0    0 -0.67344640427E+02  0.52756529596E+02 -0.12704281346E+03  0.19769529196E+03  0.12500000000E+03 0.  0.
</event>
<event>
 5    0  0.5532658E-005  0.2663933E+03  0.7546771E-02  0.1103362E+00
         21   -1    0    0  502  501  0.00000000000E+00  0.00000000000E+00  0.78162373943E+03  0.78162373943E+03  0.00000000000E+00 0.  1.
         21   -1    0    0  501  502 -0.00000000000E+00 -0.00000000000E+00 -0.90792283359E+02  0.90792283359E+02  0.00000000000E+00 0.  1.
         25    1    1    2    0    0 -0.49429389997E+02  0.66636247706E+02  0.26101307339E+03  0.30105892876E+03  0.12500000000E+03 0.  0.
         25    1    1    2    0    0  0.50092240277E+02  0.99722092910E+02  0.17352088727E+03  0.24122235939E+03  0.12500000000E+03 0.  0.
         25    1    1    2    0    0 -0.66285028034E+00 -0.16635834062E+03  0.25629749540E+03  0.33013473463E+03  0.12500000000E+03 0.  0.
</event>
<event>
 5    0  0.5532658E-005  0.2234754E+03  0.7546771E-02  0.1131318E+00
         21   -1    0    0  502  501  0.00000000000E+00  0.00000000000E+00  0.93376887399E+02  0.93376887399E+02  0.00000000000E+00 0.  1.
         21   -1    0    0  501  502 -0.00000000000E+00 -0.00000000000E+00 -0.53483519571E+03  0.53483519571E+03  0.00000000000E+00 0.  1.
         25    1    1    2    0    0  0.78787526271E+02 -0.75845645182E+02 -0.16409390364E+03  0.23347771928E+03  0.12500000000E+03 0.  0.
         25    1    1    2    0    0 -0.15412916002E+02  0.50214950505E+02 -0.10750942493E+03  0.17303865373E+03  0.12500000000E+03 0.  0.
         25    1    1    2    0    0 -0.63374610269E+02  0.25630694677E+02 -0.16985497974E+03  0.22169571010E+03  0.12500000000E+03 0.  0.
</event>
<event>
 5    0  0.5532658E-005  0.5422301E+03  0.7546771E-02  0.1003309E+00
         21   -1    0    0  502  501  0.00000000000E+00  0.00000000000E+00  0.19840258816E+04  0.19840258816E+04  0.00000000000E+00 0. -1.
         21   -1    0    0  501  502 -0.00000000000E+00 -0.00000000000E+00 -0.14819035757E+03  0.14819035757E+03  0.00000000000E+00 0. -1.
         25    1    1    2    0    0 -0.72911780821E+02  0.73481016220E+02  0.83216435936E+03  0.84784320987E+03  0.12500000000E+03 0.  0.
         25    1    1    2    0    0  0.37956506911E+03 -0.19979134303E+03  0.57420790843E+03  0.72754789846E+03  0.12500000000E+03 0.  0.
         25    1    1    2    0    0 -0.30665328829E+03  0.12631032681E+03  0.42946325624E+03  0.55682513085E+03  0.12500000000E+03 0.  0.
</event>
<event>
 5    0  0.5532658E-005  0.4133383E+03  0.7546771E-02  0.1039257E+00
         21   -1    0    0  502  501  0.00000000000E+00  0.00000000000E+00  0.22886553734E+03  0.22886553734E+03  0.00000000000E+00 0. -1.
         21   -1    0    0  501  502 -0.00000000000E+00 -0.00000000000E+00 -0.74650194495E+03  0.74650194495E+03  0.00000000000E+00 0. -1.
         25    1    1    2    0    0 -0.13353343482E+03  0.10855358848E+03 -0.22321897865E+03  0.30832899996E+03  0.12500000000E+03 0.  0.
         25    1    1    2    0    0 -0.15522531558E+03 -0.21645823053E+02 -0.27461640936E+03  0.34000384196E+03  0.12500000000E+03 0.  0.
         25    1    1    2    0    0  0.28875875040E+03 -0.86907765432E+02 -0.19801019590E+02  0.32703464037E+03  0.12500000000E+03 0.  0.
</event>
<event>
 5    0  0.5532658E-005  0.2575108E+03  0.7546771E-02  0.1108648E+00
         21   -1    0    0  502  501  0.00000000000E+00  0.00000000000E+00  0.97555133136E+02  0.97555133136E+02  0.00000000000E+00 0. -1.
         21   -1    0    0  501  502 -0.00000000000E+00 -0.00000000000E+00 -0.67973660320E+03  0.67973660320E+03  0.00000000000E+00 0. -1.
         25    1    1    2    0    0  0.62650269212E+02  0.53962478754E+02 -0.21830845542E+03  0.26480292116E+03  0.12500000000E+03 0.  0.
         25    1    1    2    0    0 -0.31654308045E+02 -0.12322256197E+03 -0.84937332014E+02  0.19754783058E+03  0.12500000000E+03 0.  0.
         25    1    1    2    0    0 -0.30995961166E+02  0.69260083218E+02 -0.27893568263E+03  0.31494098460E+03  0.12500000000E+03 0.  0.
</event>
<event>
 5    0  0.5532658E-005  0.3142774E+03  0.7546771E-02  0.1078314E+00
         21   -1    0    0  502  501  0.00000000000E+00  0.00000000000E+00  0.37807476654E+03  0.37807476654E+03  0.00000000000E+00 0. -1.
         21   -1    0    0  501  502 -0.00000000000E+00 -0.00000000000E+00 -0.26124529225E+03  0.26124529225E+03  0.00000000000E+00 0. -1.
         25    1    1    2    0    0  0.92054226586E+02 -0.15480530602E+03  0.66195620798E+02  0.22900987668E+03  0.12500000000E+03 0.  0.
         25    1    1    2    0    0 -0.15259039614E+03  0.45539152427E+02  0.10144064882E+03  0.22643508701E+03  0.12500000000E+03 0.  0.
         25    1    1    2    0    0  0.60536169551E+02  0.10926615360E+03 -0.50806795330E+02  0.18387509510E+03  0.12500000000E+03 0.  0.
</event>
<event>
 5    0  0.5532658E-005  0.2659605E+03  0.7546771E-02  0.1103614E+00
         21   -1    0    0  502  501  0.00000000000E+00  0.00000000000E+00  0.12016686791E+04  0.12016686791E+04  0.00000000000E+00 0.  1.
         21   -1    0    0  501  502 -0.00000000000E+00 -0.00000000000E+00 -0.58863979341E+02  0.58863979341E+02  0.00000000000E+00 0.  1.
         25    1    1    2    0    0  0.21915298759E+02  0.66520006350E+02  0.15992502198E+03  0.21472355302E+03  0.12500000000E+03 0.  0.
         25    1    1    2    0    0 -0.82852228285E+01 -0.12457010053E+03  0.78270110182E+03  0.80239165602E+03  0.12500000000E+03 0.  0.
         25    1    1    2    0    0 -0.13630075930E+02  0.58050094177E+02  0.20017857600E+03  0.24341744944E+03  0.12500000000E+03 0.  0.
</event>
<event>
 5    0  0.5553936E-005  0.4108233E+03  0.7546771E-02  0.1040095E+00
         21   -1    0    0  502  501  0.00000000000E+00  0.00000000000E+00  0.41263375570E+03  0.41263375570E+03  0.00000000000E+00 0. -1.
         21   -1    0    0  501  502 -0.00000000000E+00 -0.00000000000E+00 -0.40902083376E+03  0.40902083376E+03  0.00000000000E+00 0. -1.
         25    1    1    2    0    0  0.18097677879E+03 -0.13158528176E+02  0.15331896766E+03  0.26843518243E+03  0.12500000000E+03 0.  0.
         25    1    1    2    0    0 -0.15364146690E+03  0.19996716138E+03  0.57788275498E+00  0.28145674611E+03  0.12500000000E+03 0.  0.
         25    1    1    2    0    0 -0.27335311885E+02 -0.18680863320E+03 -0.15028392847E+03  0.27176266092E+03  0.12500000000E+03 0.  0.
</event>
<event>
 5    0  0.5532658E-005  0.3789266E+03  0.7546771E-02  0.1051331E+00
         21   -1    0    0  502  501  0.00000000000E+00  0.00000000000E+00  0.79790928846E+03  0.79790928846E+03  0.00000000000E+00 0.  1.
         21   -1    0    0  501  502 -0.00000000000E+00 -0.00000000000E+00 -0.17995198383E+03  0.17995198383E+03  0.00000000000E+00 0.  1.
         25    1    1    2    0    0  0.36681677541E+02 -0.13606857881E+03  0.47218437396E+03  0.50837317653E+03  0.12500000000E+03 0.  0.
         25    1    1    2    0    0 -0.43066325159E+02 -0.51131447269E+02  0.19293756165E+03  0.23941394270E+03  0.12500000000E+03 0.  0.
         25    1    1    2    0    0  0.63846476176E+01  0.18720002608E+03 -0.47164630973E+02  0.23007415306E+03  0.12500000000E+03 0.  0.
</event>
<event>
 5    0  0.5532658E-005  0.2657803E+03  0.7546771E-02  0.1103719E+00
         21   -1    0    0  502  501  0.00000000000E+00  0.00000000000E+00  0.99441275201E+02  0.99441275201E+02  0.00000000000E+00 0.  1.
         21   -1    0    0  501  502 -0.00000000000E+00 -0.00000000000E+00 -0.71036085234E+03  0.71036085234E+03  0.00000000000E+00 0.  1.
         25    1    1    2    0    0 -0.35726194507E+01 -0.12010541518E+03 -0.26333941656E+03  0.31529466008E+03  0.12500000000E+03 0.  0.
         25    1    1    2    0    0  0.86927021793E+02  0.14957295807E+02 -0.87392003809E+02  0.17618850742E+03  0.12500000000E+03 0.  0.
         25    1    1    2    0    0 -0.83354402343E+02  0.10514811937E+03 -0.26018815677E+03  0.31831896004E+03  0.12500000000E+03 0.  0.
</event>
<event>
 5    0  0.5532658E-005  0.2739981E+03  0.7546771E-02  0.1099013E+00
         21   -1    0    0  502  501  0.00000000000E+00  0.00000000000E+00  0.19456927631E+03  0.19456927631E+03  0.00000000000E+00 0. -1.
         21   -1    0    0  501  502 -0.00000000000E+00 -0.00000000000E+00 -0.38585216196E+03  0.38585216196E+03  0.00000000000E+00 0. -1.
         25    1    1    2    0    0  0.13622583058E+02 -0.10604362541E+03  0.56876178153E+01  0.16458485427E+03  0.12500000000E+03 0.  0.
         25    1    1    2    0    0  0.73383612338E+00 -0.65394108378E+02 -0.27076293037E+02  0.14364906394E+03  0.12500000000E+03 0.  0.
         25    1    1    2    0    0 -0.14356419181E+02  0.17143773378E+03 -0.16989421043E+03  0.27218752006E+03  0.12500000000E+03 0.  0.
</event>
<event>
 5    0  0.5532658E-005  0.2240285E+03  0.7546771E-02  0.1130915E+00
         21   -1    0    0  502  501  0.00000000000E+00  0.00000000000E+00  0.14380642914E+04  0.14380642914E+04  0.00000000000E+00 0.  1.
         21   -1    0    0  501  502 -0.00000000000E+00 -0.00000000000E+00 -0.34900211762E+02  0.34900211762E+02  0.00000000000E+00 0.  1.
         25    1    1    2    0    0 -0.68027858859E+02  0.23937859524E+02  0.51905707747E+03  0.53874489359E+03  0.12500000000E+03 0.  0.
         25    1    1    2    0    0  0.53708722105E+02  0.61123048386E+02  0.47289764827E+03  0.49586070586E+03  0.12500000000E+03 0.  0.
         25    1    1    2    0    0  0.14319136755E+02 -0.85060907910E+02  0.41120935392E+03  0.43835890373E+03  0.12500000000E+03 0.  0.
</event>
<event>
 5    0  0.5532658E-005  0.2263955E+03  0.7546771E-02  0.1129203E+00
         21   -1    0    0  502  501  0.00000000000E+00  0.00000000000E+00  0.88814411529E+02  0.88814411529E+02  0.00000000000E+00 0.  1.
         21   -1    0    0  501  502 -0.00000000000E+00 -0.00000000000E+00 -0.57710150344E+03  0.57710150344E+03  0.00000000000E+00 0.  1.
         25    1    1    2    0    0 -0.62766792978E+02 -0.75687121840E+02 -0.18046596598E+03  0.24054350041E+03  0.12500000000E+03 0.  0.
         25    1    1    2    0    0  0.43514375389E+02 -0.20213661780E+02 -0.15809383036E+03  0.20717324196E+03  0.12500000000E+03 0.  0.
         25    1    1    2    0    0  0.19252417589E+02  0.95900783620E+02 -0.14972729557E+03  0.21819917260E+03  0.12500000000E+03 0.  0.
</event>
<event>
 5    0  0.5532658E-005  0.2941272E+03  0.7546771E-02  0.1088214E+00
         21   -1    0    0  502  501  0.00000000000E+00  0.00000000000E+00  0.71701226565E+03  0.71701226565E+03  0.00000000000E+00 0.  1.
         21   -1    0    0  501  502 -0.00000000000E+00 -0.00000000000E+00 -0.12065459256E+03  0.12065459256E+03  0.00000000000E+00 0.  1.
         25    1    1    2    0    0 -0.57492405806E+02  0.13278390251E+03  0.15694773539E+03  0.24737528805E+03  0.12500000000E+03 0.  0.
         25    1    1    2    0    0  0.92128910698E+02 -0.61343872634E+02  0.40528474178E+03  0.43832810635E+03  0.12500000000E+03 0.  0.
         25    1    1    2    0    0 -0.34636504892E+02 -0.71440029873E+02  0.34125195913E+02  0.15196346382E+03  0.12500000000E+03 0.  0.
</event>
<event>
 5    0  0.6794375E-005  0.3391617E+03  0.7546771E-02  0.1067154E+00
         21   -1    0    0  502  501  0.00000000000E+00  0.00000000000E+00  0.61968867043E+03  0.61968867043E+03  0.00000000000E+00 0. -1.
         21   -1    0    0  501  502 -0.00000000000E+00 -0.00000000000E+00 -0.18562658101E+03  0.18562658101E+03  0.00000000000E+00 0. -1.
         25    1    1    2    0    0 -0.13344151142E+02 -0.16347024157E+03  0.39547693728E+02  0.20997525171E+03  0.12500000000E+03 0.  0.
         25    1    1    2    0    0  0.13990580024E+03  0.18789681462E+03  0.25246720896E+03  0.36639260021E+03  0.12500000000E+03 0.  0.
         25    1    1    2    0    0 -0.12656164910E+03 -0.24426573047E+02  0.14204718674E+03  0.22894739953E+03  0.12500000000E+03 0.  0.
</event>
<event>
 5    0  0.5532658E-005  0.3136296E+03  0.7546771E-02  0.1078619E+00
         21   -1    0    0  502  501  0.00000000000E+00  0.00000000000E+00  0.24177500880E+03  0.24177500880E+03  0.00000000000E+00 0. -1.
         21   -1    0    0  501  502 -0.00000000000E+00 -0.00000000000E+00 -0.40683920332E+03  0.40683920332E+03  0.00000000000E+00 0. -1.
         25    1    1    2    0    0 -0.66284941706E+02  0.18475842609E+03 -0.90388723681E+02  0.24964873498E+03  0.12500000000E+03 0.  0.
         25    1    1    2    0    0  0.10604427403E+03 -0.17899837896E+03 -0.10460970703E+03  0.26429907024E+03  0.12500000000E+03 0.  0.
         25    1    1    2    0    0 -0.39759332325E+02 -0.57600471211E+01  0.29934236185E+02  0.13466640689E+03  0.12500000000E+03 0.  0.
</event>
<event>
 5    0  0.5532658E-005  0.3690890E+03  0.7546771E-02  0.1055042E+00
         21   -1    0    0  502  501  0.00000000000E+00  0.00000000000E+00  0.68748569940E+02  0.68748569940E+02  0.00000000000E+00 0.  1.
         21   -1    0    0  501  502 -0.00000000000E+00 -0.00000000000E+00 -0.19815198920E+04  0.19815198920E+04  0.00000000000E+00 0.  1.
         25    1    1    2    0    0 -0.31669484106E+02 -0.59836900237E+02 -0.42164564673E+03  0.44496456293E+03  0.12500000000E+03 0.  0.
         25    1    1    2    0    0 -0.19141441980E+03  0.18649610798E+03 -0.93171424301E+03  0.97731095821E+03  0.12500000000E+03 0.  0.
         25    1    1    2    0    0  0.22308390391E+03 -0.12665920774E+03 -0.55941143227E+03  0.62799294076E+03  0.12500000000E+03 0.  0.
</event>
<event>
 5    0  0.5532658E-005  0.3577738E+03  0.7546771E-02  0.1059469E+00
         21   -1    0    0  502  501  0.00000000000E+00  0.00000000000E+00  0.19476892809E+04  0.19476892809E+04  0.00000000000E+00 0.  1.
         21   -1    0    0  501  502 -0.00000000000E+00 -0.00000000000E+00 -0.65719983438E+02  0.65719983438E+02  0.00000000000E+00 0.  1.
         25    1    1    2    0    0 -0.12520176900E+03  0.18170894579E+03  0.13864674038E+04  0.14094717045E+04  0.12500000000E+03 0.  0.
         25    1    1    2    0    0  0.10940042126E+03 -0.11302153354E+03  0.30988083573E+03  0.36931484071E+03  0.12500000000E+03 0.  0.
         25    1    1    2    0    0  0.15801347743E+02 -0.68687412247E+02  0.18562105795E+03  0.23462271916E+03  0.12500000000E+03 0.  0.
</event>
<event>
 5    0  0.5532658E-005  0.3365543E+03  0.7546771E-02  0.1068273E+00
         21   -1    0    0  502  501  0.00000000000E+00  0.00000000000E+00  0.10336763085E+03  0.10336763085E+03  0.00000000000E+00 0. -1.
         21   -1    0    0  501  502 -0.00000000000E+00 -0.00000000000E+00 -0.10957859929E+04  0.10957859929E+04  0.00000000000E+00 0. -1.
         25    1    1    2    0    0  0.15497325731E+03 -0.15910942805E+03 -0.17875279962E+03  0.31130384506E+03  0.12500000000E+03 0.  0.
         25    1    1    2    0    0 -0.76322476053E+02  0.12039229124E+03 -0.56597003936E+03  0.59688064937E+03  0.12500000000E+03 0.  0.
         25    1    1    2    0    0 -0.78650781259E+02  0.38717136814E+02 -0.24769552310E+03  0.29096912936E+03  0.12500000000E+03 0.  0.
</event>
<event>
 5    0  0.5532658E-005  0.3393613E+03  0.7546771E-02  0.1067068E+00
         21   -1    0    0  502  501  0.00000000000E+00  0.00000000000E+00  0.78972955244E+03  0.78972955244E+03  0.00000000000E+00 0.  1.
         21   -1    0    0  501  502 -0.00000000000E+00 -0.00000000000E+00 -0.14582976589E+03  0.14582976589E+03  0.00000000000E+00 0.  1.
         25    1    1    2    0    0 -0.45459309806E+02 -0.11828741798E+03  0.11131360407E+03  0.20993851613E+03  0.12500000000E+03 0.  0.
         25    1    1    2    0    0 -0.19301134118E+02  0.22174429700E+03  0.47917345935E+03  0.54293210549E+03  0.12500000000E+03 0.  0.
         25    1    1    2    0    0  0.64760443924E+02 -0.10345687901E+03  0.53412723133E+02  0.18268869671E+03  0.12500000000E+03 0.  0.
</event>
<event>
 5    0  0.5532658E-005  0.4354537E+03  0.7546771E-02  0.1032151E+00
         21   -1    0    0  502  501  0.00000000000E+00  0.00000000000E+00  0.58984427501E+03  0.58984427501E+03  0.00000000000E+00 0. -1.
         21   -1    0    0  501  502 -0.00000000000E+00 -0.00000000000E+00 -0.32147449341E+03  0.32147449341E+03  0.00000000000E+00 0. -1.
         25    1    1    2    0    0 -0.19323094483E+03  0.29184545875E+02  0.43249885513E+02  0.23597772851E+03  0.12500000000E+03 0.  0.
         25    1    1    2    0    0  0.38167650106E+03 -0.29173318834E+02  0.19432739803E+03  0.44711986269E+03  0.12500000000E+03 0.  0.
         25    1    1    2    0    0 -0.18844555623E+03 -0.11227040672E-01  0.30792498061E+02  0.22822117721E+03  0.12500000000E+03 0.  0.
</event>
<event>
 5    0  0.6024489E-005  0.2851559E+03  0.7546771E-02  0.1092906E+00
         21   -1    0    0  502  501  0.00000000000E+00  0.00000000000E+00  0.15847193051E+03  0.15847193051E+03  0.00000000000E+00 0.  1.
         21   -1    0    0  501  502 -0.00000000000E+00 -0.00000000000E+00 -0.51311231842E+03  0.51311231842E+03  0.00000000000E+00 0.  1.
         25    1    1    2    0    0  0.12357248388E+03 -0.70554850035E+02 -0.17185979395E+03  0.25575170461E+03  0.12500000000E+03 0.  0.
         25    1    1    2    0    0  0.13762336778E+02  0.54981203255E+02  0.21943882414E+02  0.13899233288E+03  0.12500000000E+03 0.  0.
         25    1    1    2    0    0 -0.13733482065E+03  0.15573646780E+02 -0.20472447638E+03  0.27684021143E+03  0.12500000000E+03 0.  0.
</event>
<event>
 5    0  0.5532658E-005  0.4929032E+03  0.7546771E-02  0.1015648E+00
         21   -1    0    0  502  501  0.00000000000E+00  0.00000000000E+00  0.24829580981E+03  0.24829580981E+03  0.00000000000E+00 0.  1.
         21   -1    0    0  501  502 -0.00000000000E+00 -0.00000000000E+00 -0.97848436348E+03  0.97848436348E+03  0.00000000000E+00 0.  1.
         25    1    1    2    0    0 -0.16906503512E+02 -0.45178422891E+02 -0.24423192170E+03  0.27856983206E+03  0.12500000000E+03 0.  0.
         25    1    1    2    0    0 -0.23619434181E+03  0.12936504733E+03  0.82341949558E+02  0.30810433173E+03  0.12500000000E+03 0.  0.
         25    1    1    2    0    0  0.25310084532E+03 -0.84186624437E+02 -0.56829858153E+03  0.64010600951E+03  0.12500000000E+03 0.  0.
</event>
<event>
 5    0  0.5532658E-005  0.2796492E+03  0.7546771E-02  0.1095881E+00
         21   -1    0    0  502  501  0.00000000000E+00  0.00000000000E+00  0.46508192419E+02  0.46508192419E+02  0.00000000000E+00 0.  1.
         21   -1    0    0  501  502 -0.00000000000E+00 -0.00000000000E+00 -0.16815034475E+04  0.16815034475E+04  0.00000000000E+00 0.  1.
         25    1    1    2    0    0 -0.14960364442E+02 -0.73170714639E+02 -0.31141680379E+03  0.34377782312E+03  0.12500000000E+03 0.  0.
         25    1    1    2    0    0  0.59891810664E+02 -0.11093194637E+03 -0.62198408406E+03  0.64682464899E+03  0.12500000000E+03 0.  0.
         25    1    1    2    0    0 -0.44931446221E+02  0.18410266101E+03 -0.70159436724E+03  0.73740916783E+03  0.12500000000E+03 0.  0.
</event>
<event>
 5    0  0.5532658E-005  0.3507218E+03  0.7546771E-02  0.1062319E+00
         21   -1    0    0  502  501  0.00000000000E+00  0.00000000000E+00  0.35877659479E+03  0.35877659479E+03  0.00000000000E+00 0. -1.
         21   -1    0    0  501  502 -0.00000000000E+00 -0.00000000000E+00 -0.34284782057E+03  0.34284782057E+03  0.00000000000E+00 0. -1.
         25    1    1    2    0    0  0.16749838684E+03  0.16653105667E+03  0.96040527115E+02  0.28396669748E+03  0.12500000000E+03 0.  0.
         25    1    1    2    0    0  0.37187042901E+01 -0.15271379731E+03 -0.34520830363E+02  0.20037969054E+03  0.12500000000E+03 0.  0.
         25    1    1    2    0    0 -0.17121709113E+03 -0.13817259360E+02 -0.45590922530E+02  0.21727802735E+03  0.12500000000E+03 0.  0.
</event>
<event>
 5    0  0.6090654E-005  0.5129560E+03  0.7546771E-02  0.1010451E+00
         21   -1    0    0  502  501  0.00000000000E+00  0.00000000000E+00  0.10405426216E+04  0.10405426216E+04  0.00000000000E+00 0. -1.
         21   -1    0    0  501  502 -0.00000000000E+00 -0.00000000000E+00 -0.25287178579E+03  0.25287178579E+03  0.00000000000E+00 0. -1.
         25    1    1    2    0    0 -0.23142640300E+03  0.11402310745E+02  0.61898714518E+03  0.67265019036E+03  0.12500000000E+03 0.  0.
         25    1    1    2    0    0 -0.64693373768E+02  0.11301802929E+03 -0.78284286561E+02  0.19675298492E+03  0.12500000000E+03 0.  0.
         25    1    1    2    0    0  0.29611977676E+03 -0.12442034003E+03  0.24696797724E+03  0.42401123214E+03  0.12500000000E+03 0.  0.
</event>
<event>
 5    0  0.5532658E-005  0.2116876E+03  0.7546771E-02  0.1140237E+00
         21   -1    0    0  502  501  0.00000000000E+00  0.00000000000E+00  0.58690378049E+02  0.58690378049E+02  0.00000000000E+00 0.  1.
         21   -1    0    0  501  502 -0.00000000000E+00 -0.00000000000E+00 -0.76352607011E+03  0.76352607011E+03  0.00000000000E+00 0.  1.
         25    1    1    2    0    0 -0.54886106355E+02  0.34940094574E+02 -0.37383969175E+03  0.39951772177E+03  0.12500000000E+03 0.  0.
         25    1    1    2    0    0  0.16460043560E+02 -0.35107232858E+02 -0.14497526082E+03  0.19531071932E+03  0.12500000000E+03 0.  0.
         25    1    1    2    0    0  0.38426062795E+02  0.16713828350E+00 -0.18602073949E+03  0.22738800707E+03  0.12500000000E+03 0.  0.
</event>
<event>
 5    0  0.5532658E-005  0.4015364E+03  0.7546771E-02  0.1043249E+00
         21   -1    0    0  502  501  0.00000000000E+00  0.00000000000E+00  0.11847092479E+03  0.11847092479E+03  0.00000000000E+00 0.  1.
         21   -1    0    0  501  502 -0.00000000000E+00 -0.00000000000E+00 -0.13609374153E+04  0.13609374153E+04  0.00000000000E+00 0.  1.
         25    1    1    2    0    0  0.50442124944E+02  0.24199566531E+03 -0.87605358420E+03  0.91880421874E+03  0.12500000000E+03 0.  0.
         25    1    1    2    0    0 -0.98921514840E+01  0.63659066486E+01 -0.19354427700E+03  0.23070059945E+03  0.12500000000E+03 0.  0.
         25    1    1    2    0    0 -0.40549973460E+02 -0.24836157196E+03 -0.17286862936E+03  0.32990352194E+03  0.12500000000E+03 0.  0.
</event>
<event>
 5    0  0.5532658E-005  0.2660890E+03  0.7546771E-02  0.1103539E+00
         21   -1    0    0  502  501  0.00000000000E+00  0.00000000000E+00  0.18415194659E+03  0.18415194659E+03  0.00000000000E+00 0.  1.
         21   -1    0    0  501  502 -0.00000000000E+00 -0.00000000000E+00 -0.38448324643E+03  0.38448324643E+03  0.00000000000E+00 0.  1.
         25    1    1    2    0    0  0.51948033453E+02  0.77019478272E+01  0.47559771028E+02  0.14368315837E+03  0.12500000000E+03 0.  0.
         25    1    1    2    0    0  0.56727012084E+02 -0.64534583890E+02 -0.18419736102E+03  0.23861335718E+03  0.12500000000E+03 0.  0.
         25    1    1    2    0    0 -0.10867504554E+03  0.56832636063E+02 -0.63693709847E+02  0.18633867746E+03  0.12500000000E+03 0.  0.
</event>
<event>
 5    0  0.6286040E-005  0.3099326E+03  0.7546771E-02  0.1080378E+00
         21   -1    0    0  502  501  0.00000000000E+00  0.00000000000E+00  0.25836054783E+03  0.25836054783E+03  0.00000000000E+00 0. -1.
         21   -1    0    0  501  502 -0.00000000000E+00 -0.00000000000E+00 -0.37179909741E+03  0.37179909741E+03  0.00000000000E+00 0. -1.
         25    1    1    2    0    0 -0.15052223525E+03  0.60556890973E+01 -0.22079944892E+01  0.19576386263E+03  0.12500000000E+03 0.  0.
         25    1    1    2    0    0 -0.37037051285E+01 -0.67020499051E+02 -0.16722803513E+03  0.21930727406E+03  0.12500000000E+03 0.  0.
         25    1    1    2    0    0  0.15422594037E+03  0.60964809954E+02  0.55997480038E+02  0.21508850854E+03  0.12500000000E+03 0.  0.
</event>
<event>
 5    0  0.5532658E-005  0.2966188E+03  0.7546771E-02  0.1086943E+00
         21   -1    0    0  502  501  0.00000000000E+00  0.00000000000E+00  0.10199745468E+04  0.10199745468E+04  0.00000000000E+00 0.  1.
         21   -1    0    0  501  502 -0.00000000000E+00 -0.00000000000E+00 -0.86259698218E+02  0.86259698218E+02  0.00000000000E+00 0.  1.
         25    1    1    2    0    0  0.12672612808E+02  0.13537806044E+02  0.16560889475E+02  0.12744854008E+03  0.12500000000E+03 0.  0.
         25    1    1    2    0    0  0.48322491876E+02 -0.88872439673E+02  0.63777884266E+03  0.65773872161E+03  0.12500000000E+03 0.  0.
         25    1    1    2    0    0 -0.60995104684E+02  0.75334633630E+02  0.27937511646E+03  0.32104698335E+03  0.12500000000E+03 0.  0.
</event>
<event>
 5    0  0.5532658E-005  0.3406902E+03  0.7546771E-02  0.1066502E+00
         21   -1    0    0  502  501  0.00000000000E+00  0.00000000000E+00  0.17527000402E+03  0.17527000402E+03  0.00000000000E+00 0.  1.
         21   -1    0    0  501  502 -0.00000000000E+00 -0.00000000000E+00 -0.66223420372E+03  0.66223420372E+03  0.00000000000E+00 0. -1.
         25    1    1    2    0    0 -0.44712683751E+02 -0.17615471657E+03 -0.85733588158E+01  0.22074467318E+03  0.12500000000E+03 0.  0.
         25    1    1    2    0    0  0.61580466223E+02  0.21470422249E+03 -0.29018197791E+03  0.38693751082E+03  0.12500000000E+03 0.  0.
         25    1    1    2    0    0 -0.16867782472E+02 -0.38549505929E+02 -0.18820886298E+03  0.22982202374E+03  0.12500000000E+03 0.  0.
</event>
<event>
 5    0  0.5532658E-005  0.2572170E+03  0.7546771E-02  0.1108827E+00
         21   -1    0    0  502  501  0.00000000000E+00  0.00000000000E+00  0.18314046703E+03  0.18314046703E+03  0.00000000000E+00 0.  1.
         21   -1    0    0  501  502 -0.00000000000E+00 -0.00000000000E+00 -0.36125588911E+03  0.36125588911E+03  0.00000000000E+00 0.  1.
         25    1    1    2    0    0 -0.63419839871E+02 -0.33526028603E+02 -0.15407503554E+03  0.21097437584E+03  0.12500000000E+03 0.  0.
         25    1    1    2    0    0  0.10932506186E+03  0.26829426254E+02 -0.83068309420E+02  0.18760898511E+03  0.12500000000E+03 0.  0.
         25    1    1    2    0    0 -0.45905221992E+02  0.66966023483E+01  0.59027922875E+02  0.14581299520E+03  0.12500000000E+03 0.  0.
</event>
<event>
 5    0  0.5532658E-005  0.2053702E+03  0.7546771E-02  0.1145286E+00
         21   -1    0    0  502  501  0.00000000000E+00  0.00000000000E+00  0.18331109552E+03  0.18331109552E+03  0.00000000000E+00 0. -1.
         21   -1    0    0  501  502 -0.00000000000E+00 -0.00000000000E+00 -0.23008382744E+03  0.23008382744E+03  0.00000000000E+00 0. -1.
         25    1    1    2    0    0 -0.22036944003E+02  0.16790587785E+02 -0.58542466756E+02  0.14078270900E+03  0.12500000000E+03 0.  0.
         25    1    1    2    0    0  0.52637990021E+02 -0.10159121945E+02  0.37760481745E+02  0.14115530360E+03  0.12500000000E+03 0.  0.
         25    1    1    2    0    0 -0.30601046018E+02 -0.66314658394E+01 -0.25990746916E+02  0.13145691036E+03  0.12500000000E+03 0.  0.
</event>
<event>
 5    0  0.5532658E-005  0.2549518E+03  0.7546771E-02  0.1110215E+00
         21   -1    0    0  502  501  0.00000000000E+00  0.00000000000E+00  0.38923254258E+03  0.38923254258E+03  0.00000000000E+00 0.  1.
         21   -1    0    0  501  502 -0.00000000000E+00 -0.00000000000E+00 -0.16699635987E+03  0.16699635987E+03  0.00000000000E+00 0.  1.
         25    1    1    2    0    0  0.94570632374E+01  0.92787352498E+01 -0.48366545581E+02  0.13468427415E+03  0.12500000000E+03 0.  0.
         25    1    1    2    0    0  0.33062162763E+02  0.43641209018E+02  0.26489569036E+02  0.13901208220E+03  0.12500000000E+03 0.  0.
         25    1    1    2    0    0 -0.42519226001E+02 -0.52919944268E+02  0.24411315926E+03  0.28253254610E+03  0.12500000000E+03 0.  0.
</event>
<event>
 5    0  0.5532658E-005  0.6159302E+03  0.7546771E-02  0.9872896E-01
         21   -1    0    0  502  501  0.00000000000E+00  0.00000000000E+00  0.47492164586E+03  0.47492164586E+03  0.00000000000E+00 0.  1.
         21   -1    0    0  501  502 -0.00000000000E+00 -0.00000000000E+00 -0.79880537456E+03  0.79880537456E+03  0.00000000000E+00 0.  1.
         25    1    1    2    0    0 -0.11423924858E+03 -0.18661043980E+03 -0.51719952499E+03  0.57532113712E+03  0.12500000000E+03 0.  0.
         25    1    1    2    0    0 -0.18617352486E+03  0.11412418878E+03  0.25628390007E+03  0.35915365689E+03  0.12500000000E+03 0.  0.
         25    1    1    2    0    0  0.30041277344E+03  0.72486251029E+02 -0.62968103777E+02  0.33925222642E+03  0.12500000000E+03 0.  0.
</event>
<event>
 5    0  0.5818231E-005  0.3327133E+03  0.7546771E-02  0.1069943E+00
         21   -1    0    0  502  501  0.00000000000E+00  0.00000000000E+00  0.77908413008E+03  0.77908413008E+03  0.00000000000E+00 0.  1.
         21   -1    0    0  501  502 -0.00000000000E+00 -0.00000000000E+00 -0.14208755150E+03  0.14208755150E+03  0.00000000000E+00 0.  1.
         25    1    1    2    0    0  0.80196171305E+02 -0.10515708129E+03  0.17478185342E+03  0.25231554435E+03  0.12500000000E+03 0.  0.
         25    1    1    2    0    0 -0.60197968482E+02  0.22963977061E+02 -0.38569769797E+02  0.14582100944E+03  0.12500000000E+03 0.  0.
         25    1    1    2    0    0 -0.19998202823E+02  0.82193104232E+02  0.50078449497E+03  0.52303512779E+03  0.12500000000E+03 0.  0.
</event>
<event>
 5    0  0.5532658E-005  0.3507882E+03  0.7546771E-02  0.1062292E+00
         21   -1    0    0  502  501  0.00000000000E+00  0.00000000000E+00  0.42346565390E+03  0.42346565390E+03  0.00000000000E+00 0.  1.
         21   -1    0    0  501  502 -0.00000000000E+00 -0.00000000000E+00 -0.29058410743E+03  0.29058410743E+03  0.00000000000E+00 0.  1.
         25    1    1    2    0    0 -0.20464784278E+03  0.17799526541E+03 -0.12621006108E+02  0.29891026054E+03  0.12500000000E+03 0.  0.
         25    1    1    2    0    0  0.86796530777E+02 -0.92409921051E+02  0.65020632003E+01  0.17815865988E+03  0.12500000000E+03 0.  0.
         25    1    1    2    0    0  0.11785131200E+03 -0.85585344356E+02  0.13900048938E+03  0.23698084091E+03  0.12500000000E+03 0.  0.
</event>
<event>
 5    0  0.5532658E-005  0.3183214E+03  0.7546771E-02  0.1076424E+00
         21   -1    0    0  502  501  0.00000000000E+00  0.00000000000E+00  0.17366922601E+03  0.17366922601E+03  0.00000000000E+00 0. -1.
         21   -1    0    0  501  502 -0.00000000000E+00 -0.00000000000E+00 -0.58345683259E+03  0.58345683259E+03  0.00000000000E+00 0. -1.
         25    1    1    2    0    0  0.53094247572E+02 -0.15285366303E+03 -0.18158918383E+03  0.27346457378E+03  0.12500000000E+03 0.  0.
         25    1    1    2    0    0 -0.41046222919E+02  0.35528137694E+02 -0.27381299972E+03  0.30585225158E+03  0.12500000000E+03 0.  0.
         25    1    1    2    0    0 -0.12048024654E+02  0.11732552533E+03  0.45614576967E+02  0.17780923324E+03  0.12500000000E+03 0.  0.
</event>
<event>
 5    0  0.5532658E-005  0.2332138E+03  0.7546771E-02  0.1124398E+00
         21   -1    0    0  502  501  0.00000000000E+00  0.00000000000E+00  0.45919233941E+03  0.45919233941E+03  0.00000000000E+00 0.  1.
         21   -1    0    0  501  502 -0.00000000000E+00 -0.00000000000E+00 -0.11844425057E+03  0.11844425057E+03  0.00000000000E+00 0.  1.
         25    1    1    2    0    0  0.51005189285E+02  0.20933921771E+02  0.36324778437E+02  0.14136565334E+03  0.12500000000E+03 0.  0.
         25    1    1    2    0    0 -0.82087033676E+02 -0.36162589909E+02  0.71470576628E+02  0.16964391333E+03  0.12500000000E+03 0.  0.
         25    1    1    2    0    0  0.31081844390E+02  0.15228668138E+02  0.23295273378E+03  0.26662702331E+03  0.12500000000E+03 0.  0.
</event>
<event>
 5    0  0.5933167E-005  0.3415076E+03  0.7546771E-02  0.1066156E+00
         21   -1    0    0  502  501  0.00000000000E+00  0.00000000000E+00  0.50419763194E+03  0.50419763194E+03  0.00000000000E+00 0.  1.
         21   -1    0    0  501  502 -0.00000000000E+00 -0.00000000000E+00 -0.23131291738E+03  0.23131291738E+03  0.00000000000E+00 0.  1.
         25    1    1    2    0    0  0.21017884186E+03  0.12847704315E+01  0.39520079703E+02  0.24771684016E+03  0.12500000000E+03 0.  0.
         25    1    1    2    0    0 -0.58723286073E+02  0.65090316130E+02 -0.26940367161E+02  0.15503534102E+03  0.12500000000E+03 0.  0.
         25    1    1    2    0    0 -0.15145555578E+03 -0.66375086561E+02  0.26030500202E+03  0.33275836815E+03  0.12500000000E+03 0.  0.
</event>
<event>
 5    0  0.5532658E-005  0.2553246E+03  0.7546771E-02  0.1109985E+00
         21   -1    0    0  502  501  0.00000000000E+00  0.00000000000E+00  0.40186832078E+03  0.40186832078E+03  0.00000000000E+00 0.  1.
         21   -1    0    0  501  502 -0.00000000000E+00 -0.00000000000E+00 -0.16221894849E+03  0.16221894849E+03  0.00000000000E+00 0.  1.
         25    1    1    2    0    0  0.39029271282E+02 -0.48016229044E+02  0.11452688877E+03  0.18047229848E+03  0.12500000000E+03 0.  0.
         25    1    1    2    0    0 -0.40656828398E+01 -0.98231418800E+02  0.96425253006E+02  0.18598056574E+03  0.12500000000E+03 0.  0.
         25    1    1    2    0    0 -0.34963588442E+02  0.14624764784E+03  0.28697230506E+02  0.19763440504E+03  0.12500000000E+03 0.  0.
</event>
<event>
 5    0  0.5532658E-005  0.2720537E+03  0.7546771E-02  0.1100110E+00
         21   -1    0    0  502  501  0.00000000000E+00  0.00000000000E+00  0.11627064978E+04  0.11627064978E+04  0.00000000000E+00 0. -1.
         21   -1    0    0  501  502 -0.00000000000E+00 -0.00000000000E+00 -0.63655955689E+02  0.63655955689E+02  0.00000000000E+00 0. -1.
         25    1    1    2    0    0 -0.42561902414E+02  0.19680685373E+02  0.11059173043E+03  0.17336197897E+03  0.12500000000E+03 0.  0.
         25    1    1    2    0    0  0.13173813353E+03 -0.74682608168E+02  0.46620439630E+03  0.50586951570E+03  0.12500000000E+03 0.  0.
         25    1    1    2    0    0 -0.89176231117E+02  0.55001922795E+02  0.52225441540E+03  0.54713095883E+03  0.12500000000E+03 0.  0.
</event>
<event>
 5    0  0.5532658E-005  0.2405104E+03  0.7546771E-02  0.1119453E+00
         21   -1    0    0  502  501  0.00000000000E+00  0.00000000000E+00  0.25970756276E+03  0.25970756276E+03  0.00000000000E+00 0.  1.
         21   -1    0    0  501  502 -0.00000000000E+00 -0.00000000000E+00 -0.22273233947E+03  0.22273233947E+03  0.00000000000E+00 0.  1.
         25    1    1    2    0    0  0.10871408042E+03  0.72662815106E+02 -0.17351746016E+02  0.18172704551E+03  0.12500000000E+03 0.  0.
         25    1    1    2    0    0 -0.78644798274E+02 -0.40618922604E+02  0.67857678170E+02  0.16752482101E+03  0.12500000000E+03 0.  0.
         25    1    1    2    0    0 -0.30069282142E+02 -0.32043892501E+02 -0.13530708864E+02  0.13318803571E+03  0.12500000000E+03 0.  0.
</event>
<event>
 5    0  0.5532658E-005  0.3622370E+03  0.7546771E-02  0.1057702E+00
         21   -1    0    0  502  501  0.00000000000E+00  0.00000000000E+00  0.35622633987E+03  0.35622633987E+03  0.00000000000E+00 0.  1.
         21   -1    0    0  501  502 -0.00000000000E+00 -0.00000000000E+00 -0.36834909201E+03  0.36834909201E+03  0.00000000000E+00 0.  1.
         25    1    1    2    0    0 -0.79400467060E+02 -0.19766668140E+03  0.12548582599E+03  0.27703473362E+03  0.12500000000E+03 0.  0.
         25    1    1    2    0    0  0.16918389550E+03  0.61679422065E+02 -0.53728412988E+02  0.22569732822E+03  0.12500000000E+03 0.  0.
         25    1    1    2    0    0 -0.89783428442E+02  0.13598725934E+03 -0.83880165153E+02  0.22184337004E+03  0.12500000000E+03 0.  0.
</event>
<event>
 5    0  0.5532658E-005  0.2774616E+03  0.7546771E-02  0.1097083E+00
         21   -1    0    0  502  501  0.00000000000E+00  0.00000000000E+00  0.10675091413E+04  0.10675091413E+04  0.00000000000E+00 0. -1.
         21   -1    0    0  501  502 -0.00000000000E+00 -0.00000000000E+00 -0.72116420152E+02  0.72116420152E+02  0.00000000000E+00 0. -1.
         25    1    1    2    0    0 -0.12357493807E+02 -0.14644757355E+03  0.36033443061E+03  0.40873646930E+03  0.12500000000E+03 0.  0.
         25    1    1    2    0    0  0.87982187534E+02  0.15121026547E+03  0.39874218036E+03  0.45301847215E+03  0.12500000000E+03 0.  0.
         25    1    1    2    0    0 -0.75624693726E+02 -0.47626919230E+01  0.23631611019E+03  0.27787062002E+03  0.12500000000E+03 0.  0.
</event>
<event>
 5    0  0.5532658E-005  0.2516428E+03  0.7546771E-02  0.1112271E+00
         21   -1    0    0  502  501  0.00000000000E+00  0.00000000000E+00  0.98848847107E+02  0.98848847107E+02  0.00000000000E+00 0.  1.
         21   -1    0    0  501  502 -0.00000000000E+00 -0.00000000000E+00 -0.64061569667E+03  0.64061569667E+03  0.00000000000E+00 0.  1.
         25    1    1    2    0    0 -0.43097426676E+02 -0.47413712097E+01 -0.32501664573E+02  0.13623959405E+03  0.12500000000E+03 0.  0.
         25    1    1    2    0    0 -0.20457468933E+02  0.49052014824E+02 -0.10095581219E+03  0.16923854233E+03  0.12500000000E+03 0.  0.
         25    1    1    2    0    0  0.63554895609E+02 -0.44310643614E+02 -0.40830937280E+03  0.43398640740E+03  0.12500000000E+03 0.  0.
</event>
<event>
 5    0  0.5532658E-005  0.2964189E+03  0.7546771E-02  0.1087045E+00
         21   -1    0    0  502  501  0.00000000000E+00  0.00000000000E+00  0.23166708182E+03  0.23166708182E+03  0.00000000000E+00 0.  1.
         21   -1    0    0  501  502 -0.00000000000E+00 -0.00000000000E+00 -0.37926902094E+03  0.37926902094E+03  0.00000000000E+00 0.  1.
         25    1    1    2    0    0 -0.59765657033E+02  0.12710147326E+03  0.65150922941E+02  0.19898834395E+03  0.12500000000E+03 0.  0.
         25    1    1    2    0    0 -0.63939137296E+02 -0.65310409163E+02 -0.45209811405E+02  0.16131518797E+03  0.12500000000E+03 0.  0.
         25    1    1    2    0    0  0.12370479433E+03 -0.61791064100E+02 -0.16754305066E+03  0.25063257084E+03  0.12500000000E+03 0.  0.
</event>
<event>
 5    0  0.5532658E-005  0.3007925E+03  0.7546771E-02  0.1084845E+00
         21   -1    0    0  502  501  0.00000000000E+00  0.00000000000E+00  0.32774055102E+03  0.32774055102E+03  0.00000000000E+00 0. -1.
         21   -1    0    0  501  502 -0.00000000000E+00 -0.00000000000E+00 -0.27606018893E+03  0.27606018893E+03  0.00000000000E+00 0. -1.
         25    1    1    2    0    0 -0.33889906858E+01  0.88406540421E+01  0.31769126100E+01  0.12539830619E+03  0.12500000000E+03 0.  0.
         25    1    1    2    0    0  0.99885490496E+02 -0.17146385539E+03  0.83689618786E+02  0.24900987372E+03  0.12500000000E+03 0.  0.
         25    1    1    2    0    0 -0.96496499810E+02  0.16262320135E+03 -0.35186169304E+02  0.22939256004E+03  0.12500000000E+03 0.  0.
</event>
<event>
 5    0  0.5532658E-005  0.2677562E+03  0.7546771E-02  0.1102571E+00
         21   -1    0    0  502  501  0.00000000000E+00  0.00000000000E+00  0.13983442817E+03  0.13983442817E+03  0.00000000000E+00 0. -1.
         21   -1    0    0  501  502 -0.00000000000E+00 -0.00000000000E+00 -0.51270196358E+03  0.51270196358E+03  0.00000000000E+00 0. -1.
         25    1    1    2    0    0 -0.13155401900E+03 -0.18853061238E+02 -0.18084238248E+03  0.25688687225E+03  0.12500000000E+03 0.  0.
         25    1    1    2    0    0  0.63987953978E+02 -0.64147692925E+02 -0.16843552417E+02  0.15530000006E+03  0.12500000000E+03 0.  0.
         25    1    1    2    0    0  0.67566065021E+02  0.83000754163E+02 -0.17518160052E+03  0.24034951944E+03  0.12500000000E+03 0.  0.
</event>
<event>
 5    0  0.5532658E-005  0.4399457E+03  0.7546771E-02  0.1030763E+00
         21   -1    0    0  502  501  0.00000000000E+00  0.00000000000E+00  0.50979791347E+03  0.50979791347E+03  0.00000000000E+00 0.  1.
         21   -1    0    0  501  502 -0.00000000000E+00 -0.00000000000E+00 -0.37966459886E+03  0.37966459886E+03  0.00000000000E+00 0.  1.
         25    1    1    2    0    0 -0.99958701243E+02 -0.61254745596E+02 -0.20962502748E+03  0.27076103478E+03  0.12500000000E+03 0.  0.
         25    1    1    2    0    0 -0.97269805917E+02  0.12845821001E+02  0.34536237917E+03  0.38016654666E+03  0.12500000000E+03 0.  0.
         25    1    1    2    0    0  0.19722850716E+03  0.48408924595E+02 -0.56040370753E+01  0.23853493088E+03  0.12500000000E+03 0.  0.
</event>
<event>
 5    0  0.6618945E-005  0.4606220E+03  0.7546771E-02  0.1024601E+00
         21   -1    0    0  502  501  0.00000000000E+00  0.00000000000E+00  0.11464293025E+04  0.11464293025E+04  0.00000000000E+00 0. -1.
         21   -1    0    0  501  502 -0.00000000000E+00 -0.00000000000E+00 -0.18507255305E+03  0.18507255305E+03  0.00000000000E+00 0. -1.
         25    1    1    2    0    0  0.34294304255E+02 -0.28322487216E+03  0.22613164481E+03  0.38490641499E+03  0.12500000000E+03 0.  0.
         25    1    1    2    0    0  0.72214464484E+02  0.36896213688E+02  0.60515767470E+03  0.62323115352E+03  0.12500000000E+03 0.  0.
         25    1    1    2    0    0 -0.10650876874E+03  0.24632865847E+03  0.13006742992E+03  0.32336428703E+03  0.12500000000E+03 0.  0.
</event>
<event>
 5    0  0.5532658E-005  0.2831442E+03  0.7546771E-02  0.1093984E+00
         21   -1    0    0  502  501  0.00000000000E+00  0.00000000000E+00  0.28865095485E+04  0.28865095485E+04  0.00000000000E+00 0. -1.
         21   -1    0    0  501  502 -0.00000000000E+00 -0.00000000000E+00 -0.27774250104E+02  0.27774250104E+02  0.00000000000E+00 0.  1.
         25    1    1    2    0    0 -0.33424360911E+01 -0.30531511082E+02  0.25599547805E+03  0.28653451769E+03  0.12500000000E+03 0.  0.
         25    1    1    2    0    0  0.78015404231E+02 -0.72053309218E+02  0.82767946635E+03  0.84377507766E+03  0.12500000000E+03 0.  0.
         25    1    1    2    0    0 -0.74672968140E+02  0.10258482030E+03  0.17750603540E+04  0.17839742032E+04  0.12500000000E+03 0.  0.
</event>
<event>
 5    0  0.5532658E-005  0.2495210E+03  0.7546771E-02  0.1113608E+00
         21   -1    0    0  502  501  0.00000000000E+00  0.00000000000E+00  0.77031290785E+02  0.77031290785E+02  0.00000000000E+00 0.  1.
         21   -1    0    0  501  502 -0.00000000000E+00 -0.00000000000E+00 -0.80825253458E+03  0.80825253458E+03  0.00000000000E+00 0.  1.
         25    1    1    2    0    0 -0.28279204522E+02  0.49430234873E+02 -0.38826682416E+03  0.41184850160E+03  0.12500000000E+03 0.  0.
         25    1    1    2    0    0 -0.20567446899E+01  0.62976662660E+02 -0.84123055911E+02  0.16331558032E+03  0.12500000000E+03 0.  0.
         25    1    1    2    0    0  0.30335949212E+02 -0.11240689753E+03 -0.25883136372E+03  0.31011974344E+03  0.12500000000E+03 0.  0.
</event>
<event>
 5    0  0.6080584E-005  0.2966767E+03  0.7546771E-02  0.1086914E+00
         21   -1    0    0  502  501  0.00000000000E+00  0.00000000000E+00  0.11675659977E+03  0.11675659977E+03  0.00000000000E+00 0. -1.
         21   -1    0    0  501  502 -0.00000000000E+00 -0.00000000000E+00 -0.75385068010E+03  0.75385068010E+03  0.00000000000E+00 0. -1.
         25    1    1    2    0    0 -0.67931819804E+02 -0.23875300000E+02 -0.99692249331E+02  0.17535195085E+03  0.12500000000E+03 0.  0.
         25    1    1    2    0    0  0.16361205743E+03  0.63068080055E+02 -0.11795094732E+03  0.24552782741E+03  0.12500000000E+03 0.  0.
         25    1    1    2    0    0 -0.95680237624E+02 -0.39192780056E+02 -0.41945088368E+03  0.44972750161E+03  0.12500000000E+03 0.  0.
</event>
<event>
 5    0  0.5532658E-005  0.4380291E+03  0.7546771E-02  0.1031353E+00
         21   -1    0    0  502  501  0.00000000000E+00  0.00000000000E+00  0.16889935461E+04  0.16889935461E+04  0.00000000000E+00 0. -1.
         21   -1    0    0  501  502 -0.00000000000E+00 -0.00000000000E+00 -0.11359989811E+03  0.11359989811E+03  0.00000000000E+00 0. -1.
         25    1    1    2    0    0 -0.34420389676E+03 -0.11438294671E+02  0.73475944696E+03  0.82103812459E+03  0.12500000000E+03 0.  0.
         25    1    1    2    0    0  0.12749438329E+03 -0.45449005291E+02  0.12853607268E+03  0.22464850730E+03  0.12500000000E+03 0.  0.
         25    1    1    2    0    0  0.21670951347E+03  0.56887299962E+02  0.71209812832E+03  0.75690681228E+03  0.12500000000E+03 0.  0.
</event>
<event>
 5    0  0.5795182E-005  0.3431184E+03  0.7546771E-02  0.1065475E+00
         21   -1    0    0  502  501  0.00000000000E+00  0.00000000000E+00  0.19128387310E+03  0.19128387310E+03  0.00000000000E+00 0. -1.
         21   -1    0    0  501  502 -0.00000000000E+00 -0.00000000000E+00 -0.61547396999E+03  0.61547396999E+03  0.00000000000E+00 0. -1.
         25    1    1    2    0    0 -0.55626198218E+02  0.16454324683E+03 -0.74014712131E+02  0.22643306211E+03  0.12500000000E+03 0.  0.
         25    1    1    2    0    0  0.16566994428E+03 -0.30038741343E+02 -0.29015462535E+03  0.35799938971E+03  0.12500000000E+03 0.  0.
         25    1    1    2    0    0 -0.11004374606E+03 -0.13450450549E+03 -0.60020759412E+02  0.22232539127E+03  0.12500000000E+03 0.  0.
</event>
<event>
 5    0  0.5532658E-005  0.3753122E+03  0.7546771E-02  0.1052680E+00
         21   -1    0    0  502  501  0.00000000000E+00  0.00000000000E+00  0.87782516253E+02  0.87782516253E+02  0.00000000000E+00 0.  1.
         21   -1    0    0  501  502 -0.00000000000E+00 -0.00000000000E+00 -0.16046390236E+04  0.16046390236E+04  0.00000000000E+00 0.  1.
         25    1    1    2    0    0 -0.11491384553E+03 -0.20534248479E+03 -0.36106676949E+03  0.44873704993E+03  0.12500000000E+03 0.  0.
         25    1    1    2    0    0  0.48998676014E+02  0.54291336465E+02 -0.91437901273E+03  0.92577664606E+03  0.12500000000E+03 0.  0.
         25    1    1    2    0    0  0.65915169513E+02  0.15105114833E+03 -0.24141072514E+03  0.31790784387E+03  0.12500000000E+03 0.  0.
</event>
<event>
 5    0  0.5532658E-005  0.3499227E+03  0.7546771E-02  0.1062647E+00
         21   -1    0    0  502  501  0.00000000000E+00  0.00000000000E+00  0.12545987987E+04  0.12545987987E+04  0.00000000000E+00 0.  1.
         21   -1    0    0  501  502 -0.00000000000E+00 -0.00000000000E+00 -0.97597664145E+02  0.97597664145E+02  0.00000000000E+00 0.  1.
         25    1    1    2    0    0 -0.14562034549E+03 -0.22309951344E+03  0.49642692909E+03  0.57709910227E+03  0.12500000000E+03 0.  0.
         25    1    1    2    0    0  0.39520838556E+02  0.19962844883E+03  0.41688759205E+03  0.48045153624E+03  0.12500000000E+03 0.  0.
         25    1    1    2    0    0  0.10609950693E+03  0.23471064604E+02  0.24368661342E+03  0.29464582435E+03  0.12500000000E+03 0.  0.
</event>
<event>
 5    0  0.5532658E-005  0.3361640E+03  0.7546771E-02  0.1068442E+00
         21   -1    0    0  502  501  0.00000000000E+00  0.00000000000E+00  0.26020957443E+03  0.26020957443E+03  0.00000000000E+00 0.  1.
         21   -1    0    0  501  502 -0.00000000000E+00 -0.00000000000E+00 -0.43428929100E+03  0.43428929100E+03  0.00000000000E+00 0.  1.
         25    1    1    2    0    0  0.71961001912E+02  0.10052862128E+03 -0.64593156962E+02  0.18730100219E+03  0.12500000000E+03 0.  0.
         25    1    1    2    0    0  0.15278927262E+03  0.39182390802E+02 -0.26550819799E+02  0.20300189065E+03  0.12500000000E+03 0.  0.
         25    1    1    2    0    0 -0.22475027453E+03 -0.13971101209E+03 -0.82935739816E+02  0.30419597259E+03  0.12500000000E+03 0.  0.
</event>
<event>
 5    0  0.5532658E-005  0.2793658E+03  0.7546771E-02  0.1096036E+00
         21   -1    0    0  502  501  0.00000000000E+00  0.00000000000E+00  0.13062242527E+04  0.13062242527E+04  0.00000000000E+00 0. -1.
         21   -1    0    0  501  502 -0.00000000000E+00 -0.00000000000E+00 -0.59748728382E+02  0.59748728382E+02  0.00000000000E+00 0. -1.
         25    1    1    2    0    0  0.17198830230E+03  0.33322502652E+02  0.63979143533E+03  0.67501736721E+03  0.12500000000E+03 0.  0.
         25    1    1    2    0    0 -0.53723683976E+02 -0.31328217317E+02  0.39006195161E+03  0.41429580919E+03  0.12500000000E+03 0.  0.
         25    1    1    2    0    0 -0.11826461832E+03 -0.19942853346E+01  0.21662213735E+03  0.27665980465E+03  0.12500000000E+03 0.  0.
</event>
<event>
 5    0  0.5532658E-005  0.2364749E+03  0.7546771E-02  0.1122164E+00
         21   -1    0    0  502  501  0.00000000000E+00  0.00000000000E+00  0.18387424593E+02  0.18387424593E+02  0.00000000000E+00 0. -1.
         21   -1    0    0  501  502 -0.00000000000E+00 -0.00000000000E+00 -0.30412299303E+04  0.30412299303E+04  0.00000000000E+00 0. -1.
         25    1    1    2    0    0  0.43953487934E+02 -0.14697066081E+02 -0.39606387920E+03  0.41789892230E+03  0.12500000000E+03 0.  0.
         25    1    1    2    0    0  0.32800278409E+02  0.29752583264E+02 -0.13216864975E+04  0.13283227289E+04  0.12500000000E+03 0.  0.
         25    1    1    2    0    0 -0.76753766343E+02 -0.15055517183E+02 -0.13050921290E+04  0.13133957037E+04  0.12500000000E+03 0.  0.
</event>
<event>
 5    0  0.5532658E-005  0.3632024E+03  0.7546771E-02  0.1057323E+00
         21   -1    0    0  502  501  0.00000000000E+00  0.00000000000E+00  0.35812808461E+03  0.35812808461E+03  0.00000000000E+00 0. -1.
         21   -1    0    0  501  502 -0.00000000000E+00 -0.00000000000E+00 -0.36834857112E+03  0.36834857112E+03  0.00000000000E+00 0. -1.
         25    1    1    2    0    0  0.66351279931E+02 -0.17768458758E+03  0.10230790893E+03  0.24913091587E+03  0.12500000000E+03 0.  0.
         25    1    1    2    0    0  0.96683598566E+02 -0.19820850123E+02  0.24489301877E+02  0.16113755068E+03  0.12500000000E+03 0.  0.
         25    1    1    2    0    0 -0.16303487850E+03  0.19750543770E+03 -0.13701769731E+03  0.31620818918E+03  0.12500000000E+03 0.  0.
</event>
<event>
 5    0  0.5532658E-005  0.3018023E+03  0.7546771E-02  0.1084343E+00
         21   -1    0    0  502  501  0.00000000000E+00  0.00000000000E+00  0.79959414167E+03  0.79959414167E+03  0.00000000000E+00 0. -1.
         21   -1    0    0  501  502 -0.00000000000E+00 -0.00000000000E+00 -0.11391358083E+03  0.11391358083E+03  0.00000000000E+00 0. -1.
         25    1    1    2    0    0 -0.71269479464E+02  0.10886101183E+03  0.28265647020E+03  0.33533526320E+03  0.12500000000E+03 0.  0.
         25    1    1    2    0    0 -0.43263649330E+02  0.29129861794E+02  0.31432643166E+03  0.34226655963E+03  0.12500000000E+03 0.  0.
         25    1    1    2    0    0  0.11453312879E+03 -0.13799087362E+03  0.88697658975E+02  0.23590589967E+03  0.12500000000E+03 0.  0.
</event>
<event>
 5    0  0.5532658E-005  0.2498968E+03  0.7546771E-02  0.1113370E+00
         21   -1    0    0  502  501  0.00000000000E+00  0.00000000000E+00  0.47191137881E+02  0.47191137881E+02  0.00000000000E+00 0. -1.
         21   -1    0    0  501  502 -0.00000000000E+00 -0.00000000000E+00 -0.13233078884E+04  0.13233078884E+04  0.00000000000E+00 0. -1.
         25    1    1    2    0    0  0.28218539868E+02  0.89842155202E+02 -0.45213132074E+03  0.47845128283E+03  0.12500000000E+03 0.  0.
         25    1    1    2    0    0  0.64850775439E+02 -0.52855090207E+02 -0.58732921939E+03  0.60628367584E+03  0.12500000000E+03 0.  0.
         25    1    1    2    0    0 -0.93069315307E+02 -0.36987064996E+02 -0.23665621041E+03  0.28576406764E+03  0.12500000000E+03 0.  0.
</event>
<event>
 5    0  0.5532658E-005  0.2504826E+03  0.7546771E-02  0.1113000E+00
         21   -1    0    0  502  501  0.00000000000E+00  0.00000000000E+00  0.16414453819E+03  0.16414453819E+03  0.00000000000E+00 0.  1.
         21   -1    0    0  501  502 -0.00000000000E+00 -0.00000000000E+00 -0.38223350339E+03  0.38223350339E+03  0.00000000000E+00 0.  1.
         25    1    1    2    0    0 -0.10210326926E+03 -0.37527487698E+02 -0.19203628887E+03  0.25364606477E+03  0.12500000000E+03 0.  0.
         25    1    1    2    0    0  0.36208910644E+02 -0.26562459485E+02 -0.34866502228E+02  0.13732196635E+03  0.12500000000E+03 0.  0.
         25    1    1    2    0    0  0.65894358618E+02  0.64089947184E+02  0.88138258954E+01  0.15541001047E+03  0.12500000000E+03 0.  0.
</event>
<event>
 5    0  0.5532658E-005  0.4916588E+03  0.7546771E-02  0.1015979E+00
         21   -1    0    0  502  501  0.00000000000E+00  0.00000000000E+00  0.29485160728E+03  0.29485160728E+03  0.00000000000E+00 0. -1.
         21   -1    0    0  501  502 -0.00000000000E+00 -0.00000000000E+00 -0.81983049220E+03  0.81983049220E+03  0.00000000000E+00 0. -1.
         25    1    1    2    0    0  0.12035827750E+03  0.13390156609E+03 -0.15168434476E+02  0.21970622606E+03  0.12500000000E+03 0.  0.
         25    1    1    2    0    0 -0.36591024056E+03 -0.83073642153E+02 -0.11692577816E+03  0.41241747267E+03  0.12500000000E+03 0.  0.
         25    1    1    2    0    0  0.24555196306E+03 -0.50827923940E+02 -0.39288467229E+03  0.48255840075E+03  0.12500000000E+03 0.  0.
</event>
<event>
 5    0  0.5532658E-005  0.2457654E+03  0.7546771E-02  0.1116011E+00
         21   -1    0    0  502  501  0.00000000000E+00  0.00000000000E+00  0.12247438135E+04  0.12247438135E+04  0.00000000000E+00 0. -1.
         21   -1    0    0  501  502 -0.00000000000E+00 -0.00000000000E+00 -0.49316964409E+02  0.49316964409E+02  0.00000000000E+00 0. -1.
         25    1    1    2    0    0  0.10337992914E+03 -0.19936022060E+02  0.75510372346E+03  0.77258752766E+03  0.12500000000E+03 0.  0.
         25    1    1    2    0    0 -0.62697315963E+02  0.22760393296E+02  0.20556779133E+03  0.24966398572E+03  0.12500000000E+03 0.  0.
         25    1    1    2    0    0 -0.40682613177E+02 -0.28243712357E+01  0.21475533428E+03  0.25180926450E+03  0.12500000000E+03 0.  0.
</event>
<event>
 5    0  0.5532658E-005  0.6676194E+03  0.7546771E-02  0.9774268E-01
         21   -1    0    0  502  501  0.00000000000E+00  0.00000000000E+00  0.45859837636E+03  0.45859837636E+03  0.00000000000E+00 0.  1.
         21   -1    0    0  501  502 -0.00000000000E+00 -0.00000000000E+00 -0.97190855012E+03  0.97190855012E+03  0.00000000000E+00 0.  1.
         25    1    1    2    0    0  0.23682993731E+02 -0.47558986743E+03  0.50145055948E+02  0.49485971025E+03  0.12500000000E+03 0.  0.
         25    1    1    2    0    0  0.74057840424E+02  0.36063617976E+03 -0.57443981762E+02  0.39302395464E+03  0.12500000000E+03 0.  0.
         25    1    1    2    0    0 -0.97740834156E+02  0.11495368767E+03 -0.50601124794E+03  0.54262326158E+03  0.12500000000E+03 0.  0.
</event>
<event>
 5    0  0.5532658E-005  0.2331379E+03  0.7546771E-02  0.1124450E+00
         21   -1    0    0  502  501  0.00000000000E+00  0.00000000000E+00  0.48460190721E+02  0.48460190721E+02  0.00000000000E+00 0.  1.
         21   -1    0    0  501  502 -0.00000000000E+00 -0.00000000000E+00 -0.11216066039E+04  0.11216066039E+04  0.00000000000E+00 0.  1.
         25    1    1    2    0    0 -0.10099847424E+03  0.42207624413E+02 -0.61039544196E+03  0.63260554133E+03  0.12500000000E+03 0.  0.
         25    1    1    2    0    0  0.49972662739E+02 -0.22774770293E+02 -0.24644678087E+03  0.28173919320E+03  0.12500000000E+03 0.  0.
         25    1    1    2    0    0  0.51025811497E+02 -0.19432854119E+02 -0.21630419039E+03  0.25572206014E+03  0.12500000000E+03 0.  0.
</event>
<event>
 5    0  0.5532658E-005  0.2969950E+03  0.7546771E-02  0.1086753E+00
         21   -1    0    0  502  501  0.00000000000E+00  0.00000000000E+00  0.87445810729E+03  0.87445810729E+03  0.00000000000E+00 0.  1.
         21   -1    0    0  501  502 -0.00000000000E+00 -0.00000000000E+00 -0.10086935196E+03  0.10086935196E+03  0.00000000000E+00 0.  1.
         25    1    1    2    0    0 -0.93552303695E+02  0.12341909675E+03  0.18312964658E+03  0.27045475486E+03  0.12500000000E+03 0.  0.
         25    1    1    2    0    0 -0.56241691246E+02 -0.12073329626E+03  0.21806758869E+03  0.28446112194E+03  0.12500000000E+03 0.  0.
         25    1    1    2    0    0  0.14979399494E+03 -0.26858004893E+01  0.37239152006E+03  0.42041158245E+03  0.12500000000E+03 0.  0.
</event>
<event>
 5    0  0.5532658E-005  0.3879762E+03  0.7546771E-02  0.1048024E+00
         21   -1    0    0  502  501  0.00000000000E+00  0.00000000000E+00  0.12365477440E+04  0.12365477440E+04  0.00000000000E+00 0.  1.
         21   -1    0    0  501  502 -0.00000000000E+00 -0.00000000000E+00 -0.12173043661E+03  0.12173043661E+03  0.00000000000E+00 0.  1.
         25    1    1    2    0    0  0.21863421526E+03 -0.23195397175E+02  0.77208124363E+02  0.26443343397E+03  0.12500000000E+03 0.  0.
         25    1    1    2    0    0 -0.16766246179E+03  0.28145497020E+02  0.61891731258E+03  0.65390099396E+03  0.12500000000E+03 0.  0.
         25    1    1    2    0    0 -0.50971753470E+02 -0.49500998444E+01  0.41869187046E+03  0.43994375269E+03  0.12500000000E+03 0.  0.
</event>
<event>
 5    0  0.5532658E-005  0.3742372E+03  0.7546771E-02  0.1053084E+00
         21   -1    0    0  502  501  0.00000000000E+00  0.00000000000E+00  0.10447265666E+04  0.10447265666E+04  0.00000000000E+00 0. -1.
         21   -1    0    0  501  502 -0.00000000000E+00 -0.00000000000E+00 -0.13405758292E+03  0.13405758292E+03  0.00000000000E+00 0. -1.
         25    1    1    2    0    0  0.53716587485E+02  0.92272789282E+02  0.22501378339E+03  0.27866815772E+03  0.12500000000E+03 0.  0.
         25    1    1    2    0    0 -0.19297727268E+03 -0.74737412258E+02  0.63181463223E+02  0.24988558553E+03  0.12500000000E+03 0.  0.
         25    1    1    2    0    0  0.13926068519E+03 -0.17535377024E+02  0.62247373710E+03  0.65023040629E+03  0.12500000000E+03 0.  0.
</event>
<event>
 5    0  0.5532658E-005  0.3120203E+03  0.7546771E-02  0.1079382E+00
         21   -1    0    0  502  501  0.00000000000E+00  0.00000000000E+00  0.37006570045E+03  0.37006570045E+03  0.00000000000E+00 0.  1.
         21   -1    0    0  501  502 -0.00000000000E+00 -0.00000000000E+00 -0.26307934437E+03  0.26307934437E+03  0.00000000000E+00 0.  1.
         25    1    1    2    0    0  0.29966959787E+01  0.17086016978E+03 -0.20880219552E+02  0.21275140745E+03  0.12500000000E+03 0.  0.
         25    1    1    2    0    0 -0.15740214305E+02 -0.20387628366E+03  0.22386786751E+01  0.23967332990E+03  0.12500000000E+03 0.  0.
         25    1    1    2    0    0  0.12743518327E+02  0.33016113880E+02  0.12562789696E+03  0.18072030746E+03  0.12500000000E+03 0.  0.
</event>
<event>
 5    0  0.5532658E-005  0.3180545E+03  0.7546771E-02  0.1076548E+00
         21   -1    0    0  502  501  0.00000000000E+00  0.00000000000E+00  0.68222709524E+03  0.68222709524E+03  0.00000000000E+00 0. -1.
         21   -1    0    0  501  502 -0.00000000000E+00 -0.00000000000E+00 -0.14827709788E+03  0.14827709788E+03  0.00000000000E+00 0. -1.
         25    1    1    2    0    0 -0.76804633841E+01  0.20596502944E+03  0.68705077189E+02  0.25065109316E+03  0.12500000000E+03 0.  0.
         25    1    1    2    0    0 -0.36366555951E+02 -0.54639760149E+02  0.23464356333E+03  0.27384417393E+03  0.12500000000E+03 0.  0.
         25    1    1    2    0    0  0.44047019335E+02 -0.15132526929E+03  0.23060135683E+03  0.30600892603E+03  0.12500000000E+03 0.  0.
</event>
<event>
 5    0  0.5571187E-005  0.2855371E+03  0.7546771E-02  0.1092703E+00
         21   -1    0    0  502  501  0.00000000000E+00  0.00000000000E+00  0.74585288621E+02  0.74585288621E+02  0.00000000000E+00 0. -1.
         21   -1    0    0  501  502 -0.00000000000E+00 -0.00000000000E+00 -0.10931304501E+04  0.10931304501E+04  0.00000000000E+00 0. -1.
         25    1    1    2    0    0  0.11312900487E+03  0.59800783964E+02 -0.23542684271E+03  0.29567736432E+03  0.12500000000E+03 0.  0.
         25    1    1    2    0    0 -0.49875717489E+02  0.70504824218E+02 -0.16190142992E+03  0.22202610307E+03  0.12500000000E+03 0.  0.
         25    1    1    2    0    0 -0.63253287381E+02 -0.13030560818E+03 -0.62121688889E+03  0.65001227137E+03  0.12500000000E+03 0.  0.
</event>
<event>
 5    0  0.5532658E-005  0.2619800E+03  0.7546771E-02  0.1105959E+00
         21   -1    0    0  502  501  0.00000000000E+00  0.00000000000E+00  0.69526447960E+03  0.69526447960E+03  0.00000000000E+00 0.  1.
         21   -1    0    0  501  502 -0.00000000000E+00 -0.00000000000E+00 -0.98715668203E+02  0.98715668203E+02  0.00000000000E+00 0.  1.
         25    1    1    2    0    0 -0.57615984256E+02  0.57107999495E+02  0.18518721116E+03  0.23769776698E+03  0.12500000000E+03 0.  0.
         25    1    1    2    0    0 -0.60620663862E+02  0.13148812536E+02  0.32018016399E+03  0.34926793952E+03  0.12500000000E+03 0.  0.
         25    1    1    2    0    0  0.11823664812E+03 -0.70256812031E+02  0.91181436238E+02  0.20701444131E+03  0.12500000000E+03 0.  0.
</event>
<event>
 5    0  0.5532658E-005  0.2551526E+03  0.7546771E-02  0.1110091E+00
         21   -1    0    0  502  501  0.00000000000E+00  0.00000000000E+00  0.27285518864E+03  0.27285518864E+03  0.00000000000E+00 0. -1.
         21   -1    0    0  501  502 -0.00000000000E+00 -0.00000000000E+00 -0.23859853567E+03  0.23859853567E+03  0.00000000000E+00 0.  1.
         25    1    1    2    0    0  0.41584375519E+01 -0.85056740480E+01 -0.87612433440E+02  0.15293978419E+03  0.12500000000E+03 0.  0.
         25    1    1    2    0    0  0.86405909597E+02 -0.66108329270E+02  0.59119132780E+02  0.17594420784E+03  0.12500000000E+03 0.  0.
         25    1    1    2    0    0 -0.90564347149E+02  0.74614003318E+02  0.62749953625E+02  0.18256973228E+03  0.12500000000E+03 0.  0.
</event>
<event>
 5    0  0.5532658E-005  0.4336113E+03  0.7546771E-02  0.1032725E+00
         21   -1    0    0  502  501  0.00000000000E+00  0.00000000000E+00  0.56716122566E+03  0.56716122566E+03  0.00000000000E+00 0. -1.
         21   -1    0    0  501  502 -0.00000000000E+00 -0.00000000000E+00 -0.33150841977E+03  0.33150841977E+03  0.00000000000E+00 0. -1.
         25    1    1    2    0    0 -0.14646558290E+03 -0.17180346249E+03  0.12070303594E+03  0.28489089066E+03  0.12500000000E+03 0.  0.
         25    1    1    2    0    0  0.11070952090E+03  0.30097848704E+03  0.21415299298E+03  0.40537778933E+03  0.12500000000E+03 0.  0.
         25    1    1    2    0    0  0.35756062004E+02 -0.12917502455E+03 -0.99203223023E+02  0.20840096544E+03  0.12500000000E+03 0.  0.
</event>
<event>
 5    0  0.5532658E-005  0.4014905E+03  0.7546771E-02  0.1043265E+00
         21   -1    0    0  502  501  0.00000000000E+00  0.00000000000E+00  0.68083587138E+02  0.68083587138E+02  0.00000000000E+00 0. -1.
         21   -1    0    0  501  502 -0.00000000000E+00 -0.00000000000E+00 -0.23675993494E+04  0.23675993494E+04  0.00000000000E+00 0. -1.
         25    1    1    2    0    0  0.18632906801E+01  0.76271593856E+02 -0.19115655660E+04  0.19171668526E+04  0.12500000000E+03 0.  0.
         25    1    1    2    0    0  0.10496156877E+03 -0.23649000599E+02 -0.23967826425E+03  0.29094136265E+03  0.12500000000E+03 0.  0.
         25    1    1    2    0    0 -0.10682485945E+03 -0.52622593257E+02 -0.14827193205E+03  0.22757472125E+03  0.12500000000E+03 0.  0.
</event>
<event>
 5    0  0.5532658E-005  0.2788176E+03  0.7546771E-02  0.1096337E+00
         21   -1    0    0  502  501  0.00000000000E+00  0.00000000000E+00  0.17117842509E+03  0.17117842509E+03  0.00000000000E+00 0. -1.
         21   -1    0    0  501  502 -0.00000000000E+00 -0.00000000000E+00 -0.45414157657E+03  0.45414157657E+03  0.00000000000E+00 0. -1.
         25    1    1    2    0    0 -0.98575368993E+02  0.12999722981E+03 -0.97734122222E+02  0.22758150579E+03  0.12500000000E+03 0.  0.
         25    1    1    2    0    0  0.13696548495E+03 -0.74895634025E+02 -0.60828517524E+02  0.20903111875E+03  0.12500000000E+03 0.  0.
         25    1    1    2    0    0 -0.38390115958E+02 -0.55101595784E+02 -0.12440051173E+03  0.18870737712E+03  0.12500000000E+03 0.  0.
</event>
<event>
 5    0  0.5532658E-005  0.2736224E+03  0.7546771E-02  0.1099224E+00
         21   -1    0    0  502  501  0.00000000000E+00  0.00000000000E+00  0.17306177266E+03  0.17306177266E+03  0.00000000000E+00 0. -1.
         21   -1    0    0  501  502 -0.00000000000E+00 -0.00000000000E+00 -0.43261556075E+03  0.43261556075E+03  0.00000000000E+00 0. -1.
         25    1    1    2    0    0 -0.88827427845E+02 -0.37939033210E+02 -0.14793993843E+03  0.21642760351E+03  0.12500000000E+03 0.  0.
         25    1    1    2    0    0  0.51231878017E+02  0.13439789624E+03 -0.12257266203E+03  0.22657572093E+03  0.12500000000E+03 0.  0.
         25    1    1    2    0    0  0.37595549828E+02 -0.96458863029E+02  0.10958812363E+02  0.16267400896E+03  0.12500000000E+03 0.  0.
</event>
<event>
 5    0  0.5532658E-005  0.7208858E+03  0.7546771E-02  0.9682167E-01
         21   -1    0    0  502  501  0.00000000000E+00  0.00000000000E+00  0.16130203342E+04  0.16130203342E+04  0.00000000000E+00 0. -1.
         21   -1    0    0  501  502 -0.00000000000E+00 -0.00000000000E+00 -0.32217596110E+03  0.32217596110E+03  0.00000000000E+00 0. -1.
         25    1    1    2    0    0 -0.24257802073E+03 -0.99710470212E+02  0.75934455495E+03  0.81302855248E+03  0.12500000000E+03 0.  0.
         25    1    1    2    0    0 -0.24784679603E+02  0.19987863180E+03  0.71993590930E+03  0.75795676743E+03  0.12500000000E+03 0.  0.
         25    1    1    2    0    0  0.26736270033E+03 -0.10016816159E+03 -0.18843609117E+03  0.36421097537E+03  0.12500000000E+03 0.  0.
</event>
<event>
 5    0  0.5532658E-005  0.2675110E+03  0.7546771E-02  0.1102713E+00
         21   -1    0    0  502  501  0.00000000000E+00  0.00000000000E+00  0.14362578732E+03  0.14362578732E+03  0.00000000000E+00 0. -1.
         21   -1    0    0  501  502 -0.00000000000E+00 -0.00000000000E+00 -0.49825397496E+03  0.49825397496E+03  0.00000000000E+00 0. -1.
         25    1    1    2    0    0 -0.38297737348E+02 -0.96307534029E+02  0.32626101058E+02  0.16562403288E+03  0.12500000000E+03 0.  0.
         25    1    1    2    0    0  0.11418679554E+02  0.19286681276E+02 -0.15831397356E+03  0.20295486331E+03  0.12500000000E+03 0.  0.
         25    1    1    2    0    0  0.26879057794E+02  0.77020852753E+02 -0.22894031513E+03  0.27330086608E+03  0.12500000000E+03 0.  0.
</event>
<event>
 5    0  0.5532658E-005  0.2839543E+03  0.7546771E-02  0.1093549E+00
         21   -1    0    0  502  501  0.00000000000E+00  0.00000000000E+00  0.69331451055E+02  0.69331451055E+02  0.00000000000E+00 0. -1.
         21   -1    0    0  501  502 -0.00000000000E+00 -0.00000000000E+00 -0.11629646344E+04  0.11629646344E+04  0.00000000000E+00 0. -1.
         25    1    1    2    0    0 -0.22330152028E+02  0.11589120925E+03 -0.33762442364E+03  0.37887288041E+03  0.12500000000E+03 0.  0.
         25    1    1    2    0    0  0.13932990052E+03  0.30703911442E+01 -0.37324426352E+03  0.41756260457E+03  0.12500000000E+03 0.  0.
         25    1    1    2    0    0 -0.11699974850E+03 -0.11896160039E+03 -0.38276449623E+03  0.43586060052E+03  0.12500000000E+03 0.  0.
</event>
<event>
 5    0  0.5532658E-005  0.2390804E+03  0.7546771E-02  0.1120407E+00
         21   -1    0    0  502  501  0.00000000000E+00  0.00000000000E+00  0.57415095605E+03  0.57415095605E+03  0.00000000000E+00 0.  1.
         21   -1    0    0  501  502 -0.00000000000E+00 -0.00000000000E+00 -0.99554721271E+02  0.99554721271E+02  0.00000000000E+00 0.  1.
         25    1    1    2    0    0 -0.66871447261E+01  0.74443739988E+02  0.90488522251E+02  0.17146358502E+03  0.12500000000E+03 0.  0.
         25    1    1    2    0    0 -0.64546443207E+01  0.58960090440E+02  0.19274711281E+03  0.23726441830E+03  0.12500000000E+03 0.  0.
         25    1    1    2    0    0  0.13141789047E+02 -0.13340383043E+03  0.19136059972E+03  0.26497767400E+03  0.12500000000E+03 0.  0.
</event>
<event>
 5    0  0.5532658E-005  0.3428130E+03  0.7546771E-02  0.1065604E+00
         21   -1    0    0  502  501  0.00000000000E+00  0.00000000000E+00  0.12490661516E+03  0.12490661516E+03  0.00000000000E+00 0.  1.
         21   -1    0    0  501  502 -0.00000000000E+00 -0.00000000000E+00 -0.94086918733E+03  0.94086918733E+03  0.00000000000E+00 0.  1.
         25    1    1    2    0    0  0.19838452934E+03 -0.16838217239E+03 -0.31483251137E+03  0.42714574524E+03  0.12500000000E+03 0.  0.
         25    1    1    2    0    0 -0.67953048372E+02  0.92041534597E+02 -0.11274092852E+03  0.20353077860E+03  0.12500000000E+03 0.  0.
         25    1    1    2    0    0 -0.13043148097E+03  0.76340637796E+02 -0.38838913228E+03  0.43509927865E+03  0.12500000000E+03 0.  0.
</event>
<event>
 5    0  0.5532658E-005  0.3726346E+03  0.7546771E-02  0.1053690E+00
         21   -1    0    0  502  501  0.00000000000E+00  0.00000000000E+00  0.23536263929E+03  0.23536263929E+03  0.00000000000E+00 0.  1.
         21   -1    0    0  501  502 -0.00000000000E+00 -0.00000000000E+00 -0.58996840449E+03  0.58996840449E+03  0.00000000000E+00 0.  1.
         25    1    1    2    0    0  0.42646292784E+02  0.13067880424E+03 -0.46375430422E+03  0.49958854155E+03  0.12500000000E+03 0.  0.
         25    1    1    2    0    0 -0.34309652090E+02 -0.11796926547E+03  0.32286966413E+02  0.17821713729E+03  0.12500000000E+03 0.  0.
         25    1    1    2    0    0 -0.83366406946E+01 -0.12709538768E+02  0.76861572617E+02  0.14752536493E+03  0.12500000000E+03 0.  0.
</event>
<event>
 5    0  0.5796704E-005  0.2904690E+03  0.7546771E-02  0.1090105E+00
         21   -1    0    0  502  501  0.00000000000E+00  0.00000000000E+00  0.45831019951E+03  0.45831019951E+03  0.00000000000E+00 0. -1.
         21   -1    0    0  501  502 -0.00000000000E+00 -0.00000000000E+00 -0.18409413111E+03  0.18409413111E+03  0.00000000000E+00 0. -1.
         25    1    1    2    0    0 -0.10020128410E+03 -0.17039152999E+03  0.13956424016E+03  0.27235408563E+03  0.12500000000E+03 0.  0.
         25    1    1    2    0    0  0.52378864427E+02  0.43403877885E+02  0.11788701207E+03  0.18479661704E+03  0.12500000000E+03 0.  0.
         25    1    1    2    0    0  0.47822419677E+02  0.12698765210E+03  0.16764816169E+02  0.18525362796E+03  0.12500000000E+03 0.  0.
</event>
<event>
 5    0  0.5532658E-005  0.4001805E+03  0.7546771E-02  0.1043717E+00
         21   -1    0    0  502  501  0.00000000000E+00  0.00000000000E+00  0.41044407672E+03  0.41044407672E+03  0.00000000000E+00 0. -1.
         21   -1    0    0  501  502 -0.00000000000E+00 -0.00000000000E+00 -0.39017351971E+03  0.39017351971E+03  0.00000000000E+00 0. -1.
         25    1    1    2    0    0  0.14011305873E+03  0.68485573196E+01 -0.15030746689E+03  0.24061568230E+03  0.12500000000E+03 0.  0.
         25    1    1    2    0    0 -0.26518642399E+03 -0.12099094112E+03  0.61931833037E+02  0.32314578636E+03  0.12500000000E+03 0.  0.
         25    1    1    2    0    0  0.12507336526E+03  0.11414238380E+03  0.10864619086E+03  0.23685612777E+03  0.12500000000E+03 0.  0.
</event>
<event>
 5    0  0.5532658E-005  0.3953771E+03  0.7546771E-02  0.1045392E+00
         21   -1    0    0  502  501  0.00000000000E+00  0.00000000000E+00  0.52095718969E+03  0.52095718969E+03  0.00000000000E+00 0. -1.
         21   -1    0    0  501  502 -0.00000000000E+00 -0.00000000000E+00 -0.30006883628E+03  0.30006883628E+03  0.00000000000E+00 0. -1.
         25    1    1    2    0    0  0.39273780769E+02 -0.93471139655E+02 -0.43883208381E+02  0.16682331906E+03  0.12500000000E+03 0.  0.
         25    1    1    2    0    0  0.21166055331E+03 -0.29354955495E+02  0.24373496567E+03  0.34740989728E+03  0.12500000000E+03 0.  0.
         25    1    1    2    0    0 -0.25093433407E+03  0.12282609515E+03  0.21036596117E+02  0.30679280963E+03  0.12500000000E+03 0.  0.
</event>
<event>
 5    0  0.5532658E-005  0.4560589E+03  0.7546771E-02  0.1025930E+00
         21   -1    0    0  502  501  0.00000000000E+00  0.00000000000E+00  0.77488217776E+03  0.77488217776E+03  0.00000000000E+00 0. -1.
         21   -1    0    0  501  502 -0.00000000000E+00 -0.00000000000E+00 -0.26841460762E+03  0.26841460762E+03  0.00000000000E+00 0. -1.
         25    1    1    2    0    0 -0.11201660608E+02 -0.38541337437E+03  0.18550686517E+03  0.44576534563E+03  0.12500000000E+03 0.  0.
         25    1    1    2    0    0  0.20592662772E+02  0.67210542839E+02  0.17348809427E+03  0.22508761335E+03  0.12500000000E+03 0.  0.
         25    1    1    2    0    0 -0.93910021637E+01  0.31820283153E+03  0.14747261069E+03  0.37244382640E+03  0.12500000000E+03 0.  0.
</event>
<event>
 5    0  0.5532658E-005  0.3064678E+03  0.7546771E-02  0.1082051E+00
         21   -1    0    0  502  501  0.00000000000E+00  0.00000000000E+00  0.55132331745E+03  0.55132331745E+03  0.00000000000E+00 0. -1.
         21   -1    0    0  501  502 -0.00000000000E+00 -0.00000000000E+00 -0.17035834240E+03  0.17035834240E+03  0.00000000000E+00 0. -1.
         25    1    1    2    0    0  0.51212386939E+02 -0.57497535877E+02  0.17532314455E+03  0.22867417917E+03  0.12500000000E+03 0.  0.
         25    1    1    2    0    0 -0.11207908335E+03  0.16289539407E+03  0.21577675039E+03  0.31824713093E+03  0.12500000000E+03 0.  0.
         25    1    1    2    0    0  0.60866696413E+02 -0.10539785819E+03 -0.10134919885E+02  0.17476034975E+03  0.12500000000E+03 0.  0.
</event>
<event>
 5    0  0.7441347E-005  0.4374241E+03  0.7546771E-02  0.1031540E+00
         21   -1    0    0  502  501  0.00000000000E+00  0.00000000000E+00  0.73047668993E+03  0.73047668993E+03  0.00000000000E+00 0.  1.
         21   -1    0    0  501  502 -0.00000000000E+00 -0.00000000000E+00 -0.26193829605E+03  0.26193829605E+03  0.00000000000E+00 0.  1.
         25    1    1    2    0    0 -0.14773282206E+02  0.23381443564E+03  0.19978787842E+03  0.33230654003E+03  0.12500000000E+03 0.  0.
         25    1    1    2    0    0 -0.10728502630E+03 -0.46580633618E+01 -0.99509395571E+02  0.19250686801E+03  0.12500000000E+03 0.  0.
         25    1    1    2    0    0  0.12205830851E+03 -0.22915637228E+03  0.36825991102E+03  0.46760157795E+03  0.12500000000E+03 0.  0.
</event>
<event>
 5    0  0.5532658E-005  0.2419857E+03  0.7546771E-02  0.1118477E+00
         21   -1    0    0  502  501  0.00000000000E+00  0.00000000000E+00  0.12089900482E+04  0.12089900482E+04  0.00000000000E+00 0. -1.
         21   -1    0    0  501  502 -0.00000000000E+00 -0.00000000000E+00 -0.48434719172E+02  0.48434719172E+02  0.00000000000E+00 0. -1.
         25    1    1    2    0    0 -0.93938551189E+01 -0.11259127083E+03  0.44558729268E+03  0.47638017820E+03  0.12500000000E+03 0.  0.
         25    1    1    2    0    0 -0.15568799045E+02  0.12506853912E+03  0.32140501728E+03  0.36716578287E+03  0.12500000000E+03 0.  0.
         25    1    1    2    0    0  0.24962654164E+02 -0.12477268296E+02  0.39356301908E+03  0.41387880631E+03  0.12500000000E+03 0.  0.
</event>
<event>
 5    0  0.5532658E-005  0.2504079E+03  0.7546771E-02  0.1113047E+00
         21   -1    0    0  502  501  0.00000000000E+00  0.00000000000E+00  0.94157924653E+02  0.94157924653E+02  0.00000000000E+00 0.  1.
         21   -1    0    0  501  502 -0.00000000000E+00 -0.00000000000E+00 -0.66594617295E+03  0.66594617295E+03  0.00000000000E+00 0.  1.
         25    1    1    2    0    0  0.57882007458E+02 -0.76075412092E+02 -0.53758629179E+02  0.16629126653E+03  0.12500000000E+03 0.  0.
         25    1    1    2    0    0  0.10053544634E+02  0.23900481487E+01 -0.28090065510E+03  0.30763121448E+03  0.12500000000E+03 0.  0.
         25    1    1    2    0    0 -0.67935552091E+02  0.73685363944E+02 -0.23712896402E+03  0.28618161659E+03  0.12500000000E+03 0.  0.
</event>
<event>
 5    0  0.5532658E-005  0.2683501E+03  0.7546771E-02  0.1102228E+00
         21   -1    0    0  502  501  0.00000000000E+00  0.00000000000E+00  0.56246624220E+03  0.56246624220E+03  0.00000000000E+00 0.  1.
         21   -1    0    0  501  502 -0.00000000000E+00 -0.00000000000E+00 -0.12802863949E+03  0.12802863949E+03  0.00000000000E+00 0.  1.
         25    1    1    2    0    0  0.12161351201E+03  0.12739701278E+03  0.11452220521E+03  0.24445895495E+03  0.12500000000E+03 0.  0.
         25    1    1    2    0    0 -0.48849446517E+02 -0.44905873747E+02  0.11753294741E+03  0.18396140804E+03  0.12500000000E+03 0.  0.
         25    1    1    2    0    0 -0.72764065494E+02 -0.82491139035E+02  0.20238245009E+03  0.26207451870E+03  0.12500000000E+03 0.  0.
</event>
<event>
 5    0  0.5532658E-005  0.3940943E+03  0.7546771E-02  0.1045844E+00
         21   -1    0    0  502  501  0.00000000000E+00  0.00000000000E+00  0.14140528584E+03  0.14140528584E+03  0.00000000000E+00 0. -1.
         21   -1    0    0  501  502 -0.00000000000E+00 -0.00000000000E+00 -0.10983345531E+04  0.10983345531E+04  0.00000000000E+00 0. -1.
         25    1    1    2    0    0 -0.87936401733E+02 -0.18943983121E+03 -0.24387272085E+03  0.34455647487E+03  0.12500000000E+03 0.  0.
         25    1    1    2    0    0  0.65608640794E+02  0.23996835211E+03 -0.70534360637E+03  0.75830330793E+03  0.12500000000E+03 0.  0.
         25    1    1    2    0    0  0.22327760939E+02 -0.50528520897E+02 -0.77129400543E+01  0.13688005617E+03  0.12500000000E+03 0.  0.
</event>
<event>
 5    0  0.5532658E-005  0.2643172E+03  0.7546771E-02  0.1104577E+00
         21   -1    0    0  502  501  0.00000000000E+00  0.00000000000E+00  0.20537073578E+03  0.20537073578E+03  0.00000000000E+00 0. -1.
         21   -1    0    0  501  502 -0.00000000000E+00 -0.00000000000E+00 -0.34018279928E+03  0.34018279928E+03  0.00000000000E+00 0. -1.
         25    1    1    2    0    0  0.54573992454E+01  0.40145036218E+02 -0.81184881273E+02  0.15445838303E+03  0.12500000000E+03 0.  0.
         25    1    1    2    0    0 -0.67405821346E+02  0.88096929160E+02  0.50875851970E+02  0.17469392088E+03  0.12500000000E+03 0.  0.
         25    1    1    2    0    0  0.61948422101E+02 -0.12824196538E+03 -0.10450303420E+03  0.21640123115E+03  0.12500000000E+03 0.  0.
</event>
<event>
 5    0  0.5727806E-005  0.3542785E+03  0.7546771E-02  0.1060873E+00
         21   -1    0    0  502  501  0.00000000000E+00  0.00000000000E+00  0.41656001861E+03  0.41656001861E+03  0.00000000000E+00 0. -1.
         21   -1    0    0  501  502 -0.00000000000E+00 -0.00000000000E+00 -0.30130899516E+03  0.30130899516E+03  0.00000000000E+00 0. -1.
         25    1    1    2    0    0  0.71765295681E+02 -0.10063440482E+03  0.27376123690E+03  0.32534252094E+03  0.12500000000E+03 0.  0.
         25    1    1    2    0    0  0.47544656348E+02  0.12312104808E+03 -0.10646441806E+03  0.21066314139E+03  0.12500000000E+03 0.  0.
         25    1    1    2    0    0 -0.11930995203E+03 -0.22486643260E+02 -0.52045795393E+02  0.18186335144E+03  0.12500000000E+03 0.  0.
</event>
<event>
 5    0  0.5532658E-005  0.2669229E+03  0.7546771E-02  0.1103054E+00
         21   -1    0    0  502  501  0.00000000000E+00  0.00000000000E+00  0.15355995745E+03  0.15355995745E+03  0.00000000000E+00 0. -1.
         21   -1    0    0  501  502 -0.00000000000E+00 -0.00000000000E+00 -0.46397409259E+03  0.46397409259E+03  0.00000000000E+00 0. -1.
         25    1    1    2    0    0 -0.20273969044E+02  0.15254376586E+02 -0.26471431927E+03  0.29384077432E+03  0.12500000000E+03 0.  0.
         25    1    1    2    0    0  0.72137318411E+02 -0.40205490717E+02  0.47873123559E+02  0.15728035526E+03  0.12500000000E+03 0.  0.
         25    1    1    2    0    0 -0.51863349367E+02  0.24951114131E+02 -0.93572939421E+02  0.16641292046E+03  0.12500000000E+03 0.  0.
</event>
<event>
 5    0  0.5532658E-005  0.3566212E+03  0.7546771E-02  0.1059930E+00
         21   -1    0    0  502  501  0.00000000000E+00  0.00000000000E+00  0.15579790613E+03  0.15579790613E+03  0.00000000000E+00 0. -1.
         21   -1    0    0  501  502 -0.00000000000E+00 -0.00000000000E+00 -0.81630523607E+03  0.81630523607E+03  0.00000000000E+00 0. -1.
         25    1    1    2    0    0 -0.27565760683E+02 -0.10973648202E+03 -0.52967160905E+03  0.55585877710E+03  0.12500000000E+03 0.  0.
         25    1    1    2    0    0  0.85493385468E+02  0.11701560010E+03  0.41156401551E+02  0.19575652994E+03  0.12500000000E+03 0.  0.
         25    1    1    2    0    0 -0.57927624785E+02 -0.72791180776E+01 -0.17199212244E+03  0.22048783516E+03  0.12500000000E+03 0.  0.
</event>
<event>
 5    0  0.5532658E-005  0.3319756E+03  0.7546771E-02  0.1070266E+00
         21   -1    0    0  502  501  0.00000000000E+00  0.00000000000E+00  0.48046536894E+03  0.48046536894E+03  0.00000000000E+00 0.  1.
         21   -1    0    0  501  502 -0.00000000000E+00 -0.00000000000E+00 -0.22937717601E+03  0.22937717601E+03  0.00000000000E+00 0.  1.
         25    1    1    2    0    0  0.60644705795E+02 -0.10976714278E+03 -0.24192817498E+02  0.17870897681E+03  0.12500000000E+03 0.  0.
         25    1    1    2    0    0 -0.48212853584E+01 -0.64167834782E+02 -0.39762002231E+02  0.14610534773E+03  0.12500000000E+03 0.  0.
         25    1    1    2    0    0 -0.55823420436E+02  0.17393497756E+03  0.31504301266E+03  0.38502822041E+03  0.12500000000E+03 0.  0.
</event>
<event>
 5    0  0.5640528E-005  0.3856492E+03  0.7546771E-02  0.1048865E+00
         21   -1    0    0  502  501  0.00000000000E+00  0.00000000000E+00  0.82085704903E+03  0.82085704903E+03  0.00000000000E+00 0.  1.
         21   -1    0    0  501  502 -0.00000000000E+00 -0.00000000000E+00 -0.18118296420E+03  0.18118296420E+03  0.00000000000E+00 0.  1.
         25    1    1    2    0    0  0.17629206044E+03 -0.96287987146E+02  0.16586819831E+03  0.28894208114E+03  0.12500000000E+03 0.  0.
         25    1    1    2    0    0 -0.14732072383E+03  0.19883240358E+03  0.47367268830E+03  0.54884290651E+03  0.12500000000E+03 0.  0.
         25    1    1    2    0    0 -0.28971336609E+02 -0.10254441644E+03  0.13319822708E+00  0.16425502558E+03  0.12500000000E+03 0.  0.
</event>
<event>
 5    0  0.5532658E-005  0.3510475E+03  0.7546771E-02  0.1062186E+00
         21   -1    0    0  502  501  0.00000000000E+00  0.00000000000E+00  0.23573552103E+03  0.23573552103E+03  0.00000000000E+00 0. -1.
         21   -1    0    0  501  502 -0.00000000000E+00 -0.00000000000E+00 -0.52276524561E+03  0.52276524561E+03  0.00000000000E+00 0. -1.
         25    1    1    2    0    0 -0.57578898309E+02  0.16778415950E+03  0.90204158326E+02  0.23500775283E+03  0.12500000000E+03 0.  0.
         25    1    1    2    0    0  0.12186737444E+03 -0.12416418044E+03 -0.19951663459E+03  0.29274611549E+03  0.12500000000E+03 0.  0.
         25    1    1    2    0    0 -0.64288476129E+02 -0.43619979064E+02 -0.17771724831E+03  0.23074689832E+03  0.12500000000E+03 0.  0.
</event>
<event>
 5    0  0.5532658E-005  0.2658833E+03  0.7546771E-02  0.1103659E+00
         21   -1    0    0  502  501  0.00000000000E+00  0.00000000000E+00  0.33544246171E+03  0.33544246171E+03  0.00000000000E+00 0.  1.
         21   -1    0    0  501  502 -0.00000000000E+00 -0.00000000000E+00 -0.21074836790E+03  0.21074836790E+03  0.00000000000E+00 0.  1.
         25    1    1    2    0    0 -0.14467794999E+03 -0.78111998611E+02  0.77357500683E+02  0.22055016766E+03  0.12500000000E+03 0.  0.
         25    1    1    2    0    0  0.57647927305E+02 -0.20659587863E+02  0.52649552296E+01  0.13929401224E+03  0.12500000000E+03 0.  0.
         25    1    1    2    0    0  0.87030022690E+02  0.98771586474E+02  0.42071637894E+02  0.18634664971E+03  0.12500000000E+03 0.  0.
</event>
<event>
 5    0  0.5532658E-005  0.4202214E+03  0.7546771E-02  0.1036994E+00
         21   -1    0    0  502  501  0.00000000000E+00  0.00000000000E+00  0.23652968853E+03  0.23652968853E+03  0.00000000000E+00 0.  1.
         21   -1    0    0  501  502 -0.00000000000E+00 -0.00000000000E+00 -0.74657013158E+03  0.74657013158E+03  0.00000000000E+00 0.  1.
         25    1    1    2    0    0 -0.72297051392E+02 -0.38241163381E+02  0.53141272162E+02  0.15855044946E+03  0.12500000000E+03 0.  0.
         25    1    1    2    0    0 -0.21267782952E+03 -0.93893889651E+02 -0.25801097480E+03  0.36911053195E+03  0.12500000000E+03 0.  0.
         25    1    1    2    0    0  0.28497488091E+03  0.13213505303E+03 -0.30517074041E+03  0.45543883870E+03  0.12500000000E+03 0.  0.
</event>
<event>
 5    0  0.5532658E-005  0.2734404E+03  0.7546771E-02  0.1099327E+00
         21   -1    0    0  502  501  0.00000000000E+00  0.00000000000E+00  0.11290969168E+04  0.11290969168E+04  0.00000000000E+00 0. -1.
         21   -1    0    0  501  502 -0.00000000000E+00 -0.00000000000E+00 -0.66220761272E+02  0.66220761272E+02  0.00000000000E+00 0. -1.
         25    1    1    2    0    0  0.28815650172E+02 -0.20239337090E+02  0.19596821707E+03  0.23509256595E+03  0.12500000000E+03 0.  0.
         25    1    1    2    0    0  0.14614637747E+03  0.19881644296E+02  0.48195993959E+03  0.51929223641E+03  0.12500000000E+03 0.  0.
         25    1    1    2    0    0 -0.17496202764E+03  0.35769279385E+00  0.38494799889E+03  0.44093287574E+03  0.12500000000E+03 0.  0.
</event>
<event>
 5    0  0.5532658E-005  0.2771144E+03  0.7546771E-02  0.1097276E+00
         21   -1    0    0  502  501  0.00000000000E+00  0.00000000000E+00  0.69754972700E+03  0.69754972700E+03  0.00000000000E+00 0.  1.
         21   -1    0    0  501  502 -0.00000000000E+00 -0.00000000000E+00 -0.11008872992E+03  0.11008872992E+03  0.00000000000E+00 0.  1.
         25    1    1    2    0    0 -0.12062957018E+03  0.52543818371E+02  0.49148247372E+02  0.18802365881E+03  0.12500000000E+03 0.  0.
         25    1    1    2    0    0  0.74793769257E+02 -0.69038986447E+01  0.16265509894E+03  0.21845698192E+03  0.12500000000E+03 0.  0.
         25    1    1    2    0    0  0.45835800924E+02 -0.45639919726E+02  0.37565765077E+03  0.40115781620E+03  0.12500000000E+03 0.  0.
</event>
<event>
 5    0  0.5532658E-005  0.2928365E+03  0.7546771E-02  0.1088877E+00
         21   -1    0    0  502  501  0.00000000000E+00  0.00000000000E+00  0.64035332831E+02  0.64035332831E+02  0.00000000000E+00 0.  1.
         21   -1    0    0  501  502 -0.00000000000E+00 -0.00000000000E+00 -0.13391544955E+04  0.13391544955E+04  0.00000000000E+00 0.  1.
         25    1    1    2    0    0  0.50724989744E+02  0.75596596278E+02 -0.57863978686E+03  0.59894646914E+03  0.12500000000E+03 0.  0.
         25    1    1    2    0    0 -0.11900396718E+03  0.75389659894E+02 -0.26132812302E+03  0.32212254330E+03  0.12500000000E+03 0.  0.
         25    1    1    2    0    0  0.68278977433E+02 -0.15098625617E+03 -0.43515125280E+03  0.48212081590E+03  0.12500000000E+03 0.  0.
</event>
<event>
 5    0  0.5532658E-005  0.2634250E+03  0.7546771E-02  0.1105103E+00
         21   -1    0    0  502  501  0.00000000000E+00  0.00000000000E+00  0.12014727581E+04  0.12014727581E+04  0.00000000000E+00 0. -1.
         21   -1    0    0  501  502 -0.00000000000E+00 -0.00000000000E+00 -0.57756381225E+02  0.57756381225E+02  0.00000000000E+00 0. -1.
         25    1    1    2    0    0  0.20499784797E+02  0.11265041455E+03  0.69373348388E+03  0.71414389567E+03  0.12500000000E+03 0.  0.
         25    1    1    2    0    0 -0.12591245245E+02  0.50265456295E+01  0.26061486446E+03  0.28935948783E+03  0.12500000000E+03 0.  0.
         25    1    1    2    0    0 -0.79085395523E+01 -0.11767696018E+03  0.18936802851E+03  0.25572575579E+03  0.12500000000E+03 0.  0.
</event>
<event>
 5    0  0.5532658E-005  0.2965540E+03  0.7546771E-02  0.1086976E+00
         21   -1    0    0  502  501  0.00000000000E+00  0.00000000000E+00  0.80294526757E+02  0.80294526757E+02  0.00000000000E+00 0. -1.
         21   -1    0    0  501  502 -0.00000000000E+00 -0.00000000000E+00 -0.10952711627E+04  0.10952711627E+04  0.00000000000E+00 0. -1.
         25    1    1    2    0    0  0.12676653260E+03  0.10766997455E+03 -0.68840445909E+03  0.71915803305E+03  0.12500000000E+03 0.  0.
         25    1    1    2    0    0 -0.45384594968E+02 -0.10435624440E+03 -0.15942387913E+03  0.23235954992E+03  0.12500000000E+03 0.  0.
         25    1    1    2    0    0 -0.81381937635E+02 -0.33137301567E+01 -0.16714829769E+03  0.22404810644E+03  0.12500000000E+03 0.  0.
</event>
<event>
 5    0  0.6496109E-005  0.2941640E+03  0.7546771E-02  0.1088195E+00
         21   -1    0    0  502  501  0.00000000000E+00  0.00000000000E+00  0.12219091918E+03  0.12219091918E+03  0.00000000000E+00 0.  1.
         21   -1    0    0  501  502 -0.00000000000E+00 -0.00000000000E+00 -0.70817422310E+03  0.70817422310E+03  0.00000000000E+00 0.  1.
         25    1    1    2    0    0  0.77122581953E+02 -0.14186934214E+03 -0.41890793184E+03  0.46602967528E+03  0.12500000000E+03 0.  0.
         25    1    1    2    0    0 -0.45951091851E+02  0.20633560703E+02 -0.24159521699E+02  0.13691577396E+03  0.12500000000E+03 0.  0.
         25    1    1    2    0    0 -0.31171490102E+02  0.12123578144E+03 -0.14291585038E+03  0.22741969305E+03  0.12500000000E+03 0.  0.
</event>
<event>
 5    0  0.5893724E-005  0.3498698E+03  0.7546771E-02  0.1062668E+00
         21   -1    0    0  502  501  0.00000000000E+00  0.00000000000E+00  0.53385201060E+03  0.53385201060E+03  0.00000000000E+00 0.  1.
         21   -1    0    0  501  502 -0.00000000000E+00 -0.00000000000E+00 -0.22929364895E+03  0.22929364895E+03  0.00000000000E+00 0.  1.
         25    1    1    2    0    0 -0.11150296130E+03 -0.74783759194E+02  0.10916598200E+03  0.21346599880E+03  0.12500000000E+03 0.  0.
         25    1    1    2    0    0 -0.11067740212E+02 -0.63762187074E+01  0.30350903142E+03  0.32849030913E+03  0.12500000000E+03 0.  0.
         25    1    1    2    0    0  0.12257070151E+03  0.81159977902E+02 -0.10811665177E+03  0.22118935163E+03  0.12500000000E+03 0.  0.
</event>
<event>
 5    0  0.5532658E-005  0.2525734E+03  0.7546771E-02  0.1111689E+00
         21   -1    0    0  502  501  0.00000000000E+00  0.00000000000E+00  0.79138961293E+02  0.79138961293E+02  0.00000000000E+00 0. -1.
         21   -1    0    0  501  502 -0.00000000000E+00 -0.00000000000E+00 -0.80609272324E+03  0.80609272324E+03  0.00000000000E+00 0. -1.
         25    1    1    2    0    0 -0.11042320821E+03  0.53594433027E+01 -0.23440316011E+03  0.28773572947E+03  0.12500000000E+03 0.  0.
         25    1    1    2    0    0  0.13795644835E+03  0.32619842724E+02 -0.37357828148E+03  0.41866665519E+03  0.12500000000E+03 0.  0.
         25    1    1    2    0    0 -0.27533240143E+02 -0.37979286027E+02 -0.11897232036E+03  0.17882929987E+03  0.12500000000E+03 0.  0.
</event>
<event>
 5    0  0.5532658E-005  0.2154696E+03  0.7546771E-02  0.1137306E+00
         21   -1    0    0  502  501  0.00000000000E+00  0.00000000000E+00  0.15667653086E+04  0.15667653086E+04  0.00000000000E+00 0. -1.
         21   -1    0    0  501  502 -0.00000000000E+00 -0.00000000000E+00 -0.29632478014E+02  0.29632478014E+02  0.00000000000E+00 0. -1.
         25    1    1    2    0    0  0.80620342444E+01 -0.44832608871E+02  0.49680099254E+03  0.51430650919E+03  0.12500000000E+03 0.  0.
         25    1    1    2    0    0  0.33842345038E+02 -0.34982295469E+02  0.62133038938E+03  0.63564574889E+03  0.12500000000E+03 0.  0.
         25    1    1    2    0    0 -0.41904379282E+02  0.79814904340E+02  0.41900144869E+03  0.44644552855E+03  0.12500000000E+03 0.  0.
</event>
<event>
 5    0  0.5532658E-005  0.2676079E+03  0.7546771E-02  0.1102657E+00
         21   -1    0    0  502  501  0.00000000000E+00  0.00000000000E+00  0.15695471410E+03  0.15695471410E+03  0.00000000000E+00 0. -1.
         21   -1    0    0  501  502 -0.00000000000E+00 -0.00000000000E+00 -0.45627170879E+03  0.45627170879E+03  0.00000000000E+00 0. -1.
         25    1    1    2    0    0  0.76178908224E+02 -0.11522700546E+03 -0.50217457366E+02  0.19294372721E+03  0.12500000000E+03 0.  0.
         25    1    1    2    0    0 -0.12937724555E+03  0.45981542884E+02 -0.12730686778E+03  0.22513287751E+03  0.12500000000E+03 0.  0.
         25    1    1    2    0    0  0.53198337322E+02  0.69245462572E+02 -0.12179266954E+03  0.19514981818E+03  0.12500000000E+03 0.  0.
</event>
<event>
 5    0  0.5532658E-005  0.2617142E+03  0.7546771E-02  0.1106118E+00
         21   -1    0    0  502  501  0.00000000000E+00  0.00000000000E+00  0.11047671786E+03  0.11047671786E+03  0.00000000000E+00 0.  1.
         21   -1    0    0  501  502 -0.00000000000E+00 -0.00000000000E+00 -0.61998890144E+03  0.61998890144E+03  0.00000000000E+00 0.  1.
         25    1    1    2    0    0  0.40027157905E+02  0.51409881577E+02 -0.96093592969E+02  0.17059931976E+03  0.12500000000E+03 0.  0.
         25    1    1    2    0    0  0.17935550103E+02  0.88603378094E+02 -0.82253238447E+02  0.17482230350E+03  0.12500000000E+03 0.  0.
         25    1    1    2    0    0 -0.57962708009E+02 -0.14001325967E+03 -0.33116535217E+03  0.38504399603E+03  0.12500000000E+03 0.  0.
</event>
<event>
 5    0  0.5532658E-005  0.2544175E+03  0.7546771E-02  0.1110544E+00
         21   -1    0    0  502  501  0.00000000000E+00  0.00000000000E+00  0.14336205690E+03  0.14336205690E+03  0.00000000000E+00 0. -1.
         21   -1    0    0  501  502 -0.00000000000E+00 -0.00000000000E+00 -0.45150208834E+03  0.45150208834E+03  0.00000000000E+00 0. -1.
         25    1    1    2    0    0 -0.48015905615E+02 -0.56604928792E+02 -0.14290247969E+03  0.20385230893E+03  0.12500000000E+03 0.  0.
         25    1    1    2    0    0 -0.93449810823E+02  0.44656371272E+02 -0.10127175618E+03  0.19133224307E+03  0.12500000000E+03 0.  0.
         25    1    1    2    0    0  0.14146571644E+03  0.11948557519E+02 -0.63965795566E+02  0.19967959324E+03  0.12500000000E+03 0.  0.
</event>
<event>
 5    0  0.6402115E-005  0.2683450E+03  0.7546771E-02  0.1102231E+00
         21   -1    0    0  502  501  0.00000000000E+00  0.00000000000E+00  0.30276101011E+03  0.30276101011E+03  0.00000000000E+00 0. -1.
         21   -1    0    0  501  502 -0.00000000000E+00 -0.00000000000E+00 -0.23784113049E+03  0.23784113049E+03  0.00000000000E+00 0. -1.
         25    1    1    2    0    0 -0.12103886700E+03 -0.67622488238E+02 -0.49774437496E+02  0.19319860990E+03  0.12500000000E+03 0.  0.
         25    1    1    2    0    0  0.80910932387E+02  0.71091200863E+02 -0.11328027448E+02  0.16539003001E+03  0.12500000000E+03 0.  0.
         25    1    1    2    0    0  0.40127934613E+02 -0.34687126254E+01  0.12602234457E+03  0.18201350069E+03  0.12500000000E+03 0.  0.
</event>
<event>
 5    0  0.5532658E-005  0.3060037E+03  0.7546771E-02  0.1082277E+00
         21   -1    0    0  502  501  0.00000000000E+00  0.00000000000E+00  0.49207560503E+03  0.49207560503E+03  0.00000000000E+00 0. -1.
         21   -1    0    0  501  502 -0.00000000000E+00 -0.00000000000E+00 -0.19029238185E+03  0.19029238185E+03  0.00000000000E+00 0. -1.
         25    1    1    2    0    0  0.10386876959E+03  0.86154962560E+01  0.58138459822E+02  0.17282369219E+03  0.12500000000E+03 0.  0.
         25    1    1    2    0    0 -0.16653145892E+03  0.13413314228E+03  0.13331534304E+03  0.28128705509E+03  0.12500000000E+03 0.  0.
         25    1    1    2    0    0  0.62662689336E+02 -0.14274863854E+03  0.11032942032E+03  0.22825723960E+03  0.12500000000E+03 0.  0.
</event>
<event>
 5    0  0.5532658E-005  0.2587801E+03  0.7546771E-02  0.1107878E+00
         21   -1    0    0  502  501  0.00000000000E+00  0.00000000000E+00  0.14695558208E+03  0.14695558208E+03  0.00000000000E+00 0.  1.
         21   -1    0    0  501  502 -0.00000000000E+00 -0.00000000000E+00 -0.45569656781E+03  0.45569656781E+03  0.00000000000E+00 0.  1.
         25    1    1    2    0    0  0.13839875082E+02  0.10804466893E+03 -0.14603973296E+03  0.22094749655E+03  0.12500000000E+03 0.  0.
         25    1    1    2    0    0 -0.38429656824E+02 -0.16006675211E+03 -0.11171932552E+03  0.23495619028E+03  0.12500000000E+03 0.  0.
         25    1    1    2    0    0  0.24589781742E+02  0.52022083180E+02 -0.50981927256E+02  0.14674846306E+03  0.12500000000E+03 0.  0.
</event>
<event>
 5    0  0.5532658E-005  0.3080731E+03  0.7546771E-02  0.1081273E+00
         21   -1    0    0  502  501  0.00000000000E+00  0.00000000000E+00  0.71938656952E+03  0.71938656952E+03  0.00000000000E+00 0.  1.
         21   -1    0    0  501  502 -0.00000000000E+00 -0.00000000000E+00 -0.13193051045E+03  0.13193051045E+03  0.00000000000E+00 0.  1.
         25    1    1    2    0    0 -0.53328876146E+02 -0.82709519252E+02  0.24120357058E+03  0.28894462457E+03  0.12500000000E+03 0.  0.
         25    1    1    2    0    0 -0.11725668308E+03  0.12471729433E+03  0.97890239265E+02  0.23347597773E+03  0.12500000000E+03 0.  0.
         25    1    1    2    0    0  0.17058555923E+03 -0.42007775077E+02  0.24836224922E+03  0.32889647767E+03  0.12500000000E+03 0.  0.
</event>
<event>
 5    0  0.5532658E-005  0.3297100E+03  0.7546771E-02  0.1071265E+00
         21   -1    0    0  502  501  0.00000000000E+00  0.00000000000E+00  0.26306297910E+04  0.26306297910E+04  0.00000000000E+00 0. -1.
         21   -1    0    0  501  502 -0.00000000000E+00 -0.00000000000E+00 -0.41324203239E+02  0.41324203239E+02  0.00000000000E+00 0. -1.
         25    1    1    2    0    0  0.15911888590E+03 -0.10040488245E+03  0.12328498291E+04  0.12533729140E+04  0.12500000000E+03 0.  0.
         25    1    1    2    0    0 -0.10083354330E+03 -0.67601707765E+02  0.37737037602E+03  0.41565706423E+03  0.12500000000E+03 0.  0.
         25    1    1    2    0    0 -0.58285342604E+02  0.16800659022E+03  0.97908538265E+03  0.10029240161E+04  0.12500000000E+03 0.  0.
</event>
<event>
 5    0  0.5532658E-005  0.3958728E+03  0.7546771E-02  0.1045218E+00
         21   -1    0    0  502  501  0.00000000000E+00  0.00000000000E+00  0.14372345251E+03  0.14372345251E+03  0.00000000000E+00 0. -1.
         21   -1    0    0  501  502 -0.00000000000E+00 -0.00000000000E+00 -0.10903943246E+04  0.10903943246E+04  0.00000000000E+00 0. -1.
         25    1    1    2    0    0  0.98195890725E+02  0.10533986425E+03 -0.74305893465E+03  0.76713786265E+03  0.12500000000E+03 0.  0.
         25    1    1    2    0    0 -0.13550994728E+03 -0.69681655343E+02 -0.25502005558E+03  0.32230219926E+03  0.12500000000E+03 0.  0.
         25    1    1    2    0    0  0.37314056553E+02 -0.35658208903E+02  0.51408118101E+02  0.14467771523E+03  0.12500000000E+03 0.  0.
</event>
<event>
 5    0  0.5532658E-005  0.3032946E+03  0.7546771E-02  0.1083605E+00
         21   -1    0    0  502  501  0.00000000000E+00  0.00000000000E+00  0.13511678042E+04  0.13511678042E+04  0.00000000000E+00 0. -1.
         21   -1    0    0  501  502 -0.00000000000E+00 -0.00000000000E+00 -0.68080072066E+02  0.68080072066E+02  0.00000000000E+00 0. -1.
         25    1    1    2    0    0 -0.61138139250E+02  0.15895513627E+03  0.43667501389E+03  0.48509243983E+03  0.12500000000E+03 0.  0.
         25    1    1    2    0    0  0.14119603990E+03 -0.72602183969E+02  0.60529625498E+03  0.63813474682E+03  0.12500000000E+03 0.  0.
         25    1    1    2    0    0 -0.80057900645E+02 -0.86352952298E+02  0.24111646322E+03  0.29602068958E+03  0.12500000000E+03 0.  0.
</event>
<event>
 5    0  0.5532658E-005  0.4488491E+03  0.7546771E-02  0.1028066E+00
         21   -1    0    0  502  501  0.00000000000E+00  0.00000000000E+00  0.39312773998E+03  0.39312773998E+03  0.00000000000E+00 0.  1.
         21   -1    0    0  501  502 -0.00000000000E+00 -0.00000000000E+00 -0.51246843840E+03  0.51246843840E+03  0.00000000000E+00 0.  1.
         25    1    1    2    0    0 -0.10460753135E+03  0.28114464857E+03 -0.31245884794E+03  0.45082211646E+03  0.12500000000E+03 0.  0.
         25    1    1    2    0    0 -0.12192542369E+02 -0.86061257215E+02  0.73178111203E+02  0.16892375215E+03  0.12500000000E+03 0.  0.
         25    1    1    2    0    0  0.11680007372E+03 -0.19508339135E+03  0.11994003832E+03  0.28585030977E+03  0.12500000000E+03 0.  0.
</event>
<event>
 5    0  0.5532658E-005  0.2593905E+03  0.7546771E-02  0.1107510E+00
         21   -1    0    0  502  501  0.00000000000E+00  0.00000000000E+00  0.20430095994E+03  0.20430095994E+03  0.00000000000E+00 0. -1.
         21   -1    0    0  501  502 -0.00000000000E+00 -0.00000000000E+00 -0.32933484439E+03  0.32933484439E+03  0.00000000000E+00 0. -1.
         25    1    1    2    0    0  0.75977365142E+02 -0.42160402131E+02 -0.12947787887E+03  0.19984889451E+03  0.12500000000E+03 0.  0.
         25    1    1    2    0    0 -0.41290445120E+02 -0.81131253550E+02  0.71350224606E+01  0.15480016055E+03  0.12500000000E+03 0.  0.
         25    1    1    2    0    0 -0.34686920022E+02  0.12329165568E+03 -0.26910280465E+01  0.17898674927E+03  0.12500000000E+03 0.  0.
</event>
<event>
 5    0  0.5688800E-005  0.2582947E+03  0.7546771E-02  0.1108172E+00
         21   -1    0    0  502  501  0.00000000000E+00  0.00000000000E+00  0.40338998040E+03  0.40338998040E+03  0.00000000000E+00 0. -1.
         21   -1    0    0  501  502 -0.00000000000E+00 -0.00000000000E+00 -0.16538874367E+03  0.16538874367E+03  0.00000000000E+00 0. -1.
         25    1    1    2    0    0 -0.68320132630E+02  0.38999186417E+02  0.11370107107E+02  0.14813121345E+03  0.12500000000E+03 0.  0.
         25    1    1    2    0    0 -0.47581945864E+00  0.71294354557E+02  0.18233972669E+02  0.14505374575E+03  0.12500000000E+03 0.  0.
         25    1    1    2    0    0  0.68795952089E+02 -0.11029354097E+03  0.20839715696E+03  0.27559376487E+03  0.12500000000E+03 0.  0.
</event>
<event>
 5    0  0.5532658E-005  0.2389513E+03  0.7546771E-02  0.1120493E+00
         21   -1    0    0  502  501  0.00000000000E+00  0.00000000000E+00  0.17150573571E+03  0.17150573571E+03  0.00000000000E+00 0. -1.
         21   -1    0    0  501  502 -0.00000000000E+00 -0.00000000000E+00 -0.33292006780E+03  0.33292006780E+03  0.00000000000E+00 0. -1.
         25    1    1    2    0    0  0.69532249123E+02 -0.11682292846E+03 -0.91943064442E+02  0.20630282931E+03  0.12500000000E+03 0.  0.
         25    1    1    2    0    0 -0.54810849995E+02  0.80769587968E+02 -0.30323448277E+02  0.16146970965E+03  0.12500000000E+03 0.  0.
         25    1    1    2    0    0 -0.14721399128E+02  0.36053340493E+02 -0.39147819370E+02  0.13665326456E+03  0.12500000000E+03 0.  0.
</event>
<event>
 5    0  0.5532658E-005  0.2635672E+03  0.7546771E-02  0.1105019E+00
         21   -1    0    0  502  501  0.00000000000E+00  0.00000000000E+00  0.38888291257E+03  0.38888291257E+03  0.00000000000E+00 0. -1.
         21   -1    0    0  501  502 -0.00000000000E+00 -0.00000000000E+00 -0.17863390686E+03  0.17863390686E+03  0.00000000000E+00 0. -1.
         25    1    1    2    0    0  0.40623614077E+02  0.23412101414E+02 -0.31056363883E+02  0.13706896896E+03  0.12500000000E+03 0.  0.
         25    1    1    2    0    0 -0.12346049862E+03 -0.83873110566E+02  0.12729589762E+03  0.23260790818E+03  0.12500000000E+03 0.  0.
         25    1    1    2    0    0  0.82836884545E+02  0.60461009152E+02  0.11400947196E+03  0.19783994229E+03  0.12500000000E+03 0.  0.
</event>
<event>
 5    0  0.5532658E-005  0.4239541E+03  0.7546771E-02  0.1035787E+00
         21   -1    0    0  502  501  0.00000000000E+00  0.00000000000E+00  0.53321109139E+03  0.53321109139E+03  0.00000000000E+00 0.  1.
         21   -1    0    0  501  502 -0.00000000000E+00 -0.00000000000E+00 -0.33708421203E+03  0.33708421203E+03  0.00000000000E+00 0.  1.
         25    1    1    2    0    0  0.10646737947E+03  0.19729931520E+03  0.14190657584E+03  0.29329984476E+03  0.12500000000E+03 0.  0.
         25    1    1    2    0    0 -0.19193376562E+03 -0.30520710670E+03 -0.57044800912E+01  0.38163790360E+03  0.12500000000E+03 0.  0.
         25    1    1    2    0    0  0.85466386149E+02  0.10790779150E+03  0.59924783613E+02  0.19535755506E+03  0.12500000000E+03 0.  0.
</event>
<event>
 5    0  0.5532658E-005  0.2677619E+03  0.7546771E-02  0.1102567E+00
         21   -1    0    0  502  501  0.00000000000E+00  0.00000000000E+00  0.88653478710E+03  0.88653478710E+03  0.00000000000E+00 0. -1.
         21   -1    0    0  501  502 -0.00000000000E+00 -0.00000000000E+00 -0.80872690590E+02  0.80872690590E+02  0.00000000000E+00 0. -1.
         25    1    1    2    0    0 -0.12135756082E+03  0.40044281124E+01  0.20925482294E+03  0.27231649589E+03  0.12500000000E+03 0.  0.
         25    1    1    2    0    0  0.80329054403E+02 -0.43604181677E+02  0.50951806535E+03  0.53252956778E+03  0.12500000000E+03 0.  0.
         25    1    1    2    0    0  0.41028506414E+02  0.39599753565E+02  0.86889208212E+02  0.16256141401E+03  0.12500000000E+03 0.  0.
</event>
<event>
 5    0  0.5532658E-005  0.3236413E+03  0.7546771E-02  0.1073986E+00
         21   -1    0    0  502  501  0.00000000000E+00  0.00000000000E+00  0.23366893930E+03  0.23366893930E+03  0.00000000000E+00 0. -1.
         21   -1    0    0  501  502 -0.00000000000E+00 -0.00000000000E+00 -0.44825673849E+03  0.44825673849E+03  0.00000000000E+00 0. -1.
         25    1    1    2    0    0 -0.73957499064E+02  0.16364369742E+03 -0.68086833362E+02  0.22915014347E+03  0.12500000000E+03 0.  0.
         25    1    1    2    0    0 -0.24014052723E+02  0.68309796741E+02 -0.25346658843E+02  0.14666409299E+03  0.12500000000E+03 0.  0.
         25    1    1    2    0    0  0.97971551787E+02 -0.23195349416E+03 -0.12115430698E+03  0.30611144133E+03  0.12500000000E+03 0.  0.
</event>
<event>
 5    0  0.5532658E-005  0.4921126E+03  0.7546771E-02  0.1015858E+00
         21   -1    0    0  502  501  0.00000000000E+00  0.00000000000E+00  0.71204631229E+02  0.71204631229E+02  0.00000000000E+00 0.  1.
         21   -1    0    0  501  502 -0.00000000000E+00 -0.00000000000E+00 -0.34011100837E+04  0.34011100837E+04  0.00000000000E+00 0.  1.
         25    1    1    2    0    0 -0.10626625725E+03 -0.74508417217E+02 -0.17839338832E+04  0.17930111882E+04  0.12500000000E+03 0.  0.
         25    1    1    2    0    0  0.34195907103E+03  0.64618210371E+02 -0.10889184227E+04  0.11499912394E+04  0.12500000000E+03 0.  0.
         25    1    1    2    0    0 -0.23569281378E+03  0.98902068452E+01 -0.45705314662E+03  0.52931228731E+03  0.12500000000E+03 0.  0.
</event>
<event>
 5    0  0.5532658E-005  0.3588877E+03  0.7546771E-02  0.1059025E+00
         21   -1    0    0  502  501  0.00000000000E+00  0.00000000000E+00  0.75495042135E+02  0.75495042135E+02  0.00000000000E+00 0.  1.
         21   -1    0    0  501  502 -0.00000000000E+00 -0.00000000000E+00 -0.17060771107E+04  0.17060771107E+04  0.00000000000E+00 0.  1.
         25    1    1    2    0    0  0.11640934559E+03  0.25331485516E+03 -0.46123898794E+03  0.55325035524E+03  0.12500000000E+03 0.  0.
         25    1    1    2    0    0 -0.59007466364E+02 -0.14951195796E+03 -0.64780406452E+03  0.67905140650E+03  0.12500000000E+03 0.  0.
         25    1    1    2    0    0 -0.57401879229E+02 -0.10380289719E+03 -0.52153901608E+03  0.54927039107E+03  0.12500000000E+03 0.  0.
</event>
<event>
 5    0  0.5532658E-005  0.4085095E+03  0.7546771E-02  0.1040872E+00
         21   -1    0    0  502  501  0.00000000000E+00  0.00000000000E+00  0.73301455978E+03  0.73301455978E+03  0.00000000000E+00 0. -1.
         21   -1    0    0  501  502 -0.00000000000E+00 -0.00000000000E+00 -0.22766256269E+03  0.22766256269E+03  0.00000000000E+00 0. -1.
         25    1    1    2    0    0 -0.56218637617E+02  0.18853141451E+03  0.20464405574E+03  0.31017546489E+03  0.12500000000E+03 0.  0.
         25    1    1    2    0    0 -0.15224484993E+03 -0.17558105497E+03  0.32972413769E+00  0.26387934727E+03  0.12500000000E+03 0.  0.
         25    1    1    2    0    0  0.20846348755E+03 -0.12950359537E+02  0.30037821722E+03  0.38662231032E+03  0.12500000000E+03 0.  0.
</event>
<event>
 5    0  0.5532658E-005  0.4219735E+03  0.7546771E-02  0.1036426E+00
         21   -1    0    0  502  501  0.00000000000E+00  0.00000000000E+00  0.32779628070E+03  0.32779628070E+03  0.00000000000E+00 0. -1.
         21   -1    0    0  501  502 -0.00000000000E+00 -0.00000000000E+00 -0.54320815258E+03  0.54320815258E+03  0.00000000000E+00 0. -1.
         25    1    1    2    0    0 -0.25841508814E+03 -0.36930246858E+02 -0.11628938662E+03  0.31191412657E+03  0.12500000000E+03 0.  0.
         25    1    1    2    0    0  0.25619976110E+03 -0.96414689074E+02  0.71211664974E+02  0.30924134763E+03  0.12500000000E+03 0.  0.
         25    1    1    2    0    0  0.22153270379E+01  0.13334493593E+03 -0.17033415024E+03  0.24984895908E+03  0.12500000000E+03 0.  0.
</event>
<event>
 5    0  0.5532658E-005  0.2651801E+03  0.7546771E-02  0.1104070E+00
         21   -1    0    0  502  501  0.00000000000E+00  0.00000000000E+00  0.83034500869E+02  0.83034500869E+02  0.00000000000E+00 0.  1.
         21   -1    0    0  501  502 -0.00000000000E+00 -0.00000000000E+00 -0.84688276707E+03  0.84688276707E+03  0.00000000000E+00 0.  1.
         25    1    1    2    0    0 -0.85665982165E+02 -0.56322792306E+02 -0.16129181982E+03  0.22836586561E+03  0.12500000000E+03 0.  0.
         25    1    1    2    0    0  0.28748097202E+02 -0.53693885992E+02 -0.10632835056E+03  0.17504343638E+03  0.12500000000E+03 0.  0.
         25    1    1    2    0    0  0.56917884963E+02  0.11001667830E+03 -0.49622809582E+03  0.52650796595E+03  0.12500000000E+03 0.  0.
</event>
<event>
 5    0  0.5532658E-005  0.3293367E+03  0.7546771E-02  0.1071431E+00
         21   -1    0    0  502  501  0.00000000000E+00  0.00000000000E+00  0.82976188976E+02  0.82976188976E+02  0.00000000000E+00 0.  1.
         21   -1    0    0  501  502 -0.00000000000E+00 -0.00000000000E+00 -0.13071540897E+04  0.13071540897E+04  0.00000000000E+00 0.  1.
         25    1    1    2    0    0  0.17748900735E+03  0.20125739029E+02 -0.33381899688E+03  0.39870730590E+03  0.12500000000E+03 0.  0.
         25    1    1    2    0    0  0.14818359542E+02  0.67303047516E+02 -0.57134311570E+03  0.58890342149E+03  0.12500000000E+03 0.  0.
         25    1    1    2    0    0 -0.19230736690E+03 -0.87428786545E+02 -0.31901578814E+03  0.40251955128E+03  0.12500000000E+03 0.  0.
</event>
<event>
 5    0  0.5532658E-005  0.3169079E+03  0.7546771E-02  0.1077081E+00
         21   -1    0    0  502  501  0.00000000000E+00  0.00000000000E+00  0.23473365503E+03  0.23473365503E+03  0.00000000000E+00 0.  1.
         21   -1    0    0  501  502 -0.00000000000E+00 -0.00000000000E+00 -0.42784931043E+03  0.42784931043E+03  0.00000000000E+00 0.  1.
         25    1    1    2    0    0  0.93177352802E+02  0.67733327444E+02 -0.45067830090E+02  0.17585770393E+03  0.12500000000E+03 0.  0.
         25    1    1    2    0    0 -0.20639233645E+03 -0.13065053767E+03 -0.13618599613E+03  0.30633149541E+03  0.12500000000E+03 0.  0.
         25    1    1    2    0    0  0.11321498365E+03  0.62917210228E+02 -0.11861829182E+02  0.18039376612E+03  0.12500000000E+03 0.  0.
</event>
<event>
 5    0  0.5696159E-005  0.2666047E+03  0.7546771E-02  0.1103239E+00
         21   -1    0    0  502  501  0.00000000000E+00  0.00000000000E+00  0.15134133737E+03  0.15134133737E+03  0.00000000000E+00 0. -1.
         21   -1    0    0  501  502 -0.00000000000E+00 -0.00000000000E+00 -0.46965393430E+03  0.46965393430E+03  0.00000000000E+00 0. -1.
         25    1    1    2    0    0 -0.15561581116E+02 -0.64423170710E+02 -0.12325284609E+02  0.14201908453E+03  0.12500000000E+03 0.  0.
         25    1    1    2    0    0 -0.70337436317E+02 -0.67889792839E+02 -0.18663520508E+03  0.24497771061E+03  0.12500000000E+03 0.  0.
         25    1    1    2    0    0  0.85899017433E+02  0.13231296355E+03 -0.11935210724E+03  0.23399847654E+03  0.12500000000E+03 0.  0.
</event>
<event>
 5    0  0.5532658E-005  0.5237491E+03  0.7546771E-02  0.1007759E+00
         21   -1    0    0  502  501  0.00000000000E+00  0.00000000000E+00  0.91662972396E+03  0.91662972396E+03  0.00000000000E+00 0.  1.
         21   -1    0    0  501  502 -0.00000000000E+00 -0.00000000000E+00 -0.29926278850E+03  0.29926278850E+03  0.00000000000E+00 0.  1.
         25    1    1    2    0    0  0.17420930770E+03 -0.21448861757E+03  0.80760797394E+02  0.31384957600E+03  0.12500000000E+03 0.  0.
         25    1    1    2    0    0 -0.32872719977E+03  0.33696000889E+03  0.40888254923E+03  0.63593518422E+03  0.12500000000E+03 0.  0.
         25    1    1    2    0    0  0.15451789207E+03 -0.12247139131E+03  0.12772358883E+03  0.26610775224E+03  0.12500000000E+03 0.  0.
</event>
<event>
 5    0  0.5532658E-005  0.3196939E+03  0.7546771E-02  0.1075790E+00
         21   -1    0    0  502  501  0.00000000000E+00  0.00000000000E+00  0.31888189271E+03  0.31888189271E+03  0.00000000000E+00 0.  1.
         21   -1    0    0  501  502 -0.00000000000E+00 -0.00000000000E+00 -0.32050805342E+03  0.32050805342E+03  0.00000000000E+00 0.  1.
         25    1    1    2    0    0  0.66721590537E+02 -0.12909519640E+02 -0.15960461805E+02  0.14317179430E+03  0.12500000000E+03 0.  0.
         25    1    1    2    0    0 -0.12042189508E+03 -0.94918282154E+02  0.17167256431E+03  0.26193010984E+03  0.12500000000E+03 0.  0.
         25    1    1    2    0    0  0.53700304544E+02  0.10782780179E+03 -0.15733826321E+03  0.23428804199E+03  0.12500000000E+03 0.  0.
</event>
<event>
 5    0  0.5532658E-005  0.2561357E+03  0.7546771E-02  0.1109487E+00
         21   -1    0    0  502  501  0.00000000000E+00  0.00000000000E+00  0.12229165079E+03  0.12229165079E+03  0.00000000000E+00 0. -1.
         21   -1    0    0  501  502 -0.00000000000E+00 -0.00000000000E+00 -0.53646744746E+03  0.53646744746E+03  0.00000000000E+00 0. -1.
         25    1    1    2    0    0 -0.59386825413E+02 -0.14718755836E+02 -0.24163554514E+03  0.27884793971E+03  0.12500000000E+03 0.  0.
         25    1    1    2    0    0 -0.15880475069E+02  0.10661301880E+03 -0.98812384891E+02  0.19237310798E+03  0.12500000000E+03 0.  0.
         25    1    1    2    0    0  0.75267300482E+02 -0.91894262967E+02 -0.73727866633E+02  0.18753805056E+03  0.12500000000E+03 0.  0.
</event>
<event>
 5    0  0.5532658E-005  0.3216090E+03  0.7546771E-02  0.1074911E+00
         21   -1    0    0  502  501  0.00000000000E+00  0.00000000000E+00  0.12283657771E+03  0.12283657771E+03  0.00000000000E+00 0.  1.
         21   -1    0    0  501  502 -0.00000000000E+00 -0.00000000000E+00 -0.84203222343E+03  0.84203222343E+03  0.00000000000E+00 0.  1.
         25    1    1    2    0    0 -0.63901067136E+01 -0.35746952507E+02 -0.10692972290E+03  0.16845665234E+03  0.12500000000E+03 0.  0.
         25    1    1    2    0    0 -0.16956345816E+03 -0.31556130087E+02 -0.50106066330E+03  0.54445784410E+03  0.12500000000E+03 0.  0.
         25    1    1    2    0    0  0.17595356487E+03  0.67303082594E+02 -0.11120525952E+03  0.25195430471E+03  0.12500000000E+03 0.  0.
</event>
<event>
 5    0  0.5532658E-005  0.4440490E+03  0.7546771E-02  0.1029512E+00
         21   -1    0    0  502  501  0.00000000000E+00  0.00000000000E+00  0.13402102441E+03  0.13402102441E+03  0.00000000000E+00 0.  1.
         21   -1    0    0  501  502 -0.00000000000E+00 -0.00000000000E+00 -0.14712583039E+04  0.14712583039E+04  0.00000000000E+00 0.  1.
         25    1    1    2    0    0 -0.31593466146E+02 -0.17577290795E+03 -0.30801192079E+03  0.37734679755E+03  0.12500000000E+03 0.  0.
         25    1    1    2    0    0 -0.14021363142E+03  0.23425780061E+01 -0.28134993751E+02  0.18995243611E+03  0.12500000000E+03 0.  0.
         25    1    1    2    0    0  0.17180709757E+03  0.17343032994E+03 -0.10010903650E+04  0.10379800947E+04  0.12500000000E+03 0.  0.
</event>
<event>
 5    0  0.5532658E-005  0.3538955E+03  0.7546771E-02  0.1061027E+00
         21   -1    0    0  502  501  0.00000000000E+00  0.00000000000E+00  0.12089267149E+03  0.12089267149E+03  0.00000000000E+00 0. -1.
         21   -1    0    0  501  502 -0.00000000000E+00 -0.00000000000E+00 -0.10359767181E+04  0.10359767181E+04  0.00000000000E+00 0. -1.
         25    1    1    2    0    0  0.71937826779E+02 -0.51633106111E+02 -0.19423795082E+03  0.24737503938E+03  0.12500000000E+03 0.  0.
         25    1    1    2    0    0 -0.11783775403E+03  0.23216719644E+03 -0.22788818664E+03  0.36789314887E+03  0.12500000000E+03 0.  0.
         25    1    1    2    0    0  0.45899927249E+02 -0.18053409033E+03 -0.49295790915E+03  0.54160120134E+03  0.12500000000E+03 0.  0.
</event>
<event>
 5    0  0.5532658E-005  0.2441018E+03  0.7546771E-02  0.1117090E+00
         21   -1    0    0  502  501  0.00000000000E+00  0.00000000000E+00  0.21375693303E+03  0.21375693303E+03  0.00000000000E+00 0. -1.
         21   -1    0    0  501  502 -0.00000000000E+00 -0.00000000000E+00 -0.27875437612E+03  0.27875437612E+03  0.00000000000E+00 0. -1.
         25    1    1    2    0    0 -0.44390526978E+02  0.95432167869E+02 -0.34125639205E+02  0.16693524733E+03  0.12500000000E+03 0.  0.
         25    1    1    2    0    0  0.63287494391E+02 -0.55737811032E+02  0.62759960285E+02  0.16332734964E+03  0.12500000000E+03 0.  0.
         25    1    1    2    0    0 -0.18896967414E+02 -0.39694356838E+02 -0.93631764172E+02  0.16224871218E+03  0.12500000000E+03 0.  0.
</event>
<event>
 5    0  0.5532658E-005  0.2922212E+03  0.7546771E-02  0.1089195E+00
         21   -1    0    0  502  501  0.00000000000E+00  0.00000000000E+00  0.10848559364E+04  0.10848559364E+04  0.00000000000E+00 0. -1.
         21   -1    0    0  501  502 -0.00000000000E+00 -0.00000000000E+00 -0.78713862324E+02  0.78713862324E+02  0.00000000000E+00 0. -1.
         25    1    1    2    0    0  0.64440669482E+02  0.14598267805E+03  0.29801431194E+03  0.36041791339E+03  0.12500000000E+03 0.  0.
         25    1    1    2    0    0  0.55047439043E+02 -0.15103547479E+03  0.33824095739E+03  0.39480866309E+03  0.12500000000E+03 0.  0.
         25    1    1    2    0    0 -0.11948810853E+03  0.50527967439E+01  0.36988680478E+03  0.40834322228E+03  0.12500000000E+03 0.  0.
</event>
<event>
 5    0  0.5532658E-005  0.3293002E+03  0.7546771E-02  0.1071447E+00
         21   -1    0    0  502  501  0.00000000000E+00  0.00000000000E+00  0.47209254027E+03  0.47209254027E+03  0.00000000000E+00 0. -1.
         21   -1    0    0  501  502 -0.00000000000E+00 -0.00000000000E+00 -0.22969787577E+03  0.22969787577E+03  0.00000000000E+00 0. -1.
         25    1    1    2    0    0 -0.50543868460E+01 -0.43584448450E+02 -0.23974366033E+02  0.13462882752E+03  0.12500000000E+03 0.  0.
         25    1    1    2    0    0  0.40772193330E+02  0.23004899888E+03  0.91339038497E+02  0.28027260585E+03  0.12500000000E+03 0.  0.
         25    1    1    2    0    0 -0.35717806484E+02 -0.18646455043E+03  0.17502999203E+03  0.28688898267E+03  0.12500000000E+03 0.  0.
</event>
<event>
 5    0  0.1126366E-004  0.8652861E+03  0.7546771E-02  0.9470047E-01
         21   -1    0    0  502  501  0.00000000000E+00  0.00000000000E+00  0.14855325847E+04  0.14855325847E+04  0.00000000000E+00 0. -1.
         21   -1    0    0  501  502 -0.00000000000E+00 -0.00000000000E+00 -0.50400783007E+03  0.50400783007E+03  0.00000000000E+00 0. -1.
         25    1    1    2    0    0 -0.42517584313E+03 -0.16743675446E+03  0.16436059092E+03  0.50144687472E+03  0.12500000000E+03 0.  0.
         25    1    1    2    0    0 -0.16309771146E+03  0.47120576776E+03  0.57704677069E+03  0.77281544667E+03  0.12500000000E+03 0.  0.
         25    1    1    2    0    0  0.58827355458E+03 -0.30376901330E+03  0.24011739306E+03  0.71527809341E+03  0.12500000000E+03 0.  0.
</event>
<event>
 5    0  0.5532658E-005  0.2490561E+03  0.7546771E-02  0.1113903E+00
         21   -1    0    0  502  501  0.00000000000E+00  0.00000000000E+00  0.22043208969E+03  0.22043208969E+03  0.00000000000E+00 0. -1.
         21   -1    0    0  501  502 -0.00000000000E+00 -0.00000000000E+00 -0.28139705346E+03  0.28139705346E+03  0.00000000000E+00 0. -1.
         25    1    1    2    0    0  0.28178531768E+02 -0.81141415512E+02  0.25889194801E+02  0.15386100666E+03  0.12500000000E+03 0.  0.
         25    1    1    2    0    0 -0.55120212443E+02 -0.48860213110E+02  0.20456637398E+01  0.14510252577E+03  0.12500000000E+03 0.  0.
         25    1    1    2    0    0  0.26941680675E+02  0.13000162862E+03 -0.88899822316E+02  0.20286561071E+03  0.12500000000E+03 0.  0.
</event>
<event>
 5    0  0.5532658E-005  0.2688303E+03  0.7546771E-02  0.1101951E+00
         21   -1    0    0  502  501  0.00000000000E+00  0.00000000000E+00  0.40279213342E+02  0.40279213342E+02  0.00000000000E+00 0.  1.
         21   -1    0    0  501  502 -0.00000000000E+00 -0.00000000000E+00 -0.17942190726E+04  0.17942190726E+04  0.00000000000E+00 0.  1.
         25    1    1    2    0    0 -0.61618194722E+02  0.23047544163E+02 -0.50674806986E+03  0.52606710363E+03  0.12500000000E+03 0.  0.
         25    1    1    2    0    0  0.16177439954E+03 -0.97478219091E+01 -0.93675644605E+03  0.95885536740E+03  0.12500000000E+03 0.  0.
         25    1    1    2    0    0 -0.10015620482E+03 -0.13299722254E+02 -0.31043534340E+03  0.34957581496E+03  0.12500000000E+03 0.  0.
</event>
<event>
 5    0  0.6300336E-005  0.3518163E+03  0.7546771E-02  0.1061872E+00
         21   -1    0    0  502  501  0.00000000000E+00  0.00000000000E+00  0.61203852499E+03  0.61203852499E+03  0.00000000000E+00 0. -1.
         21   -1    0    0  501  502 -0.00000000000E+00 -0.00000000000E+00 -0.20223350854E+03  0.20223350854E+03  0.00000000000E+00 0. -1.
         25    1    1    2    0    0  0.15180559926E+03  0.49825616560E+01  0.42758191803E+03  0.47066024106E+03  0.12500000000E+03 0.  0.
         25    1    1    2    0    0 -0.98744111416E+02  0.83506399691E+02  0.50568418203E+01  0.17992856910E+03  0.12500000000E+03 0.  0.
         25    1    1    2    0    0 -0.53061487848E+02 -0.88488961347E+02 -0.22833743407E+02  0.16368322336E+03  0.12500000000E+03 0.  0.
</event>
<event>
 5    0  0.5785799E-005  0.2992316E+03  0.7546771E-02  0.1085625E+00
         21   -1    0    0  502  501  0.00000000000E+00  0.00000000000E+00  0.41849450990E+03  0.41849450990E+03  0.00000000000E+00 0. -1.
         21   -1    0    0  501  502 -0.00000000000E+00 -0.00000000000E+00 -0.21395637774E+03  0.21395637774E+03  0.00000000000E+00 0. -1.
         25    1    1    2    0    0  0.82963035311E+02 -0.90374014403E+02  0.15587495534E+03  0.23446178667E+03  0.12500000000E+03 0.  0.
         25    1    1    2    0    0  0.52710382759E+02  0.13746706575E+03  0.72110155767E+02  0.20615638041E+03  0.12500000000E+03 0.  0.
         25    1    1    2    0    0 -0.13567341807E+03 -0.47093051350E+02 -0.23446978953E+02  0.19183272056E+03  0.12500000000E+03 0.  0.
</event>
<event>
 5    0  0.5532658E-005  0.2229576E+03  0.7546771E-02  0.1131697E+00
         21   -1    0    0  502  501  0.00000000000E+00  0.00000000000E+00  0.44255089610E+03  0.44255089610E+03  0.00000000000E+00 0.  1.
         21   -1    0    0  501  502 -0.00000000000E+00 -0.00000000000E+00 -0.11232622057E+03  0.11232622057E+03  0.00000000000E+00 0.  1.
         25    1    1    2    0    0  0.43492552149E+02  0.60418792629E+02  0.15395307631E+03  0.21182205338E+03  0.12500000000E+03 0.  0.
         25    1    1    2    0    0  0.16149742166E+01 -0.22863393707E+01  0.15062476183E+03  0.19575662024E+03  0.12500000000E+03 0.  0.
         25    1    1    2    0    0 -0.45107526366E+02 -0.58132453258E+02  0.25646837385E+02  0.14729844305E+03  0.12500000000E+03 0.  0.
</event>
<event>
 5    0  0.5532658E-005  0.4142625E+03  0.7546771E-02  0.1038950E+00
         21   -1    0    0  502  501  0.00000000000E+00  0.00000000000E+00  0.33939901494E+03  0.33939901494E+03  0.00000000000E+00 0.  1.
         21   -1    0    0  501  502 -0.00000000000E+00 -0.00000000000E+00 -0.50563911322E+03  0.50563911322E+03  0.00000000000E+00 0.  1.
         25    1    1    2    0    0  0.78847368035E+02 -0.88485745439E+02 -0.34006753518E+03  0.38120540798E+03  0.12500000000E+03 0.  0.
         25    1    1    2    0    0  0.29779460738E+02  0.16922968784E+03  0.28867914099E+01  0.21250608719E+03  0.12500000000E+03 0.  0.
         25    1    1    2    0    0 -0.10862682877E+03 -0.80743942406E+02  0.17094064549E+03  0.25132663298E+03  0.12500000000E+03 0.  0.
</event>
<event>
 5    0  0.5532658E-005  0.2647352E+03  0.7546771E-02  0.1104331E+00
         21   -1    0    0  502  501  0.00000000000E+00  0.00000000000E+00  0.18726421005E+03  0.18726421005E+03  0.00000000000E+00 0. -1.
         21   -1    0    0  501  502 -0.00000000000E+00 -0.00000000000E+00 -0.37425577735E+03  0.37425577735E+03  0.00000000000E+00 0. -1.
         25    1    1    2    0    0  0.18268063103E+02 -0.23578046106E+01 -0.10504878373E+03  0.16431533201E+03  0.12500000000E+03 0.  0.
         25    1    1    2    0    0  0.10310997121E+03 -0.29387263412E+02 -0.13432573961E+03  0.21251748571E+03  0.12500000000E+03 0.  0.
         25    1    1    2    0    0 -0.12137803431E+03  0.31745068023E+02  0.52382956033E+02  0.18468716967E+03  0.12500000000E+03 0.  0.
</event>
<event>
 5    0  0.5532658E-005  0.2329022E+03  0.7546771E-02  0.1124614E+00
         21   -1    0    0  502  501  0.00000000000E+00  0.00000000000E+00  0.23657343842E+02  0.23657343842E+02  0.00000000000E+00 0.  1.
         21   -1    0    0  501  502 -0.00000000000E+00 -0.00000000000E+00 -0.22928792016E+04  0.22928792016E+04  0.00000000000E+00 0.  1.
         25    1    1    2    0    0  0.18936626606E+02 -0.54283809387E+02 -0.48020875455E+03  0.49953055536E+03  0.12500000000E+03 0.  0.
         25    1    1    2    0    0  0.59344615453E+02 -0.20551553130E+02 -0.10764185788E+04  0.10854704540E+04  0.12500000000E+03 0.  0.
         25    1    1    2    0    0 -0.78281242059E+02  0.74835362517E+02 -0.71259452441E+03  0.73153553608E+03  0.12500000000E+03 0.  0.
</event>
<event>
 5    0  0.5589987E-005  0.2764144E+03  0.7546771E-02  0.1097664E+00
         21   -1    0    0  502  501  0.00000000000E+00  0.00000000000E+00  0.59533557125E+02  0.59533557125E+02  0.00000000000E+00 0.  1.
         21   -1    0    0  501  502 -0.00000000000E+00 -0.00000000000E+00 -0.12833921201E+04  0.12833921201E+04  0.00000000000E+00 0.  1.
         25    1    1    2    0    0  0.44460072481E+01  0.67585248640E+02 -0.15277775446E+03  0.20869493303E+03  0.12500000000E+03 0.  0.
         25    1    1    2    0    0  0.10430144291E+03  0.25300119413E+02 -0.32531078391E+03  0.36465187942E+03  0.12500000000E+03 0.  0.
         25    1    1    2    0    0 -0.10874745016E+03 -0.92885368054E+02 -0.74577002461E+03  0.76957886478E+03  0.12500000000E+03 0.  0.
</event>
<event>
 5    0  0.5532658E-005  0.2799312E+03  0.7546771E-02  0.1095727E+00
         21   -1    0    0  502  501  0.00000000000E+00  0.00000000000E+00  0.22627248024E+03  0.22627248024E+03  0.00000000000E+00 0. -1.
         21   -1    0    0  501  502 -0.00000000000E+00 -0.00000000000E+00 -0.34631462950E+03  0.34631462950E+03  0.00000000000E+00 0. -1.
         25    1    1    2    0    0  0.88518315810E+02 -0.93501681485E+01  0.67989597352E+02  0.16784070789E+03  0.12500000000E+03 0.  0.
         25    1    1    2    0    0 -0.35325096824E+02  0.95255597916E+02 -0.49970170302E+01  0.16115663678E+03  0.12500000000E+03 0.  0.
         25    1    1    2    0    0 -0.53193218986E+02 -0.85905429767E+02 -0.18303472958E+03  0.24358976506E+03  0.12500000000E+03 0.  0.
</event>
<event>
 5    0  0.5532658E-005  0.3481140E+03  0.7546771E-02  0.1063392E+00
         21   -1    0    0  502  501  0.00000000000E+00  0.00000000000E+00  0.12406161130E+04  0.12406161130E+04  0.00000000000E+00 0.  1.
         21   -1    0    0  501  502 -0.00000000000E+00 -0.00000000000E+00 -0.97679990248E+02  0.97679990248E+02  0.00000000000E+00 0.  1.
         25    1    1    2    0    0 -0.99607416636E+02  0.14246181723E+03  0.55724950836E+03  0.59696651614E+03  0.12500000000E+03 0.  0.
         25    1    1    2    0    0  0.13402531770E+03  0.69035309307E+02  0.33885473469E+03  0.39137729998E+03  0.12500000000E+03 0.  0.
         25    1    1    2    0    0 -0.34417901066E+02 -0.21149712653E+03  0.24683187975E+03  0.34995228719E+03  0.12500000000E+03 0.  0.
</event>
<event>
 5    0  0.5532658E-005  0.3473455E+03  0.7546771E-02  0.1063710E+00
         21   -1    0    0  502  501  0.00000000000E+00  0.00000000000E+00  0.59557850498E+03  0.59557850498E+03  0.00000000000E+00 0. -1.
         21   -1    0    0  501  502 -0.00000000000E+00 -0.00000000000E+00 -0.20257427302E+03  0.20257427302E+03  0.00000000000E+00 0. -1.
         25    1    1    2    0    0 -0.20111485879E+03  0.83982389640E+02 -0.14596972714E+02  0.25167101504E+03  0.12500000000E+03 0.  0.
         25    1    1    2    0    0  0.18385356380E+03 -0.46621835938E+02  0.21190404002E+03  0.31065101108E+03  0.12500000000E+03 0.  0.
         25    1    1    2    0    0  0.17261294994E+02 -0.37360553701E+02  0.19569716466E+03  0.23583075188E+03  0.12500000000E+03 0.  0.
</event>
<event>
 5    0  0.5532658E-005  0.3278335E+03  0.7546771E-02  0.1072100E+00
         21   -1    0    0  502  501  0.00000000000E+00  0.00000000000E+00  0.12602127432E+04  0.12602127432E+04  0.00000000000E+00 0. -1.
         21   -1    0    0  501  502 -0.00000000000E+00 -0.00000000000E+00 -0.85283086829E+02  0.85283086829E+02  0.00000000000E+00 0. -1.
         25    1    1    2    0    0 -0.16092639078E+03  0.12012393198E+03  0.46048806439E+03  0.51768843886E+03  0.12500000000E+03 0.  0.
         25    1    1    2    0    0 -0.41514256360E+02  0.27847917120E+02  0.28271382826E+03  0.31313104071E+03  0.12500000000E+03 0.  0.
         25    1    1    2    0    0  0.20244064714E+03 -0.14797184910E+03  0.43172776368E+03  0.51467635041E+03  0.12500000000E+03 0.  0.
</event>
<event>
 5    0  0.5532658E-005  0.2552526E+03  0.7546771E-02  0.1110030E+00
         21   -1    0    0  502  501  0.00000000000E+00  0.00000000000E+00  0.41134773297E+03  0.41134773297E+03  0.00000000000E+00 0. -1.
         21   -1    0    0  501  502 -0.00000000000E+00 -0.00000000000E+00 -0.15839125826E+03  0.15839125826E+03  0.00000000000E+00 0. -1.
         25    1    1    2    0    0  0.55098882818E+02 -0.11531657775E+03  0.18055753652E+03  0.25408625304E+03  0.12500000000E+03 0.  0.
         25    1    1    2    0    0  0.37306790659E+01 -0.30087526552E+01  0.35744415679E+02  0.13009855422E+03  0.12500000000E+03 0.  0.
         25    1    1    2    0    0 -0.58829561884E+02  0.11832533040E+03  0.36654522517E+02  0.18555418396E+03  0.12500000000E+03 0.  0.
</event>
<event>
 5    0  0.5532658E-005  0.3002833E+03  0.7546771E-02  0.1085099E+00
         21   -1    0    0  502  501  0.00000000000E+00  0.00000000000E+00  0.23522089191E+03  0.23522089191E+03  0.00000000000E+00 0.  1.
         21   -1    0    0  501  502 -0.00000000000E+00 -0.00000000000E+00 -0.38334198021E+03  0.38334198021E+03  0.00000000000E+00 0.  1.
         25    1    1    2    0    0 -0.10437609678E+03 -0.67481100563E+02  0.53230275737E+01  0.17635589906E+03  0.12500000000E+03 0.  0.
         25    1    1    2    0    0  0.11800046282E+03  0.46400445732E+02  0.64779384254E+02  0.18946893997E+03  0.12500000000E+03 0.  0.
         25    1    1    2    0    0 -0.13624366045E+02  0.21080654831E+02 -0.21822350013E+03  0.25273803308E+03  0.12500000000E+03 0.  0.
</event>
<event>
 5    0  0.5532658E-005  0.2323631E+03  0.7546771E-02  0.1124987E+00
         21   -1    0    0  502  501  0.00000000000E+00  0.00000000000E+00  0.73506129715E+02  0.73506129715E+02  0.00000000000E+00 0.  1.
         21   -1    0    0  501  502 -0.00000000000E+00 -0.00000000000E+00 -0.73453212851E+03  0.73453212851E+03  0.00000000000E+00 0.  1.
         25    1    1    2    0    0  0.70059076448E+02 -0.47554705493E+02 -0.40624567420E+03  0.43339389938E+03  0.12500000000E+03 0.  0.
         25    1    1    2    0    0 -0.52847685388E+01  0.17008807399E+02 -0.86133485377E+02  0.15284372938E+03  0.12500000000E+03 0.  0.
         25    1    1    2    0    0 -0.64774307910E+02  0.30545898094E+02 -0.16864683922E+03  0.22180062947E+03  0.12500000000E+03 0.  0.
</event>
<event>
 5    0  0.5532658E-005  0.2585194E+03  0.7546771E-02  0.1108036E+00
         21   -1    0    0  502  501  0.00000000000E+00  0.00000000000E+00  0.70946901205E+03  0.70946901205E+03  0.00000000000E+00 0.  1.
         21   -1    0    0  501  502 -0.00000000000E+00 -0.00000000000E+00 -0.94200407211E+02  0.94200407211E+02  0.00000000000E+00 0.  1.
         25    1    1    2    0    0  0.50611314752E+02  0.41116122567E+01  0.74343474423E+02  0.15404662517E+03  0.12500000000E+03 0.  0.
         25    1    1    2    0    0  0.85794512535E+02 -0.26097692393E+02  0.35262906526E+03  0.38472593569E+03  0.12500000000E+03 0.  0.
         25    1    1    2    0    0 -0.13640582729E+03  0.21986080137E+02  0.18829606516E+03  0.26489685841E+03  0.12500000000E+03 0.  0.
</event>
<event>
 5    0  0.5532658E-005  0.2590478E+03  0.7546771E-02  0.1107717E+00
         21   -1    0    0  502  501  0.00000000000E+00  0.00000000000E+00  0.18689643328E+03  0.18689643328E+03  0.00000000000E+00 0.  1.
         21   -1    0    0  501  502 -0.00000000000E+00 -0.00000000000E+00 -0.35905327922E+03  0.35905327922E+03  0.00000000000E+00 0.  1.
         25    1    1    2    0    0 -0.65539400646E+02  0.10770736838E+03 -0.12354752662E+03  0.21629905588E+03  0.12500000000E+03 0.  0.
         25    1    1    2    0    0  0.95794021619E+01 -0.28800280070E+02  0.55806207772E+02  0.14021609716E+03  0.12500000000E+03 0.  0.
         25    1    1    2    0    0  0.55959998484E+02 -0.78907088314E+02 -0.10441552709E+03  0.18943455945E+03  0.12500000000E+03 0.  0.
</event>
<event>
 5    0  0.6110145E-005  0.3218707E+03  0.7546771E-02  0.1074792E+00
         21   -1    0    0  502  501  0.00000000000E+00  0.00000000000E+00  0.58780185895E+03  0.58780185895E+03  0.00000000000E+00 0.  1.
         21   -1    0    0  501  502 -0.00000000000E+00 -0.00000000000E+00 -0.17625111077E+03  0.17625111077E+03  0.00000000000E+00 0.  1.
         25    1    1    2    0    0 -0.39872153028E+02  0.14597026875E+03  0.11082340735E+03  0.22539728384E+03  0.12500000000E+03 0.  0.
         25    1    1    2    0    0 -0.30683316477E+02 -0.55628356522E+02 -0.50167947803E+02  0.14892213719E+03  0.12500000000E+03 0.  0.
         25    1    1    2    0    0  0.70555469505E+02 -0.90341912231E+02  0.35089528864E+03  0.38973354868E+03  0.12500000000E+03 0.  0.
</event>
<event>
 5    0  0.5532658E-005  0.4327552E+03  0.7546771E-02  0.1032993E+00
         21   -1    0    0  502  501  0.00000000000E+00  0.00000000000E+00  0.25567927946E+03  0.25567927946E+03  0.00000000000E+00 0.  1.
         21   -1    0    0  501  502 -0.00000000000E+00 -0.00000000000E+00 -0.73246878713E+03  0.73246878713E+03  0.00000000000E+00 0.  1.
         25    1    1    2    0    0  0.17585749215E+03  0.15547681292E+03 -0.31877468998E+03  0.41513997624E+03  0.12500000000E+03 0.  0.
         25    1    1    2    0    0 -0.12804576261E+03 -0.25122191120E+03  0.44974548590E+02  0.31169837345E+03  0.12500000000E+03 0.  0.
         25    1    1    2    0    0 -0.47811729546E+02  0.95745098283E+02 -0.20298936627E+03  0.26130971690E+03  0.12500000000E+03 0.  0.
</event>
<event>
 5    0  0.5532658E-005  0.3826147E+03  0.7546771E-02  0.1049972E+00
         21   -1    0    0  502  501  0.00000000000E+00  0.00000000000E+00  0.32060284448E+03  0.32060284448E+03  0.00000000000E+00 0. -1.
         21   -1    0    0  501  502 -0.00000000000E+00 -0.00000000000E+00 -0.45662093761E+03  0.45662093761E+03  0.00000000000E+00 0. -1.
         25    1    1    2    0    0  0.15139047481E+03  0.26630031857E+02  0.20235181284E+02  0.19915495731E+03  0.12500000000E+03 0.  0.
         25    1    1    2    0    0  0.87612334130E+02 -0.18688346508E+03 -0.89124068240E+02  0.25723423208E+03  0.12500000000E+03 0.  0.
         25    1    1    2    0    0 -0.23900280895E+03  0.16025343323E+03 -0.67129206172E+02  0.32083459269E+03  0.12500000000E+03 0.  0.
</event>
<event>
 5    0  0.5532658E-005  0.3133000E+03  0.7546771E-02  0.1078775E+00
         21   -1    0    0  502  501  0.00000000000E+00  0.00000000000E+00  0.12685966112E+03  0.12685966112E+03  0.00000000000E+00 0. -1.
         21   -1    0    0  501  502 -0.00000000000E+00 -0.00000000000E+00 -0.77374413689E+03  0.77374413689E+03  0.00000000000E+00 0. -1.
         25    1    1    2    0    0 -0.13223579350E+03 -0.12283661735E+03 -0.13763625251E+03  0.25912135699E+03  0.12500000000E+03 0.  0.
         25    1    1    2    0    0  0.28180204667E+02 -0.29484435930E+02 -0.33089983408E+03  0.35606622431E+03  0.12500000000E+03 0.  0.
         25    1    1    2    0    0  0.10405558883E+03  0.15232105328E+03 -0.17834838918E+03  0.28541621671E+03  0.12500000000E+03 0.  0.
</event>
<event>
 5    0  0.5532658E-005  0.2846887E+03  0.7546771E-02  0.1093155E+00
         21   -1    0    0  502  501  0.00000000000E+00  0.00000000000E+00  0.75249704051E+02  0.75249704051E+02  0.00000000000E+00 0. -1.
         21   -1    0    0  501  502 -0.00000000000E+00 -0.00000000000E+00 -0.10770496577E+04  0.10770496577E+04  0.00000000000E+00 0. -1.
         25    1    1    2    0    0  0.37474419873E+02 -0.32597000742E+02 -0.52184335498E+03  0.53889923338E+03  0.12500000000E+03 0.  0.
         25    1    1    2    0    0 -0.25670049429E+02 -0.76498569947E+02 -0.57724562427E+02  0.15958730447E+03  0.12500000000E+03 0.  0.
         25    1    1    2    0    0 -0.11804370444E+02  0.10909557069E+03 -0.42223203625E+03  0.45381282391E+03  0.12500000000E+03 0.  0.
</event>
<event>
 5    0  0.5532658E-005  0.2422098E+03  0.7546771E-02  0.1118329E+00
         21   -1    0    0  502  501  0.00000000000E+00  0.00000000000E+00  0.55909557955E+02  0.55909557955E+02  0.00000000000E+00 0. -1.
         21   -1    0    0  501  502 -0.00000000000E+00 -0.00000000000E+00 -0.10492944688E+04  0.10492944688E+04  0.00000000000E+00 0. -1.
         25    1    1    2    0    0 -0.26560674888E+02 -0.54156111932E+02 -0.22661490285E+03  0.26573985043E+03  0.12500000000E+03 0.  0.
         25    1    1    2    0    0 -0.14524104359E+02  0.13580649968E+03 -0.37547243925E+03  0.41863935267E+03  0.12500000000E+03 0.  0.
         25    1    1    2    0    0  0.41084779247E+02 -0.81650387750E+02 -0.39129756870E+03  0.42082482362E+03  0.12500000000E+03 0.  0.
</event>
<event>
 5    0  0.5532658E-005  0.2404280E+03  0.7546771E-02  0.1119508E+00
         21   -1    0    0  502  501  0.00000000000E+00  0.00000000000E+00  0.15597981426E+03  0.15597981426E+03  0.00000000000E+00 0.  1.
         21   -1    0    0  501  502 -0.00000000000E+00 -0.00000000000E+00 -0.37059689615E+03  0.37059689615E+03  0.00000000000E+00 0.  1.
         25    1    1    2    0    0  0.70487913506E+02 -0.83380391988E+01 -0.12351159738E+02  0.14427619345E+03  0.12500000000E+03 0.  0.
         25    1    1    2    0    0 -0.13028234031E+02 -0.35131674759E+02  0.40309473273E+01  0.13055733602E+03  0.12500000000E+03 0.  0.
         25    1    1    2    0    0 -0.57459679475E+02  0.43469713958E+02 -0.20629686948E+03  0.25174318095E+03  0.12500000000E+03 0.  0.
</event>
<event>
 5    0  0.5532658E-005  0.2417675E+03  0.7546771E-02  0.1118621E+00
         21   -1    0    0  502  501  0.00000000000E+00  0.00000000000E+00  0.24696380541E+03  0.24696380541E+03  0.00000000000E+00 0. -1.
         21   -1    0    0  501  502 -0.00000000000E+00 -0.00000000000E+00 -0.23668062467E+03  0.23668062467E+03  0.00000000000E+00 0. -1.
         25    1    1    2    0    0 -0.22102174300E+02  0.56646968343E+02 -0.26284095520E+01  0.13902983014E+03  0.12500000000E+03 0.  0.
         25    1    1    2    0    0 -0.51615624556E+02 -0.12247458271E+03  0.27845231539E+02  0.18456585011E+03  0.12500000000E+03 0.  0.
         25    1    1    2    0    0  0.73717798856E+02  0.65827614366E+02 -0.14933641239E+02  0.16004874983E+03  0.12500000000E+03 0.  0.
</event>
<event>
 5    0  0.5532658E-005  0.3081015E+03  0.7546771E-02  0.1081259E+00
         21   -1    0    0  502  501  0.00000000000E+00  0.00000000000E+00  0.30154919446E+03  0.30154919446E+03  0.00000000000E+00 0.  1.
         21   -1    0    0  501  502 -0.00000000000E+00 -0.00000000000E+00 -0.31479611619E+03  0.31479611619E+03  0.00000000000E+00 0.  1.
         25    1    1    2    0    0  0.53149138177E+01 -0.19741246607E+03 -0.66689500605E+02  0.24304818361E+03  0.12500000000E+03 0.  0.
         25    1    1    2    0    0  0.14934003298E+01  0.87569963028E+02 -0.68086485901E+02  0.16712719178E+03  0.12500000000E+03 0.  0.
         25    1    1    2    0    0 -0.68083141475E+01  0.10984250304E+03  0.12152906478E+03  0.20616993525E+03  0.12500000000E+03 0.  0.
</event>
<event>
 5    0  0.5532658E-005  0.3225680E+03  0.7546771E-02  0.1074473E+00
         21   -1    0    0  502  501  0.00000000000E+00  0.00000000000E+00  0.29009415687E+03  0.29009415687E+03  0.00000000000E+00 0.  1.
         21   -1    0    0  501  502 -0.00000000000E+00 -0.00000000000E+00 -0.35867698389E+03  0.35867698389E+03  0.00000000000E+00 0.  1.
         25    1    1    2    0    0  0.79172975510E+02  0.14887204194E+03 -0.43787870462E+02  0.21441460426E+03  0.12500000000E+03 0.  0.
         25    1    1    2    0    0 -0.10165801379E+03  0.58079902323E+02 -0.74057608659E+02  0.18659355890E+03  0.12500000000E+03 0.  0.
         25    1    1    2    0    0  0.22485038278E+02 -0.20695194426E+03  0.49262652095E+02  0.24776297760E+03  0.12500000000E+03 0.  0.
</event>
<event>
 5    0  0.5532658E-005  0.2798609E+03  0.7546771E-02  0.1095765E+00
         21   -1    0    0  502  501  0.00000000000E+00  0.00000000000E+00  0.11515561399E+04  0.11515561399E+04  0.00000000000E+00 0.  1.
         21   -1    0    0  501  502 -0.00000000000E+00 -0.00000000000E+00 -0.68014148510E+02  0.68014148510E+02  0.00000000000E+00 0.  1.
         25    1    1    2    0    0 -0.17983646051E+01 -0.93497417918E+02  0.33823281965E+03  0.37252039080E+03  0.12500000000E+03 0.  0.
         25    1    1    2    0    0 -0.84568521717E+02 -0.79350035916E+02  0.35794628806E+03  0.39648304908E+03  0.12500000000E+03 0.  0.
         25    1    1    2    0    0  0.86366886322E+02  0.17284745383E+03  0.38736288367E+03  0.45056684853E+03  0.12500000000E+03 0.  0.
</event>
<event>
 5    0  0.5532658E-005  0.2314756E+03  0.7546771E-02  0.1125605E+00
         21   -1    0    0  502  501  0.00000000000E+00  0.00000000000E+00  0.11098854959E+04  0.11098854959E+04  0.00000000000E+00 0. -1.
         21   -1    0    0  501  502 -0.00000000000E+00 -0.00000000000E+00 -0.48276125518E+02  0.48276125518E+02  0.00000000000E+00 0. -1.
         25    1    1    2    0    0  0.83031900763E+01  0.35702754760E+02  0.21609936692E+03  0.25232432710E+03  0.12500000000E+03 0.  0.
         25    1    1    2    0    0  0.46576709519E+02  0.48691911642E+02  0.56583585303E+03  0.58338281146E+03  0.12500000000E+03 0.  0.
         25    1    1    2    0    0 -0.54879899596E+02 -0.84394666402E+02  0.27967415041E+03  0.32245448284E+03  0.12500000000E+03 0.  0.
</event>
<event>
 5    0  0.5532658E-005  0.3184256E+03  0.7546771E-02  0.1076376E+00
         21   -1    0    0  502  501  0.00000000000E+00  0.00000000000E+00  0.17525885510E+04  0.17525885510E+04  0.00000000000E+00 0. -1.
         21   -1    0    0  501  502 -0.00000000000E+00 -0.00000000000E+00 -0.57854328878E+02  0.57854328878E+02  0.00000000000E+00 0. -1.
         25    1    1    2    0    0  0.52388612755E+02  0.10432940667E+03  0.46343567966E+03  0.49399070945E+03  0.12500000000E+03 0.  0.
         25    1    1    2    0    0  0.12214765271E+03 -0.16434979908E+03  0.71198080179E+03  0.75131389421E+03  0.12500000000E+03 0.  0.
         25    1    1    2    0    0 -0.17453626547E+03  0.60020392408E+02  0.51931774069E+03  0.56513827623E+03  0.12500000000E+03 0.  0.
</event>
<event>
 5    0  0.5532658E-005  0.3259165E+03  0.7546771E-02  0.1072958E+00
         21   -1    0    0  502  501  0.00000000000E+00  0.00000000000E+00  0.15102052448E+03  0.15102052448E+03  0.00000000000E+00 0.  1.
         21   -1    0    0  501  502 -0.00000000000E+00 -0.00000000000E+00 -0.70335854250E+03  0.70335854250E+03  0.00000000000E+00 0.  1.
         25    1    1    2    0    0  0.11383878308E+02  0.12289352910E+03 -0.13264937046E+03  0.22012102958E+03  0.12500000000E+03 0.  0.
         25    1    1    2    0    0 -0.56213304267E+02 -0.18616837946E+03 -0.50202756702E+02  0.23656694162E+03  0.12500000000E+03 0.  0.
         25    1    1    2    0    0  0.44829425959E+02  0.63274850355E+02 -0.36948589085E+03  0.39769109578E+03  0.12500000000E+03 0.  0.
</event>
<event>
 5    0  0.5532658E-005  0.3376133E+03  0.7546771E-02  0.1067817E+00
         21   -1    0    0  502  501  0.00000000000E+00  0.00000000000E+00  0.18693594243E+03  0.18693594243E+03  0.00000000000E+00 0.  1.
         21   -1    0    0  501  502 -0.00000000000E+00 -0.00000000000E+00 -0.60974207318E+03  0.60974207318E+03  0.00000000000E+00 0.  1.
         25    1    1    2    0    0 -0.14168832953E+03 -0.42813350879E+02 -0.11726734254E+03  0.22646234867E+03  0.12500000000E+03 0.  0.
         25    1    1    2    0    0 -0.11672505483E+03  0.80097391236E+02 -0.89331053163E+02  0.20891473755E+03  0.12500000000E+03 0.  0.
         25    1    1    2    0    0  0.25841338436E+03 -0.37284040357E+02 -0.21620773505E+03  0.36130092939E+03  0.12500000000E+03 0.  0.
</event>
<event>
 5    0  0.5532658E-005  0.2725364E+03  0.7546771E-02  0.1099837E+00
         21   -1    0    0  502  501  0.00000000000E+00  0.00000000000E+00  0.37495695624E+03  0.37495695624E+03  0.00000000000E+00 0. -1.
         21   -1    0    0  501  502 -0.00000000000E+00 -0.00000000000E+00 -0.19809235205E+03  0.19809235205E+03  0.00000000000E+00 0. -1.
         25    1    1    2    0    0 -0.76422756153E+02  0.21123119306E+02  0.16479057897E+03  0.22151198330E+03  0.12500000000E+03 0.  0.
         25    1    1    2    0    0  0.89841070564E+02 -0.56704803487E+02  0.10177345198E+03  0.19305358900E+03  0.12500000000E+03 0.  0.
         25    1    1    2    0    0 -0.13418314411E+02  0.35581684181E+02 -0.89699426769E+02  0.15848373599E+03  0.12500000000E+03 0.  0.
</event>
<event>
 5    0  0.5532658E-005  0.2771142E+03  0.7546771E-02  0.1097276E+00
         21   -1    0    0  502  501  0.00000000000E+00  0.00000000000E+00  0.32287978818E+03  0.32287978818E+03  0.00000000000E+00 0. -1.
         21   -1    0    0  501  502 -0.00000000000E+00 -0.00000000000E+00 -0.23783555125E+03  0.23783555125E+03  0.00000000000E+00 0. -1.
         25    1    1    2    0    0  0.39695608603E+02 -0.26715691760E+02  0.11341724289E+03  0.17543642870E+03  0.12500000000E+03 0.  0.
         25    1    1    2    0    0 -0.35020582485E+02 -0.93366688738E+02 -0.10954058128E+03  0.19382445333E+03  0.12500000000E+03 0.  0.
         25    1    1    2    0    0 -0.46750261178E+01  0.12008238050E+03  0.81167575315E+02  0.19145445740E+03  0.12500000000E+03 0.  0.
</event>
<event>
 5    0  0.5532658E-005  0.3271139E+03  0.7546771E-02  0.1072421E+00
         21   -1    0    0  502  501  0.00000000000E+00  0.00000000000E+00  0.43855007197E+03  0.43855007197E+03  0.00000000000E+00 0. -1.
         21   -1    0    0  501  502 -0.00000000000E+00 -0.00000000000E+00 -0.24399379471E+03  0.24399379471E+03  0.00000000000E+00 0. -1.
         25    1    1    2    0    0  0.80620259444E+02  0.14542892612E+03  0.57197549172E+02  0.21574466023E+03  0.12500000000E+03 0.  0.
         25    1    1    2    0    0 -0.57730371027E+02 -0.98499832991E+02 -0.97727127707E+02  0.19547532921E+03  0.12500000000E+03 0.  0.
         25    1    1    2    0    0 -0.22889888418E+02 -0.46929093129E+02  0.23508585579E+03  0.27132387725E+03  0.12500000000E+03 0.  0.
</event>
<event>
 5    0  0.5532658E-005  0.3618077E+03  0.7546771E-02  0.1057870E+00
         21   -1    0    0  502  501  0.00000000000E+00  0.00000000000E+00  0.12820770812E+03  0.12820770812E+03  0.00000000000E+00 0.  1.
         21   -1    0    0  501  502 -0.00000000000E+00 -0.00000000000E+00 -0.10210368641E+04  0.10210368641E+04  0.00000000000E+00 0.  1.
         25    1    1    2    0    0  0.22708705028E+03  0.43603289537E+02 -0.48582090172E+03  0.55237371753E+03  0.12500000000E+03 0.  0.
         25    1    1    2    0    0 -0.21319668503E+03 -0.12726577193E+03 -0.20880974423E+03  0.34767213362E+03  0.12500000000E+03 0.  0.
         25    1    1    2    0    0 -0.13890365252E+02  0.83662482390E+02 -0.19819851003E+03  0.24919872107E+03  0.12500000000E+03 0.  0.
</event>
<event>
 5    0  0.5532658E-005  0.2533879E+03  0.7546771E-02  0.1111182E+00
         21   -1    0    0  502  501  0.00000000000E+00  0.00000000000E+00  0.17635508018E+03  0.17635508018E+03  0.00000000000E+00 0.  1.
         21   -1    0    0  501  502 -0.00000000000E+00 -0.00000000000E+00 -0.36406893637E+03  0.36406893637E+03  0.00000000000E+00 0.  1.
         25    1    1    2    0    0  0.88205149107E+02  0.15484884110E+02  0.44744056108E+02  0.16014668439E+03  0.12500000000E+03 0.  0.
         25    1    1    2    0    0  0.19854016610E+02  0.23095849781E+02 -0.12533336888E+03  0.17961362311E+03  0.12500000000E+03 0.  0.
         25    1    1    2    0    0 -0.10805916572E+03 -0.38580733891E+02 -0.10712454342E+03  0.20066370904E+03  0.12500000000E+03 0.  0.
</event>
<event>
 5    0  0.5532658E-005  0.2553131E+03  0.7546771E-02  0.1109992E+00
         21   -1    0    0  502  501  0.00000000000E+00  0.00000000000E+00  0.11985242044E+03  0.11985242044E+03  0.00000000000E+00 0.  1.
         21   -1    0    0  501  502 -0.00000000000E+00 -0.00000000000E+00 -0.54387527198E+03  0.54387527198E+03  0.00000000000E+00 0.  1.
         25    1    1    2    0    0 -0.24327754280E+02 -0.35409889971E+01 -0.30828620352E+03  0.33357122404E+03  0.12500000000E+03 0.  0.
         25    1    1    2    0    0 -0.66010862562E+01  0.41801269076E+02  0.26400780274E+02  0.13458425478E+03  0.12500000000E+03 0.  0.
         25    1    1    2    0    0  0.30928840537E+02 -0.38260280079E+02 -0.14213742830E+03  0.19557221360E+03  0.12500000000E+03 0.  0.
</event>
<event>
 5    0  0.5532658E-005  0.3490876E+03  0.7546771E-02  0.1062990E+00
         21   -1    0    0  502  501  0.00000000000E+00  0.00000000000E+00  0.20322860695E+03  0.20322860695E+03  0.00000000000E+00 0.  1.
         21   -1    0    0  501  502 -0.00000000000E+00 -0.00000000000E+00 -0.59963099480E+03  0.59963099480E+03  0.00000000000E+00 0.  1.
         25    1    1    2    0    0 -0.22734508734E+03  0.11628067708E+03 -0.96050308050E+02  0.30009606175E+03  0.12500000000E+03 0.  0.
         25    1    1    2    0    0 -0.13647726561E+01 -0.30283769031E+02 -0.10116693691E+03  0.16364204348E+03  0.12500000000E+03 0.  0.
         25    1    1    2    0    0  0.22870985999E+03 -0.85996908049E+02 -0.19918514289E+03  0.33912149652E+03  0.12500000000E+03 0.  0.
</event>
<event>
 5    0  0.5532658E-005  0.4038500E+03  0.7546771E-02  0.1042455E+00
         21   -1    0    0  502  501  0.00000000000E+00  0.00000000000E+00  0.89560937240E+03  0.89560937240E+03  0.00000000000E+00 0.  1.
         21   -1    0    0  501  502 -0.00000000000E+00 -0.00000000000E+00 -0.18210487815E+03  0.18210487815E+03  0.00000000000E+00 0.  1.
         25    1    1    2    0    0  0.14089858880E+03  0.53412996818E+02  0.51385933555E+02  0.20241263479E+03  0.12500000000E+03 0.  0.
         25    1    1    2    0    0 -0.18032374541E+03  0.12187506643E+03  0.96654108287E+02  0.26895576146E+03  0.12500000000E+03 0.  0.
         25    1    1    2    0    0  0.39425156609E+02 -0.17528806325E+03  0.56546445241E+03  0.60634585430E+03  0.12500000000E+03 0.  0.
</event>
<event>
 5    0  0.5532658E-005  0.2651159E+03  0.7546771E-02  0.1104108E+00
         21   -1    0    0  502  501  0.00000000000E+00  0.00000000000E+00  0.40025678804E+03  0.40025678804E+03  0.00000000000E+00 0.  1.
         21   -1    0    0  501  502 -0.00000000000E+00 -0.00000000000E+00 -0.17560334675E+03  0.17560334675E+03  0.00000000000E+00 0.  1.
         25    1    1    2    0    0  0.40490725456E+02 -0.35806434295E+02  0.13400105480E+02  0.13684356913E+03  0.12500000000E+03 0.  0.
         25    1    1    2    0    0 -0.86262774004E+02  0.50600484305E+02 -0.30196228970E+02  0.16290637629E+03  0.12500000000E+03 0.  0.
         25    1    1    2    0    0  0.45772048548E+02 -0.14794050010E+02  0.24144956478E+03  0.27611018937E+03  0.12500000000E+03 0.  0.
</event>
<event>
 5    0  0.5532658E-005  0.3013048E+03  0.7546771E-02  0.1084590E+00
         21   -1    0    0  502  501  0.00000000000E+00  0.00000000000E+00  0.84410781892E+02  0.84410781892E+02  0.00000000000E+00 0. -1.
         21   -1    0    0  501  502 -0.00000000000E+00 -0.00000000000E+00 -0.10755092362E+04  0.10755092362E+04  0.00000000000E+00 0. -1.
         25    1    1    2    0    0 -0.13637191476E+03 -0.17422690148E+03 -0.34872934603E+03  0.43149677764E+03  0.12500000000E+03 0.  0.
         25    1    1    2    0    0  0.47934818342E+02  0.89801311104E+02 -0.23356935344E+03  0.28379863487E+03  0.12500000000E+03 0.  0.
         25    1    1    2    0    0  0.88437096418E+02  0.84425590373E+02 -0.40879975485E+03  0.44462460559E+03  0.12500000000E+03 0.  0.
</event>
<event>
 5    0  0.5532658E-005  0.4423391E+03  0.7546771E-02  0.1030032E+00
         21   -1    0    0  502  501  0.00000000000E+00  0.00000000000E+00  0.11880876969E+03  0.11880876969E+03  0.00000000000E+00 0. -1.
         21   -1    0    0  501  502 -0.00000000000E+00 -0.00000000000E+00 -0.16468807976E+04  0.16468807976E+04  0.00000000000E+00 0. -1.
         25    1    1    2    0    0 -0.25197625774E+02  0.17268043915E+02 -0.10162622871E+04  0.10243764649E+04  0.12500000000E+03 0.  0.
         25    1    1    2    0    0  0.10828273782E+03  0.18334991030E+03 -0.11585397247E+03  0.27274435622E+03  0.12500000000E+03 0.  0.
         25    1    1    2    0    0 -0.83085112044E+02 -0.20061795421E+03 -0.39595576840E+03  0.46856874621E+03  0.12500000000E+03 0.  0.
</event>
<event>
 5    0  0.5532658E-005  0.3464556E+03  0.7546771E-02  0.1064079E+00
         21   -1    0    0  502  501  0.00000000000E+00  0.00000000000E+00  0.43071627922E+03  0.43071627922E+03  0.00000000000E+00 0.  1.
         21   -1    0    0  501  502 -0.00000000000E+00 -0.00000000000E+00 -0.27867874824E+03  0.27867874824E+03  0.00000000000E+00 0.  1.
         25    1    1    2    0    0 -0.16659428039E+03  0.10341193748E+03 -0.11951985720E+02  0.23284229219E+03  0.12500000000E+03 0.  0.
         25    1    1    2    0    0 -0.46908173685E+02 -0.13782362075E+03  0.33680250444E+02  0.19482065205E+03  0.12500000000E+03 0.  0.
         25    1    1    2    0    0  0.21350245407E+03  0.34411683268E+02  0.13030926625E+03  0.28173208321E+03  0.12500000000E+03 0.  0.
</event>
<event>
 5    0  0.5532658E-005  0.2212693E+03  0.7546771E-02  0.1132940E+00
         21   -1    0    0  502  501  0.00000000000E+00  0.00000000000E+00  0.85972607884E+02  0.85972607884E+02  0.00000000000E+00 0.  1.
         21   -1    0    0  501  502 -0.00000000000E+00 -0.00000000000E+00 -0.56948511746E+03  0.56948511746E+03  0.00000000000E+00 0.  1.
         25    1    1    2    0    0  0.43536284924E+02 -0.12268488498E+02 -0.59217128238E+02  0.14552522871E+03  0.12500000000E+03 0.  0.
         25    1    1    2    0    0  0.14470497796E+02 -0.10376023515E+02 -0.28951320192E+03  0.31584798758E+03  0.12500000000E+03 0.  0.
         25    1    1    2    0    0 -0.58006782720E+02  0.22644512013E+02 -0.13478217941E+03  0.19408450905E+03  0.12500000000E+03 0.  0.
</event>
<event>
 5    0  0.5532658E-005  0.3089701E+03  0.7546771E-02  0.1080841E+00
         21   -1    0    0  502  501  0.00000000000E+00  0.00000000000E+00  0.31200121528E+03  0.31200121528E+03  0.00000000000E+00 0. -1.
         21   -1    0    0  501  502 -0.00000000000E+00 -0.00000000000E+00 -0.30596850063E+03  0.30596850063E+03  0.00000000000E+00 0. -1.
         25    1    1    2    0    0  0.90919941868E+02  0.42058967302E+02  0.17420254964E+03  0.23665781386E+03  0.12500000000E+03 0.  0.
         25    1    1    2    0    0 -0.64036460354E+02 -0.41057629742E+02 -0.20164278331E+03  0.24914094259E+03  0.12500000000E+03 0.  0.
         25    1    1    2    0    0 -0.26883481515E+02 -0.10013375602E+01  0.33472948319E+02  0.13217095946E+03  0.12500000000E+03 0.  0.
</event>
<event>
 5    0  0.5532658E-005  0.5289069E+03  0.7546771E-02  0.1006498E+00
         21   -1    0    0  502  501  0.00000000000E+00  0.00000000000E+00  0.16986463121E+04  0.16986463121E+04  0.00000000000E+00 0.  1.
         21   -1    0    0  501  502 -0.00000000000E+00 -0.00000000000E+00 -0.16468552644E+03  0.16468552644E+03  0.00000000000E+00 0.  1.
         25    1    1    2    0    0  0.10698540793E+03 -0.33784800937E+03  0.99495666348E+03  0.10635557894E+04  0.12500000000E+03 0.  0.
         25    1    1    2    0    0 -0.67547540706E+02  0.15518988071E+03 -0.57148701465E+01  0.21048569802E+03  0.12500000000E+03 0.  0.
         25    1    1    2    0    0 -0.39437867219E+02  0.18265812866E+03  0.54471899237E+03  0.58929035117E+03  0.12500000000E+03 0.  0.
</event>
<event>
 5    0  0.5532658E-005  0.2711108E+03  0.7546771E-02  0.1100646E+00
         21   -1    0    0  502  501  0.00000000000E+00  0.00000000000E+00  0.25306382173E+03  0.25306382173E+03  0.00000000000E+00 0. -1.
         21   -1    0    0  501  502 -0.00000000000E+00 -0.00000000000E+00 -0.29044471587E+03  0.29044471587E+03  0.00000000000E+00 0. -1.
         25    1    1    2    0    0  0.12675666980E+03  0.55032440184E+02 -0.13328364359E+03  0.22909681897E+03  0.12500000000E+03 0.  0.
         25    1    1    2    0    0 -0.20879192889E+02 -0.56345213865E+01  0.25505498075E+02  0.12939559096E+03  0.12500000000E+03 0.  0.
         25    1    1    2    0    0 -0.10587747691E+03 -0.49397918797E+02  0.70397251384E+02  0.18501612768E+03  0.12500000000E+03 0.  0.
</event>
<event>
 5    0  0.5532658E-005  0.3044755E+03  0.7546771E-02  0.1083025E+00
         21   -1    0    0  502  501  0.00000000000E+00  0.00000000000E+00  0.62051079144E+03  0.62051079144E+03  0.00000000000E+00 0. -1.
         21   -1    0    0  501  502 -0.00000000000E+00 -0.00000000000E+00 -0.14940163852E+03  0.14940163852E+03  0.00000000000E+00 0.  1.
         25    1    1    2    0    0 -0.78193469140E+01 -0.15669441606E+02  0.17327047631E+03  0.21436961433E+03  0.12500000000E+03 0.  0.
         25    1    1    2    0    0 -0.22174136111E+02 -0.18852433134E+03  0.15571572564E+03  0.27550953346E+03  0.12500000000E+03 0.  0.
         25    1    1    2    0    0  0.29993483025E+02  0.20419377294E+03  0.14212295097E+03  0.28003328217E+03  0.12500000000E+03 0.  0.
</event>
<event>
 5    0  0.5532658E-005  0.3944995E+03  0.7546771E-02  0.1045701E+00
         21   -1    0    0  502  501  0.00000000000E+00  0.00000000000E+00  0.16832038654E+03  0.16832038654E+03  0.00000000000E+00 0. -1.
         21   -1    0    0  501  502 -0.00000000000E+00 -0.00000000000E+00 -0.92460471139E+03  0.92460471139E+03  0.00000000000E+00 0. -1.
         25    1    1    2    0    0 -0.12681028426E+03  0.15436375966E+03 -0.48758786270E+03  0.54154957515E+03  0.12500000000E+03 0.  0.
         25    1    1    2    0    0  0.28104358706E+02 -0.16837960574E+03 -0.31985507099E+03  0.38350203786E+03  0.12500000000E+03 0.  0.
         25    1    1    2    0    0  0.98705925552E+02  0.14015846083E+02  0.51158608840E+02  0.16787348492E+03  0.12500000000E+03 0.  0.
</event>
<event>
 5    0  0.5532658E-005  0.4781414E+03  0.7546771E-02  0.1019647E+00
         21   -1    0    0  502  501  0.00000000000E+00  0.00000000000E+00  0.61047753924E+03  0.61047753924E+03  0.00000000000E+00 0.  1.
         21   -1    0    0  501  502 -0.00000000000E+00 -0.00000000000E+00 -0.37449233723E+03  0.37449233723E+03  0.00000000000E+00 0.  1.
         25    1    1    2    0    0  0.11727681006E+03  0.39649229201E+03  0.13948162536E+03  0.45391641479E+03  0.12500000000E+03 0.  0.
         25    1    1    2    0    0 -0.50443804142E+02 -0.20350450330E+03 -0.51615247508E+02  0.24949507814E+03  0.12500000000E+03 0.  0.
         25    1    1    2    0    0 -0.66833005917E+02 -0.19298778871E+03  0.14811882416E+03  0.28155838354E+03  0.12500000000E+03 0.  0.
</event>
<event>
 5    0  0.5532658E-005  0.2553703E+03  0.7546771E-02  0.1109957E+00
         21   -1    0    0  502  501  0.00000000000E+00  0.00000000000E+00  0.12376207994E+04  0.12376207994E+04  0.00000000000E+00 0.  1.
         21   -1    0    0  501  502 -0.00000000000E+00 -0.00000000000E+00 -0.52693041937E+02  0.52693041937E+02  0.00000000000E+00 0.  1.
         25    1    1    2    0    0  0.35837824018E+02  0.62345346397E+02  0.44249710923E+03  0.46540303343E+03  0.12500000000E+03 0.  0.
         25    1    1    2    0    0  0.39765053307E+02  0.76724419586E+02  0.39433664289E+03  0.42260416935E+03  0.12500000000E+03 0.  0.
         25    1    1    2    0    0 -0.75602877325E+02 -0.13906976598E+03  0.34809400531E+03  0.40230663853E+03  0.12500000000E+03 0.  0.
</event>
<event>
 5    0  0.5532658E-005  0.5996736E+03  0.7546771E-02  0.9906083E-01
         21   -1    0    0  502  501  0.00000000000E+00  0.00000000000E+00  0.13061195171E+03  0.13061195171E+03  0.00000000000E+00 0.  1.
         21   -1    0    0  501  502 -0.00000000000E+00 -0.00000000000E+00 -0.27532585683E+04  0.27532585683E+04  0.00000000000E+00 0.  1.
         25    1    1    2    0    0 -0.41021928049E+02  0.27842433646E+02 -0.93107705001E+02  0.16356052220E+03  0.12500000000E+03 0.  0.
         25    1    1    2    0    0  0.20568289794E+03 -0.73566831748E+01 -0.24987148261E+04  0.25102908910E+04  0.12500000000E+03 0.  0.
         25    1    1    2    0    0 -0.16466096989E+03 -0.20485750471E+02 -0.30824085490E+02  0.21001910680E+03  0.12500000000E+03 0.  0.
</event>
<event>
 5    0  0.5532658E-005  0.2191384E+03  0.7546771E-02  0.1134527E+00
         21   -1    0    0  502  501  0.00000000000E+00  0.00000000000E+00  0.45144434621E+03  0.45144434621E+03  0.00000000000E+00 0. -1.
         21   -1    0    0  501  502 -0.00000000000E+00 -0.00000000000E+00 -0.10637334742E+03  0.10637334742E+03  0.00000000000E+00 0. -1.
         25    1    1    2    0    0  0.21577031482E+02 -0.44948043190E+02  0.21487748732E+03  0.25354137617E+03  0.12500000000E+03 0.  0.
         25    1    1    2    0    0  0.31713592025E+02  0.30856219462E+02  0.33086478811E+02  0.13666591850E+03  0.12500000000E+03 0.  0.
         25    1    1    2    0    0 -0.53290623507E+02  0.14091823728E+02  0.97107032659E+02  0.16761039897E+03  0.12500000000E+03 0.  0.
</event>
<event>
 5    0  0.5532658E-005  0.3181504E+03  0.7546771E-02  0.1076504E+00
         21   -1    0    0  502  501  0.00000000000E+00  0.00000000000E+00  0.97171773448E+03  0.97171773448E+03  0.00000000000E+00 0. -1.
         21   -1    0    0  501  502 -0.00000000000E+00 -0.00000000000E+00 -0.10416569773E+03  0.10416569773E+03  0.00000000000E+00 0. -1.
         25    1    1    2    0    0  0.71467631277E+02  0.84957155454E+02  0.51987267874E+03  0.54609334613E+03  0.12500000000E+03 0.  0.
         25    1    1    2    0    0 -0.15834839396E+03  0.35487627134E+02  0.19517346480E+03  0.28293332591E+03  0.12500000000E+03 0.  0.
         25    1    1    2    0    0  0.86880762684E+02 -0.12044478259E+03  0.15250589321E+03  0.24685676017E+03  0.12500000000E+03 0.  0.
</event>
<event>
 5    0  0.5611028E-005  0.2403714E+03  0.7546771E-02  0.1119546E+00
         21   -1    0    0  502  501  0.00000000000E+00  0.00000000000E+00  0.19670011111E+03  0.19670011111E+03  0.00000000000E+00 0.  1.
         21   -1    0    0  501  502 -0.00000000000E+00 -0.00000000000E+00 -0.29373857441E+03  0.29373857441E+03  0.00000000000E+00 0.  1.
         25    1    1    2    0    0  0.18562784388E+02 -0.42990471160E+02 -0.32473953166E+02  0.13737654534E+03  0.12500000000E+03 0.  0.
         25    1    1    2    0    0  0.55593902196E+02 -0.66962613844E+02  0.17260378674E+02  0.15328925039E+03  0.12500000000E+03 0.  0.
         25    1    1    2    0    0 -0.74156686584E+02  0.10995308500E+03 -0.81824888808E+02  0.19977288979E+03  0.12500000000E+03 0.  0.
</event>
<event>
 5    0  0.5532658E-005  0.2412885E+03  0.7546771E-02  0.1118937E+00
         21   -1    0    0  502  501  0.00000000000E+00  0.00000000000E+00  0.76080336486E+03  0.76080336486E+03  0.00000000000E+00 0.  1.
         21   -1    0    0  501  502 -0.00000000000E+00 -0.00000000000E+00 -0.76524585252E+02  0.76524585252E+02  0.00000000000E+00 0.  1.
         25    1    1    2    0    0 -0.98440583287E+01  0.81192882927E+02  0.46044316302E+03  0.48406827627E+03  0.12500000000E+03 0.  0.
         25    1    1    2    0    0  0.38988150309E+02 -0.34671973625E+02  0.94144531716E+02  0.16495579551E+03  0.12500000000E+03 0.  0.
         25    1    1    2    0    0 -0.29144091981E+02 -0.46520909302E+02  0.12969108487E+03  0.18830387833E+03  0.12500000000E+03 0.  0.
</event>
<event>
 5    0  0.5532658E-005  0.2654033E+03  0.7546771E-02  0.1103940E+00
         21   -1    0    0  502  501  0.00000000000E+00  0.00000000000E+00  0.13075423800E+03  0.13075423800E+03  0.00000000000E+00 0.  1.
         21   -1    0    0  501  502 -0.00000000000E+00 -0.00000000000E+00 -0.53871244740E+03  0.53871244740E+03  0.00000000000E+00 0.  1.
         25    1    1    2    0    0  0.36916766468E+02 -0.56282892905E+02 -0.34670383552E+03  0.37464538066E+03  0.12500000000E+03 0.  0.
         25    1    1    2    0    0  0.61504690168E+01  0.32024937603E+01 -0.83700885503E+02  0.15059522725E+03  0.12500000000E+03 0.  0.
         25    1    1    2    0    0 -0.43067235485E+02  0.53080399145E+02  0.22446511631E+02  0.14422607750E+03  0.12500000000E+03 0.  0.
</event>
<event>
 5    0  0.5532658E-005  0.4531114E+03  0.7546771E-02  0.1026798E+00
         21   -1    0    0  502  501  0.00000000000E+00  0.00000000000E+00  0.65023558688E+03  0.65023558688E+03  0.00000000000E+00 0.  1.
         21   -1    0    0  501  502 -0.00000000000E+00 -0.00000000000E+00 -0.31574703070E+03  0.31574703070E+03  0.00000000000E+00 0.  1.
         25    1    1    2    0    0 -0.80707973017E+02  0.32274520948E+02  0.49981810781E+02  0.16024544618E+03  0.12500000000E+03 0.  0.
         25    1    1    2    0    0  0.89924933726E+02  0.18700021402E+03 -0.16293027994E+03  0.29193637984E+03  0.12500000000E+03 0.  0.
         25    1    1    2    0    0 -0.92169607085E+01 -0.21927473497E+03  0.44743702534E+03  0.51380079156E+03  0.12500000000E+03 0.  0.
</event>
<event>
 5    0  0.5532658E-005  0.3888388E+03  0.7546771E-02  0.1047714E+00
         21   -1    0    0  502  501  0.00000000000E+00  0.00000000000E+00  0.87113710844E+02  0.87113710844E+02  0.00000000000E+00 0. -1.
         21   -1    0    0  501  502 -0.00000000000E+00 -0.00000000000E+00 -0.17356124357E+04  0.17356124357E+04  0.00000000000E+00 0. -1.
         25    1    1    2    0    0 -0.40869557943E+01  0.89242076652E+02 -0.70958501484E+02  0.16923640384E+03  0.12500000000E+03 0.  0.
         25    1    1    2    0    0  0.70038856123E+02 -0.22549675693E+03 -0.11831576773E+04  0.12129473682E+04  0.12500000000E+03 0.  0.
         25    1    1    2    0    0 -0.65951900329E+02  0.13625468028E+03 -0.39438254608E+03  0.44054237448E+03  0.12500000000E+03 0.  0.
</event>
<event>
 5    0  0.5866177E-005  0.3553266E+03  0.7546771E-02  0.1060450E+00
         21   -1    0    0  502  501  0.00000000000E+00  0.00000000000E+00  0.34566115913E+03  0.34566115913E+03  0.00000000000E+00 0. -1.
         21   -1    0    0  501  502 -0.00000000000E+00 -0.00000000000E+00 -0.36526225169E+03  0.36526225169E+03  0.00000000000E+00 0. -1.
         25    1    1    2    0    0  0.87816851764E+01 -0.15209260936E+01 -0.16307839403E+03  0.20566719187E+03  0.12500000000E+03 0.  0.
         25    1    1    2    0    0  0.15434555685E+03 -0.13241923603E+03  0.81523257596E+02  0.25224679684E+03  0.12500000000E+03 0.  0.
         25    1    1    2    0    0 -0.16312724203E+03  0.13394016212E+03  0.61954043881E+02  0.25300942210E+03  0.12500000000E+03 0.  0.
</event>
<event>
 5    0  0.5532658E-005  0.2681782E+03  0.7546771E-02  0.1102327E+00
         21   -1    0    0  502  501  0.00000000000E+00  0.00000000000E+00  0.60262103067E+02  0.60262103067E+02  0.00000000000E+00 0. -1.
         21   -1    0    0  501  502 -0.00000000000E+00 -0.00000000000E+00 -0.11934454298E+04  0.11934454298E+04  0.00000000000E+00 0. -1.
         25    1    1    2    0    0  0.27940648629E+02  0.41004507312E+02 -0.68376031799E+03  0.69686097747E+03  0.12500000000E+03 0.  0.
         25    1    1    2    0    0  0.34829163582E+02  0.65048803340E+02 -0.26559241077E+03  0.30266936764E+03  0.12500000000E+03 0.  0.
         25    1    1    2    0    0 -0.62769812212E+02 -0.10605331065E+03 -0.18383059800E+03  0.25417718778E+03  0.12500000000E+03 0.  0.
</event>
<event>
 5    0  0.5532658E-005  0.4054440E+03  0.7546771E-02  0.1041911E+00
         21   -1    0    0  502  501  0.00000000000E+00  0.00000000000E+00  0.18108564046E+03  0.18108564046E+03  0.00000000000E+00 0. -1.
         21   -1    0    0  501  502 -0.00000000000E+00 -0.00000000000E+00 -0.90777415449E+03  0.90777415449E+03  0.00000000000E+00 0. -1.
         25    1    1    2    0    0  0.19837472027E+03 -0.20157929613E+03 -0.39624647355E+03  0.50261616575E+03  0.12500000000E+03 0.  0.
         25    1    1    2    0    0 -0.23900576148E+02  0.58710676131E+02  0.29754013542E+02  0.14327764080E+03  0.12500000000E+03 0.  0.
         25    1    1    2    0    0 -0.17447414412E+03  0.14286862000E+03 -0.36019605402E+03  0.44296598840E+03  0.12500000000E+03 0.  0.
</event>
<event>
 5    0  0.5532658E-005  0.3509927E+03  0.7546771E-02  0.1062208E+00
         21   -1    0    0  502  501  0.00000000000E+00  0.00000000000E+00  0.36148033764E+03  0.36148033764E+03  0.00000000000E+00 0.  1.
         21   -1    0    0  501  502 -0.00000000000E+00 -0.00000000000E+00 -0.34080937516E+03  0.34080937516E+03  0.00000000000E+00 0.  1.
         25    1    1    2    0    0 -0.91804851346E+01  0.19573541695E+03 -0.16078303480E+02  0.23298100051E+03  0.12500000000E+03 0.  0.
         25    1    1    2    0    0 -0.11036919966E+03 -0.56076671055E+02  0.13938215893E+03  0.22445119625E+03  0.12500000000E+03 0.  0.
         25    1    1    2    0    0  0.11954968479E+03 -0.13965874590E+03 -0.10263289297E+03  0.24485751603E+03  0.12500000000E+03 0.  0.
</event>
<event>
 5    0  0.5532658E-005  0.3481391E+03  0.7546771E-02  0.1063381E+00
         21   -1    0    0  502  501  0.00000000000E+00  0.00000000000E+00  0.22153119968E+04  0.22153119968E+04  0.00000000000E+00 0.  1.
         21   -1    0    0  501  502 -0.00000000000E+00 -0.00000000000E+00 -0.54710497703E+02  0.54710497703E+02  0.00000000000E+00 0.  1.
         25    1    1    2    0    0  0.31370039763E+02 -0.18249267591E+02  0.29740176330E+03  0.32463814314E+03  0.12500000000E+03 0.  0.
         25    1    1    2    0    0  0.20368074437E+03  0.10249672223E+03  0.11596716485E+04  0.11884673980E+04  0.12500000000E+03 0.  0.
         25    1    1    2    0    0 -0.23505078413E+03 -0.84247454640E+02  0.70352808728E+03  0.75691695339E+03  0.12500000000E+03 0.  0.
</event>
<event>
 5    0  0.5532658E-005  0.3635042E+03  0.7546771E-02  0.1057205E+00
         21   -1    0    0  502  501  0.00000000000E+00  0.00000000000E+00  0.17494591910E+03  0.17494591910E+03  0.00000000000E+00 0.  1.
         21   -1    0    0  501  502 -0.00000000000E+00 -0.00000000000E+00 -0.75529212710E+03  0.75529212710E+03  0.00000000000E+00 0.  1.
         25    1    1    2    0    0  0.11343748815E+03 -0.15753316270E+03 -0.56335563207E+02  0.23766248495E+03  0.12500000000E+03 0.  0.
         25    1    1    2    0    0 -0.97688205061E+01  0.86874110789E+02 -0.48874740905E+03  0.51199762776E+03  0.12500000000E+03 0.  0.
         25    1    1    2    0    0 -0.10366866765E+03  0.70659051913E+02 -0.35263235745E+02  0.18057793349E+03  0.12500000000E+03 0.  0.
</event>
<event>
 5    0  0.5532658E-005  0.3771856E+03  0.7546771E-02  0.1051979E+00
         21   -1    0    0  502  501  0.00000000000E+00  0.00000000000E+00  0.38640028027E+03  0.38640028027E+03  0.00000000000E+00 0. -1.
         21   -1    0    0  501  502 -0.00000000000E+00 -0.00000000000E+00 -0.36819063926E+03  0.36819063926E+03  0.00000000000E+00 0. -1.
         25    1    1    2    0    0  0.20603913158E+03  0.73450307612E+02 -0.59173053489E+02  0.25879242974E+03  0.12500000000E+03 0.  0.
         25    1    1    2    0    0 -0.28387757468E+01  0.12673054797E+03  0.20287512400E+02  0.17917944524E+03  0.12500000000E+03 0.  0.
         25    1    1    2    0    0 -0.20320035584E+03 -0.20018085558E+03  0.57095182104E+02  0.31661904455E+03  0.12500000000E+03 0.  0.
</event>
<event>
 5    0  0.5532658E-005  0.3064843E+03  0.7546771E-02  0.1082043E+00
         21   -1    0    0  502  501  0.00000000000E+00  0.00000000000E+00  0.29467852652E+03  0.29467852652E+03  0.00000000000E+00 0.  1.
         21   -1    0    0  501  502 -0.00000000000E+00 -0.00000000000E+00 -0.31876296210E+03  0.31876296210E+03  0.00000000000E+00 0.  1.
         25    1    1    2    0    0 -0.35545819341E+02 -0.17592757064E+02 -0.21887580370E+03  0.25515608521E+03  0.12500000000E+03 0.  0.
         25    1    1    2    0    0  0.40979766454E+02 -0.68149156021E+02  0.82575133908E+02  0.16960926114E+03  0.12500000000E+03 0.  0.
         25    1    1    2    0    0 -0.54339471134E+01  0.85741913086E+02  0.11221623421E+03  0.18867614227E+03  0.12500000000E+03 0.  0.
</event>
<event>
 5    0  0.5532658E-005  0.4888709E+03  0.7546771E-02  0.1016725E+00
         21   -1    0    0  502  501  0.00000000000E+00  0.00000000000E+00  0.30880652577E+03  0.30880652577E+03  0.00000000000E+00 0.  1.
         21   -1    0    0  501  502 -0.00000000000E+00 -0.00000000000E+00 -0.77393049271E+03  0.77393049271E+03  0.00000000000E+00 0.  1.
         25    1    1    2    0    0  0.24655149644E+03 -0.14721772115E+03  0.13750413185E+03  0.34204251796E+03  0.12500000000E+03 0.  0.
         25    1    1    2    0    0 -0.21599249531E+02  0.51108836976E+02 -0.10554098864E+03  0.17274993801E+03  0.12500000000E+03 0.  0.
         25    1    1    2    0    0 -0.22495224691E+03  0.96108884173E+02 -0.49708711015E+03  0.56794456251E+03  0.12500000000E+03 0.  0.
</event>
<event>
 5    0  0.5532658E-005  0.6289745E+03  0.7546771E-02  0.9847052E-01
         21   -1    0    0  502  501  0.00000000000E+00  0.00000000000E+00  0.57530607951E+03  0.57530607951E+03  0.00000000000E+00 0. -1.
         21   -1    0    0  501  502 -0.00000000000E+00 -0.00000000000E+00 -0.68764947718E+03  0.68764947718E+03  0.00000000000E+00 0. -1.
         25    1    1    2    0    0 -0.19111357281E+02  0.22518681469E+03 -0.20289153706E+03  0.32842704106E+03  0.12500000000E+03 0.  0.
         25    1    1    2    0    0  0.22035975598E+03  0.79304808174E+02  0.37197705538E+03  0.45698972021E+03  0.12500000000E+03 0.  0.
         25    1    1    2    0    0 -0.20124839870E+03 -0.30449162286E+03 -0.28142891599E+03  0.47753879541E+03  0.12500000000E+03 0.  0.
</event>
<event>
 5    0  0.5532658E-005  0.2901524E+03  0.7546771E-02  0.1090270E+00
         21   -1    0    0  502  501  0.00000000000E+00  0.00000000000E+00  0.53170339831E+03  0.53170339831E+03  0.00000000000E+00 0. -1.
         21   -1    0    0  501  502 -0.00000000000E+00 -0.00000000000E+00 -0.15833721904E+03  0.15833721904E+03  0.00000000000E+00 0. -1.
         25    1    1    2    0    0 -0.76629546616E+02 -0.13316399522E+03  0.14428081541E+03  0.24504426280E+03  0.12500000000E+03 0.  0.
         25    1    1    2    0    0  0.15868312525E+03  0.10526596120E+03  0.15717167795E+03  0.27674752605E+03  0.12500000000E+03 0.  0.
         25    1    1    2    0    0 -0.82053578633E+02  0.27898034027E+02  0.71913685907E+02  0.16824882849E+03  0.12500000000E+03 0.  0.
</event>
<event>
 5    0  0.5532658E-005  0.4647797E+03  0.7546771E-02  0.1023404E+00
         21   -1    0    0  502  501  0.00000000000E+00  0.00000000000E+00  0.30101604789E+03  0.30101604789E+03  0.00000000000E+00 0. -1.
         21   -1    0    0  501  502 -0.00000000000E+00 -0.00000000000E+00 -0.71763679463E+03  0.71763679463E+03  0.00000000000E+00 0. -1.
         25    1    1    2    0    0  0.60515208719E+01 -0.71910979162E+02  0.39643715298E+02  0.14968110766E+03  0.12500000000E+03 0.  0.
         25    1    1    2    0    0  0.10848300278E+02  0.27713999137E+03 -0.53507732876E+03  0.61551361332E+03  0.12500000000E+03 0.  0.
         25    1    1    2    0    0 -0.16899821150E+02 -0.20522901220E+03  0.78812866723E+02  0.25345812152E+03  0.12500000000E+03 0.  0.
</event>
<event>
 5    0  0.5532658E-005  0.3399016E+03  0.7546771E-02  0.1066838E+00
         21   -1    0    0  502  501  0.00000000000E+00  0.00000000000E+00  0.19158867176E+04  0.19158867176E+04  0.00000000000E+00 0.  1.
         21   -1    0    0  501  502 -0.00000000000E+00 -0.00000000000E+00 -0.60302690055E+02  0.60302690055E+02  0.00000000000E+00 0.  1.
         25    1    1    2    0    0 -0.45166293601E+02  0.93031970367E+02  0.31678882442E+03  0.35591445723E+03  0.12500000000E+03 0.  0.
         25    1    1    2    0    0 -0.18328924662E+03  0.45843829601E+01  0.82177629232E+03  0.85120928044E+03  0.12500000000E+03 0.  0.
         25    1    1    2    0    0  0.22845554022E+03 -0.97616353328E+02  0.71701891079E+03  0.76906566997E+03  0.12500000000E+03 0.  0.
</event>
<event>
 5    0  0.5532658E-005  0.2293018E+03  0.7546771E-02  0.1127132E+00
         21   -1    0    0  502  501  0.00000000000E+00  0.00000000000E+00  0.27236704984E+03  0.27236704984E+03  0.00000000000E+00 0. -1.
         21   -1    0    0  501  502 -0.00000000000E+00 -0.00000000000E+00 -0.19304586664E+03  0.19304586664E+03  0.00000000000E+00 0. -1.
         25    1    1    2    0    0  0.17425554199E+02 -0.10896223379E+03  0.57345560888E+02  0.17632337249E+03  0.12500000000E+03 0.  0.
         25    1    1    2    0    0 -0.47413454838E+02  0.57903180945E+02 -0.13446131243E+02  0.14630998773E+03  0.12500000000E+03 0.  0.
         25    1    1    2    0    0  0.29987900639E+02  0.51059052844E+02  0.35421753556E+02  0.14277955626E+03  0.12500000000E+03 0.  0.
</event>
<event>
 5    0  0.5780914E-005  0.2879321E+03  0.7546771E-02  0.1091434E+00
         21   -1    0    0  502  501  0.00000000000E+00  0.00000000000E+00  0.82956208064E+03  0.82956208064E+03  0.00000000000E+00 0. -1.
         21   -1    0    0  501  502 -0.00000000000E+00 -0.00000000000E+00 -0.99938143817E+02  0.99938143817E+02  0.00000000000E+00 0. -1.
         25    1    1    2    0    0 -0.10100516476E+02 -0.77585148460E+02  0.17274999966E+03  0.22713220397E+03  0.12500000000E+03 0.  0.
         25    1    1    2    0    0  0.12257172645E+03  0.15994699815E+03  0.35614211256E+03  0.42786572038E+03  0.12500000000E+03 0.  0.
         25    1    1    2    0    0 -0.11247120997E+03 -0.82361849690E+02  0.20073182460E+03  0.27450230011E+03  0.12500000000E+03 0.  0.
</event>
<event>
 5    0  0.5532658E-005  0.2794135E+03  0.7546771E-02  0.1096010E+00
         21   -1    0    0  502  501  0.00000000000E+00  0.00000000000E+00  0.56435807936E+03  0.56435807936E+03  0.00000000000E+00 0. -1.
         21   -1    0    0  501  502 -0.00000000000E+00 -0.00000000000E+00 -0.13833754729E+03  0.13833754729E+03  0.00000000000E+00 0. -1.
         25    1    1    2    0    0  0.10832342802E+03  0.13525378131E+03  0.27140635977E+03  0.34541853242E+03  0.12500000000E+03 0.  0.
         25    1    1    2    0    0 -0.74926698422E+02 -0.63075631809E+02  0.13382616523E+03  0.20767038297E+03  0.12500000000E+03 0.  0.
         25    1    1    2    0    0 -0.33396729603E+02 -0.72178149499E+02  0.20788007075E+02  0.14960671125E+03  0.12500000000E+03 0.  0.
</event>
<event>
 5    0  0.5532658E-005  0.3154969E+03  0.7546771E-02  0.1077741E+00
         21   -1    0    0  502  501  0.00000000000E+00  0.00000000000E+00  0.17814001872E+03  0.17814001872E+03  0.00000000000E+00 0.  1.
         21   -1    0    0  501  502 -0.00000000000E+00 -0.00000000000E+00 -0.55876445253E+03  0.55876445253E+03  0.00000000000E+00 0.  1.
         25    1    1    2    0    0 -0.88332782334E+02 -0.21194918910E+03 -0.20423172643E+03  0.33175403129E+03  0.12500000000E+03 0.  0.
         25    1    1    2    0    0  0.76069931269E+02  0.39908865930E+02 -0.69918924515E+02  0.16701199965E+03  0.12500000000E+03 0.  0.
         25    1    1    2    0    0  0.12262851065E+02  0.17204032317E+03 -0.10647378286E+03  0.23813844030E+03  0.12500000000E+03 0.  0.
</event>
<event>
 5    0  0.5532658E-005  0.4464946E+03  0.7546771E-02  0.1028773E+00
         21   -1    0    0  502  501  0.00000000000E+00  0.00000000000E+00  0.10419775794E+03  0.10419775794E+03  0.00000000000E+00 0.  1.
         21   -1    0    0  501  502 -0.00000000000E+00 -0.00000000000E+00 -0.19132601517E+04  0.19132601517E+04  0.00000000000E+00 0.  1.
         25    1    1    2    0    0  0.36620357843E+02  0.27992172269E+03 -0.63656292284E+03  0.70748468265E+03  0.12500000000E+03 0.  0.
         25    1    1    2    0    0 -0.15509809236E+03 -0.34198107851E+03 -0.88014497647E+03  0.96503194554E+03  0.12500000000E+03 0.  0.
         25    1    1    2    0    0  0.11847773452E+03  0.62059355815E+02 -0.29235449446E+03  0.34494128145E+03  0.12500000000E+03 0.  0.
</event>
<event>
 5    0  0.5532658E-005  0.2324768E+03  0.7546771E-02  0.1124909E+00
         21   -1    0    0  502  501  0.00000000000E+00  0.00000000000E+00  0.13025750706E+03  0.13025750706E+03  0.00000000000E+00 0. -1.
         21   -1    0    0  501  502 -0.00000000000E+00 -0.00000000000E+00 -0.41491245075E+03  0.41491245075E+03  0.00000000000E+00 0. -1.
         25    1    1    2    0    0 -0.58266534105E+02  0.81589928077E+02 -0.80283250920E+02  0.17922696711E+03  0.12500000000E+03 0.  0.
         25    1    1    2    0    0  0.93676534594E+02 -0.13885187434E+02 -0.11281554538E+03  0.19318498607E+03  0.12500000000E+03 0.  0.
         25    1    1    2    0    0 -0.35410000490E+02 -0.67704740644E+02 -0.91556147388E+02  0.17275800463E+03  0.12500000000E+03 0.  0.
</event>
<event>
 5    0  0.6160000E-005  0.3199993E+03  0.7546771E-02  0.1075650E+00
         21   -1    0    0  502  501  0.00000000000E+00  0.00000000000E+00  0.48458180895E+03  0.48458180895E+03  0.00000000000E+00 0.  1.
         21   -1    0    0  501  502 -0.00000000000E+00 -0.00000000000E+00 -0.21131525768E+03  0.21131525768E+03  0.00000000000E+00 0.  1.
         25    1    1    2    0    0  0.10022938301E+03  0.94817529239E+01  0.17622813014E+03  0.23836355995E+03  0.12500000000E+03 0.  0.
         25    1    1    2    0    0 -0.57927541924E+02 -0.15472530175E+03 -0.49034138540E+02  0.21289637352E+03  0.12500000000E+03 0.  0.
         25    1    1    2    0    0 -0.42301841081E+02  0.14524354883E+03  0.14607255967E+03  0.24463713317E+03  0.12500000000E+03 0.  0.
</event>
<event>
 5    0  0.5532658E-005  0.5031113E+03  0.7546771E-02  0.1012970E+00
         21   -1    0    0  502  501  0.00000000000E+00  0.00000000000E+00  0.83410829379E+03  0.83410829379E+03  0.00000000000E+00 0.  1.
         21   -1    0    0  501  502 -0.00000000000E+00 -0.00000000000E+00 -0.30346291872E+03  0.30346291872E+03  0.00000000000E+00 0.  1.
         25    1    1    2    0    0  0.49211620775E+02 -0.40455358908E+02  0.20691906565E+03  0.24999783882E+03  0.12500000000E+03 0.  0.
         25    1    1    2    0    0  0.14920892090E+03  0.36527901427E+03  0.23943622330E+03  0.47817022635E+03  0.12500000000E+03 0.  0.
         25    1    1    2    0    0 -0.19842054167E+03 -0.32482365536E+03  0.84290086127E+02  0.40940314735E+03  0.12500000000E+03 0.  0.
</event>
<event>
 5    0  0.5532658E-005  0.2975449E+03  0.7546771E-02  0.1086474E+00
         21   -1    0    0  502  501  0.00000000000E+00  0.00000000000E+00  0.18437368289E+03  0.18437368289E+03  0.00000000000E+00 0.  1.
         21   -1    0    0  501  502 -0.00000000000E+00 -0.00000000000E+00 -0.48018235662E+03  0.48018235662E+03  0.00000000000E+00 0.  1.
         25    1    1    2    0    0  0.81300059579E+02  0.32861145757E+02 -0.25028921048E+02  0.15472879977E+03  0.12500000000E+03 0.  0.
         25    1    1    2    0    0 -0.84888391345E+02  0.14203415354E+03 -0.79629264560E+02  0.22213860433E+03  0.12500000000E+03 0.  0.
         25    1    1    2    0    0  0.35883317655E+01 -0.17489529930E+03 -0.19115048812E+03  0.28768863542E+03  0.12500000000E+03 0.  0.
</event>
<event>
 5    0  0.5532658E-005  0.3759196E+03  0.7546771E-02  0.1052452E+00
         21   -1    0    0  502  501  0.00000000000E+00  0.00000000000E+00  0.14915755661E+03  0.14915755661E+03  0.00000000000E+00 0. -1.
         21   -1    0    0  501  502 -0.00000000000E+00 -0.00000000000E+00 -0.94742457668E+03  0.94742457668E+03  0.00000000000E+00 0. -1.
         25    1    1    2    0    0  0.46123015140E+02  0.70053886966E+02 -0.73702329135E+03  0.75223879958E+03  0.12500000000E+03 0.  0.
         25    1    1    2    0    0 -0.44048069815E+02 -0.81592296275E+02 -0.12857783861E+03  0.20187817081E+03  0.12500000000E+03 0.  0.
         25    1    1    2    0    0 -0.20749453243E+01  0.11538409309E+02  0.67334109893E+02  0.14246516291E+03  0.12500000000E+03 0.  0.
</event>
<event>
 5    0  0.5532658E-005  0.2417274E+03  0.7546771E-02  0.1118647E+00
         21   -1    0    0  502  501  0.00000000000E+00  0.00000000000E+00  0.37653150829E+03  0.37653150829E+03  0.00000000000E+00 0.  1.
         21   -1    0    0  501  502 -0.00000000000E+00 -0.00000000000E+00 -0.15518528980E+03  0.15518528980E+03  0.00000000000E+00 0.  1.
         25    1    1    2    0    0  0.10210516657E+02 -0.13665421998E+03  0.12857810982E+03  0.22568996614E+03  0.12500000000E+03 0.  0.
         25    1    1    2    0    0 -0.57964772852E+01  0.10265333364E+03  0.46508100590E+02  0.16840222527E+03  0.12500000000E+03 0.  0.
         25    1    1    2    0    0 -0.44140393721E+01  0.34000886346E+02  0.46260008077E+02  0.13762460668E+03  0.12500000000E+03 0.  0.
</event>
<event>
 5    0  0.5532658E-005  0.2250921E+03  0.7546771E-02  0.1130143E+00
         21   -1    0    0  502  501  0.00000000000E+00  0.00000000000E+00  0.47188310272E+03  0.47188310272E+03  0.00000000000E+00 0.  1.
         21   -1    0    0  501  502 -0.00000000000E+00 -0.00000000000E+00 -0.10737073057E+03  0.10737073057E+03  0.00000000000E+00 0.  1.
         25    1    1    2    0    0  0.58790631901E+02  0.93012454305E+02  0.17723968723E+03  0.24320066156E+03  0.12500000000E+03 0.  0.
         25    1    1    2    0    0 -0.53929547456E+00 -0.47991365275E+02  0.86162837063E+02  0.15922467293E+03  0.12500000000E+03 0.  0.
         25    1    1    2    0    0 -0.58251336426E+02 -0.45021089030E+02  0.10110984785E+03  0.17682849879E+03  0.12500000000E+03 0.  0.
</event>
<event>
 5    0  0.5532658E-005  0.3199338E+03  0.7546771E-02  0.1075680E+00
         21   -1    0    0  502  501  0.00000000000E+00  0.00000000000E+00  0.96124811127E+02  0.96124811127E+02  0.00000000000E+00 0.  1.
         21   -1    0    0  501  502 -0.00000000000E+00 -0.00000000000E+00 -0.10648407078E+04  0.10648407078E+04  0.00000000000E+00 0.  1.
         25    1    1    2    0    0 -0.49221777359E+02  0.53333988178E+02 -0.38955973775E+03  0.41551063397E+03  0.12500000000E+03 0.  0.
         25    1    1    2    0    0  0.20807747981E+03  0.39181605794E+02 -0.27795589536E+03  0.37110095069E+03  0.12500000000E+03 0.  0.
         25    1    1    2    0    0 -0.15885570245E+03 -0.92515593973E+02 -0.30120026352E+03  0.37435393423E+03  0.12500000000E+03 0.  0.
</event>
<event>
 5    0  0.5532658E-005  0.3918207E+03  0.7546771E-02  0.1046649E+00
         21   -1    0    0  502  501  0.00000000000E+00  0.00000000000E+00  0.66686169346E+03  0.66686169346E+03  0.00000000000E+00 0.  1.
         21   -1    0    0  501  502 -0.00000000000E+00 -0.00000000000E+00 -0.23021786493E+03  0.23021786493E+03  0.00000000000E+00 0.  1.
         25    1    1    2    0    0 -0.33368405197E+02 -0.19113662708E+03  0.14910599059E+03  0.27478037977E+03  0.12500000000E+03 0.  0.
         25    1    1    2    0    0  0.21286712487E+03  0.22065176708E+03  0.16755599173E+03  0.37107900174E+03  0.12500000000E+03 0.  0.
         25    1    1    2    0    0 -0.17949871967E+03 -0.29515140008E+02  0.11998184622E+03  0.25122017689E+03  0.12500000000E+03 0.  0.
</event>
<event>
 5    0  0.5532658E-005  0.3275303E+03  0.7546771E-02  0.1072235E+00
         21   -1    0    0  502  501  0.00000000000E+00  0.00000000000E+00  0.29762741328E+03  0.29762741328E+03  0.00000000000E+00 0.  1.
         21   -1    0    0  501  502 -0.00000000000E+00 -0.00000000000E+00 -0.36043751112E+03  0.36043751112E+03  0.00000000000E+00 0.  1.
         25    1    1    2    0    0 -0.27468634183E+02 -0.18387485085E+03 -0.20499050948E+03  0.30366197591E+03  0.12500000000E+03 0.  0.
         25    1    1    2    0    0  0.58328301381E+02  0.90653332803E+02  0.83310112507E+02  0.18489400298E+03  0.12500000000E+03 0.  0.
         25    1    1    2    0    0 -0.30859667198E+02  0.93221518042E+02  0.58870299135E+02  0.16950894550E+03  0.12500000000E+03 0.  0.
</event>
<event>
 5    0  0.5532658E-005  0.3608249E+03  0.7546771E-02  0.1058258E+00
         21   -1    0    0  502  501  0.00000000000E+00  0.00000000000E+00  0.75790784932E+03  0.75790784932E+03  0.00000000000E+00 0.  1.
         21   -1    0    0  501  502 -0.00000000000E+00 -0.00000000000E+00 -0.17178158928E+03  0.17178158928E+03  0.00000000000E+00 0.  1.
         25    1    1    2    0    0  0.15505070391E+03 -0.37465924459E+01  0.15671021700E+03  0.25345186890E+03  0.12500000000E+03 0.  0.
         25    1    1    2    0    0 -0.12017985331E+03  0.19535757215E+03  0.11394142370E+03  0.28498320332E+03  0.12500000000E+03 0.  0.
         25    1    1    2    0    0 -0.34870850601E+02 -0.19161097970E+03  0.31547461935E+03  0.39125436639E+03  0.12500000000E+03 0.  0.
</event>
<event>
 5    0  0.6198297E-005  0.2837873E+03  0.7546771E-02  0.1093638E+00
         21   -1    0    0  502  501  0.00000000000E+00  0.00000000000E+00  0.11343847724E+04  0.11343847724E+04  0.00000000000E+00 0.  1.
         21   -1    0    0  501  502 -0.00000000000E+00 -0.00000000000E+00 -0.70994624305E+02  0.70994624305E+02  0.00000000000E+00 0.  1.
         25    1    1    2    0    0 -0.13097211764E+02 -0.57525363680E+01  0.21289109143E+02  0.12760428989E+03  0.12500000000E+03 0.  0.
         25    1    1    2    0    0  0.63068498888E+02 -0.29994710396E+01  0.54156919440E+03  0.55938253879E+03  0.12500000000E+03 0.  0.
         25    1    1    2    0    0 -0.49971287125E+02  0.87520074076E+01  0.50053184451E+03  0.51839256798E+03  0.12500000000E+03 0.  0.
</event>
<event>
 5    0  0.5532658E-005  0.3857321E+03  0.7546771E-02  0.1048835E+00
         21   -1    0    0  502  501  0.00000000000E+00  0.00000000000E+00  0.30373166102E+03  0.30373166102E+03  0.00000000000E+00 0.  1.
         21   -1    0    0  501  502 -0.00000000000E+00 -0.00000000000E+00 -0.48987067948E+03  0.48987067948E+03  0.00000000000E+00 0.  1.
         25    1    1    2    0    0  0.15508509637E+03 -0.11452802512E+03  0.16322178925E+02  0.23034641126E+03  0.12500000000E+03 0.  0.
         25    1    1    2    0    0  0.94188315115E+02  0.72496847842E+02  0.55361149518E+02  0.18115487442E+03  0.12500000000E+03 0.  0.
         25    1    1    2    0    0 -0.24927341149E+03  0.42031177273E+02 -0.25782234690E+03  0.38210105483E+03  0.12500000000E+03 0.  0.
</event>
<event>
 5    0  0.5532658E-005  0.3307350E+03  0.7546771E-02  0.1070812E+00
         21   -1    0    0  502  501  0.00000000000E+00  0.00000000000E+00  0.52760912384E+03  0.52760912384E+03  0.00000000000E+00 0.  1.
         21   -1    0    0  501  502 -0.00000000000E+00 -0.00000000000E+00 -0.20732323012E+03  0.20732323012E+03  0.00000000000E+00 0.  1.
         25    1    1    2    0    0  0.73992361592E+02  0.17313063410E+03  0.90493656682E+02  0.24344031699E+03  0.12500000000E+03 0.  0.
         25    1    1    2    0    0  0.24628585413E+02 -0.13889933695E+03 -0.23936830334E+02  0.18999359165E+03  0.12500000000E+03 0.  0.
         25    1    1    2    0    0 -0.98620947005E+02 -0.34231297152E+02  0.25372906738E+03  0.30149844531E+03  0.12500000000E+03 0.  0.
</event>
<event>
 5    0  0.5532658E-005  0.3058381E+03  0.7546771E-02  0.1082358E+00
         21   -1    0    0  502  501  0.00000000000E+00  0.00000000000E+00  0.38476908830E+03  0.38476908830E+03  0.00000000000E+00 0.  1.
         21   -1    0    0  501  502 -0.00000000000E+00 -0.00000000000E+00 -0.24309884028E+03  0.24309884028E+03  0.00000000000E+00 0.  1.
         25    1    1    2    0    0  0.57557529995E+01  0.67822110520E+02 -0.70634659651E+02  0.15889374598E+03  0.12500000000E+03 0.  0.
         25    1    1    2    0    0  0.13821931650E+03 -0.82056567952E+02  0.18634866575E+03  0.27602297916E+03  0.12500000000E+03 0.  0.
         25    1    1    2    0    0 -0.14397506949E+03  0.14234457432E+02  0.25956241920E+02  0.19295120344E+03  0.12500000000E+03 0.  0.
</event>
<event>
 5    0  0.5532658E-005  0.4625781E+03  0.7546771E-02  0.1024036E+00
         21   -1    0    0  502  501  0.00000000000E+00  0.00000000000E+00  0.81985985117E+03  0.81985985117E+03  0.00000000000E+00 0. -1.
         21   -1    0    0  501  502 -0.00000000000E+00 -0.00000000000E+00 -0.26099394099E+03  0.26099394099E+03  0.00000000000E+00 0. -1.
         25    1    1    2    0    0  0.29600098206E+03  0.19614630860E+03  0.35782427867E+02  0.37814724368E+03  0.12500000000E+03 0.  0.
         25    1    1    2    0    0 -0.21089463488E+03 -0.19880930528E+03  0.38561379806E+03  0.49832187203E+03  0.12500000000E+03 0.  0.
         25    1    1    2    0    0 -0.85106347179E+02  0.26629966842E+01  0.13746968425E+03  0.20438467645E+03  0.12500000000E+03 0.  0.
</event>
<event>
 5    0  0.5532658E-005  0.2240652E+03  0.7546771E-02  0.1130888E+00
         21   -1    0    0  502  501  0.00000000000E+00  0.00000000000E+00  0.57278502247E+03  0.57278502247E+03  0.00000000000E+00 0.  1.
         21   -1    0    0  501  502 -0.00000000000E+00 -0.00000000000E+00 -0.87651056339E+02  0.87651056339E+02  0.00000000000E+00 0.  1.
         25    1    1    2    0    0 -0.32124561071E+02 -0.69545014790E+02  0.56063596858E+02  0.15696057912E+03  0.12500000000E+03 0.  0.
         25    1    1    2    0    0  0.92635980301E+01  0.19622761679E+02  0.20396193797E+03  0.24020062274E+03  0.12500000000E+03 0.  0.
         25    1    1    2    0    0  0.22860963041E+02  0.49922253112E+02  0.22510843130E+03  0.26327487694E+03  0.12500000000E+03 0.  0.
</event>
<event>
 5    0  0.5532658E-005  0.3993381E+03  0.7546771E-02  0.1044009E+00
         21   -1    0    0  502  501  0.00000000000E+00  0.00000000000E+00  0.30892560155E+03  0.30892560155E+03  0.00000000000E+00 0. -1.
         21   -1    0    0  501  502 -0.00000000000E+00 -0.00000000000E+00 -0.51621147775E+03  0.51621147775E+03  0.00000000000E+00 0. -1.
         25    1    1    2    0    0  0.11951186499E+03 -0.47729330862E+02 -0.10926854929E+03  0.21006139760E+03  0.12500000000E+03 0.  0.
         25    1    1    2    0    0  0.17745798770E+03  0.65184243656E+02 -0.17140663564E+03  0.28415762837E+03  0.12500000000E+03 0.  0.
         25    1    1    2    0    0 -0.29696985269E+03 -0.17454912795E+02  0.73389308729E+02  0.33091805333E+03  0.12500000000E+03 0.  0.
</event>
<event>
 5    0  0.5532658E-005  0.4426330E+03  0.7546771E-02  0.1029942E+00
         21   -1    0    0  502  501  0.00000000000E+00  0.00000000000E+00  0.12074817925E+03  0.12074817925E+03  0.00000000000E+00 0.  1.
         21   -1    0    0  501  502 -0.00000000000E+00 -0.00000000000E+00 -0.16225828829E+04  0.16225828829E+04  0.00000000000E+00 0.  1.
         25    1    1    2    0    0 -0.26084748660E+03  0.64087976771E+02 -0.73578741582E+03  0.79319405022E+03  0.12500000000E+03 0.  0.
         25    1    1    2    0    0  0.13490568331E+03 -0.22837661156E+03 -0.56131673277E+03  0.63329052937E+03  0.12500000000E+03 0.  0.
         25    1    1    2    0    0  0.12594180328E+03  0.16428863479E+03 -0.20473055504E+03  0.31684648255E+03  0.12500000000E+03 0.  0.
</event>
<event>
 5    0  0.5532658E-005  0.2467476E+03  0.7546771E-02  0.1115378E+00
         21   -1    0    0  502  501  0.00000000000E+00  0.00000000000E+00  0.98737835314E+03  0.98737835314E+03  0.00000000000E+00 0.  1.
         21   -1    0    0  501  502 -0.00000000000E+00 -0.00000000000E+00 -0.61662664600E+02  0.61662664600E+02  0.00000000000E+00 0.  1.
         25    1    1    2    0    0  0.70809652681E+02  0.13102056179E+01  0.21609358099E+03  0.25949404482E+03  0.12500000000E+03 0.  0.
         25    1    1    2    0    0  0.64700056066E+02 -0.36129225298E+02  0.42035232299E+03  0.44476116470E+03  0.12500000000E+03 0.  0.
         25    1    1    2    0    0 -0.13550970875E+03  0.34819019680E+02  0.28926978455E+03  0.34478580822E+03  0.12500000000E+03 0.  0.
</event>
<event>
 5    0  0.5532658E-005  0.2807023E+03  0.7546771E-02  0.1095306E+00
         21   -1    0    0  502  501  0.00000000000E+00  0.00000000000E+00  0.24367356509E+03  0.24367356509E+03  0.00000000000E+00 0. -1.
         21   -1    0    0  501  502 -0.00000000000E+00 -0.00000000000E+00 -0.32335796066E+03  0.32335796066E+03  0.00000000000E+00 0. -1.
         25    1    1    2    0    0 -0.12332992559E+03  0.33576738045E+02 -0.97292601429E+02  0.20353996702E+03  0.12500000000E+03 0.  0.
         25    1    1    2    0    0  0.11637583191E+03 -0.36063714123E+01  0.11164404381E+03  0.20407286122E+03  0.12500000000E+03 0.  0.
         25    1    1    2    0    0  0.69540936798E+01 -0.29970366632E+02 -0.94035837959E+02  0.15941869751E+03  0.12500000000E+03 0.  0.
</event>
<event>
 5    0  0.5532658E-005  0.3000431E+03  0.7546771E-02  0.1085219E+00
         21   -1    0    0  502  501  0.00000000000E+00  0.00000000000E+00  0.11587741149E+03  0.11587741149E+03  0.00000000000E+00 0.  1.
         21   -1    0    0  501  502 -0.00000000000E+00 -0.00000000000E+00 -0.77690610946E+03  0.77690610946E+03  0.00000000000E+00 0.  1.
         25    1    1    2    0    0 -0.42026406257E+02  0.26051824224E+02 -0.46287437990E+03  0.48199855594E+03  0.12500000000E+03 0.  0.
         25    1    1    2    0    0 -0.49529312745E+02 -0.85191630932E+02 -0.92954953334E+01  0.15944332233E+03  0.12500000000E+03 0.  0.
         25    1    1    2    0    0  0.91555719003E+02  0.59139806708E+02 -0.18885882274E+03  0.25134164268E+03  0.12500000000E+03 0.  0.
</event>
<event>
 5    0  0.5532658E-005  0.2984536E+03  0.7546771E-02  0.1086016E+00
         21   -1    0    0  502  501  0.00000000000E+00  0.00000000000E+00  0.11439584500E+04  0.11439584500E+04  0.00000000000E+00 0. -1.
         21   -1    0    0  501  502 -0.00000000000E+00 -0.00000000000E+00 -0.77865173000E+02  0.77865173000E+02  0.00000000000E+00 0. -1.
         25    1    1    2    0    0 -0.19526932298E+02  0.24538811305E+02  0.36077826461E+03  0.38310496024E+03  0.12500000000E+03 0.  0.
         25    1    1    2    0    0  0.39288375102E+02 -0.18210555989E+03  0.22554994728E+03  0.31812543136E+03  0.12500000000E+03 0.  0.
         25    1    1    2    0    0 -0.19761442804E+02  0.15756674858E+03  0.47976506509E+03  0.52059323138E+03  0.12500000000E+03 0.  0.
</event>
<event>
 5    0  0.5532658E-005  0.2342117E+03  0.7546771E-02  0.1123710E+00
         21   -1    0    0  502  501  0.00000000000E+00  0.00000000000E+00  0.48786948794E+03  0.48786948794E+03  0.00000000000E+00 0. -1.
         21   -1    0    0  501  502 -0.00000000000E+00 -0.00000000000E+00 -0.11243813497E+03  0.11243813497E+03  0.00000000000E+00 0. -1.
         25    1    1    2    0    0 -0.54507350385E+02  0.84335117321E+02  0.12751566951E+03  0.20486265943E+03  0.12500000000E+03 0.  0.
         25    1    1    2    0    0 -0.34865168184E+01 -0.11137760759E+03  0.14188280337E+03  0.21948315918E+03  0.12500000000E+03 0.  0.
         25    1    1    2    0    0  0.57993867204E+02  0.27042490267E+02  0.10603288009E+03  0.17596180430E+03  0.12500000000E+03 0.  0.
</event>
<event>
 5    0  0.5532658E-005  0.2824735E+03  0.7546771E-02  0.1094346E+00
         21   -1    0    0  502  501  0.00000000000E+00  0.00000000000E+00  0.12927764247E+03  0.12927764247E+03  0.00000000000E+00 0. -1.
         21   -1    0    0  501  502 -0.00000000000E+00 -0.00000000000E+00 -0.61720846857E+03  0.61720846857E+03  0.00000000000E+00 0. -1.
         25    1    1    2    0    0 -0.78812659692E+02  0.14734729248E+02 -0.13315287158E+03  0.19945735079E+03  0.12500000000E+03 0.  0.
         25    1    1    2    0    0 -0.56586477652E+02 -0.13652401918E+03 -0.13952647132E+03  0.23860736255E+03  0.12500000000E+03 0.  0.
         25    1    1    2    0    0  0.13539913734E+03  0.12178928993E+03 -0.21525148320E+03  0.30842139770E+03  0.12500000000E+03 0.  0.
</event>
<event>
 5    0  0.5532658E-005  0.2795379E+03  0.7546771E-02  0.1095942E+00
         21   -1    0    0  502  501  0.00000000000E+00  0.00000000000E+00  0.51708083978E+03  0.51708083978E+03  0.00000000000E+00 0. -1.
         21   -1    0    0  501  502 -0.00000000000E+00 -0.00000000000E+00 -0.15112030281E+03  0.15112030281E+03  0.00000000000E+00 0. -1.
         25    1    1    2    0    0  0.12800531643E+03  0.72286876604E+01  0.29675771312E+02  0.18150279988E+03  0.12500000000E+03 0.  0.
         25    1    1    2    0    0 -0.17563646030E+03 -0.24262537636E+02  0.21135441603E+03  0.30287377914E+03  0.12500000000E+03 0.  0.
         25    1    1    2    0    0  0.47631143866E+02  0.17033849975E+02  0.12493034963E+03  0.18382456356E+03  0.12500000000E+03 0.  0.
</event>
<event>
 5    0  0.5532658E-005  0.2770402E+03  0.7546771E-02  0.1097317E+00
         21   -1    0    0  502  501  0.00000000000E+00  0.00000000000E+00  0.51685673386E+02  0.51685673386E+02  0.00000000000E+00 0. -1.
         21   -1    0    0  501  502 -0.00000000000E+00 -0.00000000000E+00 -0.14849617218E+04  0.14849617218E+04  0.00000000000E+00 0. -1.
         25    1    1    2    0    0  0.76519213885E+02 -0.39712406289E+02 -0.47829530058E+03  0.50182034620E+03  0.12500000000E+03 0.  0.
         25    1    1    2    0    0 -0.99443178462E+00  0.13816300588E+03 -0.27335962897E+03  0.33081791342E+03  0.12500000000E+03 0.  0.
         25    1    1    2    0    0 -0.75524782101E+02 -0.98450599594E+02 -0.68162111881E+03  0.70400913551E+03  0.12500000000E+03 0.  0.
</event>
<event>
 5    0  0.5735762E-005  0.3033199E+03  0.7546771E-02  0.1083593E+00
         21   -1    0    0  502  501  0.00000000000E+00  0.00000000000E+00  0.47726507865E+03  0.47726507865E+03  0.00000000000E+00 0.  1.
         21   -1    0    0  501  502 -0.00000000000E+00 -0.00000000000E+00 -0.19277117886E+03  0.19277117886E+03  0.00000000000E+00 0.  1.
         25    1    1    2    0    0 -0.73607506478E+01 -0.87663870133E+02  0.24834647148E+03  0.29161636558E+03  0.12500000000E+03 0.  0.
         25    1    1    2    0    0  0.87309928941E+02  0.10663159276E+02 -0.82248278949E+02  0.17356988808E+03  0.12500000000E+03 0.  0.
         25    1    1    2    0    0 -0.79949178293E+02  0.77000710857E+02  0.11839570727E+03  0.20485000386E+03  0.12500000000E+03 0.  0.
</event>
<event>
 5    0  0.5532658E-005  0.2330637E+03  0.7546771E-02  0.1124502E+00
         21   -1    0    0  502  501  0.00000000000E+00  0.00000000000E+00  0.18956510807E+03  0.18956510807E+03  0.00000000000E+00 0.  1.
         21   -1    0    0  501  502 -0.00000000000E+00 -0.00000000000E+00 -0.28654367654E+03  0.28654367654E+03  0.00000000000E+00 0.  1.
         25    1    1    2    0    0  0.81760252490E+02  0.67081513684E+02 -0.64859108345E+02  0.17611465669E+03  0.12500000000E+03 0.  0.
         25    1    1    2    0    0 -0.57909093998E+02 -0.45249696949E+02 -0.75890231609E+02  0.16366222990E+03  0.12500000000E+03 0.  0.
         25    1    1    2    0    0 -0.23851158492E+02 -0.21831816736E+02  0.43770771487E+02  0.13633189803E+03  0.12500000000E+03 0.  0.
</event>
<event>
 5    0  0.5743717E-005  0.3541754E+03  0.7546771E-02  0.1060914E+00
         21   -1    0    0  502  501  0.00000000000E+00  0.00000000000E+00  0.14695379507E+03  0.14695379507E+03  0.00000000000E+00 0. -1.
         21   -1    0    0  501  502 -0.00000000000E+00 -0.00000000000E+00 -0.85360286307E+03  0.85360286307E+03  0.00000000000E+00 0. -1.
         25    1    1    2    0    0  0.17466028718E+02 -0.16751663329E+02 -0.62485700294E+03  0.63769660067E+03  0.12500000000E+03 0.  0.
         25    1    1    2    0    0 -0.16939313683E+02  0.12459534779E+03 -0.87398126695E+02  0.19767238955E+03  0.12500000000E+03 0.  0.
         25    1    1    2    0    0 -0.52671503494E+00 -0.10784368446E+03  0.56060616391E+01  0.16518766792E+03  0.12500000000E+03 0.  0.
</event>
<event>
 5    0  0.5532658E-005  0.3790906E+03  0.7546771E-02  0.1051270E+00
         21   -1    0    0  502  501  0.00000000000E+00  0.00000000000E+00  0.31450374982E+03  0.31450374982E+03  0.00000000000E+00 0. -1.
         21   -1    0    0  501  502 -0.00000000000E+00 -0.00000000000E+00 -0.45694100002E+03  0.45694100002E+03  0.00000000000E+00 0. -1.
         25    1    1    2    0    0  0.59954380605E+02 -0.21144636110E+03 -0.21747233068E+03  0.33350158319E+03  0.12500000000E+03 0.  0.
         25    1    1    2    0    0 -0.17172272730E+02  0.23897466442E+03 -0.22884748335E+02  0.27120562106E+03  0.12500000000E+03 0.  0.
         25    1    1    2    0    0 -0.42782107875E+02 -0.27528303319E+02  0.97919828805E+02  0.16673754559E+03  0.12500000000E+03 0.  0.
</event>
<event>
 5    0  0.5532658E-005  0.4002902E+03  0.7546771E-02  0.1043679E+00
         21   -1    0    0  502  501  0.00000000000E+00  0.00000000000E+00  0.36172226066E+03  0.36172226066E+03  0.00000000000E+00 0. -1.
         21   -1    0    0  501  502 -0.00000000000E+00 -0.00000000000E+00 -0.44297036214E+03  0.44297036214E+03  0.00000000000E+00 0. -1.
         25    1    1    2    0    0 -0.22458140985E+03  0.87307461757E+02  0.17504305502E+03  0.32299299317E+03  0.12500000000E+03 0.  0.
         25    1    1    2    0    0  0.20176733196E+03 -0.12101351673E+03 -0.11953871499E+03  0.29200827361E+03  0.12500000000E+03 0.  0.
         25    1    1    2    0    0  0.22814077887E+02  0.33706054971E+02 -0.13675244150E+03  0.18969135602E+03  0.12500000000E+03 0.  0.
</event>
<event>
 5    0  0.5546694E-005  0.3364703E+03  0.7546771E-02  0.1068309E+00
         21   -1    0    0  502  501  0.00000000000E+00  0.00000000000E+00  0.33227314198E+03  0.33227314198E+03  0.00000000000E+00 0.  1.
         21   -1    0    0  501  502 -0.00000000000E+00 -0.00000000000E+00 -0.34072052552E+03  0.34072052552E+03  0.00000000000E+00 0.  1.
         25    1    1    2    0    0 -0.90508817492E+02 -0.33339179186E+02  0.67716447423E+02  0.17179599577E+03  0.12500000000E+03 0.  0.
         25    1    1    2    0    0  0.32341787299E+02 -0.97473944528E+02  0.13958800533E+03  0.21367492202E+03  0.12500000000E+03 0.  0.
         25    1    1    2    0    0  0.58167030193E+02  0.13081312371E+03 -0.21575183630E+03  0.28752274971E+03  0.12500000000E+03 0.  0.
</event>
<event>
 5    0  0.5532658E-005  0.3018913E+03  0.7546771E-02  0.1084299E+00
         21   -1    0    0  502  501  0.00000000000E+00  0.00000000000E+00  0.12452990312E+03  0.12452990312E+03  0.00000000000E+00 0.  1.
         21   -1    0    0  501  502 -0.00000000000E+00 -0.00000000000E+00 -0.73185912980E+03  0.73185912980E+03  0.00000000000E+00 0.  1.
         25    1    1    2    0    0 -0.28942822267E+02  0.13288221992E+03 -0.12394315524E+03  0.22244612171E+03  0.12500000000E+03 0.  0.
         25    1    1    2    0    0 -0.63851922801E+02 -0.12369284047E+03 -0.83791343457E+02  0.20499506352E+03  0.12500000000E+03 0.  0.
         25    1    1    2    0    0  0.92794745069E+02 -0.91893794508E+01 -0.39959472799E+03  0.42894784770E+03  0.12500000000E+03 0.  0.
</event>
<event>
 5    0  0.7141018E-005  0.4482084E+03  0.7546771E-02  0.1028258E+00
         21   -1    0    0  502  501  0.00000000000E+00  0.00000000000E+00  0.37218272618E+03  0.37218272618E+03  0.00000000000E+00 0. -1.
         21   -1    0    0  501  502 -0.00000000000E+00 -0.00000000000E+00 -0.53976382185E+03  0.53976382185E+03  0.00000000000E+00 0. -1.
         25    1    1    2    0    0 -0.20262432232E+03  0.19025862615E+03 -0.23154171917E+03  0.38274211754E+03  0.12500000000E+03 0.  0.
         25    1    1    2    0    0  0.37774638681E+02 -0.12121453716E+03  0.20335302862E+03  0.27036520042E+03  0.12500000000E+03 0.  0.
         25    1    1    2    0    0  0.16484968364E+03 -0.69044088985E+02 -0.13939240512E+03  0.25883923008E+03  0.12500000000E+03 0.  0.
</event>
<event>
 5    0  0.5532658E-005  0.2480346E+03  0.7546771E-02  0.1114553E+00
         21   -1    0    0  502  501  0.00000000000E+00  0.00000000000E+00  0.54319011931E+03  0.54319011931E+03  0.00000000000E+00 0. -1.
         21   -1    0    0  501  502 -0.00000000000E+00 -0.00000000000E+00 -0.11325897363E+03  0.11325897363E+03  0.00000000000E+00 0. -1.
         25    1    1    2    0    0 -0.74607667853E+02 -0.36962833193E+02  0.91785530646E+02  0.17601743884E+03  0.12500000000E+03 0.  0.
         25    1    1    2    0    0  0.91062412980E+02 -0.71628048582E+02  0.13238811077E+03  0.21581138124E+03  0.12500000000E+03 0.  0.
         25    1    1    2    0    0 -0.16454745127E+02  0.10859088177E+03  0.20575750426E+03  0.26462027285E+03  0.12500000000E+03 0.  0.
</event>
<event>
 5    0  0.5532658E-005  0.3156164E+03  0.7546771E-02  0.1077685E+00
         21   -1    0    0  502  501  0.00000000000E+00  0.00000000000E+00  0.13128551774E+03  0.13128551774E+03  0.00000000000E+00 0.  1.
         21   -1    0    0  501  502 -0.00000000000E+00 -0.00000000000E+00 -0.75875637483E+03  0.75875637483E+03  0.00000000000E+00 0.  1.
         25    1    1    2    0    0 -0.72303570989E+02 -0.17648289731E+03 -0.45030161304E+03  0.50474801844E+03  0.12500000000E+03 0.  0.
         25    1    1    2    0    0  0.87501492660E+01  0.26467241224E+02 -0.26979755424E+02  0.13088157690E+03  0.12500000000E+03 0.  0.
         25    1    1    2    0    0  0.63553421723E+02  0.15001565608E+03 -0.15018948863E+03  0.25441229722E+03  0.12500000000E+03 0.  0.
</event>
<event>
 5    0  0.5532658E-005  0.6243734E+03  0.7546771E-02  0.9856091E-01
         21   -1    0    0  502  501  0.00000000000E+00  0.00000000000E+00  0.21780931383E+03  0.21780931383E+03  0.00000000000E+00 0. -1.
         21   -1    0    0  501  502 -0.00000000000E+00 -0.00000000000E+00 -0.17898322124E+04  0.17898322124E+04  0.00000000000E+00 0. -1.
         25    1    1    2    0    0 -0.80968328775E+02 -0.65260605620E+02  0.95594728677E+01  0.16288400914E+03  0.12500000000E+03 0.  0.
         25    1    1    2    0    0  0.17453792707E+03 -0.34810634733E+03 -0.35694817287E+03  0.54284299309E+03  0.12500000000E+03 0.  0.
         25    1    1    2    0    0 -0.93569598292E+02  0.41336695295E+03 -0.12246341985E+04  0.13019145240E+04  0.12500000000E+03 0.  0.
</event>
<event>
 5    0  0.5532658E-005  0.2337842E+03  0.7546771E-02  0.1124004E+00
         21   -1    0    0  502  501  0.00000000000E+00  0.00000000000E+00  0.15245851227E+03  0.15245851227E+03  0.00000000000E+00 0.  1.
         21   -1    0    0  501  502 -0.00000000000E+00 -0.00000000000E+00 -0.35849144144E+03  0.35849144144E+03  0.00000000000E+00 0.  1.
         25    1    1    2    0    0  0.24873019262E+02 -0.27975112567E+02  0.53449855879E+02  0.14100766328E+03  0.12500000000E+03 0.  0.
         25    1    1    2    0    0  0.14459007915E+02  0.61726392299E+01 -0.16172958336E+03  0.20500883522E+03  0.12500000000E+03 0.  0.
         25    1    1    2    0    0 -0.39332027177E+02  0.21802473337E+02 -0.97753201699E+02  0.16493345521E+03  0.12500000000E+03 0.  0.
</event>
<event>
 5    0  0.5547153E-005  0.2548258E+03  0.7546771E-02  0.1110292E+00
         21   -1    0    0  502  501  0.00000000000E+00  0.00000000000E+00  0.89626306180E+02  0.89626306180E+02  0.00000000000E+00 0. -1.
         21   -1    0    0  501  502 -0.00000000000E+00 -0.00000000000E+00 -0.72452171213E+03  0.72452171213E+03  0.00000000000E+00 0. -1.
         25    1    1    2    0    0 -0.77541699354E+01  0.42161345482E+02 -0.19121439758E+03  0.23243418864E+03  0.12500000000E+03 0.  0.
         25    1    1    2    0    0  0.52971602135E+02 -0.13412681712E+03 -0.33933847692E+03  0.38932196909E+03  0.12500000000E+03 0.  0.
         25    1    1    2    0    0 -0.45217432200E+02  0.91965471638E+02 -0.10434253145E+03  0.19239186058E+03  0.12500000000E+03 0.  0.
</event>
<event>
 5    0  0.5532658E-005  0.2806314E+03  0.7546771E-02  0.1095345E+00
         21   -1    0    0  502  501  0.00000000000E+00  0.00000000000E+00  0.22525904293E+03  0.22525904293E+03  0.00000000000E+00 0.  1.
         21   -1    0    0  501  502 -0.00000000000E+00 -0.00000000000E+00 -0.34961511974E+03  0.34961511974E+03  0.00000000000E+00 0.  1.
         25    1    1    2    0    0  0.58067950311E+02  0.10678167262E+03  0.53530453667E+02  0.18238618898E+03  0.12500000000E+03 0.  0.
         25    1    1    2    0    0  0.24023128218E+02  0.28065081809E+02 -0.10732759922E+02  0.13078590001E+03  0.12500000000E+03 0.  0.
         25    1    1    2    0    0 -0.82091078529E+02 -0.13484675443E+03 -0.16715377056E+03  0.26170207368E+03  0.12500000000E+03 0.  0.
</event>
<event>
 5    0  0.5532658E-005  0.5125833E+03  0.7546771E-02  0.1010546E+00
         21   -1    0    0  502  501  0.00000000000E+00  0.00000000000E+00  0.42937229639E+03  0.42937229639E+03  0.00000000000E+00 0. -1.
         21   -1    0    0  501  502 -0.00000000000E+00 -0.00000000000E+00 -0.61192043688E+03  0.61192043688E+03  0.00000000000E+00 0. -1.
         25    1    1    2    0    0 -0.58381746895E+02  0.37509010204E+02 -0.27175424983E+03  0.30706795097E+03  0.12500000000E+03 0.  0.
         25    1    1    2    0    0 -0.16549194083E+03 -0.67972789161E+01 -0.23905993897E+03  0.31655716688E+03  0.12500000000E+03 0.  0.
         25    1    1    2    0    0  0.22387368773E+03 -0.30711731288E+02  0.32826604831E+03  0.41766761541E+03  0.12500000000E+03 0.  0.
</event>
<event>
 5    0  0.5532658E-005  0.2885546E+03  0.7546771E-02  0.1091106E+00
         21   -1    0    0  502  501  0.00000000000E+00  0.00000000000E+00  0.13030800253E+03  0.13030800253E+03  0.00000000000E+00 0.  1.
         21   -1    0    0  501  502 -0.00000000000E+00 -0.00000000000E+00 -0.63897666535E+03  0.63897666535E+03  0.00000000000E+00 0.  1.
         25    1    1    2    0    0 -0.16984882630E+02 -0.17208747983E+02 -0.18489302890E+03  0.22448843930E+03  0.12500000000E+03 0.  0.
         25    1    1    2    0    0 -0.67470467302E+02  0.84778034546E+02  0.16753148394E+02  0.16626859920E+03  0.12500000000E+03 0.  0.
         25    1    1    2    0    0  0.84455349932E+02 -0.67569286563E+02 -0.34052878231E+03  0.37852762938E+03  0.12500000000E+03 0.  0.
</event>
<event>
 5    0  0.5532658E-005  0.4195009E+03  0.7546771E-02  0.1037229E+00
         21   -1    0    0  502  501  0.00000000000E+00  0.00000000000E+00  0.44690017246E+03  0.44690017246E+03  0.00000000000E+00 0. -1.
         21   -1    0    0  501  502 -0.00000000000E+00 -0.00000000000E+00 -0.39378145476E+03  0.39378145476E+03  0.00000000000E+00 0. -1.
         25    1    1    2    0    0 -0.24795571412E+03  0.11913101630E+03  0.24464772862E+03  0.38878238943E+03  0.12500000000E+03 0.  0.
         25    1    1    2    0    0  0.20049300064E+02 -0.88573962494E+01 -0.62229493348E+02  0.14134333286E+03  0.12500000000E+03 0.  0.
         25    1    1    2    0    0  0.22790641406E+03 -0.11027362005E+03 -0.12929951756E+03  0.31055590493E+03  0.12500000000E+03 0.  0.
</event>
<event>
 5    0  0.5532658E-005  0.3856272E+03  0.7546771E-02  0.1048873E+00
         21   -1    0    0  502  501  0.00000000000E+00  0.00000000000E+00  0.63123655159E+02  0.63123655159E+02  0.00000000000E+00 0.  1.
         21   -1    0    0  501  502 -0.00000000000E+00 -0.00000000000E+00 -0.23558253681E+04  0.23558253681E+04  0.00000000000E+00 0.  1.
         25    1    1    2    0    0  0.11201063137E+03  0.85481335363E+02 -0.87781698904E+03  0.89779792074E+03  0.12500000000E+03 0.  0.
         25    1    1    2    0    0 -0.43708175846E+02  0.18310255420E+03 -0.37581963652E+03  0.43852291751E+03  0.12500000000E+03 0.  0.
         25    1    1    2    0    0 -0.68302455519E+02 -0.26858388956E+03 -0.10390650873E+04  0.10826281850E+04  0.12500000000E+03 0.  0.
</event>
<event>
 5    0  0.5532658E-005  0.3885307E+03  0.7546771E-02  0.1047825E+00
         21   -1    0    0  502  501  0.00000000000E+00  0.00000000000E+00  0.37436354092E+03  0.37436354092E+03  0.00000000000E+00 0.  1.
         21   -1    0    0  501  502 -0.00000000000E+00 -0.00000000000E+00 -0.40323394248E+03  0.40323394248E+03  0.00000000000E+00 0.  1.
         25    1    1    2    0    0  0.19051500316E+03  0.15504780880E+03 -0.10779080697E+03  0.29593858739E+03  0.12500000000E+03 0.  0.
         25    1    1    2    0    0 -0.19084721068E+01 -0.14324739130E+03 -0.78572003638E+02  0.20572315654E+03  0.12500000000E+03 0.  0.
         25    1    1    2    0    0 -0.18860653105E+03 -0.11800417497E+02  0.15749240905E+03  0.27593573947E+03  0.12500000000E+03 0.  0.
</event>
<event>
 5    0  0.5532658E-005  0.3044099E+03  0.7546771E-02  0.1083057E+00
         21   -1    0    0  502  501  0.00000000000E+00  0.00000000000E+00  0.42107645738E+03  0.42107645738E+03  0.00000000000E+00 0.  1.
         21   -1    0    0  501  502 -0.00000000000E+00 -0.00000000000E+00 -0.22006789597E+03  0.22006789597E+03  0.00000000000E+00 0.  1.
         25    1    1    2    0    0 -0.57458743769E+02  0.29483132634E+02  0.62239698558E+02  0.15384908977E+03  0.12500000000E+03 0.  0.
         25    1    1    2    0    0  0.22219778456E+03 -0.16226336799E+01  0.46559435786E+02  0.25916648986E+03  0.12500000000E+03 0.  0.
         25    1    1    2    0    0 -0.16473904080E+03 -0.27860498954E+02  0.92209427068E+02  0.22812877373E+03  0.12500000000E+03 0.  0.
</event>
<event>
 5    0  0.5532658E-005  0.3220050E+03  0.7546771E-02  0.1074730E+00
         21   -1    0    0  502  501  0.00000000000E+00  0.00000000000E+00  0.12347428822E+03  0.12347428822E+03  0.00000000000E+00 0. -1.
         21   -1    0    0  501  502 -0.00000000000E+00 -0.00000000000E+00 -0.83974747475E+03  0.83974747475E+03  0.00000000000E+00 0. -1.
         25    1    1    2    0    0  0.98154204546E+01  0.70572001829E+02 -0.25622509846E+03  0.29385889641E+03  0.12500000000E+03 0.  0.
         25    1    1    2    0    0  0.19256024849E+03  0.20410710651E+02 -0.24064696705E+03  0.33321465928E+03  0.12500000000E+03 0.  0.
         25    1    1    2    0    0 -0.20237566894E+03 -0.90982712481E+02 -0.21940112102E+03  0.33614820728E+03  0.12500000000E+03 0.  0.
</event>
<event>
 5    0  0.5532658E-005  0.4284382E+03  0.7546771E-02  0.1034354E+00
         21   -1    0    0  502  501  0.00000000000E+00  0.00000000000E+00  0.10533138194E+04  0.10533138194E+04  0.00000000000E+00 0.  1.
         21   -1    0    0  501  502 -0.00000000000E+00 -0.00000000000E+00 -0.17426833837E+03  0.17426833837E+03  0.00000000000E+00 0.  1.
         25    1    1    2    0    0 -0.32090904163E+02  0.15311265446E+03  0.27989122878E+02  0.20219224042E+03  0.12500000000E+03 0.  0.
         25    1    1    2    0    0 -0.32217125201E+02  0.14182184066E+03  0.12419628249E+03  0.22847558782E+03  0.12500000000E+03 0.  0.
         25    1    1    2    0    0  0.64308029363E+02 -0.29493449511E+03  0.72686007566E+03  0.79691432955E+03  0.12500000000E+03 0.  0.
</event>
<event>
 5    0  0.5532658E-005  0.2429091E+03  0.7546771E-02  0.1117870E+00
         21   -1    0    0  502  501  0.00000000000E+00  0.00000000000E+00  0.12743607258E+03  0.12743607258E+03  0.00000000000E+00 0. -1.
         21   -1    0    0  501  502 -0.00000000000E+00 -0.00000000000E+00 -0.46301521908E+03  0.46301521908E+03  0.00000000000E+00 0. -1.
         25    1    1    2    0    0 -0.57570384285E+02 -0.11933648948E+03 -0.86708077382E+02  0.20173952898E+03  0.12500000000E+03 0.  0.
         25    1    1    2    0    0  0.65539960433E+01  0.97300968240E+02 -0.16195869748E+03  0.22664080166E+03  0.12500000000E+03 0.  0.
         25    1    1    2    0    0  0.51016388241E+02  0.22035521240E+02 -0.86912371638E+02  0.16207096103E+03  0.12500000000E+03 0.  0.
</event>
<event>
 5    0  0.5532658E-005  0.2566267E+03  0.7546771E-02  0.1109187E+00
         21   -1    0    0  502  501  0.00000000000E+00  0.00000000000E+00  0.30968127125E+03  0.30968127125E+03  0.00000000000E+00 0. -1.
         21   -1    0    0  501  502 -0.00000000000E+00 -0.00000000000E+00 -0.21266135190E+03  0.21266135190E+03  0.00000000000E+00 0. -1.
         25    1    1    2    0    0  0.21066206147E+02 -0.23862679000E+02  0.77907543622E+02  0.15069106756E+03  0.12500000000E+03 0.  0.
         25    1    1    2    0    0  0.28084946712E+02  0.72950222660E+02 -0.10604967045E+03  0.18160955872E+03  0.12500000000E+03 0.  0.
         25    1    1    2    0    0 -0.49151152859E+02 -0.49087543660E+02  0.12516204618E+03  0.19004199687E+03  0.12500000000E+03 0.  0.
</event>
<event>
 5    0  0.5532658E-005  0.2021844E+03  0.7546771E-02  0.1147909E+00
         21   -1    0    0  502  501  0.00000000000E+00  0.00000000000E+00  0.14999556209E+03  0.14999556209E+03  0.00000000000E+00 0. -1.
         21   -1    0    0  501  502 -0.00000000000E+00 -0.00000000000E+00 -0.27253149880E+03  0.27253149880E+03  0.00000000000E+00 0. -1.
         25    1    1    2    0    0 -0.22285855711E+02 -0.37132046097E+02 -0.56095011518E+01  0.13240813689E+03  0.12500000000E+03 0.  0.
         25    1    1    2    0    0  0.45565682761E+02  0.75910008609E+00 -0.52797026066E+02  0.14314095724E+03  0.12500000000E+03 0.  0.
         25    1    1    2    0    0 -0.23279827050E+02  0.36372946011E+02 -0.64129409500E+02  0.14697796676E+03  0.12500000000E+03 0.  0.
</event>
<event>
 5    0  0.5545504E-005  0.3186352E+03  0.7546771E-02  0.1076279E+00
         21   -1    0    0  502  501  0.00000000000E+00  0.00000000000E+00  0.60869285401E+03  0.60869285401E+03  0.00000000000E+00 0. -1.
         21   -1    0    0  501  502 -0.00000000000E+00 -0.00000000000E+00 -0.16679743850E+03  0.16679743850E+03  0.00000000000E+00 0. -1.
         25    1    1    2    0    0  0.10890382397E+02  0.16279549241E+03  0.81992247941E+02  0.22128872881E+03  0.12500000000E+03 0.  0.
         25    1    1    2    0    0  0.46637752777E+02 -0.13851225699E+01  0.30826820902E+03  0.33590368745E+03  0.12500000000E+03 0.  0.
         25    1    1    2    0    0 -0.57528135174E+02 -0.16141036984E+03  0.51634958556E+02  0.21829787625E+03  0.12500000000E+03 0.  0.
</event>
<event>
 5    0  0.5532658E-005  0.2469549E+03  0.7546771E-02  0.1115245E+00
         21   -1    0    0  502  501  0.00000000000E+00  0.00000000000E+00  0.65633165886E+03  0.65633165886E+03  0.00000000000E+00 0.  1.
         21   -1    0    0  501  502 -0.00000000000E+00 -0.00000000000E+00 -0.92920566105E+02  0.92920566105E+02  0.00000000000E+00 0.  1.
         25    1    1    2    0    0  0.25913724865E+02  0.18163362409E+02  0.26909726411E+03  0.29839531903E+03  0.12500000000E+03 0.  0.
         25    1    1    2    0    0  0.61166651953E+01 -0.10685181901E+03  0.22712156397E+03  0.28047090694E+03  0.12500000000E+03 0.  0.
         25    1    1    2    0    0 -0.32030390060E+02  0.88688456601E+02  0.67192264682E+02  0.17038599900E+03  0.12500000000E+03 0.  0.
</event>
<event>
 5    0  0.5532658E-005  0.2307270E+03  0.7546771E-02  0.1126129E+00
         21   -1    0    0  502  501  0.00000000000E+00  0.00000000000E+00  0.15142662028E+04  0.15142662028E+04  0.00000000000E+00 0.  1.
         21   -1    0    0  501  502 -0.00000000000E+00 -0.00000000000E+00 -0.35155616068E+02  0.35155616068E+02  0.00000000000E+00 0.  1.
         25    1    1    2    0    0 -0.94851280964E+02 -0.26276936554E+01  0.47967931543E+03  0.50469883685E+03  0.12500000000E+03 0.  0.
         25    1    1    2    0    0 -0.13720543536E+02 -0.21679479719E+02  0.56369209139E+03  0.57795503896E+03  0.12500000000E+03 0.  0.
         25    1    1    2    0    0  0.10857182450E+03  0.24307173375E+02  0.43573917986E+03  0.46676794301E+03  0.12500000000E+03 0.  0.
</event>
<event>
 5    0  0.5532658E-005  0.2734368E+03  0.7546771E-02  0.1099329E+00
         21   -1    0    0  502  501  0.00000000000E+00  0.00000000000E+00  0.12150579580E+04  0.12150579580E+04  0.00000000000E+00 0.  1.
         21   -1    0    0  501  502 -0.00000000000E+00 -0.00000000000E+00 -0.61534253068E+02  0.61534253068E+02  0.00000000000E+00 0.  1.
         25    1    1    2    0    0  0.11271188012E+03  0.83221564277E+02  0.39038632207E+03  0.43319311761E+03  0.12500000000E+03 0.  0.
         25    1    1    2    0    0  0.97103248359E+01  0.53789454501E+02  0.31061888297E+03  0.33925902535E+03  0.12500000000E+03 0.  0.
         25    1    1    2    0    0 -0.12242220496E+03 -0.13701101878E+03  0.45251849990E+03  0.50414006813E+03  0.12500000000E+03 0.  0.
</event>
<event>
 5    0  0.5532658E-005  0.3083716E+03  0.7546771E-02  0.1081129E+00
         21   -1    0    0  502  501  0.00000000000E+00  0.00000000000E+00  0.14119439787E+04  0.14119439787E+04  0.00000000000E+00 0.  1.
         21   -1    0    0  501  502 -0.00000000000E+00 -0.00000000000E+00 -0.67349030717E+02  0.67349030717E+02  0.00000000000E+00 0.  1.
         25    1    1    2    0    0  0.10789682136E+03  0.10450444741E+03  0.16696388410E+03  0.25703081952E+03  0.12500000000E+03 0.  0.
         25    1    1    2    0    0 -0.75960446227E+02  0.20009436907E+02  0.50403571008E+03  0.52521173253E+03  0.12500000000E+03 0.  0.
         25    1    1    2    0    0 -0.31936375133E+02 -0.12451388432E+03  0.67359535377E+03  0.69705045733E+03  0.12500000000E+03 0.  0.
</event>
<event>
 5    0  0.5532658E-005  0.2360651E+03  0.7546771E-02  0.1122442E+00
         21   -1    0    0  502  501  0.00000000000E+00  0.00000000000E+00  0.42459112818E+03  0.42459112818E+03  0.00000000000E+00 0. -1.
         21   -1    0    0  501  502 -0.00000000000E+00 -0.00000000000E+00 -0.13124799557E+03  0.13124799557E+03  0.00000000000E+00 0. -1.
         25    1    1    2    0    0 -0.87318338971E+01 -0.64996641794E+02  0.19601620640E+03  0.24155364112E+03  0.12500000000E+03 0.  0.
         25    1    1    2    0    0  0.53108302156E+02  0.27568425590E+02  0.10850784126E+03  0.17600983342E+03  0.12500000000E+03 0.  0.
         25    1    1    2    0    0 -0.44376468259E+02  0.37428216203E+02 -0.11180915043E+02  0.13827564921E+03  0.12500000000E+03 0.  0.
</event>
<event>
 5    0  0.5532658E-005  0.2274223E+03  0.7546771E-02  0.1128467E+00
         21   -1    0    0  502  501  0.00000000000E+00  0.00000000000E+00  0.19890792292E+03  0.19890792292E+03  0.00000000000E+00 0.  1.
         21   -1    0    0  501  502 -0.00000000000E+00 -0.00000000000E+00 -0.26002425936E+03  0.26002425936E+03  0.00000000000E+00 0.  1.
         25    1    1    2    0    0  0.20456289951E+02  0.65980905923E+02 -0.45109460022E+02  0.14977250458E+03  0.12500000000E+03 0.  0.
         25    1    1    2    0    0 -0.63160841507E+02  0.16173451517E+02  0.35346356047E+02  0.14534523494E+03  0.12500000000E+03 0.  0.
         25    1    1    2    0    0  0.42704551556E+02 -0.82154357440E+02 -0.51353232463E+02  0.16381444275E+03  0.12500000000E+03 0.  0.
</event>
<event>
 5    0  0.5532658E-005  0.3880823E+03  0.7546771E-02  0.1047986E+00
         21   -1    0    0  502  501  0.00000000000E+00  0.00000000000E+00  0.40546492528E+03  0.40546492528E+03  0.00000000000E+00 0. -1.
         21   -1    0    0  501  502 -0.00000000000E+00 -0.00000000000E+00 -0.37144480463E+03  0.37144480463E+03  0.00000000000E+00 0. -1.
         25    1    1    2    0    0 -0.21925002453E+03 -0.21935134098E+03  0.32905914316E+02  0.33599610599E+03  0.12500000000E+03 0.  0.
         25    1    1    2    0    0  0.91987326733E+02  0.13468948392E+02 -0.50280978730E+02  0.16369562509E+03  0.12500000000E+03 0.  0.
         25    1    1    2    0    0  0.12726269779E+03  0.20588239259E+03  0.51395185065E+02  0.27721799883E+03  0.12500000000E+03 0.  0.
</event>
<event>
 5    0  0.5641535E-005  0.2901778E+03  0.7546771E-02  0.1090256E+00
         21   -1    0    0  502  501  0.00000000000E+00  0.00000000000E+00  0.45158651310E+03  0.45158651310E+03  0.00000000000E+00 0. -1.
         21   -1    0    0  501  502 -0.00000000000E+00 -0.00000000000E+00 -0.18646071130E+03  0.18646071130E+03  0.00000000000E+00 0. -1.
         25    1    1    2    0    0  0.63837249190E+02  0.25522324796E+02  0.11718578691E+03  0.18461877505E+03  0.12500000000E+03 0.  0.
         25    1    1    2    0    0 -0.91753140451E+02  0.61411603434E+02 -0.74309577180E+02  0.18258405483E+03  0.12500000000E+03 0.  0.
         25    1    1    2    0    0  0.27915891262E+02 -0.86933928230E+02  0.22224959208E+03  0.27084439452E+03  0.12500000000E+03 0.  0.
</event>
<event>
 5    0  0.5532658E-005  0.2342941E+03  0.7546771E-02  0.1123653E+00
         21   -1    0    0  502  501  0.00000000000E+00  0.00000000000E+00  0.53903512454E+03  0.53903512454E+03  0.00000000000E+00 0.  1.
         21   -1    0    0  501  502 -0.00000000000E+00 -0.00000000000E+00 -0.10183701331E+03  0.10183701331E+03  0.00000000000E+00 0.  1.
         25    1    1    2    0    0  0.70154389109E+02 -0.35091702998E+02  0.10160429730E+03  0.17916891237E+03  0.12500000000E+03 0.  0.
         25    1    1    2    0    0 -0.69291810658E+01  0.99984469748E+02  0.19973959803E+03  0.25605822534E+03  0.12500000000E+03 0.  0.
         25    1    1    2    0    0 -0.63225208043E+02 -0.64892766750E+02  0.13585421589E+03  0.20564500014E+03  0.12500000000E+03 0.  0.
</event>
<event>
 5    0  0.5532658E-005  0.2931291E+03  0.7546771E-02  0.1088727E+00
         21   -1    0    0  502  501  0.00000000000E+00  0.00000000000E+00  0.77220213432E+02  0.77220213432E+02  0.00000000000E+00 0. -1.
         21   -1    0    0  501  502 -0.00000000000E+00 -0.00000000000E+00 -0.11127226235E+04  0.11127226235E+04  0.00000000000E+00 0. -1.
         25    1    1    2    0    0 -0.57930997201E+02 -0.14281407497E+03 -0.54586991710E+03  0.58081909993E+03  0.12500000000E+03 0.  0.
         25    1    1    2    0    0  0.71119658425E+02  0.11406329917E+03 -0.12424622258E+03  0.22165415823E+03  0.12500000000E+03 0.  0.
         25    1    1    2    0    0 -0.13188661224E+02  0.28750775798E+02 -0.36538627043E+03  0.38746957882E+03  0.12500000000E+03 0.  0.
</event>
<event>
 5    0  0.5532658E-005  0.2670260E+03  0.7546771E-02  0.1102994E+00
         21   -1    0    0  502  501  0.00000000000E+00  0.00000000000E+00  0.32362419921E+03  0.32362419921E+03  0.00000000000E+00 0.  1.
         21   -1    0    0  501  502 -0.00000000000E+00 -0.00000000000E+00 -0.22032614678E+03  0.22032614678E+03  0.00000000000E+00 0.  1.
         25    1    1    2    0    0 -0.63242258656E+02 -0.11879571993E+03  0.95976583470E+02  0.20724022517E+03  0.12500000000E+03 0.  0.
         25    1    1    2    0    0  0.51453626593E+02  0.82453957707E+02 -0.82083151271E+02  0.17835014593E+03  0.12500000000E+03 0.  0.
         25    1    1    2    0    0  0.11788632063E+02  0.36341762222E+02  0.89404620232E+02  0.15835997489E+03  0.12500000000E+03 0.  0.
</event>
<event>
 5    0  0.1707923E-004  0.7316886E+03  0.7546771E-02  0.9664524E-01
         21   -1    0    0  502  501  0.00000000000E+00  0.00000000000E+00  0.45588347812E+03  0.45588347812E+03  0.00000000000E+00 0.  1.
         21   -1    0    0  501  502 -0.00000000000E+00 -0.00000000000E+00 -0.11743530658E+04  0.11743530658E+04  0.00000000000E+00 0.  1.
         25    1    1    2    0    0  0.62900389994E+02 -0.23593982244E+03 -0.40618190280E+03  0.49013548845E+03  0.12500000000E+03 0.  0.
         25    1    1    2    0    0  0.40667308387E+03 -0.15475040989E+03 -0.24003977604E+03  0.51242051148E+03  0.12500000000E+03 0.  0.
         25    1    1    2    0    0 -0.46957347387E+03  0.39069023233E+03 -0.72247908862E+02  0.62768054401E+03  0.12500000000E+03 0.  0.
</event>
<event>
 5    0  0.5532658E-005  0.2428122E+03  0.7546771E-02  0.1117933E+00
         21   -1    0    0  502  501  0.00000000000E+00  0.00000000000E+00  0.12645428777E+03  0.12645428777E+03  0.00000000000E+00 0.  1.
         21   -1    0    0  501  502 -0.00000000000E+00 -0.00000000000E+00 -0.46623791743E+03  0.46623791743E+03  0.00000000000E+00 0.  1.
         25    1    1    2    0    0 -0.60439561377E+02 -0.23052878424E+02 -0.22495142768E+03  0.26535357657E+03  0.12500000000E+03 0.  0.
         25    1    1    2    0    0  0.43390724834E+02  0.77872797373E+02 -0.11149537191E+03  0.18974494862E+03  0.12500000000E+03 0.  0.
         25    1    1    2    0    0  0.17048836543E+02 -0.54819918950E+02 -0.33368300639E+01  0.13759368000E+03  0.12500000000E+03 0.  0.
</event>
<event>
 5    0  0.5532658E-005  0.2770347E+03  0.7546771E-02  0.1097320E+00
         21   -1    0    0  502  501  0.00000000000E+00  0.00000000000E+00  0.19341783320E+04  0.19341783320E+04  0.00000000000E+00 0. -1.
         21   -1    0    0  501  502 -0.00000000000E+00 -0.00000000000E+00 -0.39680016669E+02  0.39680016669E+02  0.00000000000E+00 0. -1.
         25    1    1    2    0    0  0.21743453070E+01 -0.13717462350E+03  0.45804461150E+03  0.49421804017E+03  0.12500000000E+03 0.  0.
         25    1    1    2    0    0  0.42553653671E+01 -0.42867275936E+02  0.44487596694E+03  0.46410703231E+03  0.12500000000E+03 0.  0.
         25    1    1    2    0    0 -0.64297106741E+01  0.18004189944E+03  0.99157773686E+03  0.10155332761E+04  0.12500000000E+03 0.  0.
</event>
<event>
 5    0  0.5532658E-005  0.2458035E+03  0.7546771E-02  0.1115986E+00
         21   -1    0    0  502  501  0.00000000000E+00  0.00000000000E+00  0.14606578430E+03  0.14606578430E+03  0.00000000000E+00 0. -1.
         21   -1    0    0  501  502 -0.00000000000E+00 -0.00000000000E+00 -0.41364483315E+03  0.41364483315E+03  0.00000000000E+00 0. -1.
         25    1    1    2    0    0 -0.22615671074E+02 -0.47040721267E+02 -0.73536743938E+02  0.15413289962E+03  0.12500000000E+03 0.  0.
         25    1    1    2    0    0  0.13390745492E+03  0.17166964565E+02 -0.12304436617E+03  0.22133871600E+03  0.12500000000E+03 0.  0.
         25    1    1    2    0    0 -0.11129178384E+03  0.29873756702E+02 -0.70997938745E+02  0.18423900183E+03  0.12500000000E+03 0.  0.
</event>
<event>
 5    0  0.5532658E-005  0.3875072E+03  0.7546771E-02  0.1048193E+00
         21   -1    0    0  502  501  0.00000000000E+00  0.00000000000E+00  0.59720689256E+03  0.59720689256E+03  0.00000000000E+00 0.  1.
         21   -1    0    0  501  502 -0.00000000000E+00 -0.00000000000E+00 -0.25144027044E+03  0.25144027044E+03  0.00000000000E+00 0.  1.
         25    1    1    2    0    0 -0.19211353824E+03 -0.23559723220E+02  0.28030029272E+03  0.36284421758E+03  0.12500000000E+03 0.  0.
         25    1    1    2    0    0 -0.66793531153E+02  0.65827316912E+02 -0.62472514685E+02  0.16829268120E+03  0.12500000000E+03 0.  0.
         25    1    1    2    0    0  0.25890706939E+03 -0.42267593691E+02  0.12793884407E+03  0.31751026421E+03  0.12500000000E+03 0.  0.
</event>
<event>
 5    0  0.5532658E-005  0.2851057E+03  0.7546771E-02  0.1092933E+00
         21   -1    0    0  502  501  0.00000000000E+00  0.00000000000E+00  0.69558981200E+03  0.69558981200E+03  0.00000000000E+00 0. -1.
         21   -1    0    0  501  502 -0.00000000000E+00 -0.00000000000E+00 -0.11685802746E+03  0.11685802746E+03  0.00000000000E+00 0. -1.
         25    1    1    2    0    0  0.49792904809E+02 -0.39441493909E+01  0.11704088531E+03  0.17837729261E+03  0.12500000000E+03 0.  0.
         25    1    1    2    0    0  0.44751637467E+02  0.15939587978E+03  0.16963389604E+03  0.26797465222E+03  0.12500000000E+03 0.  0.
         25    1    1    2    0    0 -0.94544542277E+02 -0.15545173039E+03  0.29205700320E+03  0.36609589464E+03  0.12500000000E+03 0.  0.
</event>
<event>
 5    0  0.5532658E-005  0.2183888E+03  0.7546771E-02  0.1135090E+00
         21   -1    0    0  502  501  0.00000000000E+00  0.00000000000E+00  0.22509378594E+03  0.22509378594E+03  0.00000000000E+00 0. -1.
         21   -1    0    0  501  502 -0.00000000000E+00 -0.00000000000E+00 -0.21188357252E+03  0.21188357252E+03  0.00000000000E+00 0. -1.
         25    1    1    2    0    0  0.70688400304E+02 -0.50123207013E+02 -0.30971935028E+02  0.15522063838E+03  0.12500000000E+03 0.  0.
         25    1    1    2    0    0 -0.19357958237E+02 -0.45747707682E+00  0.53126333143E+02  0.13719455931E+03  0.12500000000E+03 0.  0.
         25    1    1    2    0    0 -0.51330442067E+02  0.50580684089E+02 -0.89441846983E+01  0.14456216077E+03  0.12500000000E+03 0.  0.
</event>
<event>
 5    0  0.5532658E-005  0.3951634E+03  0.7546771E-02  0.1045467E+00
         21   -1    0    0  502  501  0.00000000000E+00  0.00000000000E+00  0.27954517359E+03  0.27954517359E+03  0.00000000000E+00 0.  1.
         21   -1    0    0  501  502 -0.00000000000E+00 -0.00000000000E+00 -0.55860074078E+03  0.55860074078E+03  0.00000000000E+00 0.  1.
         25    1    1    2    0    0 -0.72530770762E+01  0.11121477368E+03  0.96699539291E+01  0.16774933985E+03  0.12500000000E+03 0.  0.
         25    1    1    2    0    0 -0.34269772568E+02 -0.17191897401E+02 -0.43378922826E+03  0.45306519752E+03  0.12500000000E+03 0.  0.
         25    1    1    2    0    0  0.41522849645E+02 -0.94022876275E+02  0.14506370713E+03  0.21733137701E+03  0.12500000000E+03 0.  0.
</event>
<event>
 5    0  0.5532658E-005  0.2232654E+03  0.7546771E-02  0.1131472E+00
         21   -1    0    0  502  501  0.00000000000E+00  0.00000000000E+00  0.49754421923E+02  0.49754421923E+02  0.00000000000E+00 0. -1.
         21   -1    0    0  501  502 -0.00000000000E+00 -0.00000000000E+00 -0.10018694976E+04  0.10018694976E+04  0.00000000000E+00 0. -1.
         25    1    1    2    0    0 -0.29295103517E+02 -0.21771018476E+02 -0.55527474108E+03  0.57033956414E+03  0.12500000000E+03 0.  0.
         25    1    1    2    0    0  0.54993017483E+01  0.38316266382E+02 -0.27402053110E+03  0.30366203262E+03  0.12500000000E+03 0.  0.
         25    1    1    2    0    0  0.23795801769E+02 -0.16545247906E+02 -0.12281980344E+03  0.17762232272E+03  0.12500000000E+03 0.  0.
</event>
<event>
 5    0  0.5532658E-005  0.3021399E+03  0.7546771E-02  0.1084176E+00
         21   -1    0    0  502  501  0.00000000000E+00  0.00000000000E+00  0.89232583006E+03  0.89232583006E+03  0.00000000000E+00 0.  1.
         21   -1    0    0  501  502 -0.00000000000E+00 -0.00000000000E+00 -0.10230403941E+03  0.10230403941E+03  0.00000000000E+00 0.  1.
         25    1    1    2    0    0  0.88207411415E+02  0.34831692373E+02  0.65257134202E+03  0.67116924143E+03  0.12500000000E+03 0.  0.
         25    1    1    2    0    0 -0.10396855170E+03 -0.28305651665E+02  0.94601577394E+02  0.19022388942E+03  0.12500000000E+03 0.  0.
         25    1    1    2    0    0  0.15761140288E+02 -0.65260407080E+01  0.42848871241E+02  0.13323673862E+03  0.12500000000E+03 0.  0.
</event>
<event>
 5    0  0.5532658E-005  0.3621127E+03  0.7546771E-02  0.1057750E+00
         21   -1    0    0  502  501  0.00000000000E+00  0.00000000000E+00  0.93630845502E+02  0.93630845502E+02  0.00000000000E+00 0. -1.
         21   -1    0    0  501  502 -0.00000000000E+00 -0.00000000000E+00 -0.14004530636E+04  0.14004530636E+04  0.00000000000E+00 0. -1.
         25    1    1    2    0    0 -0.83815431233E+02  0.66874135586E+02 -0.10530174946E+03  0.19547540756E+03  0.12500000000E+03 0.  0.
         25    1    1    2    0    0 -0.11048071745E+03 -0.48390661816E+02 -0.90875032097E+03  0.92520256752E+03  0.12500000000E+03 0.  0.
         25    1    1    2    0    0  0.19429614868E+03 -0.18483473769E+02 -0.29277014765E+03  0.37340593401E+03  0.12500000000E+03 0.  0.
</event>
<event>
 5    0  0.5532658E-005  0.4006460E+03  0.7546771E-02  0.1043556E+00
         21   -1    0    0  502  501  0.00000000000E+00  0.00000000000E+00  0.12894376521E+04  0.12894376521E+04  0.00000000000E+00 0. -1.
         21   -1    0    0  501  502 -0.00000000000E+00 -0.00000000000E+00 -0.12448618874E+03  0.12448618874E+03  0.00000000000E+00 0. -1.
         25    1    1    2    0    0 -0.15473044528E+03  0.57194707769E+02  0.38835087806E+03  0.44006152954E+03  0.12500000000E+03 0.  0.
         25    1    1    2    0    0  0.21854636928E+03  0.92381635706E+02  0.70879544085E+03  0.75783432168E+03  0.12500000000E+03 0.  0.
         25    1    1    2    0    0 -0.63815924003E+02 -0.14957634347E+03  0.67805144443E+02  0.21602798961E+03  0.12500000000E+03 0.  0.
</event>
<event>
 5    0  0.5532658E-005  0.4294324E+03  0.7546771E-02  0.1034039E+00
         21   -1    0    0  502  501  0.00000000000E+00  0.00000000000E+00  0.22118132529E+03  0.22118132529E+03  0.00000000000E+00 0.  1.
         21   -1    0    0  501  502 -0.00000000000E+00 -0.00000000000E+00 -0.83376030373E+03  0.83376030373E+03  0.00000000000E+00 0.  1.
         25    1    1    2    0    0  0.16846814729E+03  0.25442595171E+03 -0.20269914020E+03  0.38707366610E+03  0.12500000000E+03 0.  0.
         25    1    1    2    0    0 -0.92058486645E+02  0.41379280382E+02 -0.25932136193E+03  0.30505668090E+03  0.12500000000E+03 0.  0.
         25    1    1    2    0    0 -0.76409660646E+02 -0.29580523209E+03 -0.15055847632E+03  0.36281128202E+03  0.12500000000E+03 0.  0.
</event>
<event>
 5    0  0.5532658E-005  0.2278475E+03  0.7546771E-02  0.1128164E+00
         21   -1    0    0  502  501  0.00000000000E+00  0.00000000000E+00  0.44262230013E+03  0.44262230013E+03  0.00000000000E+00 0.  1.
         21   -1    0    0  501  502 -0.00000000000E+00 -0.00000000000E+00 -0.11728848583E+03  0.11728848583E+03  0.00000000000E+00 0.  1.
         25    1    1    2    0    0 -0.95794589561E+02 -0.19778688066E+01  0.57834036742E+02  0.16778048504E+03  0.12500000000E+03 0.  0.
         25    1    1    2    0    0  0.16316678491E+02 -0.31289506727E+02  0.87276778097E+02  0.15648483384E+03  0.12500000000E+03 0.  0.
         25    1    1    2    0    0  0.79477911070E+02  0.33267375533E+02  0.18022299946E+03  0.23564546708E+03  0.12500000000E+03 0.  0.
</event>
<event>
 5    0  0.5532658E-005  0.2724888E+03  0.7546771E-02  0.1099864E+00
         21   -1    0    0  502  501  0.00000000000E+00  0.00000000000E+00  0.94942324761E+02  0.94942324761E+02  0.00000000000E+00 0.  1.
         21   -1    0    0  501  502 -0.00000000000E+00 -0.00000000000E+00 -0.78205530814E+03  0.78205530814E+03  0.00000000000E+00 0.  1.
         25    1    1    2    0    0  0.39234514656E+02 -0.86747031441E+02 -0.31377924648E+03  0.35092279796E+03  0.12500000000E+03 0.  0.
         25    1    1    2    0    0 -0.12613344801E+03 -0.27902392534E+02 -0.19187488103E+03  0.26292424800E+03  0.12500000000E+03 0.  0.
         25    1    1    2    0    0  0.86898933356E+02  0.11464942397E+03 -0.18145885588E+03  0.26315058695E+03  0.12500000000E+03 0.  0.
</event>
<event>
 5    0  0.5532658E-005  0.5805784E+03  0.7546771E-02  0.9946540E-01
         21   -1    0    0  502  501  0.00000000000E+00  0.00000000000E+00  0.61909815554E+03  0.61909815554E+03  0.00000000000E+00 0. -1.
         21   -1    0    0  501  502 -0.00000000000E+00 -0.00000000000E+00 -0.54445528040E+03  0.54445528040E+03  0.00000000000E+00 0. -1.
         25    1    1    2    0    0 -0.27279967499E+03  0.75204065448E+02  0.29876110770E+03  0.43006803370E+03  0.12500000000E+03 0.  0.
         25    1    1    2    0    0  0.36355917202E+03  0.15917928365E+03 -0.15805861899E+03  0.44510767567E+03  0.12500000000E+03 0.  0.
         25    1    1    2    0    0 -0.90759497037E+02 -0.23438334910E+03 -0.66059613579E+02  0.28837772657E+03  0.12500000000E+03 0.  0.
</event>
<event>
 5    0  0.5532658E-005  0.3286282E+03  0.7546771E-02  0.1071745E+00
         21   -1    0    0  502  501  0.00000000000E+00  0.00000000000E+00  0.23588990928E+04  0.23588990928E+04  0.00000000000E+00 0.  1.
         21   -1    0    0  501  502 -0.00000000000E+00 -0.00000000000E+00 -0.45782572506E+02  0.45782572506E+02  0.00000000000E+00 0.  1.
         25    1    1    2    0    0 -0.15548666483E+03  0.17096424949E+03  0.13139029753E+04  0.13399145145E+04  0.12500000000E+03 0.  0.
         25    1    1    2    0    0  0.12636897933E+03 -0.15974441883E+03  0.64457028558E+03  0.68744690801E+03  0.12500000000E+03 0.  0.
         25    1    1    2    0    0  0.29117685505E+02 -0.11219830656E+02  0.35464325944E+03  0.37732024286E+03  0.12500000000E+03 0.  0.
</event>
<event>
 5    0  0.6129410E-005  0.3587305E+03  0.7546771E-02  0.1059088E+00
         21   -1    0    0  502  501  0.00000000000E+00  0.00000000000E+00  0.15075447551E+03  0.15075447551E+03  0.00000000000E+00 0. -1.
         21   -1    0    0  501  502 -0.00000000000E+00 -0.00000000000E+00 -0.85362361696E+03  0.85362361696E+03  0.00000000000E+00 0. -1.
         25    1    1    2    0    0  0.16313887763E+03 -0.89011854499E+02 -0.10957780054E+03  0.24933852091E+03  0.12500000000E+03 0.  0.
         25    1    1    2    0    0 -0.10295293841E+03 -0.72391771628E+02 -0.48462724925E+03  0.51607019565E+03  0.12500000000E+03 0.  0.
         25    1    1    2    0    0 -0.60185939226E+02  0.16140362613E+03 -0.10866409166E+03  0.23896937591E+03  0.12500000000E+03 0.  0.
</event>
<event>
 5    0  0.5532658E-005  0.5304458E+03  0.7546771E-02  0.1006124E+00
         21   -1    0    0  502  501  0.00000000000E+00  0.00000000000E+00  0.13045718065E+04  0.13045718065E+04  0.00000000000E+00 0. -1.
         21   -1    0    0  501  502 -0.00000000000E+00 -0.00000000000E+00 -0.21568207164E+03  0.21568207164E+03  0.00000000000E+00 0. -1.
         25    1    1    2    0    0  0.11234210377E+03 -0.11989488493E+03  0.47157461659E+01  0.20650125901E+03  0.12500000000E+03 0.  0.
         25    1    1    2    0    0  0.22406587847E+03 -0.10955214942E+03  0.23922006783E+03  0.36750296896E+03  0.12500000000E+03 0.  0.
         25    1    1    2    0    0 -0.33640798225E+03  0.22944703435E+03  0.84495392089E+03  0.94624965021E+03  0.12500000000E+03 0.  0.
</event>
<event>
 5    0  0.5532658E-005  0.2135055E+03  0.7546771E-02  0.1138820E+00
         21   -1    0    0  502  501  0.00000000000E+00  0.00000000000E+00  0.11971259270E+04  0.11971259270E+04  0.00000000000E+00 0.  1.
         21   -1    0    0  501  502 -0.00000000000E+00 -0.00000000000E+00 -0.38078355322E+02  0.38078355322E+02  0.00000000000E+00 0.  1.
         25    1    1    2    0    0 -0.62555255845E+02  0.55647349499E+01  0.33899367915E+03  0.36672311192E+03  0.12500000000E+03 0.  0.
         25    1    1    2    0    0  0.30248838791E+02 -0.61059378154E+02  0.47600068550E+03  0.49683487449E+03  0.12500000000E+03 0.  0.
         25    1    1    2    0    0  0.32306417054E+02  0.55494643204E+02  0.34405320704E+03  0.37164629593E+03  0.12500000000E+03 0.  0.
</event>
<event>
 5    0  0.5532658E-005  0.2217100E+03  0.7546771E-02  0.1132615E+00
         21   -1    0    0  502  501  0.00000000000E+00  0.00000000000E+00  0.80777673314E+03  0.80777673314E+03  0.00000000000E+00 0.  1.
         21   -1    0    0  501  502 -0.00000000000E+00 -0.00000000000E+00 -0.60852585867E+02  0.60852585867E+02  0.00000000000E+00 0.  1.
         25    1    1    2    0    0 -0.76196498335E+02  0.69948462515E+02  0.33822461029E+03  0.37512608650E+03  0.12500000000E+03 0.  0.
         25    1    1    2    0    0  0.66238560808E+02 -0.30826116655E+02  0.22849363270E+03  0.27050348721E+03  0.12500000000E+03 0.  0.
         25    1    1    2    0    0  0.99579375266E+01 -0.39122345860E+02  0.18020590427E+03  0.22299974529E+03  0.12500000000E+03 0.  0.
</event>
<event>
 5    0  0.5532658E-005  0.3557206E+03  0.7546771E-02  0.1060291E+00
         21   -1    0    0  502  501  0.00000000000E+00  0.00000000000E+00  0.23183304042E+03  0.23183304042E+03  0.00000000000E+00 0. -1.
         21   -1    0    0  501  502 -0.00000000000E+00 -0.00000000000E+00 -0.54581139093E+03  0.54581139093E+03  0.00000000000E+00 0. -1.
         25    1    1    2    0    0 -0.16085155578E+03 -0.13507480425E+03 -0.19821862133E+03  0.31469675496E+03  0.12500000000E+03 0.  0.
         25    1    1    2    0    0 -0.19006624188E+02 -0.19993568822E+02 -0.14450317313E+03  0.19304704505E+03  0.12500000000E+03 0.  0.
         25    1    1    2    0    0  0.17985817997E+03  0.15506837307E+03  0.28743443944E+02  0.26990063134E+03  0.12500000000E+03 0.  0.
</event>
<event>
 5    0  0.5532658E-005  0.3459910E+03  0.7546771E-02  0.1064273E+00
         21   -1    0    0  502  501  0.00000000000E+00  0.00000000000E+00  0.35952187060E+03  0.35952187060E+03  0.00000000000E+00 0. -1.
         21   -1    0    0  501  502 -0.00000000000E+00 -0.00000000000E+00 -0.33296943894E+03  0.33296943894E+03  0.00000000000E+00 0. -1.
         25    1    1    2    0    0 -0.10676039874E+03  0.10693099551E+03 -0.80218287541E+00  0.19610625701E+03  0.12500000000E+03 0.  0.
         25    1    1    2    0    0  0.20562852161E+03 -0.15426535453E+03  0.11539784759E+03  0.30825728172E+03  0.12500000000E+03 0.  0.
         25    1    1    2    0    0 -0.98868122865E+02  0.47334359017E+02 -0.88043233055E+02  0.18812777081E+03  0.12500000000E+03 0.  0.
</event>
<event>
 5    0  0.5620417E-005  0.3180750E+03  0.7546771E-02  0.1076539E+00
         21   -1    0    0  502  501  0.00000000000E+00  0.00000000000E+00  0.52398816672E+03  0.52398816672E+03  0.00000000000E+00 0.  1.
         21   -1    0    0  501  502 -0.00000000000E+00 -0.00000000000E+00 -0.19308018375E+03  0.19308018375E+03  0.00000000000E+00 0.  1.
         25    1    1    2    0    0  0.84725477409E+02  0.74846433582E+02 -0.50065234258E+02  0.17581786833E+03  0.12500000000E+03 0.  0.
         25    1    1    2    0    0 -0.55030027598E+02  0.63367385421E+02  0.30048727643E+03  0.33609720732E+03  0.12500000000E+03 0.  0.
         25    1    1    2    0    0 -0.29695449811E+02 -0.13821381900E+03  0.80485940789E+02  0.20515327482E+03  0.12500000000E+03 0.  0.
</event>
<event>
 5    0  0.5532658E-005  0.2734556E+03  0.7546771E-02  0.1099318E+00
         21   -1    0    0  502  501  0.00000000000E+00  0.00000000000E+00  0.22094269739E+04  0.22094269739E+04  0.00000000000E+00 0.  1.
         21   -1    0    0  501  502 -0.00000000000E+00 -0.00000000000E+00 -0.33844957826E+02  0.33844957826E+02  0.00000000000E+00 0.  1.
         25    1    1    2    0    0  0.57524070015E+02  0.82956449290E+02  0.88533309162E+03  0.89979468448E+03  0.12500000000E+03 0.  0.
         25    1    1    2    0    0 -0.11142233634E+03 -0.47759633563E+02  0.33127952801E+03  0.37425532102E+03  0.12500000000E+03 0.  0.
         25    1    1    2    0    0  0.53898266325E+02 -0.35196815727E+02  0.95896939640E+03  0.96922192618E+03  0.12500000000E+03 0.  0.
</event>
<event>
 5    0  0.5532658E-005  0.3057011E+03  0.7546771E-02  0.1082425E+00
         21   -1    0    0  502  501  0.00000000000E+00  0.00000000000E+00  0.37838701716E+02  0.37838701716E+02  0.00000000000E+00 0.  1.
         21   -1    0    0  501  502 -0.00000000000E+00 -0.00000000000E+00 -0.24697769186E+04  0.24697769186E+04  0.00000000000E+00 0.  1.
         25    1    1    2    0    0 -0.58670215324E+02  0.15856134800E+03 -0.11879834791E+04  0.12064467008E+04  0.12500000000E+03 0.  0.
         25    1    1    2    0    0  0.48731362408E+02  0.23300162501E+02 -0.26900482470E+03  0.30150661512E+03  0.12500000000E+03 0.  0.
         25    1    1    2    0    0  0.99388529156E+01 -0.18186151050E+03 -0.97494991311E+03  0.99966230441E+03  0.12500000000E+03 0.  0.
</event>
<event>
 5    0  0.5532658E-005  0.3848954E+03  0.7546771E-02  0.1049139E+00
         21   -1    0    0  502  501  0.00000000000E+00  0.00000000000E+00  0.43048383628E+03  0.43048383628E+03  0.00000000000E+00 0.  1.
         21   -1    0    0  501  502 -0.00000000000E+00 -0.00000000000E+00 -0.34413482037E+03  0.34413482037E+03  0.00000000000E+00 0.  1.
         25    1    1    2    0    0 -0.10661859149E+03 -0.29198702824E+03  0.45547319264E+02  0.33811759345E+03  0.12500000000E+03 0.  0.
         25    1    1    2    0    0  0.36223436173E+02  0.11683873764E+03 -0.65019062352E+02  0.18659020985E+03  0.12500000000E+03 0.  0.
         25    1    1    2    0    0  0.70395155315E+02  0.17514829060E+03  0.10582075900E+03  0.24991085336E+03  0.12500000000E+03 0.  0.
</event>
<event>
 5    0  0.5532658E-005  0.3179847E+03  0.7546771E-02  0.1076581E+00
         21   -1    0    0  502  501  0.00000000000E+00  0.00000000000E+00  0.14872947803E+04  0.14872947803E+04  0.00000000000E+00 0. -1.
         21   -1    0    0  501  502 -0.00000000000E+00 -0.00000000000E+00 -0.67985365236E+02  0.67985365236E+02  0.00000000000E+00 0. -1.
         25    1    1    2    0    0 -0.13095525001E+03 -0.15327701934E+03  0.27794317203E+03  0.36540461004E+03  0.12500000000E+03 0.  0.
         25    1    1    2    0    0  0.40995539105E+02  0.85781105954E+02  0.70390565810E+03  0.72121231816E+03  0.12500000000E+03 0.  0.
         25    1    1    2    0    0  0.89959710906E+02  0.67495913384E+02  0.43746058498E+03  0.46866321738E+03  0.12500000000E+03 0.  0.
</event>
<event>
 5    0  0.5532658E-005  0.2233570E+03  0.7546771E-02  0.1131405E+00
         21   -1    0    0  502  501  0.00000000000E+00  0.00000000000E+00  0.25094367444E+03  0.25094367444E+03  0.00000000000E+00 0.  1.
         21   -1    0    0  501  502 -0.00000000000E+00 -0.00000000000E+00 -0.19880297149E+03  0.19880297149E+03  0.00000000000E+00 0.  1.
         25    1    1    2    0    0 -0.15943677361E+02  0.74917032105E+02  0.87280160581E+02  0.17061532457E+03  0.12500000000E+03 0.  0.
         25    1    1    2    0    0 -0.21033498376E+01 -0.24352467208E+02 -0.60072565844E+02  0.14082322219E+03  0.12500000000E+03 0.  0.
         25    1    1    2    0    0  0.18047027199E+02 -0.50564564898E+02  0.24933108213E+02  0.13830809918E+03  0.12500000000E+03 0.  0.
</event>
<event>
 5    0  0.5532658E-005  0.3133184E+03  0.7546771E-02  0.1078766E+00
         21   -1    0    0  502  501  0.00000000000E+00  0.00000000000E+00  0.84203910644E+03  0.84203910644E+03  0.00000000000E+00 0.  1.
         21   -1    0    0  501  502 -0.00000000000E+00 -0.00000000000E+00 -0.11658415593E+03  0.11658415593E+03  0.00000000000E+00 0.  1.
         25    1    1    2    0    0 -0.13119250449E+03 -0.14889968972E+03  0.16252992342E+03  0.28534815023E+03  0.12500000000E+03 0.  0.
         25    1    1    2    0    0  0.10252499446E+03 -0.11477395203E+02  0.21459733399E+03  0.26892400570E+03  0.12500000000E+03 0.  0.
         25    1    1    2    0    0  0.28667510031E+02  0.16037708492E+03  0.34832769310E+03  0.40435110644E+03  0.12500000000E+03 0.  0.
</event>
<event>
 5    0  0.6540343E-005  0.2954643E+03  0.7546771E-02  0.1087530E+00
         21   -1    0    0  502  501  0.00000000000E+00  0.00000000000E+00  0.17766606541E+03  0.17766606541E+03  0.00000000000E+00 0. -1.
         21   -1    0    0  501  502 -0.00000000000E+00 -0.00000000000E+00 -0.49136637677E+03  0.49136637677E+03  0.00000000000E+00 0. -1.
         25    1    1    2    0    0 -0.13929520964E+03 -0.35374992491E+02 -0.38937477264E+02  0.19441109191E+03  0.12500000000E+03 0.  0.
         25    1    1    2    0    0  0.10267913696E+03  0.88292535107E+02 -0.27852933076E+03  0.33397928831E+03  0.12500000000E+03 0.  0.
         25    1    1    2    0    0  0.36616072685E+02 -0.52917542616E+02  0.37664966664E+01  0.14064206196E+03  0.12500000000E+03 0.  0.
</event>
<event>
 5    0  0.5532658E-005  0.4258810E+03  0.7546771E-02  0.1035169E+00
         21   -1    0    0  502  501  0.00000000000E+00  0.00000000000E+00  0.55656763263E+03  0.55656763263E+03  0.00000000000E+00 0.  1.
         21   -1    0    0  501  502 -0.00000000000E+00 -0.00000000000E+00 -0.32588073374E+03  0.32588073374E+03  0.00000000000E+00 0.  1.
         25    1    1    2    0    0  0.82540051681E+01  0.20720620872E+03  0.15777948265E+03  0.28900156865E+03  0.12500000000E+03 0.  0.
         25    1    1    2    0    0 -0.17191294290E+03 -0.21909178751E+03 -0.10319165855E+03  0.32222475027E+03  0.12500000000E+03 0.  0.
         25    1    1    2    0    0  0.16365893773E+03  0.11885578787E+02  0.17609907480E+03  0.27122204746E+03  0.12500000000E+03 0.  0.
</event>
<event>
 5    0  0.6627925E-005  0.2988512E+03  0.7546771E-02  0.1085816E+00
         21   -1    0    0  502  501  0.00000000000E+00  0.00000000000E+00  0.11717258643E+03  0.11717258643E+03  0.00000000000E+00 0.  1.
         21   -1    0    0  501  502 -0.00000000000E+00 -0.00000000000E+00 -0.76222629056E+03  0.76222629056E+03  0.00000000000E+00 0.  1.
         25    1    1    2    0    0 -0.62517398983E+02  0.10196492171E+03 -0.98677266404E+02  0.19916694841E+03  0.12500000000E+03 0.  0.
         25    1    1    2    0    0 -0.47194426368E+02  0.82300374187E+02 -0.20636519420E+03  0.25925327162E+03  0.12500000000E+03 0.  0.
         25    1    1    2    0    0  0.10971182535E+03 -0.18426529589E+03 -0.34001124352E+03  0.42097865696E+03  0.12500000000E+03 0.  0.
</event>
<event>
 5    0  0.5820522E-005  0.2866823E+03  0.7546771E-02  0.1092094E+00
         21   -1    0    0  502  501  0.00000000000E+00  0.00000000000E+00  0.12638798914E+03  0.12638798914E+03  0.00000000000E+00 0. -1.
         21   -1    0    0  501  502 -0.00000000000E+00 -0.00000000000E+00 -0.65027345054E+03  0.65027345054E+03  0.00000000000E+00 0. -1.
         25    1    1    2    0    0 -0.19555084482E+02 -0.76192403340E+02  0.19060817680E+02  0.14891607847E+03  0.12500000000E+03 0.  0.
         25    1    1    2    0    0  0.75806242505E+02 -0.18427805607E+02 -0.22800524946E+03  0.27147295298E+03  0.12500000000E+03 0.  0.
         25    1    1    2    0    0 -0.56251158023E+02  0.94620208947E+02 -0.31494102962E+03  0.35627240822E+03  0.12500000000E+03 0.  0.
</event>
<event>
 5    0  0.5532658E-005  0.5344789E+03  0.7546771E-02  0.1005152E+00
         21   -1    0    0  502  501  0.00000000000E+00  0.00000000000E+00  0.61977764194E+03  0.61977764194E+03  0.00000000000E+00 0. -1.
         21   -1    0    0  501  502 -0.00000000000E+00 -0.00000000000E+00 -0.46091957737E+03  0.46091957737E+03  0.00000000000E+00 0. -1.
         25    1    1    2    0    0 -0.27190617965E+03  0.64322720838E+02  0.14904912850E+03  0.34045708343E+03  0.12500000000E+03 0.  0.
         25    1    1    2    0    0 -0.87335730720E+02 -0.26394230490E+03 -0.41433496731E+02  0.30762770491E+03  0.12500000000E+03 0.  0.
         25    1    1    2    0    0  0.35924191037E+03  0.19961958406E+03  0.51242432799E+02  0.43261243097E+03  0.12500000000E+03 0.  0.
</event>
<event>
 5    0  0.5532658E-005  0.2050043E+03  0.7546771E-02  0.1145584E+00
         21   -1    0    0  502  501  0.00000000000E+00  0.00000000000E+00  0.41094351593E+03  0.41094351593E+03  0.00000000000E+00 0. -1.
         21   -1    0    0  501  502 -0.00000000000E+00 -0.00000000000E+00 -0.10226897857E+03  0.10226897857E+03  0.00000000000E+00 0. -1.
         25    1    1    2    0    0  0.21011274001E+00  0.66532437775E+02  0.14937496094E+03  0.20582635492E+03  0.12500000000E+03 0.  0.
         25    1    1    2    0    0 -0.49848657043E+01 -0.32182493531E+02  0.10617255828E+03  0.16720697925E+03  0.12500000000E+03 0.  0.
         25    1    1    2    0    0  0.47747529643E+01 -0.34349944244E+02  0.53127018142E+02  0.14017916033E+03  0.12500000000E+03 0.  0.
</event>
<event>
 5    0  0.5532658E-005  0.2703949E+03  0.7546771E-02  0.1101054E+00
         21   -1    0    0  502  501  0.00000000000E+00  0.00000000000E+00  0.67647583786E+02  0.67647583786E+02  0.00000000000E+00 0.  1.
         21   -1    0    0  501  502 -0.00000000000E+00 -0.00000000000E+00 -0.10807983299E+04  0.10807983299E+04  0.00000000000E+00 0.  1.
         25    1    1    2    0    0  0.63294078213E+01 -0.31805996291E+02 -0.39735362521E+03  0.41781166364E+03  0.12500000000E+03 0.  0.
         25    1    1    2    0    0  0.23036163005E+02  0.13893780882E+03 -0.16698786129E+03  0.25168298580E+03  0.12500000000E+03 0.  0.
         25    1    1    2    0    0 -0.29365570826E+02 -0.10713181253E+03 -0.44880925961E+03  0.47895126424E+03  0.12500000000E+03 0.  0.
</event>
<event>
 5    0  0.5532658E-005  0.2844336E+03  0.7546771E-02  0.1093292E+00
         21   -1    0    0  502  501  0.00000000000E+00  0.00000000000E+00  0.26712614515E+03  0.26712614515E+03  0.00000000000E+00 0.  1.
         21   -1    0    0  501  502 -0.00000000000E+00 -0.00000000000E+00 -0.30286246433E+03  0.30286246433E+03  0.00000000000E+00 0.  1.
         25    1    1    2    0    0  0.44565382042E+02 -0.26279122336E+02 -0.17502443629E+03  0.22121306211E+03  0.12500000000E+03 0.  0.
         25    1    1    2    0    0  0.50809237153E+02  0.40043823174E+02  0.12848609865E+03  0.19057482494E+03  0.12500000000E+03 0.  0.
         25    1    1    2    0    0 -0.95374619195E+02 -0.13764700837E+02  0.10802018466E+02  0.15820072243E+03  0.12500000000E+03 0.  0.
</event>
<event>
 5    0  0.5532658E-005  0.3031942E+03  0.7546771E-02  0.1083655E+00
         21   -1    0    0  502  501  0.00000000000E+00  0.00000000000E+00  0.75532387064E+02  0.75532387064E+02  0.00000000000E+00 0.  1.
         21   -1    0    0  501  502 -0.00000000000E+00 -0.00000000000E+00 -0.12170504695E+04  0.12170504695E+04  0.00000000000E+00 0.  1.
         25    1    1    2    0    0 -0.97094705285E+01  0.12618511746E+03 -0.19926568390E+03  0.26711190626E+03  0.12500000000E+03 0.  0.
         25    1    1    2    0    0 -0.11713162047E+03 -0.38627183665E+02 -0.25122464176E+03  0.30651377858E+03  0.12500000000E+03 0.  0.
         25    1    1    2    0    0  0.12684109100E+03 -0.87557933795E+02 -0.69102775677E+03  0.71895717172E+03  0.12500000000E+03 0.  0.
</event>
<event>
 5    0  0.5532658E-005  0.3214435E+03  0.7546771E-02  0.1074987E+00
         21   -1    0    0  502  501  0.00000000000E+00  0.00000000000E+00  0.51549703959E+03  0.51549703959E+03  0.00000000000E+00 0. -1.
         21   -1    0    0  501  502 -0.00000000000E+00 -0.00000000000E+00 -0.20043943504E+03  0.20043943504E+03  0.00000000000E+00 0. -1.
         25    1    1    2    0    0 -0.34096196410E+02  0.11126904998E+03  0.10289221908E+03  0.19938696256E+03  0.12500000000E+03 0.  0.
         25    1    1    2    0    0 -0.82281755427E+02 -0.20710573855E+03  0.19212266460E+03  0.31968608426E+03  0.12500000000E+03 0.  0.
         25    1    1    2    0    0  0.11637795184E+03  0.95836688570E+02  0.20042720872E+02  0.19686342781E+03  0.12500000000E+03 0.  0.
</event>
<event>
 5    0  0.5532658E-005  0.2830687E+03  0.7546771E-02  0.1094025E+00
         21   -1    0    0  502  501  0.00000000000E+00  0.00000000000E+00  0.42783766536E+03  0.42783766536E+03  0.00000000000E+00 0.  1.
         21   -1    0    0  501  502 -0.00000000000E+00 -0.00000000000E+00 -0.18728576766E+03  0.18728576766E+03  0.00000000000E+00 0.  1.
         25    1    1    2    0    0  0.81413718350E+02 -0.13293425813E+03  0.12847921746E+03  0.23755340418E+03  0.12500000000E+03 0.  0.
         25    1    1    2    0    0 -0.17449175383E+02 -0.41838035024E+02  0.67001503504E+02  0.14889290234E+03  0.12500000000E+03 0.  0.
         25    1    1    2    0    0 -0.63964542967E+02  0.17477229315E+03  0.45071176740E+02  0.22867712650E+03  0.12500000000E+03 0.  0.
</event>
<event>
 5    0  0.5532658E-005  0.4125426E+03  0.7546771E-02  0.1039521E+00
         21   -1    0    0  502  501  0.00000000000E+00  0.00000000000E+00  0.49950076910E+03  0.49950076910E+03  0.00000000000E+00 0.  1.
         21   -1    0    0  501  502 -0.00000000000E+00 -0.00000000000E+00 -0.34072297268E+03  0.34072297268E+03  0.00000000000E+00 0.  1.
         25    1    1    2    0    0  0.19297619633E+03 -0.24354970144E+03  0.82072325320E+02  0.34484363994E+03  0.12500000000E+03 0.  0.
         25    1    1    2    0    0 -0.16132167073E+03  0.38553043846E+02 -0.61415929194E+02  0.21658239770E+03  0.12500000000E+03 0.  0.
         25    1    1    2    0    0 -0.31654525599E+02  0.20499665759E+03  0.13812140029E+03  0.27879770414E+03  0.12500000000E+03 0.  0.
</event>
<event>
 5    0  0.5532658E-005  0.3186588E+03  0.7546771E-02  0.1076268E+00
         21   -1    0    0  502  501  0.00000000000E+00  0.00000000000E+00  0.12113240249E+03  0.12113240249E+03  0.00000000000E+00 0.  1.
         21   -1    0    0  501  502 -0.00000000000E+00 -0.00000000000E+00 -0.83828467510E+03  0.83828467510E+03  0.00000000000E+00 0.  1.
         25    1    1    2    0    0 -0.15231701143E+03 -0.28832753903E+02 -0.20373429266E+03  0.28489377262E+03  0.12500000000E+03 0.  0.
         25    1    1    2    0    0 -0.16955867717E+02  0.12752997892E+03 -0.34041111105E+03  0.38478061477E+03  0.12500000000E+03 0.  0.
         25    1    1    2    0    0  0.16927287915E+03 -0.98697225017E+02 -0.17300686890E+03  0.28974269021E+03  0.12500000000E+03 0.  0.
</event>
<event>
 5    0  0.5532658E-005  0.4148990E+03  0.7546771E-02  0.1038739E+00
         21   -1    0    0  502  501  0.00000000000E+00  0.00000000000E+00  0.31385591916E+03  0.31385591916E+03  0.00000000000E+00 0. -1.
         21   -1    0    0  501  502 -0.00000000000E+00 -0.00000000000E+00 -0.54847191150E+03  0.54847191150E+03  0.00000000000E+00 0. -1.
         25    1    1    2    0    0 -0.10999800538E+03 -0.45600776847E+02  0.68064726931E+02  0.18557154709E+03  0.12500000000E+03 0.  0.
         25    1    1    2    0    0 -0.85762470476E+02 -0.18425207060E+03 -0.25031980178E+03  0.34581646870E+03  0.12500000000E+03 0.  0.
         25    1    1    2    0    0  0.19576047586E+03  0.22985284745E+03 -0.52360917496E+02  0.33093981487E+03  0.12500000000E+03 0.  0.
</event>
<event>
 5    0  0.5532658E-005  0.3030992E+03  0.7546771E-02  0.1083702E+00
         21   -1    0    0  502  501  0.00000000000E+00  0.00000000000E+00  0.93997140454E+02  0.93997140454E+02  0.00000000000E+00 0. -1.
         21   -1    0    0  501  502 -0.00000000000E+00 -0.00000000000E+00 -0.97736100562E+03  0.97736100562E+03  0.00000000000E+00 0. -1.
         25    1    1    2    0    0  0.10788703416E+03 -0.15352269237E+03 -0.32078734287E+03  0.39209482087E+03  0.12500000000E+03 0.  0.
         25    1    1    2    0    0  0.56134299318E+02  0.59059853641E+02 -0.27630578157E+03  0.31402071715E+03  0.12500000000E+03 0.  0.
         25    1    1    2    0    0 -0.16402133348E+03  0.94462838725E+02 -0.28627074073E+03  0.36524260805E+03  0.12500000000E+03 0.  0.
</event>
<event>
 5    0  0.5532658E-005  0.3116448E+03  0.7546771E-02  0.1079560E+00
         21   -1    0    0  502  501  0.00000000000E+00  0.00000000000E+00  0.23198027758E+03  0.23198027758E+03  0.00000000000E+00 0. -1.
         21   -1    0    0  501  502 -0.00000000000E+00 -0.00000000000E+00 -0.41866692798E+03  0.41866692798E+03  0.00000000000E+00 0. -1.
         25    1    1    2    0    0  0.15040012239E+02 -0.79764987143E+02 -0.20574753195E+03  0.25405846186E+03  0.12500000000E+03 0.  0.
         25    1    1    2    0    0 -0.79911742449E+02 -0.64018744408E+02 -0.70504411547E+02  0.17629565583E+03  0.12500000000E+03 0.  0.
         25    1    1    2    0    0  0.64871730210E+02  0.14378373155E+03  0.89565293093E+02  0.22029308788E+03  0.12500000000E+03 0.  0.
</event>
<event>
 5    0  0.5532658E-005  0.2867303E+03  0.7546771E-02  0.1092069E+00
         21   -1    0    0  502  501  0.00000000000E+00  0.00000000000E+00  0.18539691101E+03  0.18539691101E+03  0.00000000000E+00 0.  1.
         21   -1    0    0  501  502 -0.00000000000E+00 -0.00000000000E+00 -0.44344997957E+03  0.44344997957E+03  0.00000000000E+00 0.  1.
         25    1    1    2    0    0 -0.77613912850E+02  0.54693143502E+01 -0.23604887153E+03  0.27820478540E+03  0.12500000000E+03 0.  0.
         25    1    1    2    0    0 -0.69668868468E+02 -0.36800655638E+02 -0.42814026621E+02  0.15383783788E+03  0.12500000000E+03 0.  0.
         25    1    1    2    0    0  0.14728278132E+03  0.31331341288E+02  0.20809829591E+02  0.19680426730E+03  0.12500000000E+03 0.  0.
</event>
<event>
 5    0  0.5532658E-005  0.3134017E+03  0.7546771E-02  0.1078727E+00
         21   -1    0    0  502  501  0.00000000000E+00  0.00000000000E+00  0.75665989930E+02  0.75665989930E+02  0.00000000000E+00 0.  1.
         21   -1    0    0  501  502 -0.00000000000E+00 -0.00000000000E+00 -0.12980816552E+04  0.12980816552E+04  0.00000000000E+00 0.  1.
         25    1    1    2    0    0  0.32616248529E+01  0.42710151223E+02 -0.95890245154E+03  0.96796369084E+03  0.12500000000E+03 0.  0.
         25    1    1    2    0    0 -0.13633429172E+02  0.66514054803E+02 -0.11989772301E+03  0.18603885041E+03  0.12500000000E+03 0.  0.
         25    1    1    2    0    0  0.10371804319E+02 -0.10922420603E+03 -0.14361549072E+03  0.21974510389E+03  0.12500000000E+03 0.  0.
</event>
<event>
 5    0  0.5532658E-005  0.2328584E+03  0.7546771E-02  0.1124644E+00
         21   -1    0    0  502  501  0.00000000000E+00  0.00000000000E+00  0.26316459992E+03  0.26316459992E+03  0.00000000000E+00 0.  1.
         21   -1    0    0  501  502 -0.00000000000E+00 -0.00000000000E+00 -0.20604228037E+03  0.20604228037E+03  0.00000000000E+00 0.  1.
         25    1    1    2    0    0 -0.21005858636E+02 -0.25708633982E+02  0.48970266254E+02  0.13829413196E+03  0.12500000000E+03 0.  0.
         25    1    1    2    0    0  0.10133870875E+03  0.25705159307E+02  0.59830822813E+02  0.17359440217E+03  0.12500000000E+03 0.  0.
         25    1    1    2    0    0 -0.80332850110E+02  0.34746749712E-02 -0.51678769519E+02  0.15731834616E+03  0.12500000000E+03 0.  0.
</event>
<event>
 5    0  0.5532658E-005  0.2375466E+03  0.7546771E-02  0.1121438E+00
         21   -1    0    0  502  501  0.00000000000E+00  0.00000000000E+00  0.11657050955E+03  0.11657050955E+03  0.00000000000E+00 0. -1.
         21   -1    0    0  501  502 -0.00000000000E+00 -0.00000000000E+00 -0.48407088988E+03  0.48407088988E+03  0.00000000000E+00 0. -1.
         25    1    1    2    0    0 -0.13261502460E+02  0.36770805277E+02 -0.20015040099E+03  0.23919268924E+03  0.12500000000E+03 0.  0.
         25    1    1    2    0    0 -0.62480385780E+02  0.45263974534E+02 -0.43985540567E+02  0.15333738545E+03  0.12500000000E+03 0.  0.
         25    1    1    2    0    0  0.75741888240E+02 -0.82034779812E+02 -0.12336443877E+03  0.20811132474E+03  0.12500000000E+03 0.  0.
</event>
<event>
 5    0  0.5532658E-005  0.3039224E+03  0.7546771E-02  0.1083296E+00
         21   -1    0    0  502  501  0.00000000000E+00  0.00000000000E+00  0.15742331464E+03  0.15742331464E+03  0.00000000000E+00 0.  1.
         21   -1    0    0  501  502 -0.00000000000E+00 -0.00000000000E+00 -0.58675430595E+03  0.58675430595E+03  0.00000000000E+00 0.  1.
         25    1    1    2    0    0  0.58555306288E+02 -0.13638005480E+02 -0.11912609738E+03  0.18284076724E+03  0.12500000000E+03 0.  0.
         25    1    1    2    0    0 -0.13212309907E+03 -0.15917351153E+03 -0.14711383649E+03  0.28294911375E+03  0.12500000000E+03 0.  0.
         25    1    1    2    0    0  0.73567792786E+02  0.17281151701E+03 -0.16309105744E+03  0.27838773961E+03  0.12500000000E+03 0.  0.
</event>
<event>
 5    0  0.5532658E-005  0.2558048E+03  0.7546771E-02  0.1109690E+00
         21   -1    0    0  502  501  0.00000000000E+00  0.00000000000E+00  0.84016008153E+02  0.84016008153E+02  0.00000000000E+00 0.  1.
         21   -1    0    0  501  502 -0.00000000000E+00 -0.00000000000E+00 -0.77885240699E+03  0.77885240699E+03  0.00000000000E+00 0.  1.
         25    1    1    2    0    0  0.36437406853E+02 -0.12841622574E+03 -0.12340912996E+03  0.22062009204E+03  0.12500000000E+03 0.  0.
         25    1    1    2    0    0 -0.48937198395E+01  0.51892089614E+02 -0.34558836665E+03  0.37117793122E+03  0.12500000000E+03 0.  0.
         25    1    1    2    0    0 -0.31543687014E+02  0.76524136131E+02 -0.22583890222E+03  0.27107039189E+03  0.12500000000E+03 0.  0.
</event>
<event>
 5    0  0.5532658E-005  0.7423643E+03  0.7546771E-02  0.9647406E-01
         21   -1    0    0  502  501  0.00000000000E+00  0.00000000000E+00  0.14543347912E+04  0.14543347912E+04  0.00000000000E+00 0. -1.
         21   -1    0    0  501  502 -0.00000000000E+00 -0.00000000000E+00 -0.37893938772E+03  0.37893938772E+03  0.00000000000E+00 0. -1.
         25    1    1    2    0    0  0.50285133195E+00  0.57793273333E+02 -0.88779496708E+02  0.16385089056E+03  0.12500000000E+03 0.  0.
         25    1    1    2    0    0 -0.52744516347E+03 -0.17866707692E+03  0.87236566489E+03  0.10424812603E+04  0.12500000000E+03 0.  0.
         25    1    1    2    0    0  0.52694231214E+03  0.12087380358E+03  0.29180923530E+03  0.62694202804E+03  0.12500000000E+03 0.  0.
</event>
<event>
 5    0  0.5780388E-005  0.3102695E+03  0.7546771E-02  0.1080217E+00
         21   -1    0    0  502  501  0.00000000000E+00  0.00000000000E+00  0.10572154109E+03  0.10572154109E+03  0.00000000000E+00 0. -1.
         21   -1    0    0  501  502 -0.00000000000E+00 -0.00000000000E+00 -0.91057287179E+03  0.91057287179E+03  0.00000000000E+00 0. -1.
         25    1    1    2    0    0  0.60537676085E+02  0.86578185068E+02 -0.55386782453E+02  0.17278104070E+03  0.12500000000E+03 0.  0.
         25    1    1    2    0    0 -0.78284857229E+02 -0.15574439570E+03 -0.28151912411E+03  0.35392492552E+03  0.12500000000E+03 0.  0.
         25    1    1    2    0    0  0.17747181144E+02  0.69166210629E+02 -0.46794542413E+03  0.48958844666E+03  0.12500000000E+03 0.  0.
</event>
<event>
 5    0  0.5532658E-005  0.3141038E+03  0.7546771E-02  0.1078395E+00
         21   -1    0    0  502  501  0.00000000000E+00  0.00000000000E+00  0.18359212252E+03  0.18359212252E+03  0.00000000000E+00 0.  1.
         21   -1    0    0  501  502 -0.00000000000E+00 -0.00000000000E+00 -0.53739345524E+03  0.53739345524E+03  0.00000000000E+00 0.  1.
         25    1    1    2    0    0 -0.38915246243E+02  0.21622041479E+03 -0.54043502537E+02  0.25847894369E+03  0.12500000000E+03 0.  0.
         25    1    1    2    0    0  0.20043027875E+02 -0.43707210211E+02 -0.80738182716E+02  0.15638317473E+03  0.12500000000E+03 0.  0.
         25    1    1    2    0    0  0.18872218368E+02 -0.17251320458E+03 -0.21901964746E+03  0.30612345934E+03  0.12500000000E+03 0.  0.
</event>
<event>
 5    0  0.5532658E-005  0.2956702E+03  0.7546771E-02  0.1087425E+00
         21   -1    0    0  502  501  0.00000000000E+00  0.00000000000E+00  0.66278438991E+03  0.66278438991E+03  0.00000000000E+00 0.  1.
         21   -1    0    0  501  502 -0.00000000000E+00 -0.00000000000E+00 -0.13189944964E+03  0.13189944964E+03  0.00000000000E+00 0.  1.
         25    1    1    2    0    0  0.15423355926E+02 -0.44439533171E+02  0.19395243847E+03  0.23548949107E+03  0.12500000000E+03 0.  0.
         25    1    1    2    0    0  0.37570916981E+02 -0.10982284442E+03  0.30743547402E+03  0.35158811363E+03  0.12500000000E+03 0.  0.
         25    1    1    2    0    0 -0.52994272907E+02  0.15426237759E+03  0.29497027777E+02  0.20760623485E+03  0.12500000000E+03 0.  0.
</event>
<event>
 5    0  0.5532658E-005  0.3344687E+03  0.7546771E-02  0.1069177E+00
         21   -1    0    0  502  501  0.00000000000E+00  0.00000000000E+00  0.13575667219E+04  0.13575667219E+04  0.00000000000E+00 0. -1.
         21   -1    0    0  501  502 -0.00000000000E+00 -0.00000000000E+00 -0.82404276191E+02  0.82404276191E+02  0.00000000000E+00 0. -1.
         25    1    1    2    0    0 -0.62597231305E+02  0.97179941072E+02  0.15725778425E+03  0.23177006930E+03  0.12500000000E+03 0.  0.
         25    1    1    2    0    0  0.86841726775E+02 -0.22071533240E+03  0.80536834096E+03  0.84882265998E+03  0.12500000000E+03 0.  0.
         25    1    1    2    0    0 -0.24244495471E+02  0.12353539133E+03  0.31253632049E+03  0.35937826882E+03  0.12500000000E+03 0.  0.
</event>
<event>
 5    0  0.5532658E-005  0.2081289E+03  0.7546771E-02  0.1143056E+00
         21   -1    0    0  502  501  0.00000000000E+00  0.00000000000E+00  0.99647536192E+03  0.99647536192E+03  0.00000000000E+00 0.  1.
         21   -1    0    0  501  502 -0.00000000000E+00 -0.00000000000E+00 -0.43470874371E+02  0.43470874371E+02  0.00000000000E+00 0.  1.
         25    1    1    2    0    0  0.26232553624E+02  0.50201843951E+02  0.41078774863E+03  0.43310500624E+03  0.12500000000E+03 0.  0.
         25    1    1    2    0    0 -0.46438128608E+02 -0.41979095795E+02  0.22140706239E+03  0.26184887158E+03  0.12500000000E+03 0.  0.
         25    1    1    2    0    0  0.20205574984E+02 -0.82227481557E+01  0.32080967653E+03  0.34499235847E+03  0.12500000000E+03 0.  0.
</event>
<event>
 5    0  0.7063998E-005  0.6764608E+03  0.7546771E-02  0.9758356E-01
         21   -1    0    0  502  501  0.00000000000E+00  0.00000000000E+00  0.10810616707E+04  0.10810616707E+04  0.00000000000E+00 0. -1.
         21   -1    0    0  501  502 -0.00000000000E+00 -0.00000000000E+00 -0.42328686102E+03  0.42328686102E+03  0.00000000000E+00 0. -1.
         25    1    1    2    0    0  0.31513808170E+03  0.21228528982E+03  0.10393122850E+03  0.41328410938E+03  0.12500000000E+03 0.  0.
         25    1    1    2    0    0  0.14093187172E+02 -0.27303102438E+03  0.65412724999E+03  0.71989722695E+03  0.12500000000E+03 0.  0.
         25    1    1    2    0    0 -0.32923126887E+03  0.60745734552E+02 -0.10028366885E+03  0.37116719535E+03  0.12500000000E+03 0.  0.
</event>
<event>
 5    0  0.5532658E-005  0.2216987E+03  0.7546771E-02  0.1132623E+00
         21   -1    0    0  502  501  0.00000000000E+00  0.00000000000E+00  0.37857255075E+03  0.37857255075E+03  0.00000000000E+00 0. -1.
         21   -1    0    0  501  502 -0.00000000000E+00 -0.00000000000E+00 -0.12983065317E+03  0.12983065317E+03  0.00000000000E+00 0. -1.
         25    1    1    2    0    0  0.53282922728E+02 -0.66195063154E+02  0.11313292616E+03  0.18879861022E+03  0.12500000000E+03 0.  0.
         25    1    1    2    0    0 -0.84822404049E+02  0.34568099811E+02  0.90231099331E+02  0.17932218223E+03  0.12500000000E+03 0.  0.
         25    1    1    2    0    0  0.31539481321E+02  0.31626963343E+02  0.45377872079E+02  0.14028241147E+03  0.12500000000E+03 0.  0.
</event>
<event>
 5    0  0.5532658E-005  0.3094255E+03  0.7546771E-02  0.1080622E+00
         21   -1    0    0  502  501  0.00000000000E+00  0.00000000000E+00  0.28076545045E+03  0.28076545045E+03  0.00000000000E+00 0. -1.
         21   -1    0    0  501  502 -0.00000000000E+00 -0.00000000000E+00 -0.34101111408E+03  0.34101111408E+03  0.00000000000E+00 0. -1.
         25    1    1    2    0    0  0.16720143585E+03  0.15019956748E+03 -0.10784409946E+03  0.27887556366E+03  0.12500000000E+03 0.  0.
         25    1    1    2    0    0 -0.82041659819E+02 -0.49830665220E+02  0.13291746402E+02  0.15816320579E+03  0.12500000000E+03 0.  0.
         25    1    1    2    0    0 -0.85159776028E+02 -0.10036890226E+03  0.34306689429E+02  0.18473779509E+03  0.12500000000E+03 0.  0.
</event>
<event>
 5    0  0.5532658E-005  0.3651159E+03  0.7546771E-02  0.1056576E+00
         21   -1    0    0  502  501  0.00000000000E+00  0.00000000000E+00  0.43375276561E+02  0.43375276561E+02  0.00000000000E+00 0. -1.
         21   -1    0    0  501  502 -0.00000000000E+00 -0.00000000000E+00 -0.30734011720E+04  0.30734011720E+04  0.00000000000E+00 0. -1.
         25    1    1    2    0    0 -0.45252840818E+02 -0.81488617805E+02 -0.63016307482E+03  0.64916770969E+03  0.12500000000E+03 0.  0.
         25    1    1    2    0    0 -0.12913454640E+03  0.20531195624E+03 -0.17677851848E+04  0.17887197069E+04  0.12500000000E+03 0.  0.
         25    1    1    2    0    0  0.17438738722E+03 -0.12382333843E+03 -0.63207763585E+03  0.67888903195E+03  0.12500000000E+03 0.  0.
</event>
<event>
 5    0  0.5532658E-005  0.2762617E+03  0.7546771E-02  0.1097748E+00
         21   -1    0    0  502  501  0.00000000000E+00  0.00000000000E+00  0.63224503591E+02  0.63224503591E+02  0.00000000000E+00 0. -1.
         21   -1    0    0  501  502 -0.00000000000E+00 -0.00000000000E+00 -0.12071354310E+04  0.12071354310E+04  0.00000000000E+00 0. -1.
         25    1    1    2    0    0  0.51808304359E+02  0.56795003684E+02 -0.23622851408E+03  0.27809833460E+03  0.12500000000E+03 0.  0.
         25    1    1    2    0    0 -0.14269460615E+03 -0.10243226296E+03 -0.67973874711E+03  0.71310860564E+03  0.12500000000E+03 0.  0.
         25    1    1    2    0    0  0.90886301793E+02  0.45637259278E+02 -0.22794366627E+03  0.27915299440E+03  0.12500000000E+03 0.  0.
</event>
<event>
 5    0  0.5532658E-005  0.2514436E+03  0.7546771E-02  0.1112396E+00
         21   -1    0    0  502  501  0.00000000000E+00  0.00000000000E+00  0.10473614422E+04  0.10473614422E+04  0.00000000000E+00 0. -1.
         21   -1    0    0  501  502 -0.00000000000E+00 -0.00000000000E+00 -0.60364912208E+02  0.60364912208E+02  0.00000000000E+00 0. -1.
         25    1    1    2    0    0 -0.70967204510E+02  0.57727309689E+02  0.14200007482E+03  0.21013759219E+03  0.12500000000E+03 0.  0.
         25    1    1    2    0    0 -0.35732490289E+02 -0.44513266497E+02  0.40827679425E+03  0.43078205914E+03  0.12500000000E+03 0.  0.
         25    1    1    2    0    0  0.10669969480E+03 -0.13214043192E+02  0.43671966093E+03  0.46680670309E+03  0.12500000000E+03 0.  0.
</event>
<event>
 5    0  0.5532658E-005  0.2355608E+03  0.7546771E-02  0.1122786E+00
         21   -1    0    0  502  501  0.00000000000E+00  0.00000000000E+00  0.22365026055E+04  0.22365026055E+04  0.00000000000E+00 0. -1.
         21   -1    0    0  501  502 -0.00000000000E+00 -0.00000000000E+00 -0.24810557452E+02  0.24810557452E+02  0.00000000000E+00 0. -1.
         25    1    1    2    0    0  0.76269212170E+02 -0.49315510390E+02  0.45252807352E+03  0.47817953700E+03  0.12500000000E+03 0.  0.
         25    1    1    2    0    0 -0.63066592287E+02  0.69678082043E+02  0.11671334385E+04  0.11775643904E+04  0.12500000000E+03 0.  0.
         25    1    1    2    0    0 -0.13202619883E+02 -0.20362571653E+02  0.59203053605E+03  0.60556923560E+03  0.12500000000E+03 0.  0.
</event>
<event>
 5    0  0.5532658E-005  0.4839953E+03  0.7546771E-02  0.1018043E+00
         21   -1    0    0  502  501  0.00000000000E+00  0.00000000000E+00  0.10921173343E+04  0.10921173343E+04  0.00000000000E+00 0. -1.
         21   -1    0    0  501  502 -0.00000000000E+00 -0.00000000000E+00 -0.21449297047E+03  0.21449297047E+03  0.00000000000E+00 0. -1.
         25    1    1    2    0    0  0.22391411398E+03 -0.10532951514E+03  0.72127858231E+03  0.77272222079E+03  0.12500000000E+03 0.  0.
         25    1    1    2    0    0 -0.18619782854E+03  0.20748315584E+03  0.19657354862E+03  0.36329746948E+03  0.12500000000E+03 0.  0.
         25    1    1    2    0    0 -0.37716285434E+02 -0.10215364070E+03 -0.40227767145E+02  0.17059061447E+03  0.12500000000E+03 0.  0.
</event>
<event>
 5    0  0.5532658E-005  0.3349555E+03  0.7546771E-02  0.1068965E+00
         21   -1    0    0  502  501  0.00000000000E+00  0.00000000000E+00  0.22227432544E+03  0.22227432544E+03  0.00000000000E+00 0. -1.
         21   -1    0    0  501  502 -0.00000000000E+00 -0.00000000000E+00 -0.50476009436E+03  0.50476009436E+03  0.00000000000E+00 0. -1.
         25    1    1    2    0    0  0.16390960725E+02 -0.23061602562E+02 -0.30964536824E+03  0.33512050844E+03  0.12500000000E+03 0.  0.
         25    1    1    2    0    0 -0.12449324017E+03  0.83376275385E+02  0.75889254610E+02  0.20936654248E+03  0.12500000000E+03 0.  0.
         25    1    1    2    0    0  0.10810227944E+03 -0.60314672823E+02 -0.48729655283E+02  0.18254736887E+03  0.12500000000E+03 0.  0.
</event>
<event>
 5    0  0.5532658E-005  0.3304485E+03  0.7546771E-02  0.1070939E+00
         21   -1    0    0  502  501  0.00000000000E+00  0.00000000000E+00  0.11797788000E+04  0.11797788000E+04  0.00000000000E+00 0.  1.
         21   -1    0    0  501  502 -0.00000000000E+00 -0.00000000000E+00 -0.92556536594E+02  0.92556536594E+02  0.00000000000E+00 0.  1.
         25    1    1    2    0    0  0.12416736895E+03 -0.13680282257E+02  0.74401754469E+02  0.19174281395E+03  0.12500000000E+03 0.  0.
         25    1    1    2    0    0  0.41898764015E+02  0.42042079456E+02  0.62012929035E+03  0.63538049987E+03  0.12500000000E+03 0.  0.
         25    1    1    2    0    0 -0.16606613296E+03 -0.28361797198E+02  0.39269121854E+03  0.44521202272E+03  0.12500000000E+03 0.  0.
</event>
<event>
 5    0  0.5532658E-005  0.2812397E+03  0.7546771E-02  0.1095014E+00
         21   -1    0    0  502  501  0.00000000000E+00  0.00000000000E+00  0.57716521885E+02  0.57716521885E+02  0.00000000000E+00 0.  1.
         21   -1    0    0  501  502 -0.00000000000E+00 -0.00000000000E+00 -0.13704185013E+04  0.13704185013E+04  0.00000000000E+00 0.  1.
         25    1    1    2    0    0  0.10996070379E+03  0.84983511342E+02 -0.76110118903E+03  0.78371778946E+03  0.12500000000E+03 0.  0.
         25    1    1    2    0    0  0.35725444028E+02 -0.36736891527E+02 -0.21420153827E+03  0.25324534654E+03  0.12500000000E+03 0.  0.
         25    1    1    2    0    0 -0.14568614782E+03 -0.48246619815E+02 -0.33739925212E+03  0.39117188718E+03  0.12500000000E+03 0.  0.
</event>
<event>
 5    0  0.5532658E-005  0.3749283E+03  0.7546771E-02  0.1052824E+00
         21   -1    0    0  502  501  0.00000000000E+00  0.00000000000E+00  0.94143453567E+03  0.94143453567E+03  0.00000000000E+00 0.  1.
         21   -1    0    0  501  502 -0.00000000000E+00 -0.00000000000E+00 -0.14931598986E+03  0.14931598986E+03  0.00000000000E+00 0.  1.
         25    1    1    2    0    0  0.10086058823E+03 -0.79025589604E+02  0.13060765368E+02  0.17948115684E+03  0.12500000000E+03 0.  0.
         25    1    1    2    0    0 -0.19906721730E+02 -0.11452833550E+02  0.15445922808E+02  0.12802742479E+03  0.12500000000E+03 0.  0.
         25    1    1    2    0    0 -0.80953866496E+02  0.90478423154E+02  0.76361185764E+03  0.78324194390E+03  0.12500000000E+03 0.  0.
</event>
<event>
 5    0  0.5532658E-005  0.2779292E+03  0.7546771E-02  0.1096825E+00
         21   -1    0    0  502  501  0.00000000000E+00  0.00000000000E+00  0.97110037915E+02  0.97110037915E+02  0.00000000000E+00 0.  1.
         21   -1    0    0  501  502 -0.00000000000E+00 -0.00000000000E+00 -0.79543399624E+03  0.79543399624E+03  0.00000000000E+00 0.  1.
         25    1    1    2    0    0 -0.53118099266E+02  0.71217746802E+02 -0.26785632376E+03  0.30865111389E+03  0.12500000000E+03 0.  0.
         25    1    1    2    0    0  0.73654366802E+02  0.10090916886E+03 -0.23682632457E+03  0.29549845028E+03  0.12500000000E+03 0.  0.
         25    1    1    2    0    0 -0.20536267536E+02 -0.17212691566E+03 -0.19364131000E+03  0.28839446999E+03  0.12500000000E+03 0.  0.
</event>
<event>
 5    0  0.5532658E-005  0.2188075E+03  0.7546771E-02  0.1134775E+00
         21   -1    0    0  502  501  0.00000000000E+00  0.00000000000E+00  0.47559796832E+03  0.47559796832E+03  0.00000000000E+00 0.  1.
         21   -1    0    0  501  502 -0.00000000000E+00 -0.00000000000E+00 -0.10066636033E+03  0.10066636033E+03  0.00000000000E+00 0.  1.
         25    1    1    2    0    0  0.23506077860E+02 -0.32171180776E+02  0.18669474535E+03  0.22818292774E+03  0.12500000000E+03 0.  0.
         25    1    1    2    0    0 -0.19696492055E+02  0.50774789854E+02  0.20270497701E+02  0.13784746701E+03  0.12500000000E+03 0.  0.
         25    1    1    2    0    0 -0.38095858057E+01 -0.18603609078E+02  0.16796636494E+03  0.21023393391E+03  0.12500000000E+03 0.  0.
</event>
<event>
 5    0  0.5532658E-005  0.2827050E+03  0.7546771E-02  0.1094221E+00
         21   -1    0    0  502  501  0.00000000000E+00  0.00000000000E+00  0.13701502964E+03  0.13701502964E+03  0.00000000000E+00 0.  1.
         21   -1    0    0  501  502 -0.00000000000E+00 -0.00000000000E+00 -0.58330905943E+03  0.58330905943E+03  0.00000000000E+00 0.  1.
         25    1    1    2    0    0 -0.60849619054E+02  0.42286564155E+02  0.30100031758E+02  0.14839757936E+03  0.12500000000E+03 0.  0.
         25    1    1    2    0    0  0.61619039204E+02 -0.10700039708E+03 -0.26381024644E+03  0.31696504081E+03  0.12500000000E+03 0.  0.
         25    1    1    2    0    0 -0.76942015000E+00  0.64713832928E+02 -0.21258381511E+03  0.25496146891E+03  0.12500000000E+03 0.  0.
</event>
<event>
 5    0  0.5532658E-005  0.3264402E+03  0.7546771E-02  0.1072723E+00
         21   -1    0    0  502  501  0.00000000000E+00  0.00000000000E+00  0.13167985191E+04  0.13167985191E+04  0.00000000000E+00 0. -1.
         21   -1    0    0  501  502 -0.00000000000E+00 -0.00000000000E+00 -0.80925979706E+02  0.80925979706E+02  0.00000000000E+00 0. -1.
         25    1    1    2    0    0 -0.12492500995E+03 -0.13622251104E+01  0.22487346672E+03  0.28600907294E+03  0.12500000000E+03 0.  0.
         25    1    1    2    0    0 -0.11349563625E+03  0.26713619040E+02  0.23980700232E+03  0.29449494945E+03  0.12500000000E+03 0.  0.
         25    1    1    2    0    0  0.23842064619E+03 -0.25351393929E+02  0.77119207034E+03  0.81722047641E+03  0.12500000000E+03 0.  0.
</event>
<event>
 5    0  0.5532658E-005  0.2868902E+03  0.7546771E-02  0.1091984E+00
         21   -1    0    0  502  501  0.00000000000E+00  0.00000000000E+00  0.67306675456E+02  0.67306675456E+02  0.00000000000E+00 0.  1.
         21   -1    0    0  501  502 -0.00000000000E+00 -0.00000000000E+00 -0.12228501615E+04  0.12228501615E+04  0.00000000000E+00 0.  1.
         25    1    1    2    0    0 -0.88672543298E+02 -0.92665470761E+02 -0.35970164761E+03  0.40182083657E+03  0.12500000000E+03 0.  0.
         25    1    1    2    0    0 -0.14195364327E+02 -0.81668437108E+02 -0.39079402764E+03  0.41858835869E+03  0.12500000000E+03 0.  0.
         25    1    1    2    0    0  0.10286790763E+03  0.17433390787E+03 -0.40504781075E+03  0.46974764166E+03  0.12500000000E+03 0.  0.
</event>
<event>
 5    0  0.5532658E-005  0.2955256E+03  0.7546771E-02  0.1087499E+00
         21   -1    0    0  502  501  0.00000000000E+00  0.00000000000E+00  0.21369773049E+04  0.21369773049E+04  0.00000000000E+00 0.  1.
         21   -1    0    0  501  502 -0.00000000000E+00 -0.00000000000E+00 -0.40868638886E+02  0.40868638886E+02  0.00000000000E+00 0.  1.
         25    1    1    2    0    0 -0.40737583037E+01 -0.12406111219E+03  0.84172631166E+03  0.85996275431E+03  0.12500000000E+03 0.  0.
         25    1    1    2    0    0  0.13892905986E+03  0.83245479828E+02  0.80570854561E+03  0.83127754334E+03  0.12500000000E+03 0.  0.
         25    1    1    2    0    0 -0.13485530155E+03  0.40815632358E+02  0.44867380877E+03  0.48660564616E+03  0.12500000000E+03 0.  0.
</event>
<event>
 5    0  0.5532658E-005  0.2960919E+03  0.7546771E-02  0.1087211E+00
         21   -1    0    0  502  501  0.00000000000E+00  0.00000000000E+00  0.81757599425E+03  0.81757599425E+03  0.00000000000E+00 0. -1.
         21   -1    0    0  501  502 -0.00000000000E+00 -0.00000000000E+00 -0.10723214835E+03  0.10723214835E+03  0.00000000000E+00 0. -1.
         25    1    1    2    0    0  0.15441411763E+03 -0.13450692782E+03  0.41505512706E+03  0.47940754255E+03  0.12500000000E+03 0.  0.
         25    1    1    2    0    0 -0.36266149051E+02  0.54911016771E+02  0.98678286037E+02  0.17231615555E+03  0.12500000000E+03 0.  0.
         25    1    1    2    0    0 -0.11814796858E+03  0.79595911045E+02  0.19661043282E+03  0.27308444450E+03  0.12500000000E+03 0.  0.
</event>
<event>
 5    0  0.5732984E-005  0.3549199E+03  0.7546771E-02  0.1060614E+00
         21   -1    0    0  502  501  0.00000000000E+00  0.00000000000E+00  0.50245968852E+03  0.50245968852E+03  0.00000000000E+00 0. -1.
         21   -1    0    0  501  502 -0.00000000000E+00 -0.00000000000E+00 -0.25070294942E+03  0.25070294942E+03  0.00000000000E+00 0. -1.
         25    1    1    2    0    0 -0.39205113442E+02 -0.96973961465E+02 -0.87878667482E+02  0.18517194799E+03  0.12500000000E+03 0.  0.
         25    1    1    2    0    0  0.17358918671E+03  0.83635753406E+02  0.30324856018E+03  0.38041140130E+03  0.12500000000E+03 0.  0.
         25    1    1    2    0    0 -0.13438407327E+03  0.13338208059E+02  0.36386846406E+02  0.18757928866E+03  0.12500000000E+03 0.  0.
</event>
<event>
 5    0  0.5532658E-005  0.2632574E+03  0.7546771E-02  0.1105202E+00
         21   -1    0    0  502  501  0.00000000000E+00  0.00000000000E+00  0.11238274639E+04  0.11238274639E+04  0.00000000000E+00 0.  1.
         21   -1    0    0  501  502 -0.00000000000E+00 -0.00000000000E+00 -0.61668256706E+02  0.61668256706E+02  0.00000000000E+00 0.  1.
         25    1    1    2    0    0  0.53995052154E+02 -0.24448134673E+02  0.10865410551E+03  0.17590875928E+03  0.12500000000E+03 0.  0.
         25    1    1    2    0    0 -0.27625574807E+01  0.70312212557E+02  0.73335669981E+03  0.74725396493E+03  0.12500000000E+03 0.  0.
         25    1    1    2    0    0 -0.51232494673E+02 -0.45864077883E+02  0.22014840191E+03  0.26233299643E+03  0.12500000000E+03 0.  0.
</event>
<event>
 5    0  0.5532658E-005  0.2480257E+03  0.7546771E-02  0.1114559E+00
         21   -1    0    0  502  501  0.00000000000E+00  0.00000000000E+00  0.21585003751E+03  0.21585003751E+03  0.00000000000E+00 0. -1.
         21   -1    0    0  501  502 -0.00000000000E+00 -0.00000000000E+00 -0.28499768448E+03  0.28499768448E+03  0.00000000000E+00 0. -1.
         25    1    1    2    0    0 -0.91572750456E+02 -0.56616899721E+02  0.70293130945E+02  0.17932419306E+03  0.12500000000E+03 0.  0.
         25    1    1    2    0    0  0.89911442115E+02  0.11597246035E+02 -0.54144753129E+02  0.16363134733E+03  0.12500000000E+03 0.  0.
         25    1    1    2    0    0  0.16613083419E+01  0.45019653686E+02 -0.85296024786E+02  0.15789218159E+03  0.12500000000E+03 0.  0.
</event>
<event>
 5    0  0.5532658E-005  0.3297194E+03  0.7546771E-02  0.1071261E+00
         21   -1    0    0  502  501  0.00000000000E+00  0.00000000000E+00  0.17118800941E+04  0.17118800941E+04  0.00000000000E+00 0.  1.
         21   -1    0    0  501  502 -0.00000000000E+00 -0.00000000000E+00 -0.63506114554E+02  0.63506114554E+02  0.00000000000E+00 0.  1.
         25    1    1    2    0    0  0.99008303305E+02  0.50348243463E+02  0.65857801498E+03  0.67947596834E+03  0.12500000000E+03 0.  0.
         25    1    1    2    0    0 -0.53103988751E+02 -0.80131909409E+02  0.93607411956E+03  0.94926335325E+03  0.12500000000E+03 0.  0.
         25    1    1    2    0    0 -0.45904314555E+02  0.29783665946E+02  0.53721845009E+02  0.14664688706E+03  0.12500000000E+03 0.  0.
</event>
<event>
 5    0  0.5532658E-005  0.2036103E+03  0.7546771E-02  0.1146728E+00
         21   -1    0    0  502  501  0.00000000000E+00  0.00000000000E+00  0.43146554624E+03  0.43146554624E+03  0.00000000000E+00 0. -1.
         21   -1    0    0  501  502 -0.00000000000E+00 -0.00000000000E+00 -0.96084496042E+02  0.96084496042E+02  0.00000000000E+00 0. -1.
         25    1    1    2    0    0 -0.41402157442E+01  0.58867815383E+02  0.97591728560E+02  0.16920906169E+03  0.12500000000E+03 0.  0.
         25    1    1    2    0    0 -0.15046300718E+01 -0.41002881080E+02  0.16984882975E+03  0.21484209349E+03  0.12500000000E+03 0.  0.
         25    1    1    2    0    0  0.56448458159E+01 -0.17864934302E+02  0.67940491893E+02  0.14349888711E+03  0.12500000000E+03 0.  0.
</event>
<event>
 5    0  0.5532658E-005  0.2602856E+03  0.7546771E-02  0.1106972E+00
         21   -1    0    0  502  501  0.00000000000E+00  0.00000000000E+00  0.20340392204E+04  0.20340392204E+04  0.00000000000E+00 0. -1.
         21   -1    0    0  501  502 -0.00000000000E+00 -0.00000000000E+00 -0.33307422485E+02  0.33307422485E+02  0.00000000000E+00 0. -1.
         25    1    1    2    0    0 -0.10864430106E+03 -0.92792311970E+02  0.59425646219E+03  0.62384272070E+03  0.12500000000E+03 0.  0.
         25    1    1    2    0    0  0.12987086544E+03  0.65159901164E+02  0.73330090818E+03  0.75793632737E+03  0.12500000000E+03 0.  0.
         25    1    1    2    0    0 -0.21226564379E+02  0.27632410806E+02  0.67317442758E+03  0.68556759485E+03  0.12500000000E+03 0.  0.
</event>
<event>
 5    0  0.5532658E-005  0.2440419E+03  0.7546771E-02  0.1117129E+00
         21   -1    0    0  502  501  0.00000000000E+00  0.00000000000E+00  0.19564840428E+02  0.19564840428E+02  0.00000000000E+00 0. -1.
         21   -1    0    0  501  502 -0.00000000000E+00 -0.00000000000E+00 -0.30440555067E+04  0.30440555067E+04  0.00000000000E+00 0. -1.
         25    1    1    2    0    0 -0.10332192291E+02  0.73411895294E+02 -0.63612505161E+03  0.65251524263E+03  0.12500000000E+03 0.  0.
         25    1    1    2    0    0 -0.24992547469E+02 -0.10355110602E+03 -0.77348755802E+03  0.79073096651E+03  0.12500000000E+03 0.  0.
         25    1    1    2    0    0  0.35324739759E+02  0.30139210725E+02 -0.16148780566E+04  0.16203741380E+04  0.12500000000E+03 0.  0.
</event>
<event>
 5    0  0.5532658E-005  0.4312752E+03  0.7546771E-02  0.1033458E+00
         21   -1    0    0  502  501  0.00000000000E+00  0.00000000000E+00  0.53735780673E+03  0.53735780673E+03  0.00000000000E+00 0. -1.
         21   -1    0    0  501  502 -0.00000000000E+00 -0.00000000000E+00 -0.34613484835E+03  0.34613484835E+03  0.00000000000E+00 0. -1.
         25    1    1    2    0    0  0.15723424686E+03  0.96401298238E+02 -0.21849650039E+03  0.31206015345E+03  0.12500000000E+03 0.  0.
         25    1    1    2    0    0 -0.14597707701E+03  0.25992374742E+02  0.10667525148E+03  0.22133576267E+03  0.12500000000E+03 0.  0.
         25    1    1    2    0    0 -0.11257169847E+02 -0.12239367298E+03  0.30304420729E+03  0.35009673896E+03  0.12500000000E+03 0.  0.
</event>
<event>
 5    0  0.5532658E-005  0.2947468E+03  0.7546771E-02  0.1087897E+00
         21   -1    0    0  502  501  0.00000000000E+00  0.00000000000E+00  0.37484452854E+02  0.37484452854E+02  0.00000000000E+00 0. -1.
         21   -1    0    0  501  502 -0.00000000000E+00 -0.00000000000E+00 -0.23176457209E+04  0.23176457209E+04  0.00000000000E+00 0. -1.
         25    1    1    2    0    0 -0.36814810385E+02  0.46381989892E+02 -0.16946428609E+04  0.17002782258E+04  0.12500000000E+03 0.  0.
         25    1    1    2    0    0 -0.80659276311E+01  0.21022430818E+02 -0.16165622807E+03  0.20558389494E+03  0.12500000000E+03 0.  0.
         25    1    1    2    0    0  0.44880738016E+02 -0.67404420710E+02 -0.42386217910E+03  0.44926805300E+03  0.12500000000E+03 0.  0.
</event>
<event>
 5    0  0.5532658E-005  0.3129803E+03  0.7546771E-02  0.1078926E+00
         21   -1    0    0  502  501  0.00000000000E+00  0.00000000000E+00  0.33206269097E+03  0.33206269097E+03  0.00000000000E+00 0. -1.
         21   -1    0    0  501  502 -0.00000000000E+00 -0.00000000000E+00 -0.29499444748E+03  0.29499444748E+03  0.00000000000E+00 0. -1.
         25    1    1    2    0    0 -0.19445404404E+02 -0.40799923455E+02  0.48456874025E+02  0.14147729905E+03  0.12500000000E+03 0.  0.
         25    1    1    2    0    0 -0.14615647430E+03 -0.10931272097E+03 -0.49452987644E+02  0.22667506244E+03  0.12500000000E+03 0.  0.
         25    1    1    2    0    0  0.16560187871E+03  0.15011264442E+03  0.38064357105E+02  0.25890477695E+03  0.12500000000E+03 0.  0.
</event>
<event>
 5    0  0.5532658E-005  0.3247573E+03  0.7546771E-02  0.1073480E+00
         21   -1    0    0  502  501  0.00000000000E+00  0.00000000000E+00  0.48381236165E+02  0.48381236165E+02  0.00000000000E+00 0. -1.
         21   -1    0    0  501  502 -0.00000000000E+00 -0.00000000000E+00 -0.21799214022E+04  0.21799214022E+04  0.00000000000E+00 0. -1.
         25    1    1    2    0    0  0.12549406032E+03  0.16144063358E+03 -0.88282538891E+03  0.91477729784E+03  0.12500000000E+03 0.  0.
         25    1    1    2    0    0 -0.11981089575E+03 -0.42300452441E+02 -0.29798174819E+03  0.34722053694E+03  0.12500000000E+03 0.  0.
         25    1    1    2    0    0 -0.56831645700E+01 -0.11914018114E+03 -0.95073302892E+03  0.96630480356E+03  0.12500000000E+03 0.  0.
</event>
<event>
 5    0  0.5532658E-005  0.3351469E+03  0.7546771E-02  0.1068882E+00
         21   -1    0    0  502  501  0.00000000000E+00  0.00000000000E+00  0.58724634612E+02  0.58724634612E+02  0.00000000000E+00 0.  1.
         21   -1    0    0  501  502 -0.00000000000E+00 -0.00000000000E+00 -0.19127140848E+04  0.19127140848E+04  0.00000000000E+00 0.  1.
         25    1    1    2    0    0 -0.10478297228E+03 -0.22610691952E+03 -0.62944515669E+03  0.68842575171E+03  0.12500000000E+03 0.  0.
         25    1    1    2    0    0  0.52104569432E+02  0.57101264106E+02 -0.70369756520E+03  0.71888156450E+03  0.12500000000E+03 0.  0.
         25    1    1    2    0    0  0.52678402849E+02  0.16900565542E+03 -0.52084672826E+03  0.56413140316E+03  0.12500000000E+03 0.  0.
</event>
<event>
 5    0  0.5532658E-005  0.3970313E+03  0.7546771E-02  0.1044812E+00
         21   -1    0    0  502  501  0.00000000000E+00  0.00000000000E+00  0.34424761769E+03  0.34424761769E+03  0.00000000000E+00 0.  1.
         21   -1    0    0  501  502 -0.00000000000E+00 -0.00000000000E+00 -0.45790838202E+03  0.45790838202E+03  0.00000000000E+00 0.  1.
         25    1    1    2    0    0  0.15437957504E+02  0.28162386513E+03 -0.72918662494E+02  0.31700546254E+03  0.12500000000E+03 0.  0.
         25    1    1    2    0    0 -0.13720729743E+03 -0.11965140122E+03 -0.95892708711E+02  0.24075446386E+03  0.12500000000E+03 0.  0.
         25    1    1    2    0    0  0.12176933993E+03 -0.16197246391E+03  0.55150606879E+02  0.24439607331E+03  0.12500000000E+03 0.  0.
</event>
<event>
 5    0  0.5532658E-005  0.2560299E+03  0.7546771E-02  0.1109552E+00
         21   -1    0    0  502  501  0.00000000000E+00  0.00000000000E+00  0.49511856726E+03  0.49511856726E+03  0.00000000000E+00 0. -1.
         21   -1    0    0  501  502 -0.00000000000E+00 -0.00000000000E+00 -0.13239517380E+03  0.13239517380E+03  0.00000000000E+00 0. -1.
         25    1    1    2    0    0 -0.62440896204E+01 -0.87414705312E+02  0.88180738501E+02  0.17629850255E+03  0.12500000000E+03 0.  0.
         25    1    1    2    0    0  0.10433236130E+03 -0.16895308772E+02  0.16210800296E+03  0.23037946457E+03  0.12500000000E+03 0.  0.
         25    1    1    2    0    0 -0.98088271676E+02  0.10431001408E+03  0.11243465200E+03  0.22083577394E+03  0.12500000000E+03 0.  0.
</event>
<event>
 5    0  0.5532658E-005  0.5800044E+03  0.7546771E-02  0.9947782E-01
         21   -1    0    0  502  501  0.00000000000E+00  0.00000000000E+00  0.18962303646E+03  0.18962303646E+03  0.00000000000E+00 0.  1.
         21   -1    0    0  501  502 -0.00000000000E+00 -0.00000000000E+00 -0.17740727555E+04  0.17740727555E+04  0.00000000000E+00 0.  1.
         25    1    1    2    0    0  0.26010205750E+03  0.36885279072E+03 -0.90682545131E+03  0.10206188616E+04  0.12500000000E+03 0.  0.
         25    1    1    2    0    0 -0.87470754942E+02 -0.37431657298E+03 -0.27942839848E+03  0.49139521737E+03  0.12500000000E+03 0.  0.
         25    1    1    2    0    0 -0.17263130256E+03  0.54637822654E+01 -0.39819586923E+03  0.45168171295E+03  0.12500000000E+03 0.  0.
</event>
<event>
 5    0  0.5532658E-005  0.2834475E+03  0.7546771E-02  0.1093821E+00
         21   -1    0    0  502  501  0.00000000000E+00  0.00000000000E+00  0.12992284806E+04  0.12992284806E+04  0.00000000000E+00 0.  1.
         21   -1    0    0  501  502 -0.00000000000E+00 -0.00000000000E+00 -0.61838627095E+02  0.61838627095E+02  0.00000000000E+00 0.  1.
         25    1    1    2    0    0  0.12536540382E+03 -0.13650536197E+03  0.32694283067E+03  0.39606415244E+03  0.12500000000E+03 0.  0.
         25    1    1    2    0    0 -0.93284798841E+02  0.47652034652E+02  0.47642895883E+03  0.50356958100E+03  0.12500000000E+03 0.  0.
         25    1    1    2    0    0 -0.32080604977E+02  0.88853327317E+02  0.43401806402E+03  0.46143337426E+03  0.12500000000E+03 0.  0.
</event>
<event>
 5    0  0.5532658E-005  0.2616563E+03  0.7546771E-02  0.1106152E+00
         21   -1    0    0  502  501  0.00000000000E+00  0.00000000000E+00  0.22838904243E+03  0.22838904243E+03  0.00000000000E+00 0.  1.
         21   -1    0    0  501  502 -0.00000000000E+00 -0.00000000000E+00 -0.29976932252E+03  0.29976932252E+03  0.00000000000E+00 0.  1.
         25    1    1    2    0    0 -0.42439359244E+02  0.13070700343E+03 -0.67455008890E+02  0.19763754245E+03  0.12500000000E+03 0.  0.
         25    1    1    2    0    0  0.99318434505E+01 -0.95966909715E+02  0.75439067102E+02  0.17499812033E+03  0.12500000000E+03 0.  0.
         25    1    1    2    0    0  0.32507515794E+02 -0.34740093720E+02 -0.79364338303E+02  0.15552270217E+03  0.12500000000E+03 0.  0.
</event>
<event>
 5    0  0.5532658E-005  0.5363669E+03  0.7546771E-02  0.1004700E+00
         21   -1    0    0  502  501  0.00000000000E+00  0.00000000000E+00  0.28468454794E+03  0.28468454794E+03  0.00000000000E+00 0. -1.
         21   -1    0    0  501  502 -0.00000000000E+00 -0.00000000000E+00 -0.10105552614E+04  0.10105552614E+04  0.00000000000E+00 0. -1.
         25    1    1    2    0    0 -0.13995867855E+02 -0.94455907492E+02 -0.48718510712E+03  0.51194934454E+03  0.12500000000E+03 0.  0.
         25    1    1    2    0    0 -0.25299654074E+03  0.22085962905E+03  0.37113768819E+02  0.36026192862E+03  0.12500000000E+03 0.  0.
         25    1    1    2    0    0  0.26699240860E+03 -0.12640372156E+03 -0.27579937512E+03  0.42302853614E+03  0.12500000000E+03 0.  0.
</event>
<event>
 5    0  0.5532658E-005  0.2894316E+03  0.7546771E-02  0.1090646E+00
         21   -1    0    0  502  501  0.00000000000E+00  0.00000000000E+00  0.23954781311E+04  0.23954781311E+04  0.00000000000E+00 0. -1.
         21   -1    0    0  501  502 -0.00000000000E+00 -0.00000000000E+00 -0.34970335109E+02  0.34970335109E+02  0.00000000000E+00 0. -1.
         25    1    1    2    0    0  0.10761325016E+02  0.14767398426E+03  0.16172742585E+04  0.16288414407E+04  0.12500000000E+03 0.  0.
         25    1    1    2    0    0 -0.31663254200E+02 -0.10527015053E+03  0.42650716101E+03  0.45784028291E+03  0.12500000000E+03 0.  0.
         25    1    1    2    0    0  0.20901929184E+02 -0.42403833727E+02  0.31672637646E+03  0.34376674258E+03  0.12500000000E+03 0.  0.
</event>
<event>
 5    0  0.6547851E-005  0.2890371E+03  0.7546771E-02  0.1090853E+00
         21   -1    0    0  502  501  0.00000000000E+00  0.00000000000E+00  0.67048923078E+03  0.67048923078E+03  0.00000000000E+00 0. -1.
         21   -1    0    0  501  502 -0.00000000000E+00 -0.00000000000E+00 -0.12459927767E+03  0.12459927767E+03  0.00000000000E+00 0. -1.
         25    1    1    2    0    0  0.82943449966E+02 -0.15948072263E+03  0.17944863875E+03  0.28309102906E+03  0.12500000000E+03 0.  0.
         25    1    1    2    0    0 -0.12030032746E+03  0.74590313306E+02  0.13127627656E+03  0.22998770492E+03  0.12500000000E+03 0.  0.
         25    1    1    2    0    0  0.37356877493E+02  0.84890409327E+02  0.23516503780E+03  0.28200977447E+03  0.12500000000E+03 0.  0.
</event>
<event>
 5    0  0.5532658E-005  0.2146373E+03  0.7546771E-02  0.1137945E+00
         21   -1    0    0  502  501  0.00000000000E+00  0.00000000000E+00  0.40283817827E+03  0.40283817827E+03  0.00000000000E+00 0.  1.
         21   -1    0    0  501  502 -0.00000000000E+00 -0.00000000000E+00 -0.11436147396E+03  0.11436147396E+03  0.00000000000E+00 0.  1.
         25    1    1    2    0    0 -0.66935880989E+02  0.50561611525E+02  0.15075416952E+03  0.21304625872E+03  0.12500000000E+03 0.  0.
         25    1    1    2    0    0  0.21552571459E+02 -0.47795668535E+01  0.40734316898E+02  0.13331032281E+03  0.12500000000E+03 0.  0.
         25    1    1    2    0    0  0.45383309529E+02 -0.45782044672E+02  0.96988217886E+02  0.17084307070E+03  0.12500000000E+03 0.  0.
</event>
<event>
 5    0  0.5532658E-005  0.4312838E+03  0.7546771E-02  0.1033455E+00
         21   -1    0    0  502  501  0.00000000000E+00  0.00000000000E+00  0.95770701715E+03  0.95770701715E+03  0.00000000000E+00 0.  1.
         21   -1    0    0  501  502 -0.00000000000E+00 -0.00000000000E+00 -0.19421982973E+03  0.19421982973E+03  0.00000000000E+00 0.  1.
         25    1    1    2    0    0  0.19932150873E+03  0.75775662732E+02  0.14353169239E+03  0.28582750327E+03  0.12500000000E+03 0.  0.
         25    1    1    2    0    0  0.15004659877E+03  0.55193398778E+02  0.28179191126E+03  0.34726355168E+03  0.12500000000E+03 0.  0.
         25    1    1    2    0    0 -0.34936810750E+03 -0.13096906151E+03  0.33816358377E+03  0.51883579194E+03  0.12500000000E+03 0.  0.
</event>
<event>
 5    0  0.5961195E-005  0.3062442E+03  0.7546771E-02  0.1082160E+00
         21   -1    0    0  502  501  0.00000000000E+00  0.00000000000E+00  0.18391484452E+03  0.18391484452E+03  0.00000000000E+00 0.  1.
         21   -1    0    0  501  502 -0.00000000000E+00 -0.00000000000E+00 -0.50993997477E+03  0.50993997477E+03  0.00000000000E+00 0.  1.
         25    1    1    2    0    0  0.48870657904E+02  0.99500609452E+02 -0.25361426253E+02  0.16898791207E+03  0.12500000000E+03 0.  0.
         25    1    1    2    0    0  0.48584900536E+02 -0.14236904257E+03 -0.30301324214E+03  0.36065421356E+03  0.12500000000E+03 0.  0.
         25    1    1    2    0    0 -0.97455558440E+02  0.42868433120E+02  0.23495381416E+01  0.16421269366E+03  0.12500000000E+03 0.  0.
</event>
<event>
 5    0  0.5532658E-005  0.5276666E+03  0.7546771E-02  0.1006800E+00
         21   -1    0    0  502  501  0.00000000000E+00  0.00000000000E+00  0.21073872258E+04  0.21073872258E+04  0.00000000000E+00 0.  1.
         21   -1    0    0  501  502 -0.00000000000E+00 -0.00000000000E+00 -0.13212190936E+03  0.13212190936E+03  0.00000000000E+00 0.  1.
         25    1    1    2    0    0  0.66006054730E+02 -0.15051329735E+03  0.42986531531E+03  0.47688598349E+03  0.12500000000E+03 0.  0.
         25    1    1    2    0    0 -0.20042561443E+03 -0.23256813627E+03  0.10925124104E+04  0.11416946754E+04  0.12500000000E+03 0.  0.
         25    1    1    2    0    0  0.13441955970E+03  0.38308143363E+03  0.45288759070E+03  0.62092847626E+03  0.12500000000E+03 0.  0.
</event>
<event>
 5    0  0.5532658E-005  0.3148216E+03  0.7546771E-02  0.1078058E+00
         21   -1    0    0  502  501  0.00000000000E+00  0.00000000000E+00  0.86012944000E+03  0.86012944000E+03  0.00000000000E+00 0. -1.
         21   -1    0    0  501  502 -0.00000000000E+00 -0.00000000000E+00 -0.11522993069E+03  0.11522993069E+03  0.00000000000E+00 0. -1.
         25    1    1    2    0    0  0.12224639807E+03 -0.12813304640E+03  0.28740617063E+03  0.35998550851E+03  0.12500000000E+03 0.  0.
         25    1    1    2    0    0  0.76486692815E+02  0.20538052517E+02  0.21580342018E+03  0.26166417779E+03  0.12500000000E+03 0.  0.
         25    1    1    2    0    0 -0.19873309089E+03  0.10759499388E+03  0.24168991849E+03  0.35370968438E+03  0.12500000000E+03 0.  0.
</event>
<event>
 5    0  0.5532658E-005  0.3211029E+03  0.7546771E-02  0.1075143E+00
         21   -1    0    0  502  501  0.00000000000E+00  0.00000000000E+00  0.66079178083E+02  0.66079178083E+02  0.00000000000E+00 0.  1.
         21   -1    0    0  501  502 -0.00000000000E+00 -0.00000000000E+00 -0.15603559761E+04  0.15603559761E+04  0.00000000000E+00 0.  1.
         25    1    1    2    0    0  0.55267277435E+02  0.53709392613E+02 -0.51796389540E+03  0.53837790422E+03  0.12500000000E+03 0.  0.
         25    1    1    2    0    0  0.42819391901E+02 -0.11272690318E+03 -0.11060135942E+03  0.20590899866E+03  0.12500000000E+03 0.  0.
         25    1    1    2    0    0 -0.98086669336E+02  0.59017510568E+02 -0.86571154320E+03  0.88214825131E+03  0.12500000000E+03 0.  0.
</event>
<event>
 5    0  0.5532658E-005  0.2942782E+03  0.7546771E-02  0.1088136E+00
         21   -1    0    0  502  501  0.00000000000E+00  0.00000000000E+00  0.73601248719E+02  0.73601248719E+02  0.00000000000E+00 0.  1.
         21   -1    0    0  501  502 -0.00000000000E+00 -0.00000000000E+00 -0.11766057185E+04  0.11766057185E+04  0.00000000000E+00 0.  1.
         25    1    1    2    0    0  0.94439865573E+02  0.11281780195E+03 -0.23945795034E+03  0.30759040074E+03  0.12500000000E+03 0.  0.
         25    1    1    2    0    0 -0.10960916700E+03  0.58638446742E+01 -0.21764638644E+03  0.27394069375E+03  0.12500000000E+03 0.  0.
         25    1    1    2    0    0  0.15169301423E+02 -0.11868164663E+03 -0.64590013303E+03  0.66867587275E+03  0.12500000000E+03 0.  0.
</event>
<event>
 5    0  0.5532658E-005  0.4165561E+03  0.7546771E-02  0.1038193E+00
         21   -1    0    0  502  501  0.00000000000E+00  0.00000000000E+00  0.29785972150E+03  0.29785972150E+03  0.00000000000E+00 0. -1.
         21   -1    0    0  501  502 -0.00000000000E+00 -0.00000000000E+00 -0.58255261306E+03  0.58255261306E+03  0.00000000000E+00 0. -1.
         25    1    1    2    0    0  0.20788195006E+03  0.50577575178E+02  0.14272501817E+03  0.28595179154E+03  0.12500000000E+03 0.  0.
         25    1    1    2    0    0 -0.11032202691E+03  0.84572816034E+02 -0.28945423315E+03  0.34457548363E+03  0.12500000000E+03 0.  0.
         25    1    1    2    0    0 -0.97559923155E+02 -0.13515039121E+03 -0.13796367658E+03  0.24988505939E+03  0.12500000000E+03 0.  0.
</event>
<event>
 5    0  0.5532658E-005  0.2276919E+03  0.7546771E-02  0.1128275E+00
         21   -1    0    0  502  501  0.00000000000E+00  0.00000000000E+00  0.14192348603E+03  0.14192348603E+03  0.00000000000E+00 0. -1.
         21   -1    0    0  501  502 -0.00000000000E+00 -0.00000000000E+00 -0.36529271192E+03  0.36529271192E+03  0.00000000000E+00 0. -1.
         25    1    1    2    0    0  0.94956852418E+02 -0.72672671683E+02 -0.10205516340E+03  0.20084416199E+03  0.12500000000E+03 0.  0.
         25    1    1    2    0    0 -0.23641681593E+02  0.42468005202E+02 -0.52634845355E+02  0.14407597829E+03  0.12500000000E+03 0.  0.
         25    1    1    2    0    0 -0.71315170825E+02  0.30204666481E+02 -0.68679217135E+02  0.16229605766E+03  0.12500000000E+03 0.  0.
</event>
<event>
 5    0  0.5532658E-005  0.3439834E+03  0.7546771E-02  0.1065112E+00
         21   -1    0    0  502  501  0.00000000000E+00  0.00000000000E+00  0.43567573520E+03  0.43567573520E+03  0.00000000000E+00 0.  1.
         21   -1    0    0  501  502 -0.00000000000E+00 -0.00000000000E+00 -0.27158859444E+03  0.27158859444E+03  0.00000000000E+00 0.  1.
         25    1    1    2    0    0 -0.47718628562E+02  0.56548464123E+01 -0.11084091172E+03  0.17383829414E+03  0.12500000000E+03 0.  0.
         25    1    1    2    0    0  0.15469376971E+02 -0.11954629138E+03  0.31223674166E+03  0.35727776344E+03  0.12500000000E+03 0.  0.
         25    1    1    2    0    0  0.32249251591E+02  0.11389144496E+03 -0.37308689178E+02  0.17614827207E+03  0.12500000000E+03 0.  0.
</event>
<event>
 5    0  0.5532658E-005  0.3241468E+03  0.7546771E-02  0.1073756E+00
         21   -1    0    0  502  501  0.00000000000E+00  0.00000000000E+00  0.12498251518E+04  0.12498251518E+04  0.00000000000E+00 0. -1.
         21   -1    0    0  501  502 -0.00000000000E+00 -0.00000000000E+00 -0.84068690713E+02  0.84068690713E+02  0.00000000000E+00 0. -1.
         25    1    1    2    0    0 -0.21944171821E+03 -0.72066792674E+02  0.31544148887E+03  0.41045903961E+03  0.12500000000E+03 0.  0.
         25    1    1    2    0    0  0.51853536015E+02  0.11669408830E+02  0.24417150177E+03  0.27940953201E+03  0.12500000000E+03 0.  0.
         25    1    1    2    0    0  0.16758818219E+03  0.60397383843E+02  0.60614347040E+03  0.64402527085E+03  0.12500000000E+03 0.  0.
</event>
<event>
 5    0  0.5532658E-005  0.2599116E+03  0.7546771E-02  0.1107196E+00
         21   -1    0    0  502  501  0.00000000000E+00  0.00000000000E+00  0.39480086697E+03  0.39480086697E+03  0.00000000000E+00 0. -1.
         21   -1    0    0  501  502 -0.00000000000E+00 -0.00000000000E+00 -0.17110917420E+03  0.17110917420E+03  0.00000000000E+00 0. -1.
         25    1    1    2    0    0 -0.11260769785E+03 -0.45076984311E+02  0.14099915806E+03  0.22409415589E+03  0.12500000000E+03 0.  0.
         25    1    1    2    0    0 -0.48603242050E+01 -0.76863808757E+01 -0.31336673173E+02  0.12918858420E+03  0.12500000000E+03 0.  0.
         25    1    1    2    0    0  0.11746802205E+03  0.52763365186E+02  0.11402920788E+03  0.21262730107E+03  0.12500000000E+03 0.  0.
</event>
<event>
 5    0  0.6403974E-005  0.6531361E+03  0.7546771E-02  0.9800912E-01
         21   -1    0    0  502  501  0.00000000000E+00  0.00000000000E+00  0.49868958290E+03  0.49868958290E+03  0.00000000000E+00 0.  1.
         21   -1    0    0  501  502 -0.00000000000E+00 -0.00000000000E+00 -0.85541534822E+03  0.85541534822E+03  0.00000000000E+00 0.  1.
         25    1    1    2    0    0 -0.12666221972E+03  0.35321946833E+03  0.14940432501E+03  0.42279304990E+03  0.12500000000E+03 0.  0.
         25    1    1    2    0    0  0.12548885054E+03 -0.83739894680E+02 -0.59078447253E+03  0.62242358130E+03  0.12500000000E+03 0.  0.
         25    1    1    2    0    0  0.11733691779E+01 -0.26947957365E+03  0.84654382207E+02  0.30888829993E+03  0.12500000000E+03 0.  0.
</event>
<event>
 5    0  0.5532658E-005  0.4067556E+03  0.7546771E-02  0.1041465E+00
         21   -1    0    0  502  501  0.00000000000E+00  0.00000000000E+00  0.46268581274E+03  0.46268581274E+03  0.00000000000E+00 0. -1.
         21   -1    0    0  501  502 -0.00000000000E+00 -0.00000000000E+00 -0.35758634586E+03  0.35758634586E+03  0.00000000000E+00 0. -1.
         25    1    1    2    0    0 -0.48596775892E+02  0.48728155535E+02 -0.13962530861E+03  0.19964044323E+03  0.12500000000E+03 0.  0.
         25    1    1    2    0    0 -0.65110417223E+01 -0.97064032714E+02 -0.13882510507E+03  0.21062105761E+03  0.12500000000E+03 0.  0.
         25    1    1    2    0    0  0.55107817615E+02  0.48335877179E+02  0.38354988057E+03  0.41001065775E+03  0.12500000000E+03 0.  0.
</event>
<event>
 5    0  0.5532658E-005  0.3045366E+03  0.7546771E-02  0.1082995E+00
         21   -1    0    0  502  501  0.00000000000E+00  0.00000000000E+00  0.28299302326E+03  0.28299302326E+03  0.00000000000E+00 0.  1.
         21   -1    0    0  501  502 -0.00000000000E+00 -0.00000000000E+00 -0.32772028189E+03  0.32772028189E+03  0.00000000000E+00 0.  1.
         25    1    1    2    0    0 -0.17429457468E+03  0.24446637603E+02 -0.28736583611E+02  0.21777747379E+03  0.12500000000E+03 0.  0.
         25    1    1    2    0    0 -0.29642025849E+02  0.55707091056E+02 -0.13267746583E+02  0.14065192068E+03  0.12500000000E+03 0.  0.
         25    1    1    2    0    0  0.20393660053E+03 -0.80153728659E+02 -0.27229284391E+01  0.25228391069E+03  0.12500000000E+03 0.  0.
</event>
<event>
 5    0  0.5532658E-005  0.4108126E+03  0.7546771E-02  0.1040099E+00
         21   -1    0    0  502  501  0.00000000000E+00  0.00000000000E+00  0.40666308599E+03  0.40666308599E+03  0.00000000000E+00 0. -1.
         21   -1    0    0  501  502 -0.00000000000E+00 -0.00000000000E+00 -0.41500440960E+03  0.41500440960E+03  0.00000000000E+00 0. -1.
         25    1    1    2    0    0  0.74171799442E+02  0.47408942094E+02  0.25053287610E+03  0.29349750532E+03  0.12500000000E+03 0.  0.
         25    1    1    2    0    0  0.14468365339E+03 -0.47999299626E+02 -0.56881256906E+02  0.20517741033E+03  0.12500000000E+03 0.  0.
         25    1    1    2    0    0 -0.21885545283E+03  0.59035753202E+00 -0.20199294280E+03  0.32299257994E+03  0.12500000000E+03 0.  0.
</event>
<event>
 5    0  0.5532658E-005  0.2745352E+03  0.7546771E-02  0.1098712E+00
         21   -1    0    0  502  501  0.00000000000E+00  0.00000000000E+00  0.65071739559E+02  0.65071739559E+02  0.00000000000E+00 0.  1.
         21   -1    0    0  501  502 -0.00000000000E+00 -0.00000000000E+00 -0.11582539246E+04  0.11582539246E+04  0.00000000000E+00 0.  1.
         25    1    1    2    0    0 -0.41297707499E+02  0.83505669689E+02 -0.20854043048E+03  0.26037052187E+03  0.12500000000E+03 0.  0.
         25    1    1    2    0    0  0.68800163905E+02  0.34290187994E+02 -0.67392876037E+03  0.68972041698E+03  0.12500000000E+03 0.  0.
         25    1    1    2    0    0 -0.27502456406E+02 -0.11779585768E+03 -0.21071299421E+03  0.27323472533E+03  0.12500000000E+03 0.  0.
</event>
<event>
 5    0  0.5532658E-005  0.2793071E+03  0.7546771E-02  0.1096068E+00
         21   -1    0    0  502  501  0.00000000000E+00  0.00000000000E+00  0.24631773605E+03  0.24631773605E+03  0.00000000000E+00 0.  1.
         21   -1    0    0  501  502 -0.00000000000E+00 -0.00000000000E+00 -0.31671467746E+03  0.31671467746E+03  0.00000000000E+00 0.  1.
         25    1    1    2    0    0 -0.14056736765E+02  0.54220220969E+02 -0.76647792231E+02  0.15696276076E+03  0.12500000000E+03 0.  0.
         25    1    1    2    0    0 -0.53585100193E+02  0.29113291394E+02 -0.13143050607E+03  0.19135810572E+03  0.12500000000E+03 0.  0.
         25    1    1    2    0    0  0.67641836958E+02 -0.83333512363E+02  0.13768135690E+03  0.21471154703E+03  0.12500000000E+03 0.  0.
</event>
<event>
 5    0  0.5532658E-005  0.4139878E+03  0.7546771E-02  0.1039041E+00
         21   -1    0    0  502  501  0.00000000000E+00  0.00000000000E+00  0.86275271748E+03  0.86275271748E+03  0.00000000000E+00 0.  1.
         21   -1    0    0  501  502 -0.00000000000E+00 -0.00000000000E+00 -0.19865012818E+03  0.19865012818E+03  0.00000000000E+00 0.  1.
         25    1    1    2    0    0  0.52023256402E+02 -0.16105589922E+03  0.55409397358E+01  0.21047832167E+03  0.12500000000E+03 0.  0.
         25    1    1    2    0    0 -0.35417351878E+02  0.29623559326E+03  0.27277333004E+03  0.42313142770E+03  0.12500000000E+03 0.  0.
         25    1    1    2    0    0 -0.16605904524E+02 -0.13517969404E+03  0.38578831952E+03  0.42779309628E+03  0.12500000000E+03 0.  0.
</event>
<event>
 5    0  0.5532658E-005  0.2173796E+03  0.7546771E-02  0.1135852E+00
         21   -1    0    0  502  501  0.00000000000E+00  0.00000000000E+00  0.90753218599E+02  0.90753218599E+02  0.00000000000E+00 0. -1.
         21   -1    0    0  501  502 -0.00000000000E+00 -0.00000000000E+00 -0.52068542541E+03  0.52068542541E+03  0.00000000000E+00 0. -1.
         25    1    1    2    0    0 -0.34668189308E+02  0.47365017705E+02 -0.93665600361E+02  0.16686393542E+03  0.12500000000E+03 0.  0.
         25    1    1    2    0    0  0.12749045010E+02 -0.43433569029E+02 -0.27091214156E+03  0.30177375882E+03  0.12500000000E+03 0.  0.
         25    1    1    2    0    0  0.21919144298E+02 -0.39314486761E+01 -0.65354464895E+02  0.14280094978E+03  0.12500000000E+03 0.  0.
</event>
<event>
 5    0  0.5532658E-005  0.2362277E+03  0.7546771E-02  0.1122332E+00
         21   -1    0    0  502  501  0.00000000000E+00  0.00000000000E+00  0.15337047033E+03  0.15337047033E+03  0.00000000000E+00 0.  1.
         21   -1    0    0  501  502 -0.00000000000E+00 -0.00000000000E+00 -0.36384788515E+03  0.36384788515E+03  0.00000000000E+00 0.  1.
         25    1    1    2    0    0 -0.97749004120E+01 -0.18997088242E+02 -0.65477637228E+02  0.14271916135E+03  0.12500000000E+03 0.  0.
         25    1    1    2    0    0  0.81305387337E+02  0.94917330285E+02 -0.41461642650E+02  0.18155972408E+03  0.12500000000E+03 0.  0.
         25    1    1    2    0    0 -0.71530486925E+02 -0.75920242043E+02 -0.10353813494E+03  0.19293947004E+03  0.12500000000E+03 0.  0.
</event>
<event>
 5    0  0.5532658E-005  0.4283157E+03  0.7546771E-02  0.1034393E+00
         21   -1    0    0  502  501  0.00000000000E+00  0.00000000000E+00  0.20634491447E+03  0.20634491447E+03  0.00000000000E+00 0.  1.
         21   -1    0    0  501  502 -0.00000000000E+00 -0.00000000000E+00 -0.88906625081E+03  0.88906625081E+03  0.00000000000E+00 0.  1.
         25    1    1    2    0    0 -0.16382821561E+02  0.77390231426E+02  0.33584507746E+02  0.15169233311E+03  0.12500000000E+03 0.  0.
         25    1    1    2    0    0  0.16642261748E+03 -0.25300843691E+03 -0.26425449666E+03  0.42090996159E+03  0.12500000000E+03 0.  0.
         25    1    1    2    0    0 -0.15003979592E+03  0.17561820549E+03 -0.45205134742E+03  0.52280887059E+03  0.12500000000E+03 0.  0.
</event>
<event>
 5    0  0.5532658E-005  0.2698653E+03  0.7546771E-02  0.1101357E+00
         21   -1    0    0  502  501  0.00000000000E+00  0.00000000000E+00  0.49051588542E+03  0.49051588542E+03  0.00000000000E+00 0.  1.
         21   -1    0    0  501  502 -0.00000000000E+00 -0.00000000000E+00 -0.14847075972E+03  0.14847075972E+03  0.00000000000E+00 0.  1.
         25    1    1    2    0    0  0.11412256856E+03  0.56127592132E+02  0.64425840656E+02  0.18960473675E+03  0.12500000000E+03 0.  0.
         25    1    1    2    0    0  0.45187572062E+01 -0.10621910774E+03  0.80430008387E+02  0.18274819907E+03  0.12500000000E+03 0.  0.
         25    1    1    2    0    0 -0.11864132576E+03  0.50091515608E+02  0.19718927665E+03  0.26663370931E+03  0.12500000000E+03 0.  0.
</event>
<event>
 5    0  0.5532658E-005  0.3649954E+03  0.7546771E-02  0.1056623E+00
         21   -1    0    0  502  501  0.00000000000E+00  0.00000000000E+00  0.21901795874E+03  0.21901795874E+03  0.00000000000E+00 0. -1.
         21   -1    0    0  501  502 -0.00000000000E+00 -0.00000000000E+00 -0.60826809098E+03  0.60826809098E+03  0.00000000000E+00 0. -1.
         25    1    1    2    0    0  0.50660551784E+02 -0.12981009496E+03 -0.15083961697E+01  0.18720156922E+03  0.12500000000E+03 0.  0.
         25    1    1    2    0    0  0.18455951210E+03  0.30459070396E+02 -0.16989731696E+03  0.28192209347E+03  0.12500000000E+03 0.  0.
         25    1    1    2    0    0 -0.23522006389E+03  0.99351024566E+02 -0.21784441912E+03  0.35816238702E+03  0.12500000000E+03 0.  0.
</event>
<event>
 5    0  0.5532658E-005  0.3001128E+03  0.7546771E-02  0.1085184E+00
         21   -1    0    0  502  501  0.00000000000E+00  0.00000000000E+00  0.21599349222E+03  0.21599349222E+03  0.00000000000E+00 0.  1.
         21   -1    0    0  501  502 -0.00000000000E+00 -0.00000000000E+00 -0.41699258583E+03  0.41699258583E+03  0.00000000000E+00 0.  1.
         25    1    1    2    0    0  0.12945995130E+03 -0.14519033752E+03 -0.11391571220E+03  0.25776326849E+03  0.12500000000E+03 0.  0.
         25    1    1    2    0    0 -0.68212048126E+02  0.15496594725E+03 -0.10383624001E+03  0.23467912787E+03  0.12500000000E+03 0.  0.
         25    1    1    2    0    0 -0.61247903176E+02 -0.97756097346E+01  0.16752858601E+02  0.14054368168E+03  0.12500000000E+03 0.  0.
</event>
<event>
 5    0  0.5532658E-005  0.3704389E+03  0.7546771E-02  0.1054525E+00
         21   -1    0    0  502  501  0.00000000000E+00  0.00000000000E+00  0.10164742368E+04  0.10164742368E+04  0.00000000000E+00 0.  1.
         21   -1    0    0  501  502 -0.00000000000E+00 -0.00000000000E+00 -0.13500093503E+03  0.13500093503E+03  0.00000000000E+00 0.  1.
         25    1    1    2    0    0  0.11495481165E+03  0.12987712485E+03  0.62972530736E+03  0.66502754756E+03  0.12500000000E+03 0.  0.
         25    1    1    2    0    0 -0.17357255539E+03 -0.90109089648E+02  0.25223077170E+03  0.34277170568E+03  0.12500000000E+03 0.  0.
         25    1    1    2    0    0  0.58617743740E+02 -0.39768035202E+02 -0.48277729875E+00  0.14367591858E+03  0.12500000000E+03 0.  0.
</event>
<event>
 5    0  0.5532658E-005  0.5227294E+03  0.7546771E-02  0.1008011E+00
         21   -1    0    0  502  501  0.00000000000E+00  0.00000000000E+00  0.60880053745E+03  0.60880053745E+03  0.00000000000E+00 0. -1.
         21   -1    0    0  501  502 -0.00000000000E+00 -0.00000000000E+00 -0.44882692559E+03  0.44882692559E+03  0.00000000000E+00 0. -1.
         25    1    1    2    0    0  0.65448196965E+02 -0.26131768809E+03 -0.16424186725E+03  0.33936822414E+03  0.12500000000E+03 0.  0.
         25    1    1    2    0    0  0.13329080396E+02  0.10509758871E+03  0.44319322526E+03  0.47251285956E+03  0.12500000000E+03 0.  0.
         25    1    1    2    0    0 -0.78777277360E+02  0.15622009939E+03 -0.11897774615E+03  0.24574637934E+03  0.12500000000E+03 0.  0.
</event>
<event>
 5    0  0.5532658E-005  0.4529080E+03  0.7546771E-02  0.1026858E+00
         21   -1    0    0  502  501  0.00000000000E+00  0.00000000000E+00  0.73221816727E+02  0.73221816727E+02  0.00000000000E+00 0.  1.
         21   -1    0    0  501  502 -0.00000000000E+00 -0.00000000000E+00 -0.28014285561E+04  0.28014285561E+04  0.00000000000E+00 0.  1.
         25    1    1    2    0    0  0.18445149823E+03 -0.15730222021E+03 -0.63358693296E+03  0.68979978639E+03  0.12500000000E+03 0.  0.
         25    1    1    2    0    0 -0.21060760463E+02  0.29733918949E+03 -0.15861137738E+04  0.16187143209E+04  0.12500000000E+03 0.  0.
         25    1    1    2    0    0 -0.16339073777E+03 -0.14003696928E+03 -0.50850603257E+03  0.56613626550E+03  0.12500000000E+03 0.  0.
</event>
<event>
 5    0  0.5532658E-005  0.4493955E+03  0.7546771E-02  0.1027902E+00
         21   -1    0    0  502  501  0.00000000000E+00  0.00000000000E+00  0.20382822022E+03  0.20382822022E+03  0.00000000000E+00 0. -1.
         21   -1    0    0  501  502 -0.00000000000E+00 -0.00000000000E+00 -0.99081610933E+03  0.99081610933E+03  0.00000000000E+00 0. -1.
         25    1    1    2    0    0  0.99386563086E+02 -0.34248262095E+03 -0.14116623366E+03  0.40339179479E+03  0.12500000000E+03 0.  0.
         25    1    1    2    0    0 -0.11602338269E+03  0.15069395931E+03 -0.31611733063E+03  0.38951926965E+03  0.12500000000E+03 0.  0.
         25    1    1    2    0    0  0.16636819599E+02  0.19178866164E+03 -0.32970432481E+03  0.40173326511E+03  0.12500000000E+03 0.  0.
</event>
<event>
 5    0  0.6022082E-005  0.3100095E+03  0.7546771E-02  0.1080341E+00
         21   -1    0    0  502  501  0.00000000000E+00  0.00000000000E+00  0.27711810368E+03  0.27711810368E+03  0.00000000000E+00 0. -1.
         21   -1    0    0  501  502 -0.00000000000E+00 -0.00000000000E+00 -0.34680482030E+03  0.34680482030E+03  0.00000000000E+00 0.  1.
         25    1    1    2    0    0  0.94103957422E+02 -0.53494078161E+02  0.67316208957E+02  0.17853191084E+03  0.12500000000E+03 0.  0.
         25    1    1    2    0    0 -0.19542579281E+03  0.94072417785E+02 -0.12282883105E+03  0.27884185845E+03  0.12500000000E+03 0.  0.
         25    1    1    2    0    0  0.10132183539E+03 -0.40578339624E+02 -0.14174094523E+02  0.16654915469E+03  0.12500000000E+03 0.  0.
</event>
<event>
 5    0  0.5532658E-005  0.3834786E+03  0.7546771E-02  0.1049656E+00
         21   -1    0    0  502  501  0.00000000000E+00  0.00000000000E+00  0.11343875159E+03  0.11343875159E+03  0.00000000000E+00 0.  1.
         21   -1    0    0  501  502 -0.00000000000E+00 -0.00000000000E+00 -0.12963454890E+04  0.12963454890E+04  0.00000000000E+00 0.  1.
         25    1    1    2    0    0  0.19942104756E+03 -0.64646511481E+02 -0.60462701876E+03  0.65203278864E+03  0.12500000000E+03 0.  0.
         25    1    1    2    0    0 -0.18467030951E+03  0.18289681953E+03 -0.47737387225E+03  0.55773217920E+03  0.12500000000E+03 0.  0.
         25    1    1    2    0    0 -0.14750738049E+02 -0.11825030805E+03 -0.10090584639E+03  0.20001927273E+03  0.12500000000E+03 0.  0.
</event>
<event>
 5    0  0.5532658E-005  0.2348567E+03  0.7546771E-02  0.1123267E+00
         21   -1    0    0  502  501  0.00000000000E+00  0.00000000000E+00  0.16170267154E+03  0.16170267154E+03  0.00000000000E+00 0. -1.
         21   -1    0    0  501  502 -0.00000000000E+00 -0.00000000000E+00 -0.34110561428E+03  0.34110561428E+03  0.00000000000E+00 0. -1.
         25    1    1    2    0    0  0.73727693123E+02 -0.20398194232E+02 -0.13376807467E+03  0.19842065634E+03  0.12500000000E+03 0.  0.
         25    1    1    2    0    0 -0.87724295508E+02 -0.25694315367E+02  0.18331772965E+02  0.15593846147E+03  0.12500000000E+03 0.  0.
         25    1    1    2    0    0  0.13996602385E+02  0.46092509599E+02 -0.63966641029E+02  0.14844916801E+03  0.12500000000E+03 0.  0.
</event>
<event>
 5    0  0.5532658E-005  0.4990109E+03  0.7546771E-02  0.1014037E+00
         21   -1    0    0  502  501  0.00000000000E+00  0.00000000000E+00  0.33009556773E+04  0.33009556773E+04  0.00000000000E+00 0.  1.
         21   -1    0    0  501  502 -0.00000000000E+00 -0.00000000000E+00 -0.75436291460E+02  0.75436291460E+02  0.00000000000E+00 0.  1.
         25    1    1    2    0    0  0.19663114072E+03  0.17387998287E+03  0.94300559332E+03  0.98680423742E+03  0.12500000000E+03 0.  0.
         25    1    1    2    0    0  0.21087528938E+02  0.75746955541E+02  0.99532366835E+02  0.17808418571E+03  0.12500000000E+03 0.  0.
         25    1    1    2    0    0 -0.21771866966E+03 -0.24962693841E+03  0.21829814257E+04  0.22115035456E+04  0.12500000000E+03 0.  0.
</event>
<event>
 5    0  0.5532658E-005  0.2810272E+03  0.7546771E-02  0.1095129E+00
         21   -1    0    0  502  501  0.00000000000E+00  0.00000000000E+00  0.15476800938E+04  0.15476800938E+04  0.00000000000E+00 0.  1.
         21   -1    0    0  501  502 -0.00000000000E+00 -0.00000000000E+00 -0.51028805317E+02  0.51028805317E+02  0.00000000000E+00 0.  1.
         25    1    1    2    0    0  0.60816542702E+02  0.32271900181E+02  0.38803962283E+03  0.41344875897E+03  0.12500000000E+03 0.  0.
         25    1    1    2    0    0  0.13469718384E+03 -0.14956567640E+02  0.42999517166E+03  0.46785454780E+03  0.12500000000E+03 0.  0.
         25    1    1    2    0    0 -0.19551372654E+03 -0.17315332541E+02  0.67861649402E+03  0.71740559237E+03  0.12500000000E+03 0.  0.
</event>
<event>
 5    0  0.5532658E-005  0.4519655E+03  0.7546771E-02  0.1027138E+00
         21   -1    0    0  502  501  0.00000000000E+00  0.00000000000E+00  0.45802138711E+03  0.45802138711E+03  0.00000000000E+00 0. -1.
         21   -1    0    0  501  502 -0.00000000000E+00 -0.00000000000E+00 -0.44598970331E+03  0.44598970331E+03  0.00000000000E+00 0.  1.
         25    1    1    2    0    0 -0.13460286464E+03 -0.30214929857E+03  0.48552870056E+01  0.35363922804E+03  0.12500000000E+03 0.  0.
         25    1    1    2    0    0  0.54092101171E+02  0.35996916891E+03 -0.31681320815E+02  0.38617672647E+03  0.12500000000E+03 0.  0.
         25    1    1    2    0    0  0.80510763467E+02 -0.57819870346E+02  0.38857717609E+02  0.16419513592E+03  0.12500000000E+03 0.  0.
</event>
<event>
 5    0  0.5532658E-005  0.3356975E+03  0.7546771E-02  0.1068643E+00
         21   -1    0    0  502  501  0.00000000000E+00  0.00000000000E+00  0.11460438514E+04  0.11460438514E+04  0.00000000000E+00 0. -1.
         21   -1    0    0  501  502 -0.00000000000E+00 -0.00000000000E+00 -0.98331997262E+02  0.98331997262E+02  0.00000000000E+00 0. -1.
         25    1    1    2    0    0  0.23689886394E+02 -0.82342386614E+02  0.26706543983E+03  0.30706746572E+03  0.12500000000E+03 0.  0.
         25    1    1    2    0    0 -0.11933935491E+03  0.77989235408E+02  0.58833341915E+02  0.19852094245E+03  0.12500000000E+03 0.  0.
         25    1    1    2    0    0  0.95649468520E+02  0.43531512060E+01  0.72181307238E+03  0.73878744048E+03  0.12500000000E+03 0.  0.
</event>
<event>
 5    0  0.5532658E-005  0.2890640E+03  0.7546771E-02  0.1090839E+00
         21   -1    0    0  502  501  0.00000000000E+00  0.00000000000E+00  0.16589280109E+04  0.16589280109E+04  0.00000000000E+00 0. -1.
         21   -1    0    0  501  502 -0.00000000000E+00 -0.00000000000E+00 -0.50368674692E+02  0.50368674692E+02  0.00000000000E+00 0. -1.
         25    1    1    2    0    0  0.24990052365E+02 -0.68285812088E+01  0.62955355527E+03  0.64236579235E+03  0.12500000000E+03 0.  0.
         25    1    1    2    0    0 -0.49135166811E+02 -0.15718049647E+03  0.37471810228E+03  0.42797036026E+03  0.12500000000E+03 0.  0.
         25    1    1    2    0    0  0.24145114446E+02  0.16400907768E+03  0.60428767863E+03  0.63896053294E+03  0.12500000000E+03 0.  0.
</event>
<event>
 5    0  0.5532658E-005  0.3629857E+03  0.7546771E-02  0.1057408E+00
         21   -1    0    0  502  501  0.00000000000E+00  0.00000000000E+00  0.50453247835E+03  0.50453247835E+03  0.00000000000E+00 0.  1.
         21   -1    0    0  501  502 -0.00000000000E+00 -0.00000000000E+00 -0.26114986139E+03  0.26114986139E+03  0.00000000000E+00 0.  1.
         25    1    1    2    0    0  0.79512603726E+02 -0.51265074614E+02  0.52651495958E+02  0.16537092263E+03  0.12500000000E+03 0.  0.
         25    1    1    2    0    0 -0.80825709852E+02 -0.18763142198E+03  0.22487715574E+03  0.32853170480E+03  0.12500000000E+03 0.  0.
         25    1    1    2    0    0  0.13131061258E+01  0.23889649659E+03 -0.34146034739E+02  0.27177971230E+03  0.12500000000E+03 0.  0.
</event>
<event>
 5    0  0.5532658E-005  0.3860111E+03  0.7546771E-02  0.1048734E+00
         21   -1    0    0  502  501  0.00000000000E+00  0.00000000000E+00  0.86095328749E+03  0.86095328749E+03  0.00000000000E+00 0. -1.
         21   -1    0    0  501  502 -0.00000000000E+00 -0.00000000000E+00 -0.17306925088E+03  0.17306925088E+03  0.00000000000E+00 0. -1.
         25    1    1    2    0    0 -0.73227720122E+02  0.12194140218E+03 -0.19896154282E+02  0.19040184220E+03  0.12500000000E+03 0.  0.
         25    1    1    2    0    0  0.11439667409E+02  0.12377449337E+03  0.28587673898E+03  0.33585934718E+03  0.12500000000E+03 0.  0.
         25    1    1    2    0    0  0.61788052712E+02 -0.24571589555E+03  0.42190345192E+03  0.50776134898E+03  0.12500000000E+03 0.  0.
</event>
<event>
 5    0  0.5532658E-005  0.3946399E+03  0.7546771E-02  0.1045652E+00
         21   -1    0    0  502  501  0.00000000000E+00  0.00000000000E+00  0.74417735818E+03  0.74417735818E+03  0.00000000000E+00 0.  1.
         21   -1    0    0  501  502 -0.00000000000E+00 -0.00000000000E+00 -0.20927897952E+03  0.20927897952E+03  0.00000000000E+00 0.  1.
         25    1    1    2    0    0 -0.13135378341E+03  0.14171916937E+03  0.86913918199E+02  0.24600237511E+03  0.12500000000E+03 0.  0.
         25    1    1    2    0    0  0.16236702129E+03  0.80905988256E+01 -0.13446025616E+02  0.20550986107E+03  0.12500000000E+03 0.  0.
         25    1    1    2    0    0 -0.31013237885E+02 -0.14980976819E+03  0.46143048608E+03  0.50194410152E+03  0.12500000000E+03 0.  0.
</event>
<event>
 5    0  0.5532658E-005  0.3422086E+03  0.7546771E-02  0.1065859E+00
         21   -1    0    0  502  501  0.00000000000E+00  0.00000000000E+00  0.22337233820E+03  0.22337233820E+03  0.00000000000E+00 0. -1.
         21   -1    0    0  501  502 -0.00000000000E+00 -0.00000000000E+00 -0.52426698942E+03  0.52426698942E+03  0.00000000000E+00 0. -1.
         25    1    1    2    0    0 -0.13954718787E+03 -0.10672334947E+03  0.26137176838E+02  0.21718987771E+03  0.12500000000E+03 0.  0.
         25    1    1    2    0    0  0.17977115854E+03  0.85234714894E+02 -0.77072231681E+02  0.24728072096E+03  0.12500000000E+03 0.  0.
         25    1    1    2    0    0 -0.40223970663E+02  0.21488634579E+02 -0.24995959638E+03  0.28316872895E+03  0.12500000000E+03 0.  0.
</event>
<event>
 5    0  0.5532658E-005  0.3718398E+03  0.7546771E-02  0.1053992E+00
         21   -1    0    0  502  501  0.00000000000E+00  0.00000000000E+00  0.22365086770E+03  0.22365086770E+03  0.00000000000E+00 0.  1.
         21   -1    0    0  501  502 -0.00000000000E+00 -0.00000000000E+00 -0.61821721062E+03  0.61821721062E+03  0.00000000000E+00 0.  1.
         25    1    1    2    0    0  0.65584001997E+02 -0.88850572662E+02 -0.84243127344E+02  0.18686248978E+03  0.12500000000E+03 0.  0.
         25    1    1    2    0    0 -0.66726657424E+02 -0.77136513557E+02  0.10368556405E+03  0.19177639252E+03  0.12500000000E+03 0.  0.
         25    1    1    2    0    0  0.11426554270E+01  0.16598708622E+03 -0.41400877962E+03  0.46322919603E+03  0.12500000000E+03 0.  0.
</event>
<event>
 5    0  0.5532658E-005  0.6898263E+03  0.7546771E-02  0.9734790E-01
         21   -1    0    0  502  501  0.00000000000E+00  0.00000000000E+00  0.49684923446E+03  0.49684923446E+03  0.00000000000E+00 0. -1.
         21   -1    0    0  501  502 -0.00000000000E+00 -0.00000000000E+00 -0.95775599278E+03  0.95775599278E+03  0.00000000000E+00 0. -1.
         25    1    1    2    0    0 -0.15494083632E+03  0.62599147137E+03 -0.33368856290E+03  0.73678018567E+03  0.12500000000E+03 0.  0.
         25    1    1    2    0    0  0.10086722106E+03 -0.24435889515E+03  0.22734371817E+01  0.29243056345E+03  0.12500000000E+03 0.  0.
         25    1    1    2    0    0  0.54073615257E+02 -0.38163257622E+03 -0.12949163259E+03  0.42539447811E+03  0.12500000000E+03 0.  0.
</event>
<event>
 5    0  0.5532658E-005  0.2336336E+03  0.7546771E-02  0.1124108E+00
         21   -1    0    0  502  501  0.00000000000E+00  0.00000000000E+00  0.14249098803E+03  0.14249098803E+03  0.00000000000E+00 0.  1.
         21   -1    0    0  501  502 -0.00000000000E+00 -0.00000000000E+00 -0.38307439617E+03  0.38307439617E+03  0.00000000000E+00 0.  1.
         25    1    1    2    0    0 -0.48223449639E+02  0.72533865408E+02 -0.69485104735E+02  0.16745101524E+03  0.12500000000E+03 0.  0.
         25    1    1    2    0    0 -0.21521751441E+02 -0.80790248558E+02 -0.23266065672E+02  0.15217279605E+03  0.12500000000E+03 0.  0.
         25    1    1    2    0    0  0.69745201080E+02  0.82563831497E+01 -0.14783223773E+03  0.20594157290E+03  0.12500000000E+03 0.  0.
</event>
<event>
 5    0  0.5532658E-005  0.2300771E+03  0.7546771E-02  0.1126586E+00
         21   -1    0    0  502  501  0.00000000000E+00  0.00000000000E+00  0.20408351290E+02  0.20408351290E+02  0.00000000000E+00 0.  1.
         21   -1    0    0  501  502 -0.00000000000E+00 -0.00000000000E+00 -0.25938140339E+04  0.25938140339E+04  0.00000000000E+00 0.  1.
         25    1    1    2    0    0 -0.42173792650E+02 -0.39829160610E+02 -0.11507670931E+04  0.11589887374E+04  0.12500000000E+03 0.  0.
         25    1    1    2    0    0 -0.43424481362E+02 -0.84763239073E+01 -0.43130575871E+03  0.45122853538E+03  0.12500000000E+03 0.  0.
         25    1    1    2    0    0  0.85598274012E+02  0.48305484517E+02 -0.99133283080E+03  0.10040051124E+04  0.12500000000E+03 0.  0.
</event>
<event>
 5    0  0.5532658E-005  0.4136677E+03  0.7546771E-02  0.1039147E+00
         21   -1    0    0  502  501  0.00000000000E+00  0.00000000000E+00  0.16950924048E+03  0.16950924048E+03  0.00000000000E+00 0.  1.
         21   -1    0    0  501  502 -0.00000000000E+00 -0.00000000000E+00 -0.10095082581E+04  0.10095082581E+04  0.00000000000E+00 0.  1.
         25    1    1    2    0    0 -0.11945730606E+03  0.28282973350E+02  0.88614802705E+02  0.19633531983E+03  0.12500000000E+03 0.  0.
         25    1    1    2    0    0  0.12130311305E+03 -0.38630977709E+02 -0.69482762637E+03  0.71736826529E+03  0.12500000000E+03 0.  0.
         25    1    1    2    0    0 -0.18458069916E+01  0.10348004359E+02 -0.23378619393E+03  0.26531391345E+03  0.12500000000E+03 0.  0.
</event>
<event>
 5    0  0.5532658E-005  0.2966289E+03  0.7546771E-02  0.1086938E+00
         21   -1    0    0  502  501  0.00000000000E+00  0.00000000000E+00  0.75760855918E+02  0.75760855918E+02  0.00000000000E+00 0.  1.
         21   -1    0    0  501  502 -0.00000000000E+00 -0.00000000000E+00 -0.11614004801E+04  0.11614004801E+04  0.00000000000E+00 0.  1.
         25    1    1    2    0    0  0.20216856039E+03 -0.10536256879E+01 -0.42547142265E+03  0.48736451289E+03  0.12500000000E+03 0.  0.
         25    1    1    2    0    0 -0.61262802705E+02 -0.21992584545E+02 -0.42415540468E+03  0.44695593977E+03  0.12500000000E+03 0.  0.
         25    1    1    2    0    0 -0.14090575769E+03  0.23046210232E+02 -0.23601279684E+03  0.30284088335E+03  0.12500000000E+03 0.  0.
</event>
<event>
 5    0  0.5532658E-005  0.3468450E+03  0.7546771E-02  0.1063917E+00
         21   -1    0    0  502  501  0.00000000000E+00  0.00000000000E+00  0.24962723770E+03  0.24962723770E+03  0.00000000000E+00 0.  1.
         21   -1    0    0  501  502 -0.00000000000E+00 -0.00000000000E+00 -0.48192426110E+03  0.48192426110E+03  0.00000000000E+00 0.  1.
         25    1    1    2    0    0 -0.11345960795E+03  0.80774604780E+02 -0.22407305036E+03  0.29194408935E+03  0.12500000000E+03 0.  0.
         25    1    1    2    0    0  0.18705778543E+02 -0.18357512326E+03  0.73989386125E+02  0.23483858561E+03  0.12500000000E+03 0.  0.
         25    1    1    2    0    0  0.94753829405E+02  0.10280051848E+03 -0.82213359170E+02  0.20476882383E+03  0.12500000000E+03 0.  0.
</event>
<event>
 5    0  0.5532658E-005  0.3808584E+03  0.7546771E-02  0.1050617E+00
         21   -1    0    0  502  501  0.00000000000E+00  0.00000000000E+00  0.41998994649E+03  0.41998994649E+03  0.00000000000E+00 0. -1.
         21   -1    0    0  501  502 -0.00000000000E+00 -0.00000000000E+00 -0.34537278378E+03  0.34537278378E+03  0.00000000000E+00 0. -1.
         25    1    1    2    0    0  0.17312497482E+02  0.31024789683E+02 -0.23903025315E+03  0.27207117095E+03  0.12500000000E+03 0.  0.
         25    1    1    2    0    0  0.59780780946E+02  0.10188736996E+03  0.88520226307E+02  0.19343114639E+03  0.12500000000E+03 0.  0.
         25    1    1    2    0    0 -0.77093278428E+02 -0.13291215964E+03  0.22512718955E+03  0.29986041292E+03  0.12500000000E+03 0.  0.
</event>
<event>
 5    0  0.5532658E-005  0.2222249E+03  0.7546771E-02  0.1132235E+00
         21   -1    0    0  502  501  0.00000000000E+00  0.00000000000E+00  0.56294597087E+03  0.56294597087E+03  0.00000000000E+00 0.  1.
         21   -1    0    0  501  502 -0.00000000000E+00 -0.00000000000E+00 -0.87724031107E+02  0.87724031107E+02  0.00000000000E+00 0.  1.
         25    1    1    2    0    0 -0.50338910760E+01  0.32423311244E+02  0.47259948480E+02  0.13760491961E+03  0.12500000000E+03 0.  0.
         25    1    1    2    0    0  0.11121570159E+02 -0.33828925812E+02  0.32824734588E+03  0.35304306482E+03  0.12500000000E+03 0.  0.
         25    1    1    2    0    0 -0.60876790828E+01  0.14056145680E+01  0.99714645403E+02  0.16002201754E+03  0.12500000000E+03 0.  0.
</event>
<event>
 5    0  0.5532658E-005  0.2023939E+03  0.7546771E-02  0.1147735E+00
         21   -1    0    0  502  501  0.00000000000E+00  0.00000000000E+00  0.66020591531E+03  0.66020591531E+03  0.00000000000E+00 0.  1.
         21   -1    0    0  501  502 -0.00000000000E+00 -0.00000000000E+00 -0.62046246503E+02  0.62046246503E+02  0.00000000000E+00 0.  1.
         25    1    1    2    0    0  0.32652031009E+02  0.90224218140E+01  0.18248127611E+03  0.22376768166E+03  0.12500000000E+03 0.  0.
         25    1    1    2    0    0 -0.61270373201E+02 -0.19314454060E+02  0.16514924975E+03  0.21685566965E+03  0.12500000000E+03 0.  0.
         25    1    1    2    0    0  0.28618342192E+02  0.10292032246E+02  0.25052914295E+03  0.28162881051E+03  0.12500000000E+03 0.  0.
</event>
<event>
 5    0  0.5532658E-005  0.2544376E+03  0.7546771E-02  0.1110532E+00
         21   -1    0    0  502  501  0.00000000000E+00  0.00000000000E+00  0.19872219385E+03  0.19872219385E+03  0.00000000000E+00 0.  1.
         21   -1    0    0  501  502 -0.00000000000E+00 -0.00000000000E+00 -0.32577379910E+03  0.32577379910E+03  0.00000000000E+00 0.  1.
         25    1    1    2    0    0 -0.52743823148E+02  0.94490828660E+02 -0.61684923490E+02  0.17646658995E+03  0.12500000000E+03 0.  0.
         25    1    1    2    0    0  0.11990779401E+03 -0.41493670998E+02  0.10881578013E+02  0.17844610541E+03  0.12500000000E+03 0.  0.
         25    1    1    2    0    0 -0.67163970863E+02 -0.52997157662E+02 -0.76248259776E+02  0.16958329759E+03  0.12500000000E+03 0.  0.
</event>
<event>
 5    0  0.5532658E-005  0.2510379E+03  0.7546771E-02  0.1112651E+00
         21   -1    0    0  502  501  0.00000000000E+00  0.00000000000E+00  0.25335540232E+03  0.25335540232E+03  0.00000000000E+00 0.  1.
         21   -1    0    0  501  502 -0.00000000000E+00 -0.00000000000E+00 -0.24874159015E+03  0.24874159015E+03  0.00000000000E+00 0.  1.
         25    1    1    2    0    0 -0.69309845643E+02  0.92254441526E+02  0.69474327576E+01  0.17025863710E+03  0.12500000000E+03 0.  0.
         25    1    1    2    0    0  0.50505333897E+02  0.36864715290E+02 -0.43758107194E+02  0.14645671009E+03  0.12500000000E+03 0.  0.
         25    1    1    2    0    0  0.18804511746E+02 -0.12911915682E+03  0.41424486601E+02  0.18538164529E+03  0.12500000000E+03 0.  0.
</event>
<event>
 5    0  0.5532658E-005  0.3009812E+03  0.7546771E-02  0.1084751E+00
         21   -1    0    0  502  501  0.00000000000E+00  0.00000000000E+00  0.49814766975E+03  0.49814766975E+03  0.00000000000E+00 0. -1.
         21   -1    0    0  501  502 -0.00000000000E+00 -0.00000000000E+00 -0.18185308670E+03  0.18185308670E+03  0.00000000000E+00 0. -1.
         25    1    1    2    0    0  0.89894410318E+02  0.30762710813E+02  0.65926611398E+02  0.17028995118E+03  0.12500000000E+03 0.  0.
         25    1    1    2    0    0 -0.65427301904E+02  0.13618833800E+03  0.18621489296E+02  0.19697653440E+03  0.12500000000E+03 0.  0.
         25    1    1    2    0    0 -0.24467108414E+02 -0.16695104881E+03  0.23174648236E+03  0.31273427087E+03  0.12500000000E+03 0.  0.
</event>
<event>
 5    0  0.5532658E-005  0.3629460E+03  0.7546771E-02  0.1057423E+00
         21   -1    0    0  502  501  0.00000000000E+00  0.00000000000E+00  0.17285559645E+04  0.17285559645E+04  0.00000000000E+00 0. -1.
         21   -1    0    0  501  502 -0.00000000000E+00 -0.00000000000E+00 -0.76207982889E+02  0.76207982889E+02  0.00000000000E+00 0. -1.
         25    1    1    2    0    0 -0.18977565650E+02  0.28460890023E+03  0.65407271335E+03  0.72442976778E+03  0.12500000000E+03 0.  0.
         25    1    1    2    0    0 -0.47384305500E+02 -0.72202067264E+02  0.46362199404E+03  0.48788191633E+03  0.12500000000E+03 0.  0.
         25    1    1    2    0    0  0.66361871150E+02 -0.21240683297E+03  0.53465327423E+03  0.59245226329E+03  0.12500000000E+03 0.  0.
</event>
<event>
 5    0  0.5532658E-005  0.3416740E+03  0.7546771E-02  0.1066085E+00
         21   -1    0    0  502  501  0.00000000000E+00  0.00000000000E+00  0.22180771457E+03  0.22180771457E+03  0.00000000000E+00 0.  1.
         21   -1    0    0  501  502 -0.00000000000E+00 -0.00000000000E+00 -0.52631681119E+03  0.52631681119E+03  0.00000000000E+00 0.  1.
         25    1    1    2    0    0 -0.10114689456E+03  0.77331911235E+01 -0.23717596621E+03  0.28664949934E+03  0.12500000000E+03 0.  0.
         25    1    1    2    0    0 -0.12375000478E+03 -0.17566165375E+01 -0.99512329565E+02  0.20210109629E+03  0.12500000000E+03 0.  0.
         25    1    1    2    0    0  0.22489689934E+03 -0.59765745860E+01  0.32179199148E+02  0.25937393014E+03  0.12500000000E+03 0.  0.
</event>
<event>
 5    0  0.5532658E-005  0.3291301E+03  0.7546771E-02  0.1071522E+00
         21   -1    0    0  502  501  0.00000000000E+00  0.00000000000E+00  0.43762670832E+03  0.43762670832E+03  0.00000000000E+00 0.  1.
         21   -1    0    0  501  502 -0.00000000000E+00 -0.00000000000E+00 -0.24753202577E+03  0.24753202577E+03  0.00000000000E+00 0.  1.
         25    1    1    2    0    0  0.60502137703E+02  0.12916958206E+03  0.16442664284E+03  0.25101077760E+03  0.12500000000E+03 0.  0.
         25    1    1    2    0    0  0.38818969454E+02 -0.18619174272E+03 -0.71728480920E+02  0.23862994871E+03  0.12500000000E+03 0.  0.
         25    1    1    2    0    0 -0.99321107157E+02  0.57022160663E+02  0.97396520631E+02  0.19551800778E+03  0.12500000000E+03 0.  0.
</event>
<event>
 5    0  0.5532658E-005  0.3445705E+03  0.7546771E-02  0.1064866E+00
         21   -1    0    0  502  501  0.00000000000E+00  0.00000000000E+00  0.20136822362E+03  0.20136822362E+03  0.00000000000E+00 0.  1.
         21   -1    0    0  501  502 -0.00000000000E+00 -0.00000000000E+00 -0.58961048778E+03  0.58961048778E+03  0.00000000000E+00 0.  1.
         25    1    1    2    0    0  0.88634987489E+02  0.15274761038E+03 -0.26473894104E+03  0.34190598179E+03  0.12500000000E+03 0.  0.
         25    1    1    2    0    0  0.39639779000E+01  0.45180696209E+02 -0.14459960144E+03  0.19644605664E+03  0.12500000000E+03 0.  0.
         25    1    1    2    0    0 -0.92598965389E+02 -0.19792830658E+03  0.21096278327E+02  0.25262667297E+03  0.12500000000E+03 0.  0.
</event>
<event>
 5    0  0.5532658E-005  0.2921362E+03  0.7546771E-02  0.1089239E+00
         21   -1    0    0  502  501  0.00000000000E+00  0.00000000000E+00  0.20445989834E+03  0.20445989834E+03  0.00000000000E+00 0.  1.
         21   -1    0    0  501  502 -0.00000000000E+00 -0.00000000000E+00 -0.41740977286E+03  0.41740977286E+03  0.00000000000E+00 0.  1.
         25    1    1    2    0    0 -0.41443662656E+02 -0.70211620932E+02 -0.13517784267E+02  0.14984985612E+03  0.12500000000E+03 0.  0.
         25    1    1    2    0    0  0.71264467172E+02  0.19908254745E+03 -0.10762268821E+03  0.26817928331E+03  0.12500000000E+03 0.  0.
         25    1    1    2    0    0 -0.29820804517E+02 -0.12887092652E+03 -0.91809402044E+02  0.20384053176E+03  0.12500000000E+03 0.  0.
</event>
<event>
 5    0  0.5532658E-005  0.2763538E+03  0.7546771E-02  0.1097697E+00
         21   -1    0    0  502  501  0.00000000000E+00  0.00000000000E+00  0.99924888655E+02  0.99924888655E+02  0.00000000000E+00 0.  1.
         21   -1    0    0  501  502 -0.00000000000E+00 -0.00000000000E+00 -0.76428816051E+03  0.76428816051E+03  0.00000000000E+00 0.  1.
         25    1    1    2    0    0 -0.11505388012E+03  0.62131341506E+02 -0.19264015829E+03  0.26425920895E+03  0.12500000000E+03 0.  0.
         25    1    1    2    0    0  0.70380112951E+02  0.59321935085E+02 -0.34956093174E+03  0.38247914621E+03  0.12500000000E+03 0.  0.
         25    1    1    2    0    0  0.44673767165E+02 -0.12145327659E+03 -0.12216218181E+03  0.21747469401E+03  0.12500000000E+03 0.  0.
</event>
<event>
 5    0  0.5532658E-005  0.2556738E+03  0.7546771E-02  0.1109771E+00
         21   -1    0    0  502  501  0.00000000000E+00  0.00000000000E+00  0.42766629829E+03  0.42766629829E+03  0.00000000000E+00 0.  1.
         21   -1    0    0  501  502 -0.00000000000E+00 -0.00000000000E+00 -0.15285067332E+03  0.15285067332E+03  0.00000000000E+00 0.  1.
         25    1    1    2    0    0  0.34472967824E+02  0.68241395654E+02  0.92651728437E+02  0.17336267295E+03  0.12500000000E+03 0.  0.
         25    1    1    2    0    0  0.53732455492E+02  0.56775107474E+02  0.14369419276E+03  0.20587280208E+03  0.12500000000E+03 0.  0.
         25    1    1    2    0    0 -0.88205423316E+02 -0.12501650313E+03  0.38469703768E+02  0.20128149658E+03  0.12500000000E+03 0.  0.
</event>
<event>
 5    0  0.5532658E-005  0.3008895E+03  0.7546771E-02  0.1084797E+00
         21   -1    0    0  502  501  0.00000000000E+00  0.00000000000E+00  0.15016389694E+03  0.15016389694E+03  0.00000000000E+00 0. -1.
         21   -1    0    0  501  502 -0.00000000000E+00 -0.00000000000E+00 -0.60290457464E+03  0.60290457464E+03  0.00000000000E+00 0. -1.
         25    1    1    2    0    0 -0.13408066354E+03  0.15262168846E+03 -0.14381873243E+03  0.27853156360E+03  0.12500000000E+03 0.  0.
         25    1    1    2    0    0  0.13626910602E+03 -0.42174122828E+02 -0.13017803087E+03  0.23004183448E+03  0.12500000000E+03 0.  0.
         25    1    1    2    0    0 -0.21884424838E+01 -0.11044756563E+03 -0.17874391440E+03  0.24449507351E+03  0.12500000000E+03 0.  0.
</event>
<event>
 5    0  0.5532658E-005  0.4676236E+03  0.7546771E-02  0.1022593E+00
         21   -1    0    0  502  501  0.00000000000E+00  0.00000000000E+00  0.22043600404E+03  0.22043600404E+03  0.00000000000E+00 0.  1.
         21   -1    0    0  501  502 -0.00000000000E+00 -0.00000000000E+00 -0.99199708679E+03  0.99199708679E+03  0.00000000000E+00 0.  1.
         25    1    1    2    0    0 -0.29726849249E+02  0.70637676323E+02 -0.11017711244E+03  0.18340491539E+03  0.12500000000E+03 0.  0.
         25    1    1    2    0    0 -0.23674626581E+03  0.15532972464E+03 -0.56725510556E+03  0.64620389392E+03  0.12500000000E+03 0.  0.
         25    1    1    2    0    0  0.26647311506E+03 -0.22596740096E+03 -0.94128864750E+02  0.38282428153E+03  0.12500000000E+03 0.  0.
</event>
<event>
 5    0  0.5532658E-005  0.2473299E+03  0.7546771E-02  0.1115004E+00
         21   -1    0    0  502  501  0.00000000000E+00  0.00000000000E+00  0.93502224149E+03  0.93502224149E+03  0.00000000000E+00 0.  1.
         21   -1    0    0  501  502 -0.00000000000E+00 -0.00000000000E+00 -0.65423150658E+02  0.65423150658E+02  0.00000000000E+00 0.  1.
         25    1    1    2    0    0 -0.38937266753E+02 -0.82265908251E+02  0.53190362886E+03  0.55392261264E+03  0.12500000000E+03 0.  0.
         25    1    1    2    0    0  0.21336159766E+02 -0.21603754985E+02  0.15182356737E+03  0.19899082781E+03  0.12500000000E+03 0.  0.
         25    1    1    2    0    0  0.17601106987E+02  0.10386966324E+03  0.18587189461E+03  0.24753195170E+03  0.12500000000E+03 0.  0.
</event>
<event>
 5    0  0.5532658E-005  0.2235739E+03  0.7546771E-02  0.1131246E+00
         21   -1    0    0  502  501  0.00000000000E+00  0.00000000000E+00  0.20355705668E+03  0.20355705668E+03  0.00000000000E+00 0.  1.
         21   -1    0    0  501  502 -0.00000000000E+00 -0.00000000000E+00 -0.24555908323E+03  0.24555908323E+03  0.00000000000E+00 0.  1.
         25    1    1    2    0    0  0.29697286387E+02 -0.99030050463E+00 -0.28508862930E+02  0.13160799664E+03  0.12500000000E+03 0.  0.
         25    1    1    2    0    0 -0.55312333071E+02 -0.84748643011E+02  0.13620957530E+02  0.16140730208E+03  0.12500000000E+03 0.  0.
         25    1    1    2    0    0  0.25615046683E+02  0.85738943515E+02 -0.27114121154E+02  0.15610084118E+03  0.12500000000E+03 0.  0.
</event>
<event>
 5    0  0.5532658E-005  0.2356500E+03  0.7546771E-02  0.1122725E+00
         21   -1    0    0  502  501  0.00000000000E+00  0.00000000000E+00  0.64862390235E+03  0.64862390235E+03  0.00000000000E+00 0. -1.
         21   -1    0    0  501  502 -0.00000000000E+00 -0.00000000000E+00 -0.85613467733E+02  0.85613467733E+02  0.00000000000E+00 0. -1.
         25    1    1    2    0    0  0.70705920976E+02  0.77986668814E+01  0.12951677364E+03  0.19354519142E+03  0.12500000000E+03 0.  0.
         25    1    1    2    0    0 -0.52457025610E+02  0.90316827653E+02  0.23063103576E+03  0.28235534978E+03  0.12500000000E+03 0.  0.
         25    1    1    2    0    0 -0.18248895366E+02 -0.98115494534E+02  0.20286262522E+03  0.25833682889E+03  0.12500000000E+03 0.  0.
</event>
<event>
 5    0  0.5532658E-005  0.3379744E+03  0.7546771E-02  0.1067662E+00
         21   -1    0    0  502  501  0.00000000000E+00  0.00000000000E+00  0.48121127952E+03  0.48121127952E+03  0.00000000000E+00 0.  1.
         21   -1    0    0  501  502 -0.00000000000E+00 -0.00000000000E+00 -0.23737325725E+03  0.23737325725E+03  0.00000000000E+00 0.  1.
         25    1    1    2    0    0 -0.19457219147E+03  0.51414062023E+02  0.17819152494E+03  0.29644386151E+03  0.12500000000E+03 0.  0.
         25    1    1    2    0    0 -0.28944717415E+02 -0.37550907552E+02  0.94986149835E+02  0.16399767067E+03  0.12500000000E+03 0.  0.
         25    1    1    2    0    0  0.22351690888E+03 -0.13863154472E+02 -0.29339652512E+02  0.25814300459E+03  0.12500000000E+03 0.  0.
</event>
<event>
 5    0  0.5532658E-005  0.2549727E+03  0.7546771E-02  0.1110202E+00
         21   -1    0    0  502  501  0.00000000000E+00  0.00000000000E+00  0.51346559668E+03  0.51346559668E+03  0.00000000000E+00 0. -1.
         21   -1    0    0  501  502 -0.00000000000E+00 -0.00000000000E+00 -0.12661232552E+03  0.12661232552E+03  0.00000000000E+00 0. -1.
         25    1    1    2    0    0  0.34750416507E+02 -0.12350377193E+03  0.10418155991E+03  0.20721865398E+03  0.12500000000E+03 0.  0.
         25    1    1    2    0    0 -0.96112435436E+02  0.35685197729E+02  0.16089752642E+03  0.22808780676E+03  0.12500000000E+03 0.  0.
         25    1    1    2    0    0  0.61362018928E+02  0.87818574204E+02  0.12177418482E+03  0.20477146147E+03  0.12500000000E+03 0.  0.
</event>
<event>
 5    0  0.5532658E-005  0.2413123E+03  0.7546771E-02  0.1118922E+00
         21   -1    0    0  502  501  0.00000000000E+00  0.00000000000E+00  0.88358208486E+03  0.88358208486E+03  0.00000000000E+00 0. -1.
         21   -1    0    0  501  502 -0.00000000000E+00 -0.00000000000E+00 -0.65904036947E+02  0.65904036947E+02  0.00000000000E+00 0. -1.
         25    1    1    2    0    0  0.11523630271E+03 -0.20492383586E+02  0.23542923893E+03  0.29112071344E+03  0.12500000000E+03 0.  0.
         25    1    1    2    0    0 -0.12155033205E+03  0.16337453590E+02  0.26862806848E+03  0.32066717136E+03  0.12500000000E+03 0.  0.
         25    1    1    2    0    0  0.63140293411E+01  0.41549299960E+01  0.31362074050E+03  0.33769823702E+03  0.12500000000E+03 0.  0.
</event>
<event>
 5    0  0.5532658E-005  0.2903770E+03  0.7546771E-02  0.1090152E+00
         21   -1    0    0  502  501  0.00000000000E+00  0.00000000000E+00  0.53001340169E+03  0.53001340169E+03  0.00000000000E+00 0. -1.
         21   -1    0    0  501  502 -0.00000000000E+00 -0.00000000000E+00 -0.15908802305E+03  0.15908802305E+03  0.00000000000E+00 0. -1.
         25    1    1    2    0    0 -0.11000901271E+02 -0.82716011824E+02  0.23410020251E+03  0.27819213370E+03  0.12500000000E+03 0.  0.
         25    1    1    2    0    0 -0.25130827774E+02  0.17874072223E+03  0.42292254806E+02  0.22359212666E+03  0.12500000000E+03 0.  0.
         25    1    1    2    0    0  0.36131729045E+02 -0.96024710410E+02  0.94532921322E+02  0.18731716437E+03  0.12500000000E+03 0.  0.
</event>
<event>
 5    0  0.5532658E-005  0.5230590E+03  0.7546771E-02  0.1007929E+00
         21   -1    0    0  502  501  0.00000000000E+00  0.00000000000E+00  0.12687562711E+04  0.12687562711E+04  0.00000000000E+00 0.  1.
         21   -1    0    0  501  502 -0.00000000000E+00 -0.00000000000E+00 -0.21563691826E+03  0.21563691826E+03  0.00000000000E+00 0.  1.
         25    1    1    2    0    0  0.19609605112E+03  0.34372965639E+03  0.11497479176E+03  0.43063666900E+03  0.12500000000E+03 0.  0.
         25    1    1    2    0    0 -0.14419025162E+03 -0.23419951157E+03  0.65587012464E+03  0.72210169663E+03  0.12500000000E+03 0.  0.
         25    1    1    2    0    0 -0.51905799498E+02 -0.10953014482E+03  0.28227443647E+03  0.33165482377E+03  0.12500000000E+03 0.  0.
</event>
<event>
 5    0  0.5532658E-005  0.5455376E+03  0.7546771E-02  0.1002532E+00
         21   -1    0    0  502  501  0.00000000000E+00  0.00000000000E+00  0.69927406723E+03  0.69927406723E+03  0.00000000000E+00 0. -1.
         21   -1    0    0  501  502 -0.00000000000E+00 -0.00000000000E+00 -0.42560038004E+03  0.42560038004E+03  0.00000000000E+00 0. -1.
         25    1    1    2    0    0 -0.23272465564E+03  0.66490082669E+02  0.11708832599E+03  0.29650695189E+03  0.12500000000E+03 0.  0.
         25    1    1    2    0    0 -0.25335478187E+03 -0.99405273570E+02  0.12460641987E+03  0.32437912045E+03  0.12500000000E+03 0.  0.
         25    1    1    2    0    0  0.48607943751E+03  0.32915190901E+02  0.31978941322E+02  0.50398837492E+03  0.12500000000E+03 0.  0.
</event>
<event>
 5    0  0.5532658E-005  0.3910229E+03  0.7546771E-02  0.1046933E+00
         21   -1    0    0  502  501  0.00000000000E+00  0.00000000000E+00  0.75794970136E+03  0.75794970136E+03  0.00000000000E+00 0.  1.
         21   -1    0    0  501  502 -0.00000000000E+00 -0.00000000000E+00 -0.20172694674E+03  0.20172694674E+03  0.00000000000E+00 0.  1.
         25    1    1    2    0    0 -0.97755434192E+02 -0.71965884811E+02  0.29800191258E+03  0.34520335078E+03  0.12500000000E+03 0.  0.
         25    1    1    2    0    0  0.59226351124E+02  0.21999675719E+03 -0.33649654057E+02  0.26203746499E+03  0.12500000000E+03 0.  0.
         25    1    1    2    0    0  0.38529083068E+02 -0.14803087238E+03  0.29187049609E+03  0.35243583233E+03  0.12500000000E+03 0.  0.
</event>
<event>
 5    0  0.5532658E-005  0.3695652E+03  0.7546771E-02  0.1054859E+00
         21   -1    0    0  502  501  0.00000000000E+00  0.00000000000E+00  0.94885708714E+03  0.94885708714E+03  0.00000000000E+00 0.  1.
         21   -1    0    0  501  502 -0.00000000000E+00 -0.00000000000E+00 -0.14393995301E+03  0.14393995301E+03  0.00000000000E+00 0.  1.
         25    1    1    2    0    0  0.19480259035E+03  0.13143129028E+03  0.63461943962E+03  0.68817807754E+03  0.12500000000E+03 0.  0.
         25    1    1    2    0    0 -0.13565322628E+03 -0.94306220702E+02  0.39949860570E+02  0.21098922348E+03  0.12500000000E+03 0.  0.
         25    1    1    2    0    0 -0.59149364067E+02 -0.37125069583E+02  0.13034783394E+03  0.19362973913E+03  0.12500000000E+03 0.  0.
</event>
<event>
 5    0  0.5532658E-005  0.2960974E+03  0.7546771E-02  0.1087208E+00
         21   -1    0    0  502  501  0.00000000000E+00  0.00000000000E+00  0.41518101527E+03  0.41518101527E+03  0.00000000000E+00 0. -1.
         21   -1    0    0  501  502 -0.00000000000E+00 -0.00000000000E+00 -0.21116979501E+03  0.21116979501E+03  0.00000000000E+00 0. -1.
         25    1    1    2    0    0  0.65463376374E+02  0.36495146023E+02 -0.50659113904E+02  0.15430066478E+03  0.12500000000E+03 0.  0.
         25    1    1    2    0    0 -0.17815456328E+03 -0.41811448654E+02  0.98949637293E+02  0.24269997193E+03  0.12500000000E+03 0.  0.
         25    1    1    2    0    0  0.11269118691E+03  0.53163026302E+01  0.15572069687E+03  0.22935017356E+03  0.12500000000E+03 0.  0.
</event>
<event>
 5    0  0.5532658E-005  0.6539831E+03  0.7546771E-02  0.9799334E-01
         21   -1    0    0  502  501  0.00000000000E+00  0.00000000000E+00  0.15318335123E+03  0.15318335123E+03  0.00000000000E+00 0. -1.
         21   -1    0    0  501  502 -0.00000000000E+00 -0.00000000000E+00 -0.27920390634E+04  0.27920390634E+04  0.00000000000E+00 0. -1.
         25    1    1    2    0    0 -0.21192891851E+03  0.15896629945E+03 -0.20874947362E+04  0.21079476807E+04  0.12500000000E+03 0.  0.
         25    1    1    2    0    0  0.26419368878E+03  0.11985301643E+03 -0.22989932211E+03  0.39069393270E+03  0.12500000000E+03 0.  0.
         25    1    1    2    0    0 -0.52264770273E+02 -0.27881931589E+03 -0.32146165381E+03  0.44658080119E+03  0.12500000000E+03 0.  0.
</event>
<event>
 5    0  0.5532658E-005  0.3114134E+03  0.7546771E-02  0.1079670E+00
         21   -1    0    0  502  501  0.00000000000E+00  0.00000000000E+00  0.14849572224E+03  0.14849572224E+03  0.00000000000E+00 0.  1.
         21   -1    0    0  501  502 -0.00000000000E+00 -0.00000000000E+00 -0.65307152244E+03  0.65307152244E+03  0.00000000000E+00 0.  1.
         25    1    1    2    0    0  0.11547995630E+02  0.28093610461E+02 -0.78435749321E+02  0.15066444147E+03  0.12500000000E+03 0.  0.
         25    1    1    2    0    0 -0.14651465331E+03  0.13434270787E+03 -0.13780060618E+03  0.27226552088E+03  0.12500000000E+03 0.  0.
         25    1    1    2    0    0  0.13496665768E+03 -0.16243631833E+03 -0.28833944470E+03  0.37863728233E+03  0.12500000000E+03 0.  0.
</event>
<event>
 5    0  0.5532658E-005  0.2842768E+03  0.7546771E-02  0.1093376E+00
         21   -1    0    0  502  501  0.00000000000E+00  0.00000000000E+00  0.25186308980E+03  0.25186308980E+03  0.00000000000E+00 0. -1.
         21   -1    0    0  501  502 -0.00000000000E+00 -0.00000000000E+00 -0.32086195475E+03  0.32086195475E+03  0.00000000000E+00 0. -1.
         25    1    1    2    0    0  0.39456171775E+01  0.63476163572E+02  0.69614413295E+02  0.15657572537E+03  0.12500000000E+03 0.  0.
         25    1    1    2    0    0  0.75421819477E+02  0.78549339906E+02 -0.13021370667E+03  0.21080573772E+03  0.12500000000E+03 0.  0.
         25    1    1    2    0    0 -0.79367436654E+02 -0.14202550348E+03 -0.83995715765E+01  0.20534358145E+03  0.12500000000E+03 0.  0.
</event>
<event>
 5    0  0.5532658E-005  0.4057120E+03  0.7546771E-02  0.1041820E+00
         21   -1    0    0  502  501  0.00000000000E+00  0.00000000000E+00  0.25810787400E+03  0.25810787400E+03  0.00000000000E+00 0.  1.
         21   -1    0    0  501  502 -0.00000000000E+00 -0.00000000000E+00 -0.63772635024E+03  0.63772635024E+03  0.00000000000E+00 0.  1.
         25    1    1    2    0    0  0.17619372885E+03  0.76709962212E+02 -0.12049589819E+03  0.25898438152E+03  0.12500000000E+03 0.  0.
         25    1    1    2    0    0  0.10950823420E+03  0.84613921750E+02  0.21035940142E+02  0.18766747158E+03  0.12500000000E+03 0.  0.
         25    1    1    2    0    0 -0.28570196305E+03 -0.16132388396E+03 -0.28015851820E+03  0.44918237114E+03  0.12500000000E+03 0.  0.
</event>
<event>
 5    0  0.5532658E-005  0.3835462E+03  0.7546771E-02  0.1049631E+00
         21   -1    0    0  502  501  0.00000000000E+00  0.00000000000E+00  0.22836634616E+03  0.22836634616E+03  0.00000000000E+00 0. -1.
         21   -1    0    0  501  502 -0.00000000000E+00 -0.00000000000E+00 -0.64417396797E+03  0.64417396797E+03  0.00000000000E+00 0. -1.
         25    1    1    2    0    0  0.58017413751E+02  0.21951431014E+02  0.37391849102E+02  0.14446811413E+03  0.12500000000E+03 0.  0.
         25    1    1    2    0    0  0.15521000955E+03  0.42560623910E+02 -0.42467734403E+03  0.47103863992E+03  0.12500000000E+03 0.  0.
         25    1    1    2    0    0 -0.21322742330E+03 -0.64512054924E+02 -0.28522126886E+02  0.25703356007E+03  0.12500000000E+03 0.  0.
</event>
<event>
 5    0  0.5532658E-005  0.3963148E+03  0.7546771E-02  0.1045063E+00
         21   -1    0    0  502  501  0.00000000000E+00  0.00000000000E+00  0.32123830881E+03  0.32123830881E+03  0.00000000000E+00 0. -1.
         21   -1    0    0  501  502 -0.00000000000E+00 -0.00000000000E+00 -0.48893747438E+03  0.48893747438E+03  0.00000000000E+00 0. -1.
         25    1    1    2    0    0 -0.17242798579E+03  0.32580473167E+02  0.79112533470E+02  0.22951403109E+03  0.12500000000E+03 0.  0.
         25    1    1    2    0    0  0.16441382227E+03 -0.17868894499E+03 -0.70235281338E+01  0.27319585275E+03  0.12500000000E+03 0.  0.
         25    1    1    2    0    0  0.80141635161E+01  0.14610847182E+03 -0.23978817091E+03  0.30746589935E+03  0.12500000000E+03 0.  0.
</event>
<event>
 5    0  0.5532658E-005  0.3001785E+03  0.7546771E-02  0.1085151E+00
         21   -1    0    0  502  501  0.00000000000E+00  0.00000000000E+00  0.58596248233E+03  0.58596248233E+03  0.00000000000E+00 0. -1.
         21   -1    0    0  501  502 -0.00000000000E+00 -0.00000000000E+00 -0.15377633239E+03  0.15377633239E+03  0.00000000000E+00 0. -1.
         25    1    1    2    0    0  0.99909080794E+02 -0.11978706897E+03  0.48330936999E+02  0.20564932723E+03  0.12500000000E+03 0.  0.
         25    1    1    2    0    0  0.67706922438E+02  0.45681828358E+02  0.14582658286E+03  0.20871379700E+03  0.12500000000E+03 0.  0.
         25    1    1    2    0    0 -0.16761600323E+03  0.74105240614E+02  0.23802863008E+03  0.32537569049E+03  0.12500000000E+03 0.  0.
</event>
<event>
 5    0  0.5532658E-005  0.2410061E+03  0.7546771E-02  0.1119124E+00
         21   -1    0    0  502  501  0.00000000000E+00  0.00000000000E+00  0.37482209447E+03  0.37482209447E+03  0.00000000000E+00 0.  1.
         21   -1    0    0  501  502 -0.00000000000E+00 -0.00000000000E+00 -0.15496398884E+03  0.15496398884E+03  0.00000000000E+00 0.  1.
         25    1    1    2    0    0  0.18936915642E+02 -0.98978188512E+01 -0.62158793574E+02  0.14122779192E+03  0.12500000000E+03 0.  0.
         25    1    1    2    0    0 -0.38245287516E+02  0.57834927156E+01  0.90832072006E+02  0.15928470143E+03  0.12500000000E+03 0.  0.
         25    1    1    2    0    0  0.19308371874E+02  0.41143261356E+01  0.19118482719E+03  0.22927358996E+03  0.12500000000E+03 0.  0.
</event>
<event>
 5    0  0.5532658E-005  0.4015565E+03  0.7546771E-02  0.1043242E+00
         21   -1    0    0  502  501  0.00000000000E+00  0.00000000000E+00  0.16999940673E+04  0.16999940673E+04  0.00000000000E+00 0. -1.
         21   -1    0    0  501  502 -0.00000000000E+00 -0.00000000000E+00 -0.94851857855E+02  0.94851857855E+02  0.00000000000E+00 0. -1.
         25    1    1    2    0    0 -0.50212936661E+01  0.64073235786E+02  0.34567121597E+03  0.37315436817E+03  0.12500000000E+03 0.  0.
         25    1    1    2    0    0  0.21159721711E+03 -0.20930023264E+03  0.94913637675E+03  0.10025292172E+04  0.12500000000E+03 0.  0.
         25    1    1    2    0    0 -0.20657592345E+03  0.14522699685E+03  0.31033461676E+03  0.41916233982E+03  0.12500000000E+03 0.  0.
</event>
<event>
 5    0  0.5532658E-005  0.4048062E+03  0.7546771E-02  0.1042128E+00
         21   -1    0    0  502  501  0.00000000000E+00  0.00000000000E+00  0.39169484786E+03  0.39169484786E+03  0.00000000000E+00 0. -1.
         21   -1    0    0  501  502 -0.00000000000E+00 -0.00000000000E+00 -0.41835642239E+03  0.41835642239E+03  0.00000000000E+00 0. -1.
         25    1    1    2    0    0  0.41948073552E+02 -0.80103766223E+02  0.27290876463E+02  0.15667177849E+03  0.12500000000E+03 0.  0.
         25    1    1    2    0    0  0.15153760982E+03  0.26714832010E+03  0.57241505916E+02  0.33650180107E+03  0.12500000000E+03 0.  0.
         25    1    1    2    0    0 -0.19348568337E+03 -0.18704455388E+03 -0.11119395691E+03  0.31687769069E+03  0.12500000000E+03 0.  0.
</event>
<event>
 5    0  0.6197434E-005  0.3541531E+03  0.7546771E-02  0.1060923E+00
         21   -1    0    0  502  501  0.00000000000E+00  0.00000000000E+00  0.22308374370E+03  0.22308374370E+03  0.00000000000E+00 0.  1.
         21   -1    0    0  501  502 -0.00000000000E+00 -0.00000000000E+00 -0.56223014645E+03  0.56223014645E+03  0.00000000000E+00 0.  1.
         25    1    1    2    0    0 -0.31017432782E+02  0.16217781045E+02 -0.36397876137E+03  0.38643322358E+03  0.12500000000E+03 0.  0.
         25    1    1    2    0    0 -0.83134998919E+02 -0.11427274259E+03  0.64278307568E+02  0.19931479766E+03  0.12500000000E+03 0.  0.
         25    1    1    2    0    0  0.11415243170E+03  0.98054961541E+02 -0.39445948944E+02  0.19956586891E+03  0.12500000000E+03 0.  0.
</event>
<event>
 5    0  0.5691965E-005  0.2909284E+03  0.7546771E-02  0.1089865E+00
         21   -1    0    0  502  501  0.00000000000E+00  0.00000000000E+00  0.39568876030E+03  0.39568876030E+03  0.00000000000E+00 0. -1.
         21   -1    0    0  501  502 -0.00000000000E+00 -0.00000000000E+00 -0.21390379335E+03  0.21390379335E+03  0.00000000000E+00 0. -1.
         25    1    1    2    0    0  0.25900330723E+02 -0.42582363503E+02 -0.82597104966E+02  0.15789669585E+03  0.12500000000E+03 0.  0.
         25    1    1    2    0    0  0.82034770834E+02 -0.80190945156E+01  0.18014325601E+02  0.15080956677E+03  0.12500000000E+03 0.  0.
         25    1    1    2    0    0 -0.10793510156E+03  0.50601458018E+02  0.24636774632E+03  0.30088629103E+03  0.12500000000E+03 0.  0.
</event>
<event>
 5    0  0.5532658E-005  0.3976261E+03  0.7546771E-02  0.1044605E+00
         21   -1    0    0  502  501  0.00000000000E+00  0.00000000000E+00  0.36089968884E+03  0.36089968884E+03  0.00000000000E+00 0. -1.
         21   -1    0    0  501  502 -0.00000000000E+00 -0.00000000000E+00 -0.43808982420E+03  0.43808982420E+03  0.00000000000E+00 0. -1.
         25    1    1    2    0    0 -0.60140245976E+02  0.15859978146E+03 -0.41168973124E+02  0.21468727073E+03  0.12500000000E+03 0.  0.
         25    1    1    2    0    0  0.73201007124E+02 -0.16081265994E+03 -0.25336707551E+03  0.33322511009E+03  0.12500000000E+03 0.  0.
         25    1    1    2    0    0 -0.13060761148E+02  0.22128784796E+01  0.21734591327E+03  0.25107713223E+03  0.12500000000E+03 0.  0.
</event>
<event>
 5    0  0.5532658E-005  0.3172514E+03  0.7546771E-02  0.1076921E+00
         21   -1    0    0  502  501  0.00000000000E+00  0.00000000000E+00  0.11344600534E+03  0.11344600534E+03  0.00000000000E+00 0. -1.
         21   -1    0    0  501  502 -0.00000000000E+00 -0.00000000000E+00 -0.88719241412E+03  0.88719241412E+03  0.00000000000E+00 0. -1.
         25    1    1    2    0    0  0.49665435923E+02 -0.21677378187E+03 -0.43900987185E+03  0.50775210055E+03  0.12500000000E+03 0.  0.
         25    1    1    2    0    0 -0.77790986378E+02  0.99397843099E+02 -0.11049958208E+03  0.20920450859E+03  0.12500000000E+03 0.  0.
         25    1    1    2    0    0  0.28125550455E+02  0.11737593877E+03 -0.22423695485E+03  0.28368181033E+03  0.12500000000E+03 0.  0.
</event>
<event>
 5    0  0.5532658E-005  0.3483931E+03  0.7546771E-02  0.1063277E+00
         21   -1    0    0  502  501  0.00000000000E+00  0.00000000000E+00  0.21034087488E+03  0.21034087488E+03  0.00000000000E+00 0. -1.
         21   -1    0    0  501  502 -0.00000000000E+00 -0.00000000000E+00 -0.57705257989E+03  0.57705257989E+03  0.00000000000E+00 0. -1.
         25    1    1    2    0    0 -0.12515565531E+03 -0.73096635697E+02 -0.11127045725E+03  0.22138918416E+03  0.12500000000E+03 0.  0.
         25    1    1    2    0    0 -0.36109310923E+02 -0.10085464002E+03 -0.24813895914E+03  0.29778093255E+03  0.12500000000E+03 0.  0.
         25    1    1    2    0    0  0.16126496623E+03  0.17395127572E+03 -0.73022886268E+01  0.26822333805E+03  0.12500000000E+03 0.  0.
</event>
<event>
 5    0  0.5532658E-005  0.3580000E+03  0.7546771E-02  0.1059379E+00
         21   -1    0    0  502  501  0.00000000000E+00  0.00000000000E+00  0.12506012823E+03  0.12506012823E+03  0.00000000000E+00 0. -1.
         21   -1    0    0  501  502 -0.00000000000E+00 -0.00000000000E+00 -0.10248189227E+04  0.10248189227E+04  0.00000000000E+00 0. -1.
         25    1    1    2    0    0 -0.22312640733E+01  0.36610422579E+02 -0.56454395246E+03  0.57937912962E+03  0.12500000000E+03 0.  0.
         25    1    1    2    0    0  0.32678480487E+01 -0.10051220662E+03 -0.38851189527E+03  0.42033305280E+03  0.12500000000E+03 0.  0.
         25    1    1    2    0    0 -0.10365839754E+01  0.63901784043E+02  0.53297053263E+02  0.15016686851E+03  0.12500000000E+03 0.  0.
</event>
<event>
 5    0  0.5532658E-005  0.9931780E+03  0.7546771E-02  0.9316059E-01
         21   -1    0    0  502  501  0.00000000000E+00  0.00000000000E+00  0.42954727672E+03  0.42954727672E+03  0.00000000000E+00 0.  1.
         21   -1    0    0  501  502 -0.00000000000E+00 -0.00000000000E+00 -0.22963772515E+04  0.22963772515E+04  0.00000000000E+00 0.  1.
         25    1    1    2    0    0  0.12857917066E+03 -0.13578547415E+03 -0.11439461852E+04  0.11658508364E+04  0.12500000000E+03 0.  0.
         25    1    1    2    0    0 -0.33866003171E+03  0.21630128287E+03  0.29254984453E+03  0.51253026602E+03  0.12500000000E+03 0.  0.
         25    1    1    2    0    0  0.21008086106E+03 -0.80515808721E+02 -0.10154336341E+04  0.10475434258E+04  0.12500000000E+03 0.  0.
</event>
<event>
 5    0  0.5532658E-005  0.2743303E+03  0.7546771E-02  0.1098827E+00
         21   -1    0    0  502  501  0.00000000000E+00  0.00000000000E+00  0.26608541648E+03  0.26608541648E+03  0.00000000000E+00 0.  1.
         21   -1    0    0  501  502 -0.00000000000E+00 -0.00000000000E+00 -0.28283058676E+03  0.28283058676E+03  0.00000000000E+00 0.  1.
         25    1    1    2    0    0  0.22009828309E+02  0.89075866293E+02 -0.57345812392E+02  0.16532539036E+03  0.12500000000E+03 0.  0.
         25    1    1    2    0    0 -0.99312590102E+02 -0.11752888748E+02 -0.79409781475E+02  0.17869536743E+03  0.12500000000E+03 0.  0.
         25    1    1    2    0    0  0.77302761793E+02 -0.77322977545E+02  0.12001042360E+03  0.20489524545E+03  0.12500000000E+03 0.  0.
</event>
<event>
 5    0  0.5532658E-005  0.3182921E+03  0.7546771E-02  0.1076438E+00
         21   -1    0    0  502  501  0.00000000000E+00  0.00000000000E+00  0.49576880385E+03  0.49576880385E+03  0.00000000000E+00 0. -1.
         21   -1    0    0  501  502 -0.00000000000E+00 -0.00000000000E+00 -0.20434894522E+03  0.20434894522E+03  0.00000000000E+00 0. -1.
         25    1    1    2    0    0  0.16997397775E+03 -0.81683019888E+02  0.26627819361E+03  0.34941715076E+03  0.12500000000E+03 0.  0.
         25    1    1    2    0    0 -0.13806458961E+03  0.27098561843E+02 -0.45774616286E+02  0.19369170982E+03  0.12500000000E+03 0.  0.
         25    1    1    2    0    0 -0.31909388148E+02  0.54584458045E+02  0.70916281302E+02  0.15700888849E+03  0.12500000000E+03 0.  0.
</event>
<event>
 5    0  0.5532658E-005  0.3906253E+03  0.7546771E-02  0.1047075E+00
         21   -1    0    0  502  501  0.00000000000E+00  0.00000000000E+00  0.52612098067E+03  0.52612098067E+03  0.00000000000E+00 0.  1.
         21   -1    0    0  501  502 -0.00000000000E+00 -0.00000000000E+00 -0.29002474456E+03  0.29002474456E+03  0.00000000000E+00 0.  1.
         25    1    1    2    0    0  0.12772227354E+03  0.20198407576E+03  0.13985501180E+03  0.30380087285E+03  0.12500000000E+03 0.  0.
         25    1    1    2    0    0 -0.74099114805E+02 -0.53178859241E+01  0.20363001859E+03  0.25021819118E+03  0.12500000000E+03 0.  0.
         25    1    1    2    0    0 -0.53623158730E+02 -0.19666618984E+03 -0.10738879427E+03  0.26212666120E+03  0.12500000000E+03 0.  0.
</event>
<event>
 5    0  0.5532658E-005  0.2484501E+03  0.7546771E-02  0.1114288E+00
         21   -1    0    0  502  501  0.00000000000E+00  0.00000000000E+00  0.17201297200E+03  0.17201297200E+03  0.00000000000E+00 0. -1.
         21   -1    0    0  501  502 -0.00000000000E+00 -0.00000000000E+00 -0.35885342241E+03  0.35885342241E+03  0.00000000000E+00 0. -1.
         25    1    1    2    0    0 -0.24812157088E+01  0.20971043193E+02  0.98713837877E+01  0.12715496570E+03  0.12500000000E+03 0.  0.
         25    1    1    2    0    0 -0.56935813749E+02  0.93908852295E+02 -0.13258177166E+03  0.21275216945E+03  0.12500000000E+03 0.  0.
         25    1    1    2    0    0  0.59417029458E+02 -0.11487989549E+03 -0.64130062542E+02  0.19095925926E+03  0.12500000000E+03 0.  0.
</event>
<event>
 5    0  0.5532658E-005  0.2718461E+03  0.7546771E-02  0.1100228E+00
         21   -1    0    0  502  501  0.00000000000E+00  0.00000000000E+00  0.30779663109E+03  0.30779663109E+03  0.00000000000E+00 0.  1.
         21   -1    0    0  501  502 -0.00000000000E+00 -0.00000000000E+00 -0.24009465154E+03  0.24009465154E+03  0.00000000000E+00 0.  1.
         25    1    1    2    0    0  0.26632804255E+02 -0.55977239506E+02  0.12183625613E+02  0.14005783926E+03  0.12500000000E+03 0.  0.
         25    1    1    2    0    0 -0.13730161501E+03  0.12321494020E+03  0.14996363898E+02  0.22334624667E+03  0.12500000000E+03 0.  0.
         25    1    1    2    0    0  0.11066881076E+03 -0.67237700693E+02  0.40521990033E+02  0.18448719670E+03  0.12500000000E+03 0.  0.
</event>
<event>
 5    0  0.5532658E-005  0.2947733E+03  0.7546771E-02  0.1087883E+00
         21   -1    0    0  502  501  0.00000000000E+00  0.00000000000E+00  0.10592661470E+04  0.10592661470E+04  0.00000000000E+00 0. -1.
         21   -1    0    0  501  502 -0.00000000000E+00 -0.00000000000E+00 -0.82029692760E+02  0.82029692760E+02  0.00000000000E+00 0. -1.
         25    1    1    2    0    0  0.63031721129E+02 -0.64259583577E+02  0.13656969635E+03  0.20586056910E+03  0.12500000000E+03 0.  0.
         25    1    1    2    0    0 -0.51579939669E+02  0.11490698213E+03  0.15217891641E+03  0.23376810586E+03  0.12500000000E+03 0.  0.
         25    1    1    2    0    0 -0.11451781460E+02 -0.50647398557E+02  0.68848784146E+03  0.70166716477E+03  0.12500000000E+03 0.  0.
</event>
<event>
 5    0  0.5532658E-005  0.2614853E+03  0.7546771E-02  0.1106254E+00
         21   -1    0    0  502  501  0.00000000000E+00  0.00000000000E+00  0.69199909852E+02  0.69199909852E+02  0.00000000000E+00 0. -1.
         21   -1    0    0  501  502 -0.00000000000E+00 -0.00000000000E+00 -0.98807291056E+03  0.98807291056E+03  0.00000000000E+00 0. -1.
         25    1    1    2    0    0 -0.60286183942E+02 -0.34433067513E+02 -0.10567990352E+03  0.17780129955E+03  0.12500000000E+03 0.  0.
         25    1    1    2    0    0  0.44501334288E+02  0.97546687997E+02 -0.25338426202E+03  0.30219912199E+03  0.12500000000E+03 0.  0.
         25    1    1    2    0    0  0.15784849654E+02 -0.63113620484E+02 -0.55980883517E+03  0.57727239887E+03  0.12500000000E+03 0.  0.
</event>
<event>
 5    0  0.5532658E-005  0.2699129E+03  0.7546771E-02  0.1101329E+00
         21   -1    0    0  502  501  0.00000000000E+00  0.00000000000E+00  0.51731496095E+03  0.51731496095E+03  0.00000000000E+00 0. -1.
         21   -1    0    0  501  502 -0.00000000000E+00 -0.00000000000E+00 -0.14082907607E+03  0.14082907607E+03  0.00000000000E+00 0. -1.
         25    1    1    2    0    0 -0.52281700680E+02  0.79898275551E+02  0.98203497136E+02  0.18543472574E+03  0.12500000000E+03 0.  0.
         25    1    1    2    0    0  0.74432758724E+02  0.15303469054E+02 -0.67973858355E+01  0.14644328660E+03  0.12500000000E+03 0.  0.
         25    1    1    2    0    0 -0.22151058044E+02 -0.95201744605E+02  0.28507977358E+03  0.32626602467E+03  0.12500000000E+03 0.  0.
</event>
<event>
 5    0  0.5532658E-005  0.3346618E+03  0.7546771E-02  0.1069093E+00
         21   -1    0    0  502  501  0.00000000000E+00  0.00000000000E+00  0.68316236462E+03  0.68316236462E+03  0.00000000000E+00 0.  1.
         21   -1    0    0  501  502 -0.00000000000E+00 -0.00000000000E+00 -0.16394124400E+03  0.16394124400E+03  0.00000000000E+00 0.  1.
         25    1    1    2    0    0 -0.83924337307E+02  0.17422326649E+03  0.23011022866E+03  0.32553457315E+03  0.12500000000E+03 0.  0.
         25    1    1    2    0    0  0.17311016670E+03 -0.10141683213E+03  0.74551214513E+02  0.24786162922E+03  0.12500000000E+03 0.  0.
         25    1    1    2    0    0 -0.89185829389E+02 -0.72806434367E+02  0.21455967745E+03  0.27370740625E+03  0.12500000000E+03 0.  0.
</event>
<event>
 5    0  0.5532658E-005  0.2470054E+03  0.7546771E-02  0.1115212E+00
         21   -1    0    0  502  501  0.00000000000E+00  0.00000000000E+00  0.71145596104E+03  0.71145596104E+03  0.00000000000E+00 0. -1.
         21   -1    0    0  501  502 -0.00000000000E+00 -0.00000000000E+00 -0.85756055268E+02  0.85756055268E+02  0.00000000000E+00 0. -1.
         25    1    1    2    0    0 -0.14922872909E+02 -0.46824058835E+02  0.28998683949E+03  0.31958183881E+03  0.12500000000E+03 0.  0.
         25    1    1    2    0    0  0.60771603334E+02 -0.49442072849E+02  0.65548369940E+02  0.16142891668E+03  0.12500000000E+03 0.  0.
         25    1    1    2    0    0 -0.45848730425E+02  0.96266131684E+02  0.27016469634E+03  0.31620126082E+03  0.12500000000E+03 0.  0.
</event>
<event>
 5    0  0.5532658E-005  0.2413381E+03  0.7546771E-02  0.1118905E+00
         21   -1    0    0  502  501  0.00000000000E+00  0.00000000000E+00  0.32746560908E+03  0.32746560908E+03  0.00000000000E+00 0.  1.
         21   -1    0    0  501  502 -0.00000000000E+00 -0.00000000000E+00 -0.17786313526E+03  0.17786313526E+03  0.00000000000E+00 0.  1.
         25    1    1    2    0    0 -0.39300584132E+02  0.45564768452E+02  0.29822193387E+02  0.14189801710E+03  0.12500000000E+03 0.  0.
         25    1    1    2    0    0  0.66643761249E+02 -0.86983810170E+02 -0.22382802053E+02  0.16773062920E+03  0.12500000000E+03 0.  0.
         25    1    1    2    0    0 -0.27343177117E+02  0.41419041719E+02  0.14216308248E+03  0.19570009804E+03  0.12500000000E+03 0.  0.
</event>
<event>
 5    0  0.5770977E-005  0.4022136E+03  0.7546771E-02  0.1043016E+00
         21   -1    0    0  502  501  0.00000000000E+00  0.00000000000E+00  0.42080391403E+03  0.42080391403E+03  0.00000000000E+00 0. -1.
         21   -1    0    0  501  502 -0.00000000000E+00 -0.00000000000E+00 -0.38444454779E+03  0.38444454779E+03  0.00000000000E+00 0. -1.
         25    1    1    2    0    0 -0.22399821056E+03 -0.79009732680E+02 -0.12487047424E+03  0.29603272037E+03  0.12500000000E+03 0.  0.
         25    1    1    2    0    0  0.13730236740E+03  0.19939133199E+03  0.28030686049E+02  0.27389699291E+03  0.12500000000E+03 0.  0.
         25    1    1    2    0    0  0.86695843165E+02 -0.12038159931E+03  0.13319915442E+03  0.23531874854E+03  0.12500000000E+03 0.  0.
</event>
<event>
 5    0  0.5532658E-005  0.2355027E+03  0.7546771E-02  0.1122826E+00
         21   -1    0    0  502  501  0.00000000000E+00  0.00000000000E+00  0.19911645926E+03  0.19911645926E+03  0.00000000000E+00 0. -1.
         21   -1    0    0  501  502 -0.00000000000E+00 -0.00000000000E+00 -0.27853808242E+03  0.27853808242E+03  0.00000000000E+00 0. -1.
         25    1    1    2    0    0  0.10707392733E+03 -0.61822303245E+02  0.14146197159E+02  0.17638576469E+03  0.12500000000E+03 0.  0.
         25    1    1    2    0    0 -0.42629476698E+02  0.34803197715E+01 -0.25791875455E+02  0.13460908494E+03  0.12500000000E+03 0.  0.
         25    1    1    2    0    0 -0.64444450628E+02  0.58341983473E+02 -0.67775944865E+02  0.16665969205E+03  0.12500000000E+03 0.  0.
</event>
<event>
 5    0  0.5532658E-005  0.5488929E+03  0.7546771E-02  0.1001751E+00
         21   -1    0    0  502  501  0.00000000000E+00  0.00000000000E+00  0.47530340257E+03  0.47530340257E+03  0.00000000000E+00 0.  1.
         21   -1    0    0  501  502 -0.00000000000E+00 -0.00000000000E+00 -0.63387601518E+03  0.63387601518E+03  0.00000000000E+00 0.  1.
         25    1    1    2    0    0  0.13601993808E+03 -0.26476304159E+02  0.16833619010E+03  0.25132546854E+03  0.12500000000E+03 0.  0.
         25    1    1    2    0    0  0.48228506384E+02 -0.31607353952E+03 -0.14601784075E+02  0.34360832835E+03  0.12500000000E+03 0.  0.
         25    1    1    2    0    0 -0.18424844446E+03  0.34254984367E+03 -0.31230701865E+03  0.51424562087E+03  0.12500000000E+03 0.  0.
</event>
<event>
 5    0  0.5532658E-005  0.2964805E+03  0.7546771E-02  0.1087013E+00
         21   -1    0    0  502  501  0.00000000000E+00  0.00000000000E+00  0.16785941405E+03  0.16785941405E+03  0.00000000000E+00 0.  1.
         21   -1    0    0  501  502 -0.00000000000E+00 -0.00000000000E+00 -0.52365651335E+03  0.52365651335E+03  0.00000000000E+00 0.  1.
         25    1    1    2    0    0  0.77364864549E+02  0.34685751391E+02 -0.27288083033E+02  0.15348636126E+03  0.12500000000E+03 0.  0.
         25    1    1    2    0    0 -0.16283176328E+03 -0.66535499948E+02 -0.31618074381E+03  0.38280075580E+03  0.12500000000E+03 0.  0.
         25    1    1    2    0    0  0.85466898726E+02  0.31849748557E+02 -0.12328272460E+02  0.15522881035E+03  0.12500000000E+03 0.  0.
</event>
<event>
 5    0  0.5972924E-005  0.3581780E+03  0.7546771E-02  0.1059308E+00
         21   -1    0    0  502  501  0.00000000000E+00  0.00000000000E+00  0.22273597772E+03  0.22273597772E+03  0.00000000000E+00 0.  1.
         21   -1    0    0  501  502 -0.00000000000E+00 -0.00000000000E+00 -0.57598001506E+03  0.57598001506E+03  0.00000000000E+00 0.  1.
         25    1    1    2    0    0 -0.13696331460E+03  0.13998985025E+03 -0.59179944289E+02  0.23975690507E+03  0.12500000000E+03 0.  0.
         25    1    1    2    0    0 -0.17636118288E+02 -0.11531912124E+03 -0.31410162962E+03  0.35762321810E+03  0.12500000000E+03 0.  0.
         25    1    1    2    0    0  0.15459943289E+03 -0.24670729011E+02  0.20037536572E+02  0.20133586961E+03  0.12500000000E+03 0.  0.
</event>
<event>
 5    0  0.5532658E-005  0.2511060E+03  0.7546771E-02  0.1112608E+00
         21   -1    0    0  502  501  0.00000000000E+00  0.00000000000E+00  0.21520090562E+03  0.21520090562E+03  0.00000000000E+00 0.  1.
         21   -1    0    0  501  502 -0.00000000000E+00 -0.00000000000E+00 -0.29300175807E+03  0.29300175807E+03  0.00000000000E+00 0.  1.
         25    1    1    2    0    0  0.19580674782E+02  0.12679501300E+03  0.42131129694E+02  0.18401198394E+03  0.12500000000E+03 0.  0.
         25    1    1    2    0    0 -0.62532090933E+02 -0.73395166866E+02 -0.74578583226E+02  0.17459690144E+03  0.12500000000E+03 0.  0.
         25    1    1    2    0    0  0.42951416151E+02 -0.53399846130E+02 -0.45353398920E+02  0.14959377831E+03  0.12500000000E+03 0.  0.
</event>
<event>
 5    0  0.5532658E-005  0.3251197E+03  0.7546771E-02  0.1073317E+00
         21   -1    0    0  502  501  0.00000000000E+00  0.00000000000E+00  0.17257209108E+04  0.17257209108E+04  0.00000000000E+00 0. -1.
         21   -1    0    0  501  502 -0.00000000000E+00 -0.00000000000E+00 -0.61251384019E+02  0.61251384019E+02  0.00000000000E+00 0. -1.
         25    1    1    2    0    0 -0.56669601975E+02  0.54258443195E+02  0.12792685645E+04  0.12877532693E+04  0.12500000000E+03 0.  0.
         25    1    1    2    0    0 -0.60190450731E+02 -0.25921031807E+02  0.20705285672E+03  0.25058067708E+03  0.12500000000E+03 0.  0.
         25    1    1    2    0    0  0.11686005271E+03 -0.28337411388E+02  0.17814810554E+03  0.24863834843E+03  0.12500000000E+03 0.  0.
</event>
<event>
 5    0  0.5532658E-005  0.2369925E+03  0.7546771E-02  0.1121813E+00
         21   -1    0    0  502  501  0.00000000000E+00  0.00000000000E+00  0.88143734256E+03  0.88143734256E+03  0.00000000000E+00 0.  1.
         21   -1    0    0  501  502 -0.00000000000E+00 -0.00000000000E+00 -0.63720281405E+02  0.63720281405E+02  0.00000000000E+00 0.  1.
         25    1    1    2    0    0 -0.95741548966E+02  0.51249627547E+02  0.27807450962E+03  0.32364085253E+03  0.12500000000E+03 0.  0.
         25    1    1    2    0    0 -0.22834721698E+02 -0.23728776578E+02  0.17800605895E+03  0.21999008245E+03  0.12500000000E+03 0.  0.
         25    1    1    2    0    0  0.11857627066E+03 -0.27520850969E+02  0.36163649258E+03  0.40152668899E+03  0.12500000000E+03 0.  0.
</event>
<event>
 5    0  0.5532658E-005  0.2108087E+03  0.7546771E-02  0.1140927E+00
         21   -1    0    0  502  501  0.00000000000E+00  0.00000000000E+00  0.80974701275E+02  0.80974701275E+02  0.00000000000E+00 0.  1.
         21   -1    0    0  501  502 -0.00000000000E+00 -0.00000000000E+00 -0.54881720116E+03  0.54881720116E+03  0.00000000000E+00 0.  1.
         25    1    1    2    0    0  0.70731104137E+02 -0.24847721707E+02 -0.10173277585E+03  0.17774941926E+03  0.12500000000E+03 0.  0.
         25    1    1    2    0    0 -0.57853680679E+02  0.20793418115E+02 -0.18545578733E+03  0.23194452712E+03  0.12500000000E+03 0.  0.
         25    1    1    2    0    0 -0.12877423458E+02  0.40543035918E+01 -0.18065393670E+03  0.22009795605E+03  0.12500000000E+03 0.  0.
</event>
<event>
 5    0  0.5532658E-005  0.3289253E+03  0.7546771E-02  0.1071613E+00
         21   -1    0    0  502  501  0.00000000000E+00  0.00000000000E+00  0.19797882202E+03  0.19797882202E+03  0.00000000000E+00 0.  1.
         21   -1    0    0  501  502 -0.00000000000E+00 -0.00000000000E+00 -0.54648208473E+03  0.54648208473E+03  0.00000000000E+00 0.  1.
         25    1    1    2    0    0  0.31907450342E+02  0.51271727225E+02 -0.18446208908E+02  0.14004334337E+03  0.12500000000E+03 0.  0.
         25    1    1    2    0    0 -0.13054871869E+03  0.12484019253E+03 -0.28973631092E+03  0.36359341507E+03  0.12500000000E+03 0.  0.
         25    1    1    2    0    0  0.98641268347E+02 -0.17611191975E+03 -0.40320742890E+02  0.24082414831E+03  0.12500000000E+03 0.  0.
</event>
<event>
 5    0  0.5532658E-005  0.2476871E+03  0.7546771E-02  0.1114775E+00
         21   -1    0    0  502  501  0.00000000000E+00  0.00000000000E+00  0.37870726382E+03  0.37870726382E+03  0.00000000000E+00 0. -1.
         21   -1    0    0  501  502 -0.00000000000E+00 -0.00000000000E+00 -0.16199561755E+03  0.16199561755E+03  0.00000000000E+00 0. -1.
         25    1    1    2    0    0 -0.52391755680E+02  0.32382505058E+02  0.18649624972E+03  0.23280758977E+03  0.12500000000E+03 0.  0.
         25    1    1    2    0    0 -0.13602998067E+02  0.48487155439E+02 -0.22704916192E+02  0.13666220772E+03  0.12500000000E+03 0.  0.
         25    1    1    2    0    0  0.65994753748E+02 -0.80869660497E+02  0.52920312744E+02  0.17123308387E+03  0.12500000000E+03 0.  0.
</event>
<event>
 5    0  0.5532658E-005  0.2807762E+03  0.7546771E-02  0.1095266E+00
         21   -1    0    0  502  501  0.00000000000E+00  0.00000000000E+00  0.32722555233E+03  0.32722555233E+03  0.00000000000E+00 0.  1.
         21   -1    0    0  501  502 -0.00000000000E+00 -0.00000000000E+00 -0.24092034067E+03  0.24092034067E+03  0.00000000000E+00 0.  1.
         25    1    1    2    0    0  0.71874198171E+02  0.15106287804E+03  0.11485980603E+03  0.23833520203E+03  0.12500000000E+03 0.  0.
         25    1    1    2    0    0 -0.61206067367E+02 -0.55400597351E+02  0.44044918504E+02  0.15614212665E+03  0.12500000000E+03 0.  0.
         25    1    1    2    0    0 -0.10668130804E+02 -0.95662280692E+02 -0.72599512873E+02  0.17366856432E+03  0.12500000000E+03 0.  0.
</event>
<event>
 5    0  0.5532658E-005  0.4743142E+03  0.7546771E-02  0.1020710E+00
         21   -1    0    0  502  501  0.00000000000E+00  0.00000000000E+00  0.23676267573E+03  0.23676267573E+03  0.00000000000E+00 0.  1.
         21   -1    0    0  501  502 -0.00000000000E+00 -0.00000000000E+00 -0.95020864801E+03  0.95020864801E+03  0.00000000000E+00 0.  1.
         25    1    1    2    0    0  0.21189780409E+03  0.44364033075E+02  0.54052670669E+02  0.25576461447E+03  0.12500000000E+03 0.  0.
         25    1    1    2    0    0 -0.13776330543E+03  0.16997140441E+03 -0.49404225059E+03  0.55459151816E+03  0.12500000000E+03 0.  0.
         25    1    1    2    0    0 -0.74134498655E+02 -0.21433543749E+03 -0.27345639236E+03  0.37661519111E+03  0.12500000000E+03 0.  0.
</event>
<event>
 5    0  0.5532658E-005  0.2509713E+03  0.7546771E-02  0.1112693E+00
         21   -1    0    0  502  501  0.00000000000E+00  0.00000000000E+00  0.14970671904E+03  0.14970671904E+03  0.00000000000E+00 0.  1.
         21   -1    0    0  501  502 -0.00000000000E+00 -0.00000000000E+00 -0.42073307766E+03  0.42073307766E+03  0.00000000000E+00 0.  1.
         25    1    1    2    0    0  0.37194378230E+02 -0.21944330734E+01 -0.59933627946E+02  0.14354538330E+03  0.12500000000E+03 0.  0.
         25    1    1    2    0    0 -0.52734494506E+02  0.13262626644E+03 -0.10803468290E+03  0.21832807005E+03  0.12500000000E+03 0.  0.
         25    1    1    2    0    0  0.15540116277E+02 -0.13043183337E+03 -0.10305804778E+03  0.20856634336E+03  0.12500000000E+03 0.  0.
</event>
<event>
 5    0  0.5532658E-005  0.3396085E+03  0.7546771E-02  0.1066963E+00
         21   -1    0    0  502  501  0.00000000000E+00  0.00000000000E+00  0.15528071845E+04  0.15528071845E+04  0.00000000000E+00 0. -1.
         21   -1    0    0  501  502 -0.00000000000E+00 -0.00000000000E+00 -0.74274452835E+02  0.74274452835E+02  0.00000000000E+00 0. -1.
         25    1    1    2    0    0 -0.20125331709E+03 -0.38562827158E+02  0.26613250006E+03  0.35838735590E+03  0.12500000000E+03 0.  0.
         25    1    1    2    0    0  0.92509228607E+02  0.81362810725E+01  0.27282424564E+03  0.31413727167E+03  0.12500000000E+03 0.  0.
         25    1    1    2    0    0  0.10874408848E+03  0.30426546085E+02  0.93957598599E+03  0.95455700979E+03  0.12500000000E+03 0.  0.
</event>
<event>
 5    0  0.6093243E-005  0.2715728E+03  0.7546771E-02  0.1100383E+00
         21   -1    0    0  502  501  0.00000000000E+00  0.00000000000E+00  0.46382110886E+03  0.46382110886E+03  0.00000000000E+00 0.  1.
         21   -1    0    0  501  502 -0.00000000000E+00 -0.00000000000E+00 -0.15900909156E+03  0.15900909156E+03  0.00000000000E+00 0.  1.
         25    1    1    2    0    0  0.72094967958E+02 -0.11575502619E+03  0.27776296612E+02  0.18706531786E+03  0.12500000000E+03 0.  0.
         25    1    1    2    0    0 -0.53092828743E+02  0.28536111339E+02  0.24083432450E+03  0.27795562591E+03  0.12500000000E+03 0.  0.
         25    1    1    2    0    0 -0.19002139215E+02  0.87218914849E+02  0.36201396185E+02  0.15780925666E+03  0.12500000000E+03 0.  0.
</event>
<event>
 5    0  0.5532658E-005  0.2229801E+03  0.7546771E-02  0.1131681E+00
         21   -1    0    0  502  501  0.00000000000E+00  0.00000000000E+00  0.35402193579E+03  0.35402193579E+03  0.00000000000E+00 0.  1.
         21   -1    0    0  501  502 -0.00000000000E+00 -0.00000000000E+00 -0.14044356630E+03  0.14044356630E+03  0.00000000000E+00 0.  1.
         25    1    1    2    0    0 -0.22695723887E+02 -0.76354631648E+01  0.30950097547E+01  0.12731054656E+03  0.12500000000E+03 0.  0.
         25    1    1    2    0    0  0.31568739460E+02 -0.52878279642E+02  0.17469968176E+03  0.22346739489E+03  0.12500000000E+03 0.  0.
         25    1    1    2    0    0 -0.88730155728E+01  0.60513742806E+02  0.35783677974E+02  0.14368756064E+03  0.12500000000E+03 0.  0.
</event>
<event>
 5    0  0.5532658E-005  0.3762850E+03  0.7546771E-02  0.1052315E+00
         21   -1    0    0  502  501  0.00000000000E+00  0.00000000000E+00  0.43920107532E+03  0.43920107532E+03  0.00000000000E+00 0. -1.
         21   -1    0    0  501  502 -0.00000000000E+00 -0.00000000000E+00 -0.32238167423E+03  0.32238167423E+03  0.00000000000E+00 0. -1.
         25    1    1    2    0    0  0.16657430347E+02  0.15534850325E+03 -0.69036864395E+02  0.21166415874E+03  0.12500000000E+03 0.  0.
         25    1    1    2    0    0 -0.28484880188E+02 -0.24466641820E+03  0.25962690261E+03  0.37908333273E+03  0.12500000000E+03 0.  0.
         25    1    1    2    0    0  0.11827449841E+02  0.89317914948E+02 -0.73770637124E+02  0.17083525808E+03  0.12500000000E+03 0.  0.
</event>
<event>
 5    0  0.5532658E-005  0.4237608E+03  0.7546771E-02  0.1035849E+00
         21   -1    0    0  502  501  0.00000000000E+00  0.00000000000E+00  0.16683925925E+03  0.16683925925E+03  0.00000000000E+00 0.  1.
         21   -1    0    0  501  502 -0.00000000000E+00 -0.00000000000E+00 -0.10763247361E+04  0.10763247361E+04  0.00000000000E+00 0.  1.
         25    1    1    2    0    0  0.81844602733E+02  0.58416626735E+02 -0.50998754183E+03  0.53462447952E+03  0.12500000000E+03 0.  0.
         25    1    1    2    0    0 -0.15432482272E+03 -0.34923724505E+02  0.72560587914E+02  0.21430318794E+03  0.12500000000E+03 0.  0.
         25    1    1    2    0    0  0.72480219991E+02 -0.23492902229E+02 -0.47205852293E+03  0.49423632790E+03  0.12500000000E+03 0.  0.
</event>
<event>
 5    0  0.5532658E-005  0.2858739E+03  0.7546771E-02  0.1092523E+00
         21   -1    0    0  502  501  0.00000000000E+00  0.00000000000E+00  0.19292535215E+03  0.19292535215E+03  0.00000000000E+00 0. -1.
         21   -1    0    0  501  502 -0.00000000000E+00 -0.00000000000E+00 -0.42360366436E+03  0.42360366436E+03  0.00000000000E+00 0. -1.
         25    1    1    2    0    0  0.59192902769E+02 -0.12716399064E+03 -0.45084622986E+02  0.19321517405E+03  0.12500000000E+03 0.  0.
         25    1    1    2    0    0 -0.68632666392E+02  0.32779417404E+02 -0.21851624674E+03  0.26298152633E+03  0.12500000000E+03 0.  0.
         25    1    1    2    0    0  0.94397636232E+01  0.94384573235E+02  0.32922557516E+02  0.16033231613E+03  0.12500000000E+03 0.  0.
</event>
<event>
 5    0  0.5532658E-005  0.2600133E+03  0.7546771E-02  0.1107135E+00
         21   -1    0    0  502  501  0.00000000000E+00  0.00000000000E+00  0.77683714136E+03  0.77683714136E+03  0.00000000000E+00 0. -1.
         21   -1    0    0  501  502 -0.00000000000E+00 -0.00000000000E+00 -0.87028443783E+02  0.87028443783E+02  0.00000000000E+00 0. -1.
         25    1    1    2    0    0  0.83780692457E+02 -0.99820872208E+02  0.11509267099E+03  0.21413718471E+03  0.12500000000E+03 0.  0.
         25    1    1    2    0    0 -0.28493610650E+01  0.75722293418E+01  0.19829970532E+03  0.23454899413E+03  0.12500000000E+03 0.  0.
         25    1    1    2    0    0 -0.80931331392E+02  0.92248642866E+02  0.37641632126E+03  0.41517940631E+03  0.12500000000E+03 0.  0.
</event>
<event>
 5    0  0.5532658E-005  0.3229159E+03  0.7546771E-02  0.1074315E+00
         21   -1    0    0  502  501  0.00000000000E+00  0.00000000000E+00  0.40539942322E+02  0.40539942322E+02  0.00000000000E+00 0.  1.
         21   -1    0    0  501  502 -0.00000000000E+00 -0.00000000000E+00 -0.25721460107E+04  0.25721460107E+04  0.00000000000E+00 0.  1.
         25    1    1    2    0    0 -0.99520324209E+02 -0.13566410098E+02 -0.61545274304E+03  0.63599954507E+03  0.12500000000E+03 0.  0.
         25    1    1    2    0    0 -0.35788913467E+02  0.16272046468E+03 -0.12988008119E+04  0.13153962692E+04  0.12500000000E+03 0.  0.
         25    1    1    2    0    0  0.13530923768E+03 -0.14915405458E+03 -0.61735251337E+03  0.66129013872E+03  0.12500000000E+03 0.  0.
</event>
<event>
 5    0  0.5532658E-005  0.2224599E+03  0.7546771E-02  0.1132062E+00
         21   -1    0    0  502  501  0.00000000000E+00  0.00000000000E+00  0.36740597721E+03  0.36740597721E+03  0.00000000000E+00 0.  1.
         21   -1    0    0  501  502 -0.00000000000E+00 -0.00000000000E+00 -0.13469676007E+03  0.13469676007E+03  0.00000000000E+00 0.  1.
         25    1    1    2    0    0 -0.32151645852E+02 -0.15722545872E+01  0.37328903879E+02  0.13436758307E+03  0.12500000000E+03 0.  0.
         25    1    1    2    0    0 -0.25795315866E+02  0.82281559501E+02  0.96037796614E+02  0.17967724323E+03  0.12500000000E+03 0.  0.
         25    1    1    2    0    0  0.57946961717E+02 -0.80709304914E+02  0.99342516643E+02  0.18805791099E+03  0.12500000000E+03 0.  0.
</event>
<event>
 5    0  0.5532658E-005  0.2801800E+03  0.7546771E-02  0.1095591E+00
         21   -1    0    0  502  501  0.00000000000E+00  0.00000000000E+00  0.98877544744E+03  0.98877544744E+03  0.00000000000E+00 0.  1.
         21   -1    0    0  501  502 -0.00000000000E+00 -0.00000000000E+00 -0.79391969430E+02  0.79391969430E+02  0.00000000000E+00 0.  1.
         25    1    1    2    0    0  0.98672117492E+01 -0.53293691165E+02  0.25411987220E+03  0.28833919059E+03  0.12500000000E+03 0.  0.
         25    1    1    2    0    0 -0.17000992179E+03 -0.59468662201E+01  0.33517864311E+03  0.39611672714E+03  0.12500000000E+03 0.  0.
         25    1    1    2    0    0  0.16014271004E+03  0.59240557385E+02  0.32008496271E+03  0.38371149914E+03  0.12500000000E+03 0.  0.
</event>
<event>
 5    0  0.5532658E-005  0.2750952E+03  0.7546771E-02  0.1098398E+00
         21   -1    0    0  502  501  0.00000000000E+00  0.00000000000E+00  0.49824256970E+02  0.49824256970E+02  0.00000000000E+00 0. -1.
         21   -1    0    0  501  502 -0.00000000000E+00 -0.00000000000E+00 -0.15188861151E+04  0.15188861151E+04  0.00000000000E+00 0. -1.
         25    1    1    2    0    0 -0.15051984781E+03 -0.93343133121E+01 -0.77620053171E+03  0.80053458353E+03  0.12500000000E+03 0.  0.
         25    1    1    2    0    0  0.62398628685E+02  0.80918515068E+02 -0.37402582622E+03  0.40738398793E+03  0.12500000000E+03 0.  0.
         25    1    1    2    0    0  0.88121219123E+02 -0.71584201756E+02 -0.31883550015E+03  0.36079180057E+03  0.12500000000E+03 0.  0.
</event>
<event>
 5    0  0.5532658E-005  0.3781456E+03  0.7546771E-02  0.1051621E+00
         21   -1    0    0  502  501  0.00000000000E+00  0.00000000000E+00  0.94700733380E+03  0.94700733380E+03  0.00000000000E+00 0.  1.
         21   -1    0    0  501  502 -0.00000000000E+00 -0.00000000000E+00 -0.15099579951E+03  0.15099579951E+03  0.00000000000E+00 0.  1.
         25    1    1    2    0    0  0.46042154964E+02  0.69113763463E+01 -0.23652153928E+02  0.13546981783E+03  0.12500000000E+03 0.  0.
         25    1    1    2    0    0 -0.13005732994E+03 -0.18661018554E+03  0.33181910206E+03  0.42126854488E+03  0.12500000000E+03 0.  0.
         25    1    1    2    0    0  0.84015174980E+02  0.17969880919E+03  0.48784458616E+03  0.54126477060E+03  0.12500000000E+03 0.  0.
</event>
<event>
 5    0  0.5532658E-005  0.3021170E+03  0.7546771E-02  0.1084187E+00
         21   -1    0    0  502  501  0.00000000000E+00  0.00000000000E+00  0.86754459963E+03  0.86754459963E+03  0.00000000000E+00 0.  1.
         21   -1    0    0  501  502 -0.00000000000E+00 -0.00000000000E+00 -0.10521037196E+03  0.10521037196E+03  0.00000000000E+00 0.  1.
         25    1    1    2    0    0  0.11552177968E+03 -0.10980609145E+03  0.24001569088E+03  0.31406240012E+03  0.12500000000E+03 0.  0.
         25    1    1    2    0    0 -0.93291943033E+02  0.29613819803E+02  0.55287348665E+02  0.16811322340E+03  0.12500000000E+03 0.  0.
         25    1    1    2    0    0 -0.22229836650E+02  0.80192271649E+02  0.46703118812E+03  0.49057934806E+03  0.12500000000E+03 0.  0.
</event>
<event>
 5    0  0.5532658E-005  0.2907515E+03  0.7546771E-02  0.1089957E+00
         21   -1    0    0  502  501  0.00000000000E+00  0.00000000000E+00  0.37830617611E+03  0.37830617611E+03  0.00000000000E+00 0.  1.
         21   -1    0    0  501  502 -0.00000000000E+00 -0.00000000000E+00 -0.22346031202E+03  0.22346031202E+03  0.00000000000E+00 0.  1.
         25    1    1    2    0    0 -0.33917438665E+02  0.32179703004E+02 -0.42681704771E+02  0.14011657237E+03  0.12500000000E+03 0.  0.
         25    1    1    2    0    0  0.59889707401E+02 -0.15540318683E+02  0.27715169972E+03  0.31026817951E+03  0.12500000000E+03 0.  0.
         25    1    1    2    0    0 -0.25972268736E+02 -0.16639384320E+02 -0.79624130862E+02  0.15138173625E+03  0.12500000000E+03 0.  0.
</event>
<event>
 5    0  0.5532658E-005  0.4050991E+03  0.7546771E-02  0.1042028E+00
         21   -1    0    0  502  501  0.00000000000E+00  0.00000000000E+00  0.24047771036E+03  0.24047771036E+03  0.00000000000E+00 0. -1.
         21   -1    0    0  501  502 -0.00000000000E+00 -0.00000000000E+00 -0.68241383344E+03  0.68241383344E+03  0.00000000000E+00 0. -1.
         25    1    1    2    0    0  0.48496665204E+02  0.10571569706E+03 -0.27556499926E+03  0.32417403344E+03  0.12500000000E+03 0.  0.
         25    1    1    2    0    0 -0.93356250310E+01 -0.30833610655E+03 -0.11401135779E+03  0.35182651719E+03  0.12500000000E+03 0.  0.
         25    1    1    2    0    0 -0.39161040172E+02  0.20262040949E+03 -0.52359766042E+02  0.24689099317E+03  0.12500000000E+03 0.  0.
</event>
<event>
 5    0  0.5532658E-005  0.4093345E+03  0.7546771E-02  0.1040595E+00
         21   -1    0    0  502  501  0.00000000000E+00  0.00000000000E+00  0.38639694401E+03  0.38639694401E+03  0.00000000000E+00 0. -1.
         21   -1    0    0  501  502 -0.00000000000E+00 -0.00000000000E+00 -0.43363371467E+03  0.43363371467E+03  0.00000000000E+00 0. -1.
         25    1    1    2    0    0  0.11984552002E+03  0.46045464733E+02  0.12415089060E+03  0.21799444288E+03  0.12500000000E+03 0.  0.
         25    1    1    2    0    0  0.93016310928E+02  0.50487522937E+02 -0.27284285923E+03  0.31822829840E+03  0.12500000000E+03 0.  0.
         25    1    1    2    0    0 -0.21286183094E+03 -0.96532987670E+02  0.10145519797E+03  0.28380791740E+03  0.12500000000E+03 0.  0.
</event>
<event>
 5    0  0.5532658E-005  0.3807134E+03  0.7546771E-02  0.1050670E+00
         21   -1    0    0  502  501  0.00000000000E+00  0.00000000000E+00  0.45206792498E+03  0.45206792498E+03  0.00000000000E+00 0.  1.
         21   -1    0    0  501  502 -0.00000000000E+00 -0.00000000000E+00 -0.32062146781E+03  0.32062146781E+03  0.00000000000E+00 0.  1.
         25    1    1    2    0    0  0.76636460069E+02 -0.13449379717E+03  0.12156172468E+02  0.19933514748E+03  0.12500000000E+03 0.  0.
         25    1    1    2    0    0 -0.17429466667E+03 -0.53215301456E+02  0.21622122238E+03  0.30917166129E+03  0.12500000000E+03 0.  0.
         25    1    1    2    0    0  0.97658206599E+02  0.18770909863E+03 -0.96930937675E+02  0.26418258403E+03  0.12500000000E+03 0.  0.
</event>
<event>
 5    0  0.5532658E-005  0.2843189E+03  0.7546771E-02  0.1093353E+00
         21   -1    0    0  502  501  0.00000000000E+00  0.00000000000E+00  0.26171626320E+03  0.26171626320E+03  0.00000000000E+00 0. -1.
         21   -1    0    0  501  502 -0.00000000000E+00 -0.00000000000E+00 -0.30887361788E+03  0.30887361788E+03  0.00000000000E+00 0. -1.
         25    1    1    2    0    0 -0.42195679074E+02  0.39990178026E+02  0.27586076556E+02  0.14059047368E+03  0.12500000000E+03 0.  0.
         25    1    1    2    0    0 -0.14223510237E+03  0.85867322154E+01  0.15007962450E+01  0.18955687460E+03  0.12500000000E+03 0.  0.
         25    1    1    2    0    0  0.18443078145E+03 -0.48576910241E+02 -0.76244227490E+02  0.24044253280E+03  0.12500000000E+03 0.  0.
</event>
<event>
 5    0  0.5532658E-005  0.3326407E+03  0.7546771E-02  0.1069974E+00
         21   -1    0    0  502  501  0.00000000000E+00  0.00000000000E+00  0.10139380978E+03  0.10139380978E+03  0.00000000000E+00 0.  1.
         21   -1    0    0  501  502 -0.00000000000E+00 -0.00000000000E+00 -0.10912881436E+04  0.10912881436E+04  0.00000000000E+00 0.  1.
         25    1    1    2    0    0 -0.27525091433E+02 -0.10744642741E+03 -0.38328400916E+03  0.41813155478E+03  0.12500000000E+03 0.  0.
         25    1    1    2    0    0 -0.14455902473E+03  0.13988800302E+03 -0.18252153879E+03  0.29900681789E+03  0.12500000000E+03 0.  0.
         25    1    1    2    0    0  0.17208411617E+03 -0.32441575609E+02 -0.42408878590E+03  0.47554358075E+03  0.12500000000E+03 0.  0.
</event>
<event>
 5    0  0.5532658E-005  0.2454602E+03  0.7546771E-02  0.1116208E+00
         21   -1    0    0  502  501  0.00000000000E+00  0.00000000000E+00  0.13554167178E+04  0.13554167178E+04  0.00000000000E+00 0. -1.
         21   -1    0    0  501  502 -0.00000000000E+00 -0.00000000000E+00 -0.44451790128E+02  0.44451790128E+02  0.00000000000E+00 0. -1.
         25    1    1    2    0    0 -0.14819144424E+02  0.68558967768E+02  0.18451096966E+03  0.23364339714E+03  0.12500000000E+03 0.  0.
         25    1    1    2    0    0 -0.45021333377E+02 -0.42738766425E+02  0.77653716116E+03  0.78897939471E+03  0.12500000000E+03 0.  0.
         25    1    1    2    0    0  0.59840477800E+02 -0.25820201342E+02  0.34991679687E+03  0.37724571609E+03  0.12500000000E+03 0.  0.
</event>
<event>
 5    0  0.5532658E-005  0.2480415E+03  0.7546771E-02  0.1114549E+00
         21   -1    0    0  502  501  0.00000000000E+00  0.00000000000E+00  0.81818856884E+03  0.81818856884E+03  0.00000000000E+00 0.  1.
         21   -1    0    0  501  502 -0.00000000000E+00 -0.00000000000E+00 -0.75196096635E+02  0.75196096635E+02  0.00000000000E+00 0.  1.
         25    1    1    2    0    0 -0.17042342264E+02 -0.48036130988E+02  0.47673043371E+03  0.49547433610E+03  0.12500000000E+03 0.  0.
         25    1    1    2    0    0 -0.37149646565E+02  0.52397092431E+02  0.20480295452E+03  0.24838438299E+03  0.12500000000E+03 0.  0.
         25    1    1    2    0    0  0.54191988829E+02 -0.43609614432E+01  0.61459083979E+02  0.14952594638E+03  0.12500000000E+03 0.  0.
</event>
<event>
 5    0  0.5532658E-005  0.3067323E+03  0.7546771E-02  0.1081923E+00
         21   -1    0    0  502  501  0.00000000000E+00  0.00000000000E+00  0.21499577312E+03  0.21499577312E+03  0.00000000000E+00 0.  1.
         21   -1    0    0  501  502 -0.00000000000E+00 -0.00000000000E+00 -0.43761176239E+03  0.43761176239E+03  0.00000000000E+00 0.  1.
         25    1    1    2    0    0 -0.19389606566E+03  0.29850499282E+01 -0.14998646007E+02  0.23120240956E+03  0.12500000000E+03 0.  0.
         25    1    1    2    0    0  0.55963469262E+01  0.23452007846E+02 -0.12746193607E+03  0.18014677604E+03  0.12500000000E+03 0.  0.
         25    1    1    2    0    0  0.18829971874E+03 -0.26437057774E+02 -0.80155407184E+02  0.24125834991E+03  0.12500000000E+03 0.  0.
</event>
<event>
 5    0  0.7357251E-005  0.2765898E+03  0.7546771E-02  0.1097566E+00
         21   -1    0    0  502  501  0.00000000000E+00  0.00000000000E+00  0.10443307377E+03  0.10443307377E+03  0.00000000000E+00 0. -1.
         21   -1    0    0  501  502 -0.00000000000E+00 -0.00000000000E+00 -0.73254471559E+03  0.73254471559E+03  0.00000000000E+00 0. -1.
         25    1    1    2    0    0 -0.23380497603E+02  0.79754450903E+01 -0.37803979718E+03  0.39893526247E+03  0.12500000000E+03 0.  0.
         25    1    1    2    0    0  0.84173535996E+02  0.13386794253E+02 -0.25591397629E+03  0.29729001611E+03  0.12500000000E+03 0.  0.
         25    1    1    2    0    0 -0.60793038392E+02 -0.21362239343E+02  0.58421316519E+01  0.14075251077E+03  0.12500000000E+03 0.  0.
</event>
<event>
 5    0  0.5532658E-005  0.2878329E+03  0.7546771E-02  0.1091486E+00
         21   -1    0    0  502  501  0.00000000000E+00  0.00000000000E+00  0.22648142957E+03  0.22648142957E+03  0.00000000000E+00 0.  1.
         21   -1    0    0  501  502 -0.00000000000E+00 -0.00000000000E+00 -0.36580373744E+03  0.36580373744E+03  0.00000000000E+00 0.  1.
         25    1    1    2    0    0 -0.11449718917E+02 -0.18980237498E+03 -0.45286579802E+02  0.23201705093E+03  0.12500000000E+03 0.  0.
         25    1    1    2    0    0  0.74100178559E+01  0.49966159634E+02  0.26334131768E+02  0.13736816214E+03  0.12500000000E+03 0.  0.
         25    1    1    2    0    0  0.40397010606E+01  0.13983621535E+03 -0.12036985984E+03  0.22289995394E+03  0.12500000000E+03 0.  0.
</event>
<event>
 5    0  0.5532658E-005  0.3780324E+03  0.7546771E-02  0.1051663E+00
         21   -1    0    0  502  501  0.00000000000E+00  0.00000000000E+00  0.46985159196E+03  0.46985159196E+03  0.00000000000E+00 0.  1.
         21   -1    0    0  501  502 -0.00000000000E+00 -0.00000000000E+00 -0.30415663083E+03  0.30415663083E+03  0.00000000000E+00 0.  1.
         25    1    1    2    0    0 -0.38614032375E+02  0.20767961523E+03  0.20058564061E+02  0.24627060740E+03  0.12500000000E+03 0.  0.
         25    1    1    2    0    0  0.33513760536E+02 -0.86007715289E+02  0.27132697692E+03  0.31267207684E+03  0.12500000000E+03 0.  0.
         25    1    1    2    0    0  0.51002718389E+01 -0.12167189994E+03 -0.12569057985E+03  0.21506553855E+03  0.12500000000E+03 0.  0.
</event>
<event>
 5    0  0.5532658E-005  0.3263878E+03  0.7546771E-02  0.1072746E+00
         21   -1    0    0  502  501  0.00000000000E+00  0.00000000000E+00  0.14784655222E+04  0.14784655222E+04  0.00000000000E+00 0. -1.
         21   -1    0    0  501  502 -0.00000000000E+00 -0.00000000000E+00 -0.72053777467E+02  0.72053777467E+02  0.00000000000E+00 0. -1.
         25    1    1    2    0    0  0.15888791468E+03  0.16462075513E+03  0.45292024464E+03  0.52259650827E+03  0.12500000000E+03 0.  0.
         25    1    1    2    0    0 -0.93862289061E+02 -0.12933213570E+03  0.32710335703E+03  0.38491367449E+03  0.12500000000E+03 0.  0.
         25    1    1    2    0    0 -0.65025625622E+02 -0.35288619437E+02  0.62638814308E+03  0.64300911692E+03  0.12500000000E+03 0.  0.
</event>
<event>
 5    0  0.5532658E-005  0.5105443E+03  0.7546771E-02  0.1011063E+00
         21   -1    0    0  502  501  0.00000000000E+00  0.00000000000E+00  0.24939007573E+03  0.24939007573E+03  0.00000000000E+00 0.  1.
         21   -1    0    0  501  502 -0.00000000000E+00 -0.00000000000E+00 -0.10451717995E+04  0.10451717995E+04  0.00000000000E+00 0.  1.
         25    1    1    2    0    0 -0.10844084619E+03  0.35651299934E+03 -0.50225654110E+03  0.63776764492E+03  0.12500000000E+03 0.  0.
         25    1    1    2    0    0  0.10961510692E+03 -0.13839222291E+03  0.58618762985E+02  0.22411835802E+03  0.12500000000E+03 0.  0.
         25    1    1    2    0    0 -0.11742607279E+01 -0.21812077643E+03 -0.35214394562E+03  0.43267587226E+03  0.12500000000E+03 0.  0.
</event>
<event>
 5    0  0.5532658E-005  0.4600653E+03  0.7546771E-02  0.1024762E+00
         21   -1    0    0  502  501  0.00000000000E+00  0.00000000000E+00  0.56876989399E+03  0.56876989399E+03  0.00000000000E+00 0.  1.
         21   -1    0    0  501  502 -0.00000000000E+00 -0.00000000000E+00 -0.37213652888E+03  0.37213652888E+03  0.00000000000E+00 0.  1.
         25    1    1    2    0    0 -0.21048506491E+02 -0.23420444969E+03  0.75363307166E+02  0.27676595157E+03  0.12500000000E+03 0.  0.
         25    1    1    2    0    0  0.20479689609E+03  0.25665743610E+03  0.22567805858E+03  0.41757681242E+03  0.12500000000E+03 0.  0.
         25    1    1    2    0    0 -0.18374838960E+03 -0.22452986404E+02 -0.10440800063E+03  0.24656365887E+03  0.12500000000E+03 0.  0.
</event>
<event>
 5    0  0.6345709E-005  0.6709634E+03  0.7546771E-02  0.9768219E-01
         21   -1    0    0  502  501  0.00000000000E+00  0.00000000000E+00  0.58897128323E+03  0.58897128323E+03  0.00000000000E+00 0. -1.
         21   -1    0    0  501  502 -0.00000000000E+00 -0.00000000000E+00 -0.76436984959E+03  0.76436984959E+03  0.00000000000E+00 0. -1.
         25    1    1    2    0    0 -0.14083384069E+02  0.11261407230E+03 -0.53989205098E+03  0.56567543494E+03  0.12500000000E+03 0.  0.
         25    1    1    2    0    0  0.12681667557E+03  0.21135451378E+03  0.31530350294E+03  0.41927854544E+03  0.12500000000E+03 0.  0.
         25    1    1    2    0    0 -0.11273329150E+03 -0.32396858608E+03  0.49189981677E+02  0.36838715243E+03  0.12500000000E+03 0.  0.
</event>
<event>
 5    0  0.5532658E-005  0.2708330E+03  0.7546771E-02  0.1100804E+00
         21   -1    0    0  502  501  0.00000000000E+00  0.00000000000E+00  0.78522854299E+03  0.78522854299E+03  0.00000000000E+00 0. -1.
         21   -1    0    0  501  502 -0.00000000000E+00 -0.00000000000E+00 -0.93412952841E+02  0.93412952841E+02  0.00000000000E+00 0. -1.
         25    1    1    2    0    0  0.33822404488E+02  0.49191497929E+02  0.40498916006E+02  0.14432228072E+03  0.12500000000E+03 0.  0.
         25    1    1    2    0    0  0.60881328538E+02  0.26352678762E+02  0.16275585919E+03  0.21567445269E+03  0.12500000000E+03 0.  0.
         25    1    1    2    0    0 -0.94703733026E+02 -0.75544176691E+02  0.48856081496E+03  0.51864476242E+03  0.12500000000E+03 0.  0.
</event>
<event>
 5    0  0.5532658E-005  0.2541704E+03  0.7546771E-02  0.1110697E+00
         21   -1    0    0  502  501  0.00000000000E+00  0.00000000000E+00  0.15761152246E+03  0.15761152246E+03  0.00000000000E+00 0. -1.
         21   -1    0    0  501  502 -0.00000000000E+00 -0.00000000000E+00 -0.40988482804E+03  0.40988482804E+03  0.00000000000E+00 0. -1.
         25    1    1    2    0    0 -0.89879811038E+02  0.80489540280E+02  0.47143434403E+01  0.17379347387E+03  0.12500000000E+03 0.  0.
         25    1    1    2    0    0  0.29637229789E+02 -0.62472101144E+02 -0.19229185512E+03  0.23954600050E+03  0.12500000000E+03 0.  0.
         25    1    1    2    0    0  0.60242581249E+02 -0.18017439137E+02 -0.64695793905E+02  0.15415687613E+03  0.12500000000E+03 0.  0.
</event>
<event>
 5    0  0.5532658E-005  0.3231627E+03  0.7546771E-02  0.1074203E+00
         21   -1    0    0  502  501  0.00000000000E+00  0.00000000000E+00  0.47942489639E+03  0.47942489639E+03  0.00000000000E+00 0. -1.
         21   -1    0    0  501  502 -0.00000000000E+00 -0.00000000000E+00 -0.21783211220E+03  0.21783211220E+03  0.00000000000E+00 0. -1.
         25    1    1    2    0    0  0.10919251384E+03 -0.67056464516E+02  0.10137808732E+03  0.20572333630E+03  0.12500000000E+03 0.  0.
         25    1    1    2    0    0  0.98075109878E+02  0.13067239883E+03  0.11971570405E+03  0.23801439618E+03  0.12500000000E+03 0.  0.
         25    1    1    2    0    0 -0.20726762371E+03 -0.63615934312E+02  0.40498992830E+02  0.25351927611E+03  0.12500000000E+03 0.  0.
</event>
<event>
 5    0  0.5532658E-005  0.2473327E+03  0.7546771E-02  0.1115002E+00
         21   -1    0    0  502  501  0.00000000000E+00  0.00000000000E+00  0.94863211731E+02  0.94863211731E+02  0.00000000000E+00 0. -1.
         21   -1    0    0  501  502 -0.00000000000E+00 -0.00000000000E+00 -0.64485993255E+03  0.64485993255E+03  0.00000000000E+00 0. -1.
         25    1    1    2    0    0 -0.58371013946E+02  0.10568205256E+03 -0.35664078958E+03  0.39672852720E+03  0.12500000000E+03 0.  0.
         25    1    1    2    0    0  0.11211179559E+02 -0.34458460569E+02 -0.70470485650E+02  0.14800055878E+03  0.12500000000E+03 0.  0.
         25    1    1    2    0    0  0.47159834386E+02 -0.71223591988E+02 -0.12288544559E+03  0.19499405830E+03  0.12500000000E+03 0.  0.
</event>
<event>
 5    0  0.5532658E-005  0.2908256E+03  0.7546771E-02  0.1089919E+00
         21   -1    0    0  502  501  0.00000000000E+00  0.00000000000E+00  0.71883228117E+03  0.71883228117E+03  0.00000000000E+00 0. -1.
         21   -1    0    0  501  502 -0.00000000000E+00 -0.00000000000E+00 -0.11766236893E+03  0.11766236893E+03  0.00000000000E+00 0. -1.
         25    1    1    2    0    0 -0.17140474389E+03  0.80964867342E+02  0.17296172750E+03  0.28543940715E+03  0.12500000000E+03 0.  0.
         25    1    1    2    0    0  0.12728587422E+03  0.16155826981E+02  0.26150752742E+03  0.31697616853E+03  0.12500000000E+03 0.  0.
         25    1    1    2    0    0  0.44118869666E+02 -0.97120694323E+02  0.16670065732E+03  0.23407907441E+03  0.12500000000E+03 0.  0.
</event>
<event>
 5    0  0.5532658E-005  0.2638379E+03  0.7546771E-02  0.1104859E+00
         21   -1    0    0  502  501  0.00000000000E+00  0.00000000000E+00  0.10990851317E+03  0.10990851317E+03  0.00000000000E+00 0.  1.
         21   -1    0    0  501  502 -0.00000000000E+00 -0.00000000000E+00 -0.63334910198E+03  0.63334910198E+03  0.00000000000E+00 0.  1.
         25    1    1    2    0    0 -0.27064688534E+02  0.10958782669E+03 -0.10731381307E+03  0.19970789568E+03  0.12500000000E+03 0.  0.
         25    1    1    2    0    0  0.29448028000E+02 -0.11366543396E+03 -0.37418822629E+03  0.41161735377E+03  0.12500000000E+03 0.  0.
         25    1    1    2    0    0 -0.23833394666E+01  0.40776072716E+01 -0.41938549451E+02  0.13193236570E+03  0.12500000000E+03 0.  0.
</event>
<event>
 5    0  0.5532658E-005  0.2475406E+03  0.7546771E-02  0.1114869E+00
         21   -1    0    0  502  501  0.00000000000E+00  0.00000000000E+00  0.80624348475E+02  0.80624348475E+02  0.00000000000E+00 0.  1.
         21   -1    0    0  501  502 -0.00000000000E+00 -0.00000000000E+00 -0.76002286464E+03  0.76002286464E+03  0.00000000000E+00 0.  1.
         25    1    1    2    0    0 -0.80826247719E+01 -0.10469679463E+03 -0.28063652642E+03  0.32466691791E+03  0.12500000000E+03 0.  0.
         25    1    1    2    0    0 -0.56973815115E+02  0.10207582749E+02 -0.26957952955E+03  0.30273475702E+03  0.12500000000E+03 0.  0.
         25    1    1    2    0    0  0.65056439887E+02  0.94489211879E+02 -0.12918246020E+03  0.21324553818E+03  0.12500000000E+03 0.  0.
</event>
<event>
 5    0  0.5532658E-005  0.3686304E+03  0.7546771E-02  0.1055218E+00
         21   -1    0    0  502  501  0.00000000000E+00  0.00000000000E+00  0.18035540817E+03  0.18035540817E+03  0.00000000000E+00 0. -1.
         21   -1    0    0  501  502 -0.00000000000E+00 -0.00000000000E+00 -0.75344753627E+03  0.75344753627E+03  0.00000000000E+00 0. -1.
         25    1    1    2    0    0  0.10661729500E+03 -0.70094230452E+02 -0.18116167857E+03  0.25441108961E+03  0.12500000000E+03 0.  0.
         25    1    1    2    0    0 -0.10311677073E+03  0.24233157436E+03 -0.80952004162E+02  0.30254898334E+03  0.12500000000E+03 0.  0.
         25    1    1    2    0    0 -0.35005242710E+01 -0.17223734391E+03 -0.31097844537E+03  0.37684287149E+03  0.12500000000E+03 0.  0.
</event>
<event>
 5    0  0.5532658E-005  0.2250366E+03  0.7546771E-02  0.1130183E+00
         21   -1    0    0  502  501  0.00000000000E+00  0.00000000000E+00  0.76680957611E+02  0.76680957611E+02  0.00000000000E+00 0. -1.
         21   -1    0    0  501  502 -0.00000000000E+00 -0.00000000000E+00 -0.66041804911E+03  0.66041804911E+03  0.00000000000E+00 0. -1.
         25    1    1    2    0    0  0.49570220370E+02  0.53471743396E+02 -0.29640211141E+03  0.32984184958E+03  0.12500000000E+03 0.  0.
         25    1    1    2    0    0 -0.27383518634E+01 -0.80076932134E+02 -0.18360186282E+03  0.23612381849E+03  0.12500000000E+03 0.  0.
         25    1    1    2    0    0 -0.46831868507E+02  0.26605188738E+02 -0.10373311728E+03  0.17113333865E+03  0.12500000000E+03 0.  0.
</event>
<event>
 5    0  0.5532658E-005  0.3642192E+03  0.7546771E-02  0.1056926E+00
         21   -1    0    0  502  501  0.00000000000E+00  0.00000000000E+00  0.83465982640E+03  0.83465982640E+03  0.00000000000E+00 0. -1.
         21   -1    0    0  501  502 -0.00000000000E+00 -0.00000000000E+00 -0.15893377228E+03  0.15893377228E+03  0.00000000000E+00 0. -1.
         25    1    1    2    0    0  0.12339152006E+03 -0.12488698309E+03  0.18202615763E+02  0.21628351992E+03  0.12500000000E+03 0.  0.
         25    1    1    2    0    0  0.14362157241E+01  0.10750421913E+03  0.10144071427E+03  0.19358315618E+03  0.12500000000E+03 0.  0.
         25    1    1    2    0    0 -0.12482773579E+03  0.17382763961E+02  0.55608272410E+03  0.58372692258E+03  0.12500000000E+03 0.  0.
</event>
<event>
 5    0  0.5532658E-005  0.2257396E+03  0.7546771E-02  0.1129675E+00
         21   -1    0    0  502  501  0.00000000000E+00  0.00000000000E+00  0.15506734231E+03  0.15506734231E+03  0.00000000000E+00 0.  1.
         21   -1    0    0  501  502 -0.00000000000E+00 -0.00000000000E+00 -0.32862084276E+03  0.32862084276E+03  0.00000000000E+00 0.  1.
         25    1    1    2    0    0  0.26535237970E+01 -0.62438401306E+02 -0.95706033532E+02  0.16938193528E+03  0.12500000000E+03 0.  0.
         25    1    1    2    0    0  0.30498648917E+01  0.53308693919E+02  0.40500895339E+02  0.14183244004E+03  0.12500000000E+03 0.  0.
         25    1    1    2    0    0 -0.57033886887E+01  0.91297073873E+01 -0.11834836226E+03  0.17247380975E+03  0.12500000000E+03 0.  0.
</event>
<event>
 5    0  0.5532658E-005  0.2730921E+03  0.7546771E-02  0.1099523E+00
         21   -1    0    0  502  501  0.00000000000E+00  0.00000000000E+00  0.72475367452E+03  0.72475367452E+03  0.00000000000E+00 0. -1.
         21   -1    0    0  501  502 -0.00000000000E+00 -0.00000000000E+00 -0.10290293333E+03  0.10290293333E+03  0.00000000000E+00 0. -1.
         25    1    1    2    0    0 -0.66550837605E+02  0.32130324597E+02  0.50279561697E+02  0.15366979557E+03  0.12500000000E+03 0.  0.
         25    1    1    2    0    0 -0.48607118567E+02  0.50538368573E+02  0.12931678230E+03  0.19304043322E+03  0.12500000000E+03 0.  0.
         25    1    1    2    0    0  0.11515795617E+03 -0.82668693171E+02  0.44225439719E+03  0.48094637907E+03  0.12500000000E+03 0.  0.
</event>
<event>
 5    0  0.5532658E-005  0.2931436E+03  0.7546771E-02  0.1088719E+00
         21   -1    0    0  502  501  0.00000000000E+00  0.00000000000E+00  0.14756967650E+03  0.14756967650E+03  0.00000000000E+00 0. -1.
         21   -1    0    0  501  502 -0.00000000000E+00 -0.00000000000E+00 -0.58232263150E+03  0.58232263150E+03  0.00000000000E+00 0. -1.
         25    1    1    2    0    0 -0.42620765771E+02  0.31087208927E+02 -0.16925486075E+03  0.21692199547E+03  0.12500000000E+03 0.  0.
         25    1    1    2    0    0  0.69115952214E+02  0.94964722346E+02 -0.28478390465E+03  0.33244877153E+03  0.12500000000E+03 0.  0.
         25    1    1    2    0    0 -0.26495186442E+02 -0.12605193127E+03  0.19285810395E+02  0.18052154100E+03  0.12500000000E+03 0.  0.
</event>
<event>
 5    0  0.5532658E-005  0.2586496E+03  0.7546771E-02  0.1107957E+00
         21   -1    0    0  502  501  0.00000000000E+00  0.00000000000E+00  0.29150637326E+03  0.29150637326E+03  0.00000000000E+00 0.  1.
         21   -1    0    0  501  502 -0.00000000000E+00 -0.00000000000E+00 -0.22949627874E+03  0.22949627874E+03  0.00000000000E+00 0.  1.
         25    1    1    2    0    0  0.11808996277E+03  0.34849316917E+02  0.12007657768E+03  0.21261020367E+03  0.12500000000E+03 0.  0.
         25    1    1    2    0    0 -0.73403826245E+02  0.27686568213E+02  0.72828316828E+01  0.14775895034E+03  0.12500000000E+03 0.  0.
         25    1    1    2    0    0 -0.44686136528E+02 -0.62535885130E+02 -0.65349314849E+02  0.16063349799E+03  0.12500000000E+03 0.  0.
</event>
<event>
 5    0  0.5532658E-005  0.2496432E+03  0.7546771E-02  0.1113530E+00
         21   -1    0    0  502  501  0.00000000000E+00  0.00000000000E+00  0.50425228260E+03  0.50425228260E+03  0.00000000000E+00 0. -1.
         21   -1    0    0  501  502 -0.00000000000E+00 -0.00000000000E+00 -0.12359240224E+03  0.12359240224E+03  0.00000000000E+00 0. -1.
         25    1    1    2    0    0 -0.50693411934E+02  0.19163269655E+02  0.17854406461E+03  0.22458859260E+03  0.12500000000E+03 0.  0.
         25    1    1    2    0    0  0.72764611485E+02 -0.41824432716E+02  0.22655262365E+03  0.27202033590E+03  0.12500000000E+03 0.  0.
         25    1    1    2    0    0 -0.22071199551E+02  0.22661163061E+02 -0.24436807906E+02  0.13123575634E+03  0.12500000000E+03 0.  0.
</event>
<event>
 5    0  0.5532658E-005  0.3238420E+03  0.7546771E-02  0.1073895E+00
         21   -1    0    0  502  501  0.00000000000E+00  0.00000000000E+00  0.12850090076E+03  0.12850090076E+03  0.00000000000E+00 0. -1.
         21   -1    0    0  501  502 -0.00000000000E+00 -0.00000000000E+00 -0.81613150887E+03  0.81613150887E+03  0.00000000000E+00 0. -1.
         25    1    1    2    0    0 -0.97289182073E+02 -0.16587075673E+02  0.14682275464E+02  0.15994025522E+03  0.12500000000E+03 0.  0.
         25    1    1    2    0    0  0.52870487162E+02  0.96125362155E+02 -0.20555707232E+03  0.26441271460E+03  0.12500000000E+03 0.  0.
         25    1    1    2    0    0  0.44418694912E+02 -0.79538286482E+02 -0.49675581125E+03  0.52027943981E+03  0.12500000000E+03 0.  0.
</event>
<event>
 5    0  0.5927584E-005  0.2937691E+03  0.7546771E-02  0.1088397E+00
         21   -1    0    0  502  501  0.00000000000E+00  0.00000000000E+00  0.22641050649E+03  0.22641050649E+03  0.00000000000E+00 0.  1.
         21   -1    0    0  501  502 -0.00000000000E+00 -0.00000000000E+00 -0.38116741514E+03  0.38116741514E+03  0.00000000000E+00 0.  1.
         25    1    1    2    0    0 -0.18471188947E+03 -0.58284060515E+02 -0.10774658448E+03  0.25445989918E+03  0.12500000000E+03 0.  0.
         25    1    1    2    0    0  0.46512169438E+02  0.66990413822E+02  0.28355870496E+02  0.15192153515E+03  0.12500000000E+03 0.  0.
         25    1    1    2    0    0  0.13819972003E+03 -0.87063533075E+01 -0.75366194673E+02  0.20119648731E+03  0.12500000000E+03 0.  0.
</event>
<event>
 5    0  0.5532658E-005  0.3473643E+03  0.7546771E-02  0.1063702E+00
         21   -1    0    0  502  501  0.00000000000E+00  0.00000000000E+00  0.12723491533E+04  0.12723491533E+04  0.00000000000E+00 0.  1.
         21   -1    0    0  501  502 -0.00000000000E+00 -0.00000000000E+00 -0.94834006058E+02  0.94834006058E+02  0.00000000000E+00 0.  1.
         25    1    1    2    0    0  0.89711755116E+02 -0.78071366895E+02  0.45785441324E+03  0.48928417209E+03  0.12500000000E+03 0.  0.
         25    1    1    2    0    0  0.79370593944E+02  0.93300936206E+02  0.62089438111E+03  0.64508882208E+03  0.12500000000E+03 0.  0.
         25    1    1    2    0    0 -0.16908234906E+03 -0.15229569310E+02  0.98766352871E+02  0.23281016517E+03  0.12500000000E+03 0.  0.
</event>
<event>
 5    0  0.5532658E-005  0.2697771E+03  0.7546771E-02  0.1101407E+00
         21   -1    0    0  502  501  0.00000000000E+00  0.00000000000E+00  0.77239169283E+03  0.77239169283E+03  0.00000000000E+00 0.  1.
         21   -1    0    0  501  502 -0.00000000000E+00 -0.00000000000E+00 -0.94226366675E+02  0.94226366675E+02  0.00000000000E+00 0.  1.
         25    1    1    2    0    0  0.61914624143E+02 -0.34820788307E+02  0.39132232191E+02  0.14900415960E+03  0.12500000000E+03 0.  0.
         25    1    1    2    0    0 -0.10191589781E+03 -0.40316939269E+02  0.41751868549E+03  0.44939866327E+03  0.12500000000E+03 0.  0.
         25    1    1    2    0    0  0.40001273671E+02  0.75137727575E+02  0.22151440847E+03  0.26821523663E+03  0.12500000000E+03 0.  0.
</event>
<event>
 5    0  0.5532658E-005  0.4648666E+03  0.7546771E-02  0.1023379E+00
         21   -1    0    0  502  501  0.00000000000E+00  0.00000000000E+00  0.14083712608E+03  0.14083712608E+03  0.00000000000E+00 0. -1.
         21   -1    0    0  501  502 -0.00000000000E+00 -0.00000000000E+00 -0.15344034702E+04  0.15344034702E+04  0.00000000000E+00 0. -1.
         25    1    1    2    0    0 -0.13310779948E+03 -0.10175698003E+03  0.25838875552E+00  0.20903883857E+03  0.12500000000E+03 0.  0.
         25    1    1    2    0    0 -0.28105274470E+02  0.19083825395E+03 -0.63096645970E+03  0.67153020699E+03  0.12500000000E+03 0.  0.
         25    1    1    2    0    0  0.16121307395E+03 -0.89081273923E+02 -0.76285827317E+03  0.79467155071E+03  0.12500000000E+03 0.  0.
</event>
<event>
 5    0  0.5532658E-005  0.3698088E+03  0.7546771E-02  0.1054766E+00
         21   -1    0    0  502  501  0.00000000000E+00  0.00000000000E+00  0.81286959462E+03  0.81286959462E+03  0.00000000000E+00 0.  1.
         21   -1    0    0  501  502 -0.00000000000E+00 -0.00000000000E+00 -0.16824168666E+03  0.16824168666E+03  0.00000000000E+00 0.  1.
         25    1    1    2    0    0  0.47395312501E+01  0.10113092367E+03  0.72628461421E+02  0.17649311683E+03  0.12500000000E+03 0.  0.
         25    1    1    2    0    0  0.79238628139E+02 -0.10150066997E+03  0.62087808195E+03  0.64629384868E+03  0.12500000000E+03 0.  0.
         25    1    1    2    0    0 -0.83978159389E+02  0.36974630148E+00 -0.48878635413E+02  0.15832431578E+03  0.12500000000E+03 0.  0.
</event>
<event>
 5    0  0.5532658E-005  0.3049138E+03  0.7546771E-02  0.1082810E+00
         21   -1    0    0  502  501  0.00000000000E+00  0.00000000000E+00  0.23989509837E+03  0.23989509837E+03  0.00000000000E+00 0.  1.
         21   -1    0    0  501  502 -0.00000000000E+00 -0.00000000000E+00 -0.38755449024E+03  0.38755449024E+03  0.00000000000E+00 0.  1.
         25    1    1    2    0    0 -0.82890721221E+02  0.55502838192E+02 -0.13163174229E+03  0.20713124412E+03  0.12500000000E+03 0.  0.
         25    1    1    2    0    0 -0.45485512530E+02  0.35117896066E+01 -0.14112185749E+03  0.19396299435E+03  0.12500000000E+03 0.  0.
         25    1    1    2    0    0  0.12837623375E+03 -0.59014627799E+02  0.12509420791E+03  0.22635535015E+03  0.12500000000E+03 0.  0.
</event>
<event>
 5    0  0.5532658E-005  0.3174773E+03  0.7546771E-02  0.1076816E+00
         21   -1    0    0  502  501  0.00000000000E+00  0.00000000000E+00  0.13966222277E+03  0.13966222277E+03  0.00000000000E+00 0. -1.
         21   -1    0    0  501  502 -0.00000000000E+00 -0.00000000000E+00 -0.72168310059E+03  0.72168310059E+03  0.00000000000E+00 0. -1.
         25    1    1    2    0    0 -0.10469064991E+02  0.14916518800E+03 -0.36019042883E+03  0.40953876453E+03  0.12500000000E+03 0.  0.
         25    1    1    2    0    0 -0.65552562301E+02 -0.12601234208E+03 -0.50826104931E+01  0.18928043140E+03  0.12500000000E+03 0.  0.
         25    1    1    2    0    0  0.76021627291E+02 -0.23152845921E+02 -0.21674783850E+03  0.26252612744E+03  0.12500000000E+03 0.  0.
</event>
<event>
 5    0  0.5532658E-005  0.2563328E+03  0.7546771E-02  0.1109367E+00
         21   -1    0    0  502  501  0.00000000000E+00  0.00000000000E+00  0.17754427928E+03  0.17754427928E+03  0.00000000000E+00 0. -1.
         21   -1    0    0  501  502 -0.00000000000E+00 -0.00000000000E+00 -0.37008504123E+03  0.37008504123E+03  0.00000000000E+00 0. -1.
         25    1    1    2    0    0  0.65730370848E+02 -0.28426910311E+01 -0.15265265675E+03  0.20798172073E+03  0.12500000000E+03 0.  0.
         25    1    1    2    0    0  0.15584603726E+02 -0.80739056608E+02  0.33966079109E+02  0.15342871200E+03  0.12500000000E+03 0.  0.
         25    1    1    2    0    0 -0.81314974575E+02  0.83581747639E+02 -0.73854184309E+02  0.18621888779E+03  0.12500000000E+03 0.  0.
</event>
<event>
 5    0  0.5532658E-005  0.3681370E+03  0.7546771E-02  0.1055408E+00
         21   -1    0    0  502  501  0.00000000000E+00  0.00000000000E+00  0.32730050273E+03  0.32730050273E+03  0.00000000000E+00 0. -1.
         21   -1    0    0  501  502 -0.00000000000E+00 -0.00000000000E+00 -0.41406859680E+03  0.41406859680E+03  0.00000000000E+00 0. -1.
         25    1    1    2    0    0  0.41742590036E+02  0.24698877595E+02 -0.17586311788E+03  0.22114546029E+03  0.12500000000E+03 0.  0.
         25    1    1    2    0    0  0.13664213022E+03 -0.15676405172E+03  0.10633369058E+03  0.26491110474E+03  0.12500000000E+03 0.  0.
         25    1    1    2    0    0 -0.17838472025E+03  0.13206517413E+03 -0.17238666766E+02  0.25531253449E+03  0.12500000000E+03 0.  0.
</event>
<event>
 5    0  0.5532658E-005  0.2915449E+03  0.7546771E-02  0.1089545E+00
         21   -1    0    0  502  501  0.00000000000E+00  0.00000000000E+00  0.12385342177E+03  0.12385342177E+03  0.00000000000E+00 0. -1.
         21   -1    0    0  501  502 -0.00000000000E+00 -0.00000000000E+00 -0.68628247061E+03  0.68628247061E+03  0.00000000000E+00 0. -1.
         25    1    1    2    0    0 -0.14927845376E+03 -0.77330280303E+02 -0.12843541038E+03  0.24573295190E+03  0.12500000000E+03 0.  0.
         25    1    1    2    0    0  0.17633723176E+03  0.10475336436E+02 -0.26735955416E+03  0.34396320033E+03  0.12500000000E+03 0.  0.
         25    1    1    2    0    0 -0.27058778000E+02  0.66854943867E+02 -0.16663408429E+03  0.22043974014E+03  0.12500000000E+03 0.  0.
</event>
<event>
 5    0  0.5532658E-005  0.3096912E+03  0.7546771E-02  0.1080494E+00
         21   -1    0    0  502  501  0.00000000000E+00  0.00000000000E+00  0.14857518687E+04  0.14857518687E+04  0.00000000000E+00 0. -1.
         21   -1    0    0  501  502 -0.00000000000E+00 -0.00000000000E+00 -0.64552245741E+02  0.64552245741E+02  0.00000000000E+00 0. -1.
         25    1    1    2    0    0 -0.60728942419E+02 -0.20013196946E+03  0.49847226885E+03  0.55483368000E+03  0.12500000000E+03 0.  0.
         25    1    1    2    0    0  0.10916669632E+03  0.79989085893E+02  0.35607612463E+03  0.40091249416E+03  0.12500000000E+03 0.  0.
         25    1    1    2    0    0 -0.48437753901E+02  0.12014288357E+03  0.56665122950E+03  0.59455794030E+03  0.12500000000E+03 0.  0.
</event>
<event>
 5    0  0.5532658E-005  0.3043626E+03  0.7546771E-02  0.1083080E+00
         21   -1    0    0  502  501  0.00000000000E+00  0.00000000000E+00  0.13456262110E+04  0.13456262110E+04  0.00000000000E+00 0.  1.
         21   -1    0    0  501  502 -0.00000000000E+00 -0.00000000000E+00 -0.68842756633E+02  0.68842756633E+02  0.00000000000E+00 0.  1.
         25    1    1    2    0    0  0.54093109730E+02  0.17377487985E+02  0.87957707916E+02  0.16306317791E+03  0.12500000000E+03 0.  0.
         25    1    1    2    0    0 -0.55977394048E+02 -0.14069412936E+03  0.81607279407E+03  0.83936172888E+03  0.12500000000E+03 0.  0.
         25    1    1    2    0    0  0.18842843176E+01  0.12331664137E+03  0.37275295236E+03  0.41204406082E+03  0.12500000000E+03 0.  0.
</event>
<event>
 5    0  0.5780039E-005  0.2839513E+03  0.7546771E-02  0.1093550E+00
         21   -1    0    0  502  501  0.00000000000E+00  0.00000000000E+00  0.16994453416E+03  0.16994453416E+03  0.00000000000E+00 0.  1.
         21   -1    0    0  501  502 -0.00000000000E+00 -0.00000000000E+00 -0.47443902340E+03  0.47443902340E+03  0.00000000000E+00 0.  1.
         25    1    1    2    0    0 -0.14577937158E+02 -0.12080665247E+03 -0.30902869503E+03  0.35486687346E+03  0.12500000000E+03 0.  0.
         25    1    1    2    0    0 -0.14998296676E+02  0.72916696314E+02 -0.29083490925E+02  0.14836658299E+03  0.12500000000E+03 0.  0.
         25    1    1    2    0    0  0.29576233834E+02  0.47889956151E+02  0.33617696718E+02  0.14115010110E+03  0.12500000000E+03 0.  0.
</event>
<event>
 5    0  0.5532658E-005  0.3082651E+03  0.7546771E-02  0.1081180E+00
         21   -1    0    0  502  501  0.00000000000E+00  0.00000000000E+00  0.70185172341E+02  0.70185172341E+02  0.00000000000E+00 0.  1.
         21   -1    0    0  501  502 -0.00000000000E+00 -0.00000000000E+00 -0.13539518563E+04  0.13539518563E+04  0.00000000000E+00 0.  1.
         25    1    1    2    0    0  0.91763176668E+02 -0.48307981712E+02 -0.45491373401E+03  0.48303793545E+03  0.12500000000E+03 0.  0.
         25    1    1    2    0    0  0.12370863501E+02 -0.88009386751E+02 -0.63628516737E+03  0.65450936176E+03  0.12500000000E+03 0.  0.
         25    1    1    2    0    0 -0.10413404017E+03  0.13631736846E+03 -0.19256778253E+03  0.28658973139E+03  0.12500000000E+03 0.  0.
</event>
<event>
 5    0  0.6421324E-005  0.2864767E+03  0.7546771E-02  0.1092203E+00
         21   -1    0    0  502  501  0.00000000000E+00  0.00000000000E+00  0.34879727251E+03  0.34879727251E+03  0.00000000000E+00 0. -1.
         21   -1    0    0  501  502 -0.00000000000E+00 -0.00000000000E+00 -0.23529118099E+03  0.23529118099E+03  0.00000000000E+00 0. -1.
         25    1    1    2    0    0 -0.69264149705E+02  0.12452598053E+03  0.18542961421E+02  0.19045493871E+03  0.12500000000E+03 0.  0.
         25    1    1    2    0    0  0.54275171150E+01  0.12562658915E+02  0.14422566460E+03  0.19134607566E+03  0.12500000000E+03 0.  0.
         25    1    1    2    0    0  0.63836632590E+02 -0.13708863944E+03 -0.49262534504E+02  0.20228743913E+03  0.12500000000E+03 0.  0.
</event>
<event>
 5    0  0.5532658E-005  0.4646693E+03  0.7546771E-02  0.1023436E+00
         21   -1    0    0  502  501  0.00000000000E+00  0.00000000000E+00  0.40312157327E+03  0.40312157327E+03  0.00000000000E+00 0. -1.
         21   -1    0    0  501  502 -0.00000000000E+00 -0.00000000000E+00 -0.53561393961E+03  0.53561393961E+03  0.00000000000E+00 0. -1.
         25    1    1    2    0    0  0.88903107351E+02 -0.21644329398E+03  0.14972391595E+03  0.30462060504E+03  0.12500000000E+03 0.  0.
         25    1    1    2    0    0  0.48228183885E+02 -0.65417583544E+02  0.53215024762E+02  0.15831063394E+03  0.12500000000E+03 0.  0.
         25    1    1    2    0    0 -0.13713129124E+03  0.28186087752E+03 -0.33543130705E+03  0.47580427390E+03  0.12500000000E+03 0.  0.
</event>
<event>
 5    0  0.5532658E-005  0.2411321E+03  0.7546771E-02  0.1119041E+00
         21   -1    0    0  502  501  0.00000000000E+00  0.00000000000E+00  0.38042564949E+03  0.38042564949E+03  0.00000000000E+00 0. -1.
         21   -1    0    0  501  502 -0.00000000000E+00 -0.00000000000E+00 -0.15284117079E+03  0.15284117079E+03  0.00000000000E+00 0. -1.
         25    1    1    2    0    0 -0.25583837526E+02  0.46537482451E+02 -0.32544940851E+02  0.13965830871E+03  0.12500000000E+03 0.  0.
         25    1    1    2    0    0 -0.41387527547E+02  0.55752656698E+01  0.65353099488E+02  0.14710553571E+03  0.12500000000E+03 0.  0.
         25    1    1    2    0    0  0.66971365073E+02 -0.52112748121E+02  0.19477632006E+03  0.24650297587E+03  0.12500000000E+03 0.  0.
</event>
<event>
 5    0  0.5532658E-005  0.2170003E+03  0.7546771E-02  0.1136139E+00
         21   -1    0    0  502  501  0.00000000000E+00  0.00000000000E+00  0.84545296126E+02  0.84545296126E+02  0.00000000000E+00 0. -1.
         21   -1    0    0  501  502 -0.00000000000E+00 -0.00000000000E+00 -0.55696920169E+03  0.55696920169E+03  0.00000000000E+00 0. -1.
         25    1    1    2    0    0  0.40056135970E+02  0.93818338188E+01 -0.11392606780E+03  0.17405936274E+03  0.12500000000E+03 0.  0.
         25    1    1    2    0    0  0.80080826025E+00  0.14744362651E+02 -0.29232822984E+03  0.31827477356E+03  0.12500000000E+03 0.  0.
         25    1    1    2    0    0 -0.40856944230E+02 -0.24126196470E+02 -0.66169607929E+02  0.14918036151E+03  0.12500000000E+03 0.  0.
</event>
<event>
 5    0  0.5884087E-005  0.4070235E+03  0.7546771E-02  0.1041374E+00
         21   -1    0    0  502  501  0.00000000000E+00  0.00000000000E+00  0.21272811427E+03  0.21272811427E+03  0.00000000000E+00 0.  1.
         21   -1    0    0  501  502 -0.00000000000E+00 -0.00000000000E+00 -0.77877886244E+03  0.77877886244E+03  0.00000000000E+00 0.  1.
         25    1    1    2    0    0 -0.64360680794E+01  0.88328852010E+02 -0.46280286427E+03  0.48749861563E+03  0.12500000000E+03 0.  0.
         25    1    1    2    0    0  0.14560053504E+03 -0.18895440436E+03 -0.34720818656E+01  0.26933313588E+03  0.12500000000E+03 0.  0.
         25    1    1    2    0    0 -0.13916446696E+03  0.10062555235E+03 -0.99775802040E+02  0.23467522520E+03  0.12500000000E+03 0.  0.
</event>
<event>
 5    0  0.5532658E-005  0.2708551E+03  0.7546771E-02  0.1100791E+00
         21   -1    0    0  502  501  0.00000000000E+00  0.00000000000E+00  0.58177887096E+03  0.58177887096E+03  0.00000000000E+00 0. -1.
         21   -1    0    0  501  502 -0.00000000000E+00 -0.00000000000E+00 -0.12610025814E+03  0.12610025814E+03  0.00000000000E+00 0. -1.
         25    1    1    2    0    0 -0.88260624492E+02 -0.54988576789E+02  0.26828118094E+03  0.31370921801E+03  0.12500000000E+03 0.  0.
         25    1    1    2    0    0  0.58043235223E+02  0.13465675881E+03  0.12966998470E+03  0.23225151190E+03  0.12500000000E+03 0.  0.
         25    1    1    2    0    0  0.30217389270E+02 -0.79668182023E+02  0.57727447179E+02  0.16191839920E+03  0.12500000000E+03 0.  0.
</event>
<event>
 5    0  0.5532658E-005  0.3644671E+03  0.7546771E-02  0.1056829E+00
         21   -1    0    0  502  501  0.00000000000E+00  0.00000000000E+00  0.14446009314E+04  0.14446009314E+04  0.00000000000E+00 0.  1.
         21   -1    0    0  501  502 -0.00000000000E+00 -0.00000000000E+00 -0.91953613539E+02  0.91953613539E+02  0.00000000000E+00 0.  1.
         25    1    1    2    0    0  0.79221785365E+02  0.78591527102E+02  0.12267117413E+03  0.20766785108E+03  0.12500000000E+03 0.  0.
         25    1    1    2    0    0 -0.22760605437E+03  0.21519732337E+02  0.46124543393E+03  0.52975462734E+03  0.12500000000E+03 0.  0.
         25    1    1    2    0    0  0.14838426901E+03 -0.10011125944E+03  0.76873070984E+03  0.79913206656E+03  0.12500000000E+03 0.  0.
</event>
<event>
 5    0  0.5532658E-005  0.2586884E+03  0.7546771E-02  0.1107934E+00
         21   -1    0    0  502  501  0.00000000000E+00  0.00000000000E+00  0.19222866050E+03  0.19222866050E+03  0.00000000000E+00 0.  1.
         21   -1    0    0  501  502 -0.00000000000E+00 -0.00000000000E+00 -0.34812549403E+03  0.34812549403E+03  0.00000000000E+00 0.  1.
         25    1    1    2    0    0  0.28908742353E+02 -0.53626187141E+02  0.60441762550E+02  0.15162351398E+03  0.12500000000E+03 0.  0.
         25    1    1    2    0    0 -0.24794566829E+01 -0.55358211667E+02 -0.34108073200E+02  0.14092210601E+03  0.12500000000E+03 0.  0.
         25    1    1    2    0    0 -0.26429285670E+02  0.10898439881E+03 -0.18223052288E+03  0.24780853454E+03  0.12500000000E+03 0.  0.
</event>
<event>
 5    0  0.5532658E-005  0.2973818E+03  0.7546771E-02  0.1086557E+00
         21   -1    0    0  502  501  0.00000000000E+00  0.00000000000E+00  0.26783263676E+03  0.26783263676E+03  0.00000000000E+00 0.  1.
         21   -1    0    0  501  502 -0.00000000000E+00 -0.00000000000E+00 -0.33019099807E+03  0.33019099807E+03  0.00000000000E+00 0.  1.
         25    1    1    2    0    0 -0.12051608106E+03 -0.13558419300E+03  0.31296826659E+02  0.22251222561E+03  0.12500000000E+03 0.  0.
         25    1    1    2    0    0 -0.19834277641E+02 -0.61398933255E+01 -0.16414009391E+02  0.12777134485E+03  0.12500000000E+03 0.  0.
         25    1    1    2    0    0  0.14035035870E+03  0.14172408633E+03 -0.77241178578E+02  0.24774006438E+03  0.12500000000E+03 0.  0.
</event>
<event>
 5    0  0.5532658E-005  0.2631333E+03  0.7546771E-02  0.1105275E+00
         21   -1    0    0  502  501  0.00000000000E+00  0.00000000000E+00  0.82907810383E+03  0.82907810383E+03  0.00000000000E+00 0. -1.
         21   -1    0    0  501  502 -0.00000000000E+00 -0.00000000000E+00 -0.83513391107E+02  0.83513391107E+02  0.00000000000E+00 0. -1.
         25    1    1    2    0    0  0.17235052131E+02 -0.74960789024E+02  0.13942353505E+03  0.20243539473E+03  0.12500000000E+03 0.  0.
         25    1    1    2    0    0 -0.78284594265E+02  0.14014681116E+03  0.25023794866E+03  0.32251145301E+03  0.12500000000E+03 0.  0.
         25    1    1    2    0    0  0.61049542134E+02 -0.65186022131E+02  0.35590322902E+03  0.38764464720E+03  0.12500000000E+03 0.  0.
</event>
<event>
 5    0  0.6059638E-005  0.2591255E+03  0.7546771E-02  0.1107670E+00
         21   -1    0    0  502  501  0.00000000000E+00  0.00000000000E+00  0.15661925142E+03  0.15661925142E+03  0.00000000000E+00 0.  1.
         21   -1    0    0  501  502 -0.00000000000E+00 -0.00000000000E+00 -0.42872138083E+03  0.42872138083E+03  0.00000000000E+00 0.  1.
         25    1    1    2    0    0  0.17752922172E+02 -0.88806202563E+02 -0.12734310030E+03  0.20010740380E+03  0.12500000000E+03 0.  0.
         25    1    1    2    0    0 -0.27574418800E+02  0.68424044877E+02  0.49303844063E+02  0.15329079401E+03  0.12500000000E+03 0.  0.
         25    1    1    2    0    0  0.98214966278E+01  0.20382157687E+02 -0.19406287317E+03  0.23194243443E+03  0.12500000000E+03 0.  0.
</event>
<event>
 5    0  0.5532658E-005  0.3799203E+03  0.7546771E-02  0.1050963E+00
         21   -1    0    0  502  501  0.00000000000E+00  0.00000000000E+00  0.17287828878E+03  0.17287828878E+03  0.00000000000E+00 0.  1.
         21   -1    0    0  501  502 -0.00000000000E+00 -0.00000000000E+00 -0.83491933048E+03  0.83491933048E+03  0.00000000000E+00 0.  1.
         25    1    1    2    0    0  0.21377266033E+03 -0.85811350899E+02 -0.33679329620E+03  0.42675175760E+03  0.12500000000E+03 0.  0.
         25    1    1    2    0    0  0.17301165656E+02  0.24467243740E+02 -0.27918887565E+03  0.30735875558E+03  0.12500000000E+03 0.  0.
         25    1    1    2    0    0 -0.23107382599E+03  0.61344107158E+02 -0.46058869853E+02  0.27368710608E+03  0.12500000000E+03 0.  0.
</event>
<event>
 5    0  0.5532658E-005  0.2373822E+03  0.7546771E-02  0.1121549E+00
         21   -1    0    0  502  501  0.00000000000E+00  0.00000000000E+00  0.56791496532E+03  0.56791496532E+03  0.00000000000E+00 0. -1.
         21   -1    0    0  501  502 -0.00000000000E+00 -0.00000000000E+00 -0.99223111392E+02  0.99223111392E+02  0.00000000000E+00 0. -1.
         25    1    1    2    0    0  0.32656989943E+02  0.10828532100E+03  0.72309869893E+02  0.18342820672E+03  0.12500000000E+03 0.  0.
         25    1    1    2    0    0 -0.22782635249E+02 -0.36533124323E+02  0.20473126152E+03  0.24370803656E+03  0.12500000000E+03 0.  0.
         25    1    1    2    0    0 -0.98743546943E+01 -0.71752196679E+02  0.19165072252E+03  0.24000183343E+03  0.12500000000E+03 0.  0.
</event>
<event>
 5    0  0.5532658E-005  0.3356092E+03  0.7546771E-02  0.1068682E+00
         21   -1    0    0  502  501  0.00000000000E+00  0.00000000000E+00  0.19317802952E+03  0.19317802952E+03  0.00000000000E+00 0. -1.
         21   -1    0    0  501  502 -0.00000000000E+00 -0.00000000000E+00 -0.58305572334E+03  0.58305572334E+03  0.00000000000E+00 0.  1.
         25    1    1    2    0    0  0.96817700996E+02 -0.18453750364E+03 -0.16541376878E+03  0.29396338612E+03  0.12500000000E+03 0.  0.
         25    1    1    2    0    0  0.51515740708E+02 -0.28321392057E+02 -0.86083239508E+02  0.16276147245E+03  0.12500000000E+03 0.  0.
         25    1    1    2    0    0 -0.14833344170E+03  0.21285889570E+03 -0.13838068553E+03  0.31950889430E+03  0.12500000000E+03 0.  0.
</event>
<event>
 5    0  0.5532658E-005  0.2329585E+03  0.7546771E-02  0.1124575E+00
         21   -1    0    0  502  501  0.00000000000E+00  0.00000000000E+00  0.13125652786E+03  0.13125652786E+03  0.00000000000E+00 0. -1.
         21   -1    0    0  501  502 -0.00000000000E+00 -0.00000000000E+00 -0.41346275366E+03  0.41346275366E+03  0.00000000000E+00 0. -1.
         25    1    1    2    0    0  0.31776653984E+02  0.10874746367E+03 -0.10668224489E+03  0.19960427843E+03  0.12500000000E+03 0.  0.
         25    1    1    2    0    0 -0.27057662140E+01  0.23141903827E+01 -0.53146526326E+02  0.13587578853E+03  0.12500000000E+03 0.  0.
         25    1    1    2    0    0 -0.29070887770E+02 -0.11106165405E+03 -0.12237745458E+03  0.20923921455E+03  0.12500000000E+03 0.  0.
</event>
<event>
 5    0  0.5532658E-005  0.3805860E+03  0.7546771E-02  0.1050717E+00
         21   -1    0    0  502  501  0.00000000000E+00  0.00000000000E+00  0.41906907293E+03  0.41906907293E+03  0.00000000000E+00 0.  1.
         21   -1    0    0  501  502 -0.00000000000E+00 -0.00000000000E+00 -0.34563673858E+03  0.34563673858E+03  0.00000000000E+00 0.  1.
         25    1    1    2    0    0 -0.29328656507E+03  0.29592904356E+01  0.14127774489E+02  0.31914003300E+03  0.12500000000E+03 0.  0.
         25    1    1    2    0    0  0.23181694812E+03  0.20690493990E+02  0.12199838590E+03  0.29099106540E+03  0.12500000000E+03 0.  0.
         25    1    1    2    0    0  0.61469616955E+02 -0.23649784426E+02 -0.62693826043E+02  0.15457471312E+03  0.12500000000E+03 0.  0.
</event>
<event>
 5    0  0.5532658E-005  0.2886270E+03  0.7546771E-02  0.1091068E+00
         21   -1    0    0  502  501  0.00000000000E+00  0.00000000000E+00  0.81001209740E+03  0.81001209740E+03  0.00000000000E+00 0.  1.
         21   -1    0    0  501  502 -0.00000000000E+00 -0.00000000000E+00 -0.10284482750E+03  0.10284482750E+03  0.00000000000E+00 0.  1.
         25    1    1    2    0    0  0.10063203460E+03  0.23897586477E+02  0.29393388348E+03  0.33573803610E+03  0.12500000000E+03 0.  0.
         25    1    1    2    0    0 -0.26048092162E+02  0.13225955036E+03  0.14399976924E+03  0.23352093120E+03  0.12500000000E+03 0.  0.
         25    1    1    2    0    0 -0.74583942434E+02 -0.15615713684E+03  0.26923361717E+03  0.34359795761E+03  0.12500000000E+03 0.  0.
</event>
<event>
 5    0  0.5532658E-005  0.3730106E+03  0.7546771E-02  0.1053548E+00
         21   -1    0    0  502  501  0.00000000000E+00  0.00000000000E+00  0.13713985486E+03  0.13713985486E+03  0.00000000000E+00 0.  1.
         21   -1    0    0  501  502 -0.00000000000E+00 -0.00000000000E+00 -0.10145623420E+04  0.10145623420E+04  0.00000000000E+00 0.  1.
         25    1    1    2    0    0 -0.44044208781E+02 -0.14120929681E+03 -0.38279648516E+03  0.42899662805E+03  0.12500000000E+03 0.  0.
         25    1    1    2    0    0  0.22674655633E+03  0.10155534186E+03 -0.16410564559E+03  0.32292901880E+03  0.12500000000E+03 0.  0.
         25    1    1    2    0    0 -0.18270234755E+03  0.39653954958E+02 -0.33052035637E+03  0.39977654998E+03  0.12500000000E+03 0.  0.
</event>
<event>
 5    0  0.5532658E-005  0.3858010E+03  0.7546771E-02  0.1048810E+00
         21   -1    0    0  502  501  0.00000000000E+00  0.00000000000E+00  0.11938244024E+03  0.11938244024E+03  0.00000000000E+00 0.  1.
         21   -1    0    0  501  502 -0.00000000000E+00 -0.00000000000E+00 -0.12467695241E+04  0.12467695241E+04  0.00000000000E+00 0.  1.
         25    1    1    2    0    0 -0.12093691136E+02  0.11251369650E+03 -0.77038686840E+03  0.78862317761E+03  0.12500000000E+03 0.  0.
         25    1    1    2    0    0  0.89459185463E+02  0.99572769891E+02 -0.82792772377E+02  0.20099085931E+03  0.12500000000E+03 0.  0.
         25    1    1    2    0    0 -0.77365494328E+02 -0.21208646640E+03 -0.27420744309E+03  0.37653792742E+03  0.12500000000E+03 0.  0.
</event>
<event>
 5    0  0.5532658E-005  0.3500045E+03  0.7546771E-02  0.1062613E+00
         21   -1    0    0  502  501  0.00000000000E+00  0.00000000000E+00  0.38397288932E+03  0.38397288932E+03  0.00000000000E+00 0.  1.
         21   -1    0    0  501  502 -0.00000000000E+00 -0.00000000000E+00 -0.31904122029E+03  0.31904122029E+03  0.00000000000E+00 0.  1.
         25    1    1    2    0    0  0.35369518690E+02 -0.32932597971E+02 -0.12401161996E+03  0.18259091091E+03  0.12500000000E+03 0.  0.
         25    1    1    2    0    0 -0.30644345781E+02  0.82772582411E+02 -0.11273063401E+03  0.19006202191E+03  0.12500000000E+03 0.  0.
         25    1    1    2    0    0 -0.47251729095E+01 -0.49839984440E+02  0.30167392301E+03  0.33036117679E+03  0.12500000000E+03 0.  0.
</event>
<event>
 5    0  0.5532658E-005  0.2519739E+03  0.7546771E-02  0.1112064E+00
         21   -1    0    0  502  501  0.00000000000E+00  0.00000000000E+00  0.98053155488E+02  0.98053155488E+02  0.00000000000E+00 0. -1.
         21   -1    0    0  501  502 -0.00000000000E+00 -0.00000000000E+00 -0.64751435786E+03  0.64751435786E+03  0.00000000000E+00 0. -1.
         25    1    1    2    0    0 -0.29740347403E+02 -0.26895846668E+02 -0.25559842901E+02  0.13373922536E+03  0.12500000000E+03 0.  0.
         25    1    1    2    0    0 -0.49211922118E+02 -0.15781179703E+02 -0.12461350871E+03  0.18391407087E+03  0.12500000000E+03 0.  0.
         25    1    1    2    0    0  0.78952269521E+02  0.42677026371E+02 -0.39928785076E+03  0.42791421712E+03  0.12500000000E+03 0.  0.
</event>
<event>
 5    0  0.5532658E-005  0.2676464E+03  0.7546771E-02  0.1102634E+00
         21   -1    0    0  502  501  0.00000000000E+00  0.00000000000E+00  0.55192631738E+02  0.55192631738E+02  0.00000000000E+00 0.  1.
         21   -1    0    0  501  502 -0.00000000000E+00 -0.00000000000E+00 -0.12979009604E+04  0.12979009604E+04  0.00000000000E+00 0.  1.
         25    1    1    2    0    0  0.96207040538E+02 -0.32671887028E+02 -0.46967492236E+03  0.49653074381E+03  0.12500000000E+03 0.  0.
         25    1    1    2    0    0 -0.70023849547E+02 -0.11086378311E+02 -0.67395530326E+03  0.68910594112E+03  0.12500000000E+03 0.  0.
         25    1    1    2    0    0 -0.26183190992E+02  0.43758265339E+02 -0.99078103072E+02  0.16745690725E+03  0.12500000000E+03 0.  0.
</event>
<event>
 5    0  0.5532658E-005  0.3216762E+03  0.7546771E-02  0.1074880E+00
         21   -1    0    0  502  501  0.00000000000E+00  0.00000000000E+00  0.31320645531E+03  0.31320645531E+03  0.00000000000E+00 0. -1.
         21   -1    0    0  501  502 -0.00000000000E+00 -0.00000000000E+00 -0.33037508294E+03  0.33037508294E+03  0.00000000000E+00 0. -1.
         25    1    1    2    0    0 -0.87539011953E+02 -0.12532444996E+03  0.19424379180E+03  0.27699268406E+03  0.12500000000E+03 0.  0.
         25    1    1    2    0    0  0.18559986627E+02  0.37445952276E+02 -0.95924795627E+02  0.16301300212E+03  0.12500000000E+03 0.  0.
         25    1    1    2    0    0  0.68979025326E+02  0.87878497689E+02 -0.11548762381E+03  0.20357585206E+03  0.12500000000E+03 0.  0.
</event>
<event>
 5    0  0.5532658E-005  0.2918458E+03  0.7546771E-02  0.1089389E+00
         21   -1    0    0  502  501  0.00000000000E+00  0.00000000000E+00  0.32961459860E+03  0.32961459860E+03  0.00000000000E+00 0. -1.
         21   -1    0    0  501  502 -0.00000000000E+00 -0.00000000000E+00 -0.25840474025E+03  0.25840474025E+03  0.00000000000E+00 0. -1.
         25    1    1    2    0    0 -0.13676070887E+03 -0.17667788173E+00 -0.12349752846E+03  0.22266603298E+03  0.12500000000E+03 0.  0.
         25    1    1    2    0    0  0.56725354399E+02 -0.56808096236E+02  0.75549406921E+02  0.16666624888E+03  0.12500000000E+03 0.  0.
         25    1    1    2    0    0  0.80035354472E+02  0.56984774117E+02  0.11915797989E+03  0.19868705699E+03  0.12500000000E+03 0.  0.
</event>
<event>
 5    0  0.5532658E-005  0.2444581E+03  0.7546771E-02  0.1116858E+00
         21   -1    0    0  502  501  0.00000000000E+00  0.00000000000E+00  0.17017353695E+04  0.17017353695E+04  0.00000000000E+00 0. -1.
         21   -1    0    0  501  502 -0.00000000000E+00 -0.00000000000E+00 -0.35116948532E+02  0.35116948532E+02  0.00000000000E+00 0. -1.
         25    1    1    2    0    0 -0.91760365618E+02 -0.10465944937E+01  0.49685401547E+03  0.52049012742E+03  0.12500000000E+03 0.  0.
         25    1    1    2    0    0  0.26937281447E+02  0.79379759865E+02  0.78371095229E+03  0.79803171625E+03  0.12500000000E+03 0.  0.
         25    1    1    2    0    0  0.64823084171E+02 -0.78333165372E+02  0.38605345321E+03  0.41833047435E+03  0.12500000000E+03 0.  0.
</event>
<event>
 5    0  0.5532658E-005  0.2559867E+03  0.7546771E-02  0.1109579E+00
         21   -1    0    0  502  501  0.00000000000E+00  0.00000000000E+00  0.33992790080E+02  0.33992790080E+02  0.00000000000E+00 0. -1.
         21   -1    0    0  501  502 -0.00000000000E+00 -0.00000000000E+00 -0.19277382536E+04  0.19277382536E+04  0.00000000000E+00 0. -1.
         25    1    1    2    0    0 -0.11292708678E+02 -0.43081485906E+02 -0.25571390762E+03  0.28809398163E+03  0.12500000000E+03 0.  0.
         25    1    1    2    0    0  0.66127815291E+01 -0.59567132459E+02 -0.11749274057E+04  0.11830770815E+04  0.12500000000E+03 0.  0.
         25    1    1    2    0    0  0.46799271485E+01  0.10264861837E+03 -0.46310415014E+03  0.49055998048E+03  0.12500000000E+03 0.  0.
</event>
<event>
 5    0  0.5532658E-005  0.3134768E+03  0.7546771E-02  0.1078691E+00
         21   -1    0    0  502  501  0.00000000000E+00  0.00000000000E+00  0.27570988255E+03  0.27570988255E+03  0.00000000000E+00 0. -1.
         21   -1    0    0  501  502 -0.00000000000E+00 -0.00000000000E+00 -0.35641706942E+03  0.35641706942E+03  0.00000000000E+00 0. -1.
         25    1    1    2    0    0 -0.55496950836E+02  0.12962009885E+03 -0.90891633004E+02  0.20920700401E+03  0.12500000000E+03 0.  0.
         25    1    1    2    0    0 -0.11755501015E+03 -0.11716843705E+03 -0.10755065422E+02  0.20805839201E+03  0.12500000000E+03 0.  0.
         25    1    1    2    0    0  0.17305196099E+03 -0.12451661799E+02  0.20939511554E+02  0.21486155595E+03  0.12500000000E+03 0.  0.
</event>
<event>
 5    0  0.5532658E-005  0.3220312E+03  0.7546771E-02  0.1074718E+00
         21   -1    0    0  502  501  0.00000000000E+00  0.00000000000E+00  0.27468060184E+04  0.27468060184E+04  0.00000000000E+00 0. -1.
         21   -1    0    0  501  502 -0.00000000000E+00 -0.00000000000E+00 -0.37754419399E+02  0.37754419399E+02  0.00000000000E+00 0. -1.
         25    1    1    2    0    0 -0.16639469107E+03  0.56053176175E+02  0.15800944975E+04  0.15947265511E+04  0.12500000000E+03 0.  0.
         25    1    1    2    0    0  0.64880907751E+02 -0.56943064423E+02  0.22394692577E+03  0.27060907291E+03  0.12500000000E+03 0.  0.
         25    1    1    2    0    0  0.10151378332E+03  0.88988824795E+00  0.90501017571E+03  0.91922481377E+03  0.12500000000E+03 0.  0.
</event>
<event>
 5    0  0.5532658E-005  0.2410938E+03  0.7546771E-02  0.1119066E+00
         21   -1    0    0  502  501  0.00000000000E+00  0.00000000000E+00  0.70723729708E+03  0.70723729708E+03  0.00000000000E+00 0. -1.
         21   -1    0    0  501  502 -0.00000000000E+00 -0.00000000000E+00 -0.82187692501E+02  0.82187692501E+02  0.00000000000E+00 0. -1.
         25    1    1    2    0    0 -0.15761186316E+02 -0.73525911508E+02  0.37444674125E+03  0.40185798075E+03  0.12500000000E+03 0.  0.
         25    1    1    2    0    0 -0.91889990163E+01  0.28642282744E+02  0.21040711956E+03  0.24657853520E+03  0.12500000000E+03 0.  0.
         25    1    1    2    0    0  0.24950185333E+02  0.44883628764E+02  0.40195743773E+02  0.14098847363E+03  0.12500000000E+03 0.  0.
</event>
<event>
 5    0  0.6274482E-005  0.3475838E+03  0.7546771E-02  0.1063611E+00
         21   -1    0    0  502  501  0.00000000000E+00  0.00000000000E+00  0.68349629067E+03  0.68349629067E+03  0.00000000000E+00 0. -1.
         21   -1    0    0  501  502 -0.00000000000E+00 -0.00000000000E+00 -0.17675954326E+03  0.17675954326E+03  0.00000000000E+00 0. -1.
         25    1    1    2    0    0 -0.24278740012E+02  0.24792181076E+03  0.27459776546E+03  0.39125901173E+03  0.12500000000E+03 0.  0.
         25    1    1    2    0    0  0.64381483660E+02 -0.11590462580E+03  0.21529995233E+03  0.28206014818E+03  0.12500000000E+03 0.  0.
         25    1    1    2    0    0 -0.40102743648E+02 -0.13201718496E+03  0.16839029621E+02  0.18693667402E+03  0.12500000000E+03 0.  0.
</event>
<event>
 5    0  0.5532658E-005  0.2946348E+03  0.7546771E-02  0.1087954E+00
         21   -1    0    0  502  501  0.00000000000E+00  0.00000000000E+00  0.66471682621E+03  0.66471682621E+03  0.00000000000E+00 0. -1.
         21   -1    0    0  501  502 -0.00000000000E+00 -0.00000000000E+00 -0.13059645869E+03  0.13059645869E+03  0.00000000000E+00 0. -1.
         25    1    1    2    0    0 -0.23503195895E+02  0.19750393716E+03  0.15074904918E+03  0.27912449058E+03  0.12500000000E+03 0.  0.
         25    1    1    2    0    0 -0.53217270879E+02 -0.79881393711E+02  0.17053370365E+03  0.23220650091E+03  0.12500000000E+03 0.  0.
         25    1    1    2    0    0  0.76720466774E+02 -0.11762254345E+03  0.21283761469E+03  0.28398229342E+03  0.12500000000E+03 0.  0.
</event>
<event>
 5    0  0.5532658E-005  0.3579302E+03  0.7546771E-02  0.1059406E+00
         21   -1    0    0  502  501  0.00000000000E+00  0.00000000000E+00  0.10298218255E+03  0.10298218255E+03  0.00000000000E+00 0. -1.
         21   -1    0    0  501  502 -0.00000000000E+00 -0.00000000000E+00 -0.12440406349E+04  0.12440406349E+04  0.00000000000E+00 0. -1.
         25    1    1    2    0    0 -0.18493476308E+03 -0.13886502425E+03 -0.80321842830E+03  0.84514448772E+03  0.12500000000E+03 0.  0.
         25    1    1    2    0    0  0.35493912605E+02  0.72778565456E+02 -0.21728539669E+03  0.26342832239E+03  0.12500000000E+03 0.  0.
         25    1    1    2    0    0  0.14944085048E+03  0.66086458798E+02 -0.12055462737E+03  0.23845000736E+03  0.12500000000E+03 0.  0.
</event>
<event>
 5    0  0.5532658E-005  0.3085271E+03  0.7546771E-02  0.1081054E+00
         21   -1    0    0  502  501  0.00000000000E+00  0.00000000000E+00  0.38384458280E+03  0.38384458280E+03  0.00000000000E+00 0.  1.
         21   -1    0    0  501  502 -0.00000000000E+00 -0.00000000000E+00 -0.24798825639E+03  0.24798825639E+03  0.00000000000E+00 0.  1.
         25    1    1    2    0    0 -0.86295255286E+02 -0.32658142261E+02  0.70652963619E+02  0.17067591104E+03  0.12500000000E+03 0.  0.
         25    1    1    2    0    0 -0.89639903391E+02 -0.11291814550E+03 -0.71868590517E+01  0.19095148810E+03  0.12500000000E+03 0.  0.
         25    1    1    2    0    0  0.17593515868E+03  0.14557628776E+03  0.72390221838E+02  0.27020544005E+03  0.12500000000E+03 0.  0.
</event>
<event>
 5    0  0.5532658E-005  0.3614564E+03  0.7546771E-02  0.1058009E+00
         21   -1    0    0  502  501  0.00000000000E+00  0.00000000000E+00  0.98760258212E+03  0.98760258212E+03  0.00000000000E+00 0. -1.
         21   -1    0    0  501  502 -0.00000000000E+00 -0.00000000000E+00 -0.13229079120E+03  0.13229079120E+03  0.00000000000E+00 0. -1.
         25    1    1    2    0    0  0.30332665901E+02 -0.92331098533E+02  0.32400552979E+03  0.36062402265E+03  0.12500000000E+03 0.  0.
         25    1    1    2    0    0 -0.16307438978E+03  0.23257725449E+03  0.33732994066E+03  0.45836876505E+03  0.12500000000E+03 0.  0.
         25    1    1    2    0    0  0.13274172387E+03 -0.14024615596E+03  0.19397632047E+03  0.30090058562E+03  0.12500000000E+03 0.  0.
</event>
<event>
 5    0  0.5532658E-005  0.2292323E+03  0.7546771E-02  0.1127181E+00
         21   -1    0    0  502  501  0.00000000000E+00  0.00000000000E+00  0.11417061360E+03  0.11417061360E+03  0.00000000000E+00 0.  1.
         21   -1    0    0  501  502 -0.00000000000E+00 -0.00000000000E+00 -0.46025380758E+03  0.46025380758E+03  0.00000000000E+00 0.  1.
         25    1    1    2    0    0  0.21034089369E+02  0.68705823722E+02 -0.15202474957E+03  0.20952195019E+03  0.12500000000E+03 0.  0.
         25    1    1    2    0    0 -0.45271114721E+02 -0.10789938705E+03 -0.77732603537E+02  0.18804017976E+03  0.12500000000E+03 0.  0.
         25    1    1    2    0    0  0.24237025352E+02  0.39193563323E+02 -0.11632584087E+03  0.17686229123E+03  0.12500000000E+03 0.  0.
</event>
<event>
 5    0  0.5532658E-005  0.2826806E+03  0.7546771E-02  0.1094234E+00
         21   -1    0    0  502  501  0.00000000000E+00  0.00000000000E+00  0.40161867616E+02  0.40161867616E+02  0.00000000000E+00 0.  1.
         21   -1    0    0  501  502 -0.00000000000E+00 -0.00000000000E+00 -0.19896561165E+04  0.19896561165E+04  0.00000000000E+00 0.  1.
         25    1    1    2    0    0  0.14187687982E+03 -0.20080901203E+02 -0.34530542541E+03  0.39419935114E+03  0.12500000000E+03 0.  0.
         25    1    1    2    0    0 -0.35236328656E+02 -0.49389855332E+02 -0.61823977292E+03  0.63366108724E+03  0.12500000000E+03 0.  0.
         25    1    1    2    0    0 -0.10664055116E+03  0.69470756535E+02 -0.98594905053E+03  0.10019575457E+04  0.12500000000E+03 0.  0.
</event>
<event>
 5    0  0.5532658E-005  0.6178901E+03  0.7546771E-02  0.9868970E-01
         21   -1    0    0  502  501  0.00000000000E+00  0.00000000000E+00  0.19550379140E+03  0.19550379140E+03  0.00000000000E+00 0.  1.
         21   -1    0    0  501  502 -0.00000000000E+00 -0.00000000000E+00 -0.19528425930E+04  0.19528425930E+04  0.00000000000E+00 0.  1.
         25    1    1    2    0    0 -0.51529129761E+02 -0.12808522660E+03 -0.80122114001E+03  0.82258214889E+03  0.12500000000E+03 0.  0.
         25    1    1    2    0    0  0.17130631343E+03 -0.46929346910E+02  0.10159585530E+03  0.23978101350E+03  0.12500000000E+03 0.  0.
         25    1    1    2    0    0 -0.11977718367E+03  0.17501457351E+03 -0.10577135169E+04  0.10859832220E+04  0.12500000000E+03 0.  0.
</event>
<event>
 5    0  0.5532658E-005  0.4514421E+03  0.7546771E-02  0.1027293E+00
         21   -1    0    0  502  501  0.00000000000E+00  0.00000000000E+00  0.95126605048E+03  0.95126605048E+03  0.00000000000E+00 0.  1.
         21   -1    0    0  501  502 -0.00000000000E+00 -0.00000000000E+00 -0.21424074564E+03  0.21424074564E+03  0.00000000000E+00 0.  1.
         25    1    1    2    0    0  0.31659717383E+02  0.10577831114E+03  0.21237465870E+03  0.27003589478E+03  0.12500000000E+03 0.  0.
         25    1    1    2    0    0 -0.33477508064E+01  0.13660587143E+03  0.58594873102E+03  0.61451874417E+03  0.12500000000E+03 0.  0.
         25    1    1    2    0    0 -0.28311966577E+02 -0.24238418257E+03 -0.61298084879E+02  0.28095215718E+03  0.12500000000E+03 0.  0.
</event>
<event>
 5    0  0.5532658E-005  0.4329506E+03  0.7546771E-02  0.1032932E+00
         21   -1    0    0  502  501  0.00000000000E+00  0.00000000000E+00  0.11830435555E+04  0.11830435555E+04  0.00000000000E+00 0.  1.
         21   -1    0    0  501  502 -0.00000000000E+00 -0.00000000000E+00 -0.15844404037E+03  0.15844404037E+03  0.00000000000E+00 0.  1.
         25    1    1    2    0    0  0.74961618453E+02  0.20279586357E+03  0.75374121205E+03  0.79403792180E+03  0.12500000000E+03 0.  0.
         25    1    1    2    0    0  0.10435355402E+03 -0.17215198122E+03  0.21454700251E+03  0.31965823180E+03  0.12500000000E+03 0.  0.
         25    1    1    2    0    0 -0.17931517247E+03 -0.30643882347E+02  0.56311300580E+02  0.22779144228E+03  0.12500000000E+03 0.  0.
</event>
<event>
 5    0  0.5532658E-005  0.2679546E+03  0.7546771E-02  0.1102456E+00
         21   -1    0    0  502  501  0.00000000000E+00  0.00000000000E+00  0.24303342961E+03  0.24303342961E+03  0.00000000000E+00 0.  1.
         21   -1    0    0  501  502 -0.00000000000E+00 -0.00000000000E+00 -0.29543119111E+03  0.29543119111E+03  0.00000000000E+00 0.  1.
         25    1    1    2    0    0 -0.62142388796E+02  0.43456817167E+02 -0.14908446061E+03  0.20880935764E+03  0.12500000000E+03 0.  0.
         25    1    1    2    0    0 -0.44010096634E+02 -0.57258382484E+02  0.12776406680E+02  0.14492635212E+03  0.12500000000E+03 0.  0.
         25    1    1    2    0    0  0.10615248543E+03  0.13801565317E+02  0.83910292431E+02  0.18472891096E+03  0.12500000000E+03 0.  0.
</event>
<event>
 5    0  0.5532658E-005  0.2824493E+03  0.7546771E-02  0.1094359E+00
         21   -1    0    0  502  501  0.00000000000E+00  0.00000000000E+00  0.16013686511E+03  0.16013686511E+03  0.00000000000E+00 0.  1.
         21   -1    0    0  501  502 -0.00000000000E+00 -0.00000000000E+00 -0.49818404782E+03  0.49818404782E+03  0.00000000000E+00 0.  1.
         25    1    1    2    0    0 -0.66724467767E+02  0.10543322765E+03 -0.15956364851E+03  0.23802075123E+03  0.12500000000E+03 0.  0.
         25    1    1    2    0    0 -0.33080657885E+01  0.50268278205E+02  0.12385973752E+02  0.13533756108E+03  0.12500000000E+03 0.  0.
         25    1    1    2    0    0  0.70032533556E+02 -0.15570150586E+03 -0.19086950796E+03  0.28496260062E+03  0.12500000000E+03 0.  0.
</event>
<event>
 5    0  0.5532658E-005  0.4979659E+03  0.7546771E-02  0.1014311E+00
         21   -1    0    0  502  501  0.00000000000E+00  0.00000000000E+00  0.60865000658E+03  0.60865000658E+03  0.00000000000E+00 0. -1.
         21   -1    0    0  501  502 -0.00000000000E+00 -0.00000000000E+00 -0.40740997054E+03  0.40740997054E+03  0.00000000000E+00 0. -1.
         25    1    1    2    0    0  0.24728911137E+03  0.28681244939E+02 -0.18880688858E+03  0.33652274751E+03  0.12500000000E+03 0.  0.
         25    1    1    2    0    0 -0.23066364476E+03 -0.12825277315E+03  0.42446549990E+03  0.51521883839E+03  0.12500000000E+03 0.  0.
         25    1    1    2    0    0 -0.16625466611E+02  0.99571528211E+02 -0.34418575267E+02  0.16431839122E+03  0.12500000000E+03 0.  0.
</event>
<event>
 5    0  0.5532658E-005  0.3402403E+03  0.7546771E-02  0.1066694E+00
         21   -1    0    0  502  501  0.00000000000E+00  0.00000000000E+00  0.77518270257E+02  0.77518270257E+02  0.00000000000E+00 0. -1.
         21   -1    0    0  501  502 -0.00000000000E+00 -0.00000000000E+00 -0.14933701154E+04  0.14933701154E+04  0.00000000000E+00 0. -1.
         25    1    1    2    0    0 -0.28196138556E+02 -0.24061953683E+02 -0.21126167793E+03  0.24825490208E+03  0.12500000000E+03 0.  0.
         25    1    1    2    0    0 -0.89722987309E+02  0.20695967368E+03 -0.36912421976E+03  0.45028903006E+03  0.12500000000E+03 0.  0.
         25    1    1    2    0    0  0.11791912586E+03 -0.18289772000E+03 -0.83546594749E+03  0.87234445355E+03  0.12500000000E+03 0.  0.
</event>
<event>
 5    0  0.5532658E-005  0.3250375E+03  0.7546771E-02  0.1073354E+00
         21   -1    0    0  502  501  0.00000000000E+00  0.00000000000E+00  0.99324913924E+02  0.99324913924E+02  0.00000000000E+00 0.  1.
         21   -1    0    0  501  502 -0.00000000000E+00 -0.00000000000E+00 -0.10636741596E+04  0.10636741596E+04  0.00000000000E+00 0.  1.
         25    1    1    2    0    0 -0.66993891441E+01 -0.18611655725E+03 -0.31826158147E+03  0.38935804722E+03  0.12500000000E+03 0.  0.
         25    1    1    2    0    0  0.10982284839E+02  0.74034913404E+01 -0.48882981819E+03  0.50473261576E+03  0.12500000000E+03 0.  0.
         25    1    1    2    0    0 -0.42828956950E+01  0.17871306591E+03 -0.15725784601E+03  0.26890841053E+03  0.12500000000E+03 0.  0.
</event>
<event>
 5    0  0.5532658E-005  0.4213993E+03  0.7546771E-02  0.1036612E+00
         21   -1    0    0  502  501  0.00000000000E+00  0.00000000000E+00  0.62351863592E+03  0.62351863592E+03  0.00000000000E+00 0.  1.
         21   -1    0    0  501  502 -0.00000000000E+00 -0.00000000000E+00 -0.28479879506E+03  0.28479879506E+03  0.00000000000E+00 0. -1.
         25    1    1    2    0    0 -0.70612805212E+01 -0.20449293091E+02 -0.11008046318E+02  0.12733503977E+03  0.12500000000E+03 0.  0.
         25    1    1    2    0    0  0.56113417515E+02  0.31507427891E+03  0.29450441655E+03  0.45252443937E+03  0.12500000000E+03 0.  0.
         25    1    1    2    0    0 -0.49052136994E+02 -0.29462498582E+03  0.55223470619E+02  0.32845795183E+03  0.12500000000E+03 0.  0.
</event>
<event>
 5    0  0.5532658E-005  0.2396580E+03  0.7546771E-02  0.1120021E+00
         21   -1    0    0  502  501  0.00000000000E+00  0.00000000000E+00  0.23085807165E+03  0.23085807165E+03  0.00000000000E+00 0.  1.
         21   -1    0    0  501  502 -0.00000000000E+00 -0.00000000000E+00 -0.24879340565E+03  0.24879340565E+03  0.00000000000E+00 0.  1.
         25    1    1    2    0    0  0.18586216676E+02 -0.12616746294E+03  0.54936038542E+02  0.18683319963E+03  0.12500000000E+03 0.  0.
         25    1    1    2    0    0 -0.15306227421E+02  0.42972122213E+02 -0.26960949366E+02  0.13576736234E+03  0.12500000000E+03 0.  0.
         25    1    1    2    0    0 -0.32799892546E+01  0.83195340727E+02 -0.45910423171E+02  0.15705091532E+03  0.12500000000E+03 0.  0.
</event>
<event>
 5    0  0.5532658E-005  0.4365953E+03  0.7546771E-02  0.1031797E+00
         21   -1    0    0  502  501  0.00000000000E+00  0.00000000000E+00  0.21368282422E+04  0.21368282422E+04  0.00000000000E+00 0.  1.
         21   -1    0    0  501  502 -0.00000000000E+00 -0.00000000000E+00 -0.89204843618E+02  0.89204843618E+02  0.00000000000E+00 0.  1.
         25    1    1    2    0    0 -0.28989816301E+03  0.12922585666E+03  0.12516455419E+04  0.12972978954E+04  0.12500000000E+03 0.  0.
         25    1    1    2    0    0  0.29362354255E+03 -0.14565578163E+03  0.61755864149E+03  0.71023521959E+03  0.12500000000E+03 0.  0.
         25    1    1    2    0    0 -0.37253795496E+01  0.16429924974E+02  0.17841921519E+03  0.21849997080E+03  0.12500000000E+03 0.  0.
</event>
<event>
 5    0  0.5532658E-005  0.6855591E+03  0.7546771E-02  0.9742252E-01
         21   -1    0    0  502  501  0.00000000000E+00  0.00000000000E+00  0.36757649929E+03  0.36757649929E+03  0.00000000000E+00 0.  1.
         21   -1    0    0  501  502 -0.00000000000E+00 -0.00000000000E+00 -0.12786215148E+04  0.12786215148E+04  0.00000000000E+00 0.  1.
         25    1    1    2    0    0  0.10965051935E+03  0.26959195677E+03  0.14810864535E+03  0.34966302403E+03  0.12500000000E+03 0.  0.
         25    1    1    2    0    0 -0.29688357303E+03  0.28325762334E+02 -0.26174645987E+03  0.41602693904E+03  0.12500000000E+03 0.  0.
         25    1    1    2    0    0  0.18723305368E+03 -0.29791771910E+03 -0.79740720101E+03  0.88050805105E+03  0.12500000000E+03 0.  0.
</event>
<event>
 5    0  0.5532658E-005  0.2669486E+03  0.7546771E-02  0.1103039E+00
         21   -1    0    0  502  501  0.00000000000E+00  0.00000000000E+00  0.10177217556E+03  0.10177217556E+03  0.00000000000E+00 0.  1.
         21   -1    0    0  501  502 -0.00000000000E+00 -0.00000000000E+00 -0.70020663525E+03  0.70020663525E+03  0.00000000000E+00 0.  1.
         25    1    1    2    0    0 -0.13306111464E+03  0.91083643667E+01 -0.23825201469E+03  0.30029526309E+03  0.12500000000E+03 0.  0.
         25    1    1    2    0    0  0.84577373823E+02  0.73041476889E+02 -0.27700864548E+03  0.32380114142E+03  0.12500000000E+03 0.  0.
         25    1    1    2    0    0  0.48483740822E+02 -0.82149841256E+02 -0.83173799516E+02  0.17788240629E+03  0.12500000000E+03 0.  0.
</event>
<event>
 5    0  0.5532658E-005  0.2101240E+03  0.7546771E-02  0.1141468E+00
         21   -1    0    0  502  501  0.00000000000E+00  0.00000000000E+00  0.44752395405E+03  0.44752395405E+03  0.00000000000E+00 0. -1.
         21   -1    0    0  501  502 -0.00000000000E+00 -0.00000000000E+00 -0.98658625104E+02  0.98658625104E+02  0.00000000000E+00 0. -1.
         25    1    1    2    0    0  0.55163114110E+02  0.23169208559E+02  0.90105576046E+02  0.16529911137E+03  0.12500000000E+03 0.  0.
         25    1    1    2    0    0 -0.41279131375E+02  0.14566694847E+02  0.66867187744E+02  0.14836568364E+03  0.12500000000E+03 0.  0.
         25    1    1    2    0    0 -0.13883982735E+02 -0.37735903406E+02  0.19189256516E+03  0.23251778415E+03  0.12500000000E+03 0.  0.
</event>
<event>
 5    0  0.5532658E-005  0.3487806E+03  0.7546771E-02  0.1063117E+00
         21   -1    0    0  502  501  0.00000000000E+00  0.00000000000E+00  0.12897843876E+04  0.12897843876E+04  0.00000000000E+00 0. -1.
         21   -1    0    0  501  502 -0.00000000000E+00 -0.00000000000E+00 -0.94316457253E+02  0.94316457253E+02  0.00000000000E+00 0. -1.
         25    1    1    2    0    0 -0.15521149477E+02 -0.65998078625E+02  0.34009643411E+03  0.36862886073E+03  0.12500000000E+03 0.  0.
         25    1    1    2    0    0 -0.56069154367E+02 -0.12033001003E+03  0.69613765265E+02  0.19517719565E+03  0.12500000000E+03 0.  0.
         25    1    1    2    0    0  0.71590303844E+02  0.18632808866E+03  0.78575773093E+03  0.82029478844E+03  0.12500000000E+03 0.  0.
</event>
<event>
 5    0  0.5532658E-005  0.2497050E+03  0.7546771E-02  0.1113491E+00
         21   -1    0    0  502  501  0.00000000000E+00  0.00000000000E+00  0.93736999464E+03  0.93736999464E+03  0.00000000000E+00 0. -1.
         21   -1    0    0  501  502 -0.00000000000E+00 -0.00000000000E+00 -0.66518672161E+02  0.66518672161E+02  0.00000000000E+00 0. -1.
         25    1    1    2    0    0 -0.88812240529E+02 -0.52336455200E+02  0.23963171498E+03  0.28926644713E+03  0.12500000000E+03 0.  0.
         25    1    1    2    0    0  0.35056926492E+02 -0.37324994477E+02  0.12960120926E+03  0.18719940371E+03  0.12500000000E+03 0.  0.
         25    1    1    2    0    0  0.53755314037E+02  0.89661449677E+02  0.50161839824E+03  0.52742281597E+03  0.12500000000E+03 0.  0.
</event>
<event>
 5    0  0.5532658E-005  0.2886931E+03  0.7546771E-02  0.1091033E+00
         21   -1    0    0  502  501  0.00000000000E+00  0.00000000000E+00  0.21739740772E+03  0.21739740772E+03  0.00000000000E+00 0.  1.
         21   -1    0    0  501  502 -0.00000000000E+00 -0.00000000000E+00 -0.38337017193E+03  0.38337017193E+03  0.00000000000E+00 0.  1.
         25    1    1    2    0    0  0.15687695827E+03 -0.74707378123E+02 -0.64755365400E+01  0.21414598982E+03  0.12500000000E+03 0.  0.
         25    1    1    2    0    0 -0.25795315239E+02  0.99754091952E+02 -0.35917607794E+02  0.16592574152E+03  0.12500000000E+03 0.  0.
         25    1    1    2    0    0 -0.13108164303E+03 -0.25046713829E+02 -0.12357961988E+03  0.22069584831E+03  0.12500000000E+03 0.  0.
</event>
<event>
 5    0  0.5532658E-005  0.2690529E+03  0.7546771E-02  0.1101823E+00
         21   -1    0    0  502  501  0.00000000000E+00  0.00000000000E+00  0.68020090207E+02  0.68020090207E+02  0.00000000000E+00 0.  1.
         21   -1    0    0  501  502 -0.00000000000E+00 -0.00000000000E+00 -0.10642364574E+04  0.10642364574E+04  0.00000000000E+00 0.  1.
         25    1    1    2    0    0 -0.91397498509E+02 -0.91678614722E+01 -0.47365523604E+03  0.49840930473E+03  0.12500000000E+03 0.  0.
         25    1    1    2    0    0  0.65421506170E+02 -0.12247542252E+02 -0.47544154348E+03  0.49608430435E+03  0.12500000000E+03 0.  0.
         25    1    1    2    0    0  0.25975992339E+02  0.21415403724E+02 -0.47119587718E+02  0.13776293856E+03  0.12500000000E+03 0.  0.
</event>
<event>
 5    0  0.5532658E-005  0.2994244E+03  0.7546771E-02  0.1085529E+00
         21   -1    0    0  502  501  0.00000000000E+00  0.00000000000E+00  0.27456324715E+03  0.27456324715E+03  0.00000000000E+00 0.  1.
         21   -1    0    0  501  502 -0.00000000000E+00 -0.00000000000E+00 -0.32653677047E+03  0.32653677047E+03  0.00000000000E+00 0.  1.
         25    1    1    2    0    0  0.17636977309E+02 -0.11667881670E+03 -0.11504016347E+03  0.20684353615E+03  0.12500000000E+03 0.  0.
         25    1    1    2    0    0  0.55926544206E+02  0.35079053886E+02 -0.90467602829E+02  0.16783237331E+03  0.12500000000E+03 0.  0.
         25    1    1    2    0    0 -0.73563521515E+02  0.81599762816E+02  0.15353424297E+03  0.22642410816E+03  0.12500000000E+03 0.  0.
</event>
<event>
 5    0  0.5532658E-005  0.2533470E+03  0.7546771E-02  0.1111208E+00
         21   -1    0    0  502  501  0.00000000000E+00  0.00000000000E+00  0.63011681991E+03  0.63011681991E+03  0.00000000000E+00 0.  1.
         21   -1    0    0  501  502 -0.00000000000E+00 -0.00000000000E+00 -0.10186159509E+03  0.10186159509E+03  0.00000000000E+00 0.  1.
         25    1    1    2    0    0  0.14561977525E+03 -0.24645425134E+02  0.11584375936E+03  0.22551561477E+03  0.12500000000E+03 0.  0.
         25    1    1    2    0    0 -0.56911337267E+02  0.29244742878E+02  0.18774659952E+03  0.23445242785E+03  0.12500000000E+03 0.  0.
         25    1    1    2    0    0 -0.88708437980E+02 -0.45993177441E+01  0.22466486593E+03  0.27201037237E+03  0.12500000000E+03 0.  0.
</event>
<event>
 5    0  0.5532658E-005  0.3330133E+03  0.7546771E-02  0.1069811E+00
         21   -1    0    0  502  501  0.00000000000E+00  0.00000000000E+00  0.31244337793E+03  0.31244337793E+03  0.00000000000E+00 0.  1.
         21   -1    0    0  501  502 -0.00000000000E+00 -0.00000000000E+00 -0.35493750614E+03  0.35493750614E+03  0.00000000000E+00 0.  1.
         25    1    1    2    0    0  0.37478907070E+01 -0.81059220952E+02 -0.19553435881E+03  0.24585225129E+03  0.12500000000E+03 0.  0.
         25    1    1    2    0    0  0.36561284022E+02 -0.86257400909E+02 -0.53869674545E+01  0.15630446609E+03  0.12500000000E+03 0.  0.
         25    1    1    2    0    0 -0.40309174729E+02  0.16731662186E+03  0.15842719806E+03  0.26522416670E+03  0.12500000000E+03 0.  0.
</event>
<event>
 5    0  0.5532658E-005  0.2972436E+03  0.7546771E-02  0.1086627E+00
         21   -1    0    0  502  501  0.00000000000E+00  0.00000000000E+00  0.46818969264E+03  0.46818969264E+03  0.00000000000E+00 0. -1.
         21   -1    0    0  501  502 -0.00000000000E+00 -0.00000000000E+00 -0.18871354087E+03  0.18871354087E+03  0.00000000000E+00 0. -1.
         25    1    1    2    0    0 -0.27915478475E+02 -0.81486297937E+02  0.24211416122E+03  0.28576836381E+03  0.12500000000E+03 0.  0.
         25    1    1    2    0    0 -0.11200148877E+02 -0.16309951879E+02 -0.97069660155E+02  0.15949600869E+03  0.12500000000E+03 0.  0.
         25    1    1    2    0    0  0.39115627351E+02  0.97796249816E+02  0.13443165069E+03  0.21163886101E+03  0.12500000000E+03 0.  0.
</event>
<event>
 5    0  0.5532658E-005  0.3272972E+03  0.7546771E-02  0.1072339E+00
         21   -1    0    0  502  501  0.00000000000E+00  0.00000000000E+00  0.22588404266E+03  0.22588404266E+03  0.00000000000E+00 0. -1.
         21   -1    0    0  501  502 -0.00000000000E+00 -0.00000000000E+00 -0.47424087275E+03  0.47424087275E+03  0.00000000000E+00 0. -1.
         25    1    1    2    0    0 -0.16886848358E+03  0.33347794605E+02 -0.39590774040E+01  0.21276586767E+03  0.12500000000E+03 0.  0.
         25    1    1    2    0    0  0.33877228932E+01 -0.13589553155E+03 -0.69432913429E+02  0.19729420070E+03  0.12500000000E+03 0.  0.
         25    1    1    2    0    0  0.16548076069E+03  0.10254773694E+03 -0.17496483926E+03  0.29006484704E+03  0.12500000000E+03 0.  0.
</event>
<event>
 5    0  0.5563668E-005  0.6074690E+03  0.7546771E-02  0.9890030E-01
         21   -1    0    0  502  501  0.00000000000E+00  0.00000000000E+00  0.29855108805E+03  0.29855108805E+03  0.00000000000E+00 0. -1.
         21   -1    0    0  501  502 -0.00000000000E+00 -0.00000000000E+00 -0.12360314386E+04  0.12360314386E+04  0.00000000000E+00 0. -1.
         25    1    1    2    0    0 -0.16997635854E+03 -0.11793362127E+02 -0.74061719554E+03  0.77017522434E+03  0.12500000000E+03 0.  0.
         25    1    1    2    0    0  0.44888870018E+02  0.30469823845E+03  0.58466777382E+02  0.33748983869E+03  0.12500000000E+03 0.  0.
         25    1    1    2    0    0  0.12508748853E+03 -0.29290487632E+03 -0.25532993238E+03  0.42691746360E+03  0.12500000000E+03 0.  0.
</event>
<event>
 5    0  0.5532658E-005  0.4285294E+03  0.7546771E-02  0.1034326E+00
         21   -1    0    0  502  501  0.00000000000E+00  0.00000000000E+00  0.18452771011E+04  0.18452771011E+04  0.00000000000E+00 0.  1.
         21   -1    0    0  501  502 -0.00000000000E+00 -0.00000000000E+00 -0.99517546139E+02  0.99517546139E+02  0.00000000000E+00 0.  1.
         25    1    1    2    0    0 -0.22992782153E+03  0.19799790547E+02  0.12700223433E+04  0.12968579673E+04  0.12500000000E+03 0.  0.
         25    1    1    2    0    0  0.88176030861E+02 -0.13748514656E+03  0.30268705874E+03  0.36595304818E+03  0.12500000000E+03 0.  0.
         25    1    1    2    0    0  0.14175179066E+03  0.11768535601E+03  0.17305015297E+03  0.28198363182E+03  0.12500000000E+03 0.  0.
</event>
<event>
 5    0  0.5532658E-005  0.3256422E+03  0.7546771E-02  0.1073081E+00
         21   -1    0    0  502  501  0.00000000000E+00  0.00000000000E+00  0.83220554330E+02  0.83220554330E+02  0.00000000000E+00 0. -1.
         21   -1    0    0  501  502 -0.00000000000E+00 -0.00000000000E+00 -0.12742386095E+04  0.12742386095E+04  0.00000000000E+00 0. -1.
         25    1    1    2    0    0  0.24693787479E+02 -0.56928157010E+01 -0.54689371660E+02  0.13877362380E+03  0.12500000000E+03 0.  0.
         25    1    1    2    0    0  0.60398754574E+01  0.36895208382E+02 -0.77808340421E+02  0.15191074464E+03  0.12500000000E+03 0.  0.
         25    1    1    2    0    0 -0.30733662936E+02 -0.31202392681E+02 -0.10585203431E+04  0.10667747954E+04  0.12500000000E+03 0.  0.
</event>
<event>
 5    0  0.5532658E-005  0.2533507E+03  0.7546771E-02  0.1111205E+00
         21   -1    0    0  502  501  0.00000000000E+00  0.00000000000E+00  0.12476864466E+03  0.12476864466E+03  0.00000000000E+00 0.  1.
         21   -1    0    0  501  502 -0.00000000000E+00 -0.00000000000E+00 -0.51444493342E+03  0.51444493342E+03  0.00000000000E+00 0.  1.
         25    1    1    2    0    0  0.12619423854E+03 -0.13384421954E+02 -0.16083717617E+03  0.23999526210E+03  0.12500000000E+03 0.  0.
         25    1    1    2    0    0 -0.32670074405E+02  0.27097455388E+02 -0.20035529441E+03  0.23993509507E+03  0.12500000000E+03 0.  0.
         25    1    1    2    0    0 -0.93524164131E+02 -0.13713033434E+02 -0.28483818178E+02  0.15928322090E+03  0.12500000000E+03 0.  0.
</event>
<event>
 5    0  0.5532658E-005  0.3518561E+03  0.7546771E-02  0.1061856E+00
         21   -1    0    0  502  501  0.00000000000E+00  0.00000000000E+00  0.95851809854E+02  0.95851809854E+02  0.00000000000E+00 0. -1.
         21   -1    0    0  501  502 -0.00000000000E+00 -0.00000000000E+00 -0.12916050495E+04  0.12916050495E+04  0.00000000000E+00 0.  1.
         25    1    1    2    0    0 -0.91769447380E+02  0.19568741421E+03 -0.23799367713E+03  0.34493649546E+03  0.12500000000E+03 0.  0.
         25    1    1    2    0    0  0.19616715505E+02  0.41805974621E+02 -0.28474852480E+03  0.31438714576E+03  0.12500000000E+03 0.  0.
         25    1    1    2    0    0  0.72152731875E+02 -0.23749338883E+03 -0.67301103768E+03  0.72813321809E+03  0.12500000000E+03 0.  0.
</event>
<event>
 5    0  0.5532658E-005  0.2737118E+03  0.7546771E-02  0.1099174E+00
         21   -1    0    0  502  501  0.00000000000E+00  0.00000000000E+00  0.12169383611E+03  0.12169383611E+03  0.00000000000E+00 0.  1.
         21   -1    0    0  501  502 -0.00000000000E+00 -0.00000000000E+00 -0.61562828668E+03  0.61562828668E+03  0.00000000000E+00 0.  1.
         25    1    1    2    0    0  0.30680471606E+02  0.97299061276E+02 -0.34448451890E+03  0.38039845219E+03  0.12500000000E+03 0.  0.
         25    1    1    2    0    0 -0.41758167690E+02 -0.22743432160E+02 -0.16240424081E+03  0.21038333039E+03  0.12500000000E+03 0.  0.
         25    1    1    2    0    0  0.11077696084E+02 -0.74555629116E+02  0.12954309144E+02  0.14654034021E+03  0.12500000000E+03 0.  0.
</event>
<event>
 5    0  0.5532658E-005  0.3277765E+03  0.7546771E-02  0.1072125E+00
         21   -1    0    0  502  501  0.00000000000E+00  0.00000000000E+00  0.47873674618E+03  0.47873674618E+03  0.00000000000E+00 0. -1.
         21   -1    0    0  501  502 -0.00000000000E+00 -0.00000000000E+00 -0.22441862882E+03  0.22441862882E+03  0.00000000000E+00 0. -1.
         25    1    1    2    0    0  0.10729993209E+03 -0.28526318766E+02  0.17463871975E+03  0.24176581380E+03  0.12500000000E+03 0.  0.
         25    1    1    2    0    0 -0.90701717710E+02 -0.37969173337E+02 -0.13166002160E+03  0.20646506001E+03  0.12500000000E+03 0.  0.
         25    1    1    2    0    0 -0.16598214378E+02  0.66495492104E+02  0.21133941921E+03  0.25492450118E+03  0.12500000000E+03 0.  0.
</event>
<event>
 5    0  0.5532658E-005  0.2819604E+03  0.7546771E-02  0.1094623E+00
         21   -1    0    0  502  501  0.00000000000E+00  0.00000000000E+00  0.15749545701E+04  0.15749545701E+04  0.00000000000E+00 0. -1.
         21   -1    0    0  501  502 -0.00000000000E+00 -0.00000000000E+00 -0.50478709011E+02  0.50478709011E+02  0.00000000000E+00 0. -1.
         25    1    1    2    0    0  0.13388415521E+02  0.25340502895E+02  0.88480866348E+02  0.15580518113E+03  0.12500000000E+03 0.  0.
         25    1    1    2    0    0 -0.95842459070E+02  0.12469424210E+02  0.74953334654E+03  0.76600685445E+03  0.12500000000E+03 0.  0.
         25    1    1    2    0    0  0.82454043549E+02 -0.37809927105E+02  0.68646164816E+03  0.70362124348E+03  0.12500000000E+03 0.  0.
</event>
<event>
 5    0  0.5532658E-005  0.5321538E+03  0.7546771E-02  0.1005711E+00
         21   -1    0    0  502  501  0.00000000000E+00  0.00000000000E+00  0.13523923537E+04  0.13523923537E+04  0.00000000000E+00 0.  1.
         21   -1    0    0  501  502 -0.00000000000E+00 -0.00000000000E+00 -0.20939759820E+03  0.20939759820E+03  0.00000000000E+00 0.  1.
         25    1    1    2    0    0 -0.84611590715E+02 -0.15725327263E+03  0.45421620941E+03  0.50381055758E+03  0.12500000000E+03 0.  0.
         25    1    1    2    0    0 -0.30200504498E+03 -0.59427845911E+01  0.45890510281E+03  0.56343700382E+03  0.12500000000E+03 0.  0.
         25    1    1    2    0    0  0.38661663570E+03  0.16319605722E+03  0.22987344328E+03  0.49454239051E+03  0.12500000000E+03 0.  0.
</event>
<event>
 5    0  0.5532658E-005  0.3354386E+03  0.7546771E-02  0.1068755E+00
         21   -1    0    0  502  501  0.00000000000E+00  0.00000000000E+00  0.29117931476E+03  0.29117931476E+03  0.00000000000E+00 0.  1.
         21   -1    0    0  501  502 -0.00000000000E+00 -0.00000000000E+00 -0.38642529944E+03  0.38642529944E+03  0.00000000000E+00 0.  1.
         25    1    1    2    0    0  0.30768352595E+01  0.34286619827E+02  0.57626929820E+02  0.14188341078E+03  0.12500000000E+03 0.  0.
         25    1    1    2    0    0  0.68823682149E+02  0.18444367783E+03 -0.16133257471E+01  0.23320328543E+03  0.12500000000E+03 0.  0.
         25    1    1    2    0    0 -0.71900517408E+02 -0.21873029765E+03 -0.15125958875E+03  0.30251791799E+03  0.12500000000E+03 0.  0.
</event>
<event>
 5    0  0.5532658E-005  0.4678345E+03  0.7546771E-02  0.1022533E+00
         21   -1    0    0  502  501  0.00000000000E+00  0.00000000000E+00  0.11847489481E+04  0.11847489481E+04  0.00000000000E+00 0. -1.
         21   -1    0    0  501  502 -0.00000000000E+00 -0.00000000000E+00 -0.18473883615E+03  0.18473883615E+03  0.00000000000E+00 0. -1.
         25    1    1    2    0    0  0.51806306100E+02 -0.30727914028E+02  0.17443203600E+03  0.22288928470E+03  0.12500000000E+03 0.  0.
         25    1    1    2    0    0  0.17091082915E+03  0.52194644538E+02 -0.58767858101E+02  0.22586158059E+03  0.12500000000E+03 0.  0.
         25    1    1    2    0    0 -0.22271713525E+03 -0.21466730511E+02  0.88434593409E+03  0.92073691899E+03  0.12500000000E+03 0.  0.
</event>
<event>
 5    0  0.5564902E-005  0.3511960E+03  0.7546771E-02  0.1062125E+00
         21   -1    0    0  502  501  0.00000000000E+00  0.00000000000E+00  0.20020968831E+03  0.20020968831E+03  0.00000000000E+00 0. -1.
         21   -1    0    0  501  502 -0.00000000000E+00 -0.00000000000E+00 -0.61604729520E+03  0.61604729520E+03  0.00000000000E+00 0. -1.
         25    1    1    2    0    0 -0.53557484991E+02 -0.15839162889E+03 -0.17188970771E+03  0.27042075349E+03  0.12500000000E+03 0.  0.
         25    1    1    2    0    0 -0.66213232623E+02  0.25352412603E+03 -0.15647128242E+03  0.32979832758E+03  0.12500000000E+03 0.  0.
         25    1    1    2    0    0  0.11977071761E+03 -0.95132497143E+02 -0.87476616761E+02  0.21603790244E+03  0.12500000000E+03 0.  0.
</event>
<event>
 5    0  0.5541139E-005  0.3038524E+03  0.7546771E-02  0.1083331E+00
         21   -1    0    0  502  501  0.00000000000E+00  0.00000000000E+00  0.93083569129E+03  0.93083569129E+03  0.00000000000E+00 0.  1.
         21   -1    0    0  501  502 -0.00000000000E+00 -0.00000000000E+00 -0.99186461983E+02  0.99186461983E+02  0.00000000000E+00 0.  1.
         25    1    1    2    0    0 -0.11380557953E+03 -0.17519866540E+03  0.42195927372E+03  0.48715594112E+03  0.12500000000E+03 0.  0.
         25    1    1    2    0    0  0.87696451116E+02  0.26182737988E+02  0.22643739835E+03  0.27436307820E+03  0.12500000000E+03 0.  0.
         25    1    1    2    0    0  0.26109128413E+02  0.14901592741E+03  0.18325255724E+03  0.26850313395E+03  0.12500000000E+03 0.  0.
</event>
<event>
 5    0  0.5532658E-005  0.3248830E+03  0.7546771E-02  0.1073424E+00
         21   -1    0    0  502  501  0.00000000000E+00  0.00000000000E+00  0.61488411106E+03  0.61488411106E+03  0.00000000000E+00 0.  1.
         21   -1    0    0  501  502 -0.00000000000E+00 -0.00000000000E+00 -0.17165665470E+03  0.17165665470E+03  0.00000000000E+00 0.  1.
         25    1    1    2    0    0 -0.18415841895E+02  0.47073801975E+02 -0.76668387935E+02  0.15510682697E+03  0.12500000000E+03 0.  0.
         25    1    1    2    0    0 -0.50463563229E+02 -0.13054468818E+03  0.33020050918E+03  0.37979713412E+03  0.12500000000E+03 0.  0.
         25    1    1    2    0    0  0.68879405124E+02  0.83470886203E+02  0.18969533513E+03  0.25163680467E+03  0.12500000000E+03 0.  0.
</event>
<event>
 5    0  0.5532658E-005  0.2463055E+03  0.7546771E-02  0.1115662E+00
         21   -1    0    0  502  501  0.00000000000E+00  0.00000000000E+00  0.10836948963E+04  0.10836948963E+04  0.00000000000E+00 0.  1.
         21   -1    0    0  501  502 -0.00000000000E+00 -0.00000000000E+00 -0.55981067097E+02  0.55981067097E+02  0.00000000000E+00 0.  1.
         25    1    1    2    0    0  0.36619421610E+01  0.37540432343E+02  0.43885418074E+03  0.45786535776E+03  0.12500000000E+03 0.  0.
         25    1    1    2    0    0 -0.43648924567E+02  0.77992575691E+02  0.17714539341E+03  0.23450705935E+03  0.12500000000E+03 0.  0.
         25    1    1    2    0    0  0.39986982406E+02 -0.11553300803E+03  0.41171425502E+03  0.44730354625E+03  0.12500000000E+03 0.  0.
</event>
<event>
 5    0  0.5532658E-005  0.3144336E+03  0.7546771E-02  0.1078240E+00
         21   -1    0    0  502  501  0.00000000000E+00  0.00000000000E+00  0.42747452806E+03  0.42747452806E+03  0.00000000000E+00 0.  1.
         21   -1    0    0  501  502 -0.00000000000E+00 -0.00000000000E+00 -0.23128515333E+03  0.23128515333E+03  0.00000000000E+00 0.  1.
         25    1    1    2    0    0 -0.13329891670E+03  0.99444844613E+02  0.12202301930E+03  0.24118975010E+03  0.12500000000E+03 0.  0.
         25    1    1    2    0    0  0.14359386527E+03  0.64858906700E+02  0.10979563407E+02  0.20142350095E+03  0.12500000000E+03 0.  0.
         25    1    1    2    0    0 -0.10294948567E+02 -0.16430375131E+03  0.63186792026E+02  0.21614643034E+03  0.12500000000E+03 0.  0.
</event>
<event>
 5    0  0.5532658E-005  0.3327227E+03  0.7546771E-02  0.1069938E+00
         21   -1    0    0  502  501  0.00000000000E+00  0.00000000000E+00  0.34088597115E+03  0.34088597115E+03  0.00000000000E+00 0. -1.
         21   -1    0    0  501  502 -0.00000000000E+00 -0.00000000000E+00 -0.32475493001E+03  0.32475493001E+03  0.00000000000E+00 0. -1.
         25    1    1    2    0    0  0.62960071516E+02  0.62972800541E+02 -0.22375534403E+02  0.15509741698E+03  0.12500000000E+03 0.  0.
         25    1    1    2    0    0 -0.22291008124E+03  0.57680590166E+02  0.72792927288E+02  0.27191867362E+03  0.12500000000E+03 0.  0.
         25    1    1    2    0    0  0.15995000972E+03 -0.12065339071E+03 -0.34286351752E+02  0.23862481056E+03  0.12500000000E+03 0.  0.
</event>
<event>
 5    0  0.5532658E-005  0.3569687E+03  0.7546771E-02  0.1059791E+00
         21   -1    0    0  502  501  0.00000000000E+00  0.00000000000E+00  0.26531077280E+03  0.26531077280E+03  0.00000000000E+00 0.  1.
         21   -1    0    0  501  502 -0.00000000000E+00 -0.00000000000E+00 -0.48029192803E+03  0.48029192803E+03  0.00000000000E+00 0.  1.
         25    1    1    2    0    0  0.99897010736E+02 -0.11165323997E+03 -0.65883548441E+02  0.20594052711E+03  0.12500000000E+03 0.  0.
         25    1    1    2    0    0 -0.22948777899E+03 -0.14169801738E+00  0.28872097984E+02  0.26291302521E+03  0.12500000000E+03 0.  0.
         25    1    1    2    0    0  0.12959076826E+03  0.11179493799E+03 -0.17796970478E+03  0.27674914850E+03  0.12500000000E+03 0.  0.
</event>
<event>
 5    0  0.5532658E-005  0.2379005E+03  0.7546771E-02  0.1121199E+00
         21   -1    0    0  502  501  0.00000000000E+00  0.00000000000E+00  0.34445080615E+02  0.34445080615E+02  0.00000000000E+00 0. -1.
         21   -1    0    0  501  502 -0.00000000000E+00 -0.00000000000E+00 -0.16430985502E+04  0.16430985502E+04  0.00000000000E+00 0. -1.
         25    1    1    2    0    0 -0.34286267497E+02 -0.51018839979E+02 -0.77101311871E+03  0.78349518147E+03  0.12500000000E+03 0.  0.
         25    1    1    2    0    0 -0.69273582495E+02  0.39358760834E+02 -0.44407901677E+03  0.46816569120E+03  0.12500000000E+03 0.  0.
         25    1    1    2    0    0  0.10355984999E+03  0.11660079145E+02 -0.39356133414E+03  0.42588275817E+03  0.12500000000E+03 0.  0.
</event>
<event>
 5    0  0.5532658E-005  0.3049894E+03  0.7546771E-02  0.1082773E+00
         21   -1    0    0  502  501  0.00000000000E+00  0.00000000000E+00  0.47955928694E+03  0.47955928694E+03  0.00000000000E+00 0.  1.
         21   -1    0    0  501  502 -0.00000000000E+00 -0.00000000000E+00 -0.19396664489E+03  0.19396664489E+03  0.00000000000E+00 0.  1.
         25    1    1    2    0    0  0.59997248388E+02 -0.52438229452E-01 -0.19990522820E+02  0.14008673587E+03  0.12500000000E+03 0.  0.
         25    1    1    2    0    0  0.61062422051E+02  0.13494984976E+03  0.22971857496E+03  0.30055898759E+03  0.12500000000E+03 0.  0.
         25    1    1    2    0    0 -0.12105967044E+03 -0.13489741153E+03  0.75864589911E+02  0.23288020836E+03  0.12500000000E+03 0.  0.
</event>
<event>
 5    0  0.5532658E-005  0.3950873E+03  0.7546771E-02  0.1045494E+00
         21   -1    0    0  502  501  0.00000000000E+00  0.00000000000E+00  0.71662720268E+03  0.71662720268E+03  0.00000000000E+00 0. -1.
         21   -1    0    0  501  502 -0.00000000000E+00 -0.00000000000E+00 -0.21781757073E+03  0.21781757073E+03  0.00000000000E+00 0. -1.
         25    1    1    2    0    0 -0.44050516860E+02 -0.28664861285E+03  0.70038852999E+02  0.32347846329E+03  0.12500000000E+03 0.  0.
         25    1    1    2    0    0  0.67855674719E+01  0.23711230932E+03  0.37596406042E+03  0.46178162142E+03  0.12500000000E+03 0.  0.
         25    1    1    2    0    0  0.37264949388E+02  0.49536303526E+02  0.52806718529E+02  0.14918468870E+03  0.12500000000E+03 0.  0.
</event>
<event>
 5    0  0.5532658E-005  0.3094918E+03  0.7546771E-02  0.1080590E+00
         21   -1    0    0  502  501  0.00000000000E+00  0.00000000000E+00  0.34757382168E+03  0.34757382168E+03  0.00000000000E+00 0.  1.
         21   -1    0    0  501  502 -0.00000000000E+00 -0.00000000000E+00 -0.27558218001E+03  0.27558218001E+03  0.00000000000E+00 0.  1.
         25    1    1    2    0    0  0.30476602539E+02 -0.56752226287E+02  0.17973460210E+03  0.22820860125E+03  0.12500000000E+03 0.  0.
         25    1    1    2    0    0  0.82811537062E+02  0.46331928685E+02 -0.15382980235E+03  0.21975669814E+03  0.12500000000E+03 0.  0.
         25    1    1    2    0    0 -0.11328813960E+03  0.10420297603E+02  0.46086841911E+02  0.17519070230E+03  0.12500000000E+03 0.  0.
</event>
<event>
 5    0  0.5532658E-005  0.4107997E+03  0.7546771E-02  0.1040103E+00
         21   -1    0    0  502  501  0.00000000000E+00  0.00000000000E+00  0.19565085042E+03  0.19565085042E+03  0.00000000000E+00 0.  1.
         21   -1    0    0  501  502 -0.00000000000E+00 -0.00000000000E+00 -0.86253838827E+03  0.86253838827E+03  0.00000000000E+00 0.  1.
         25    1    1    2    0    0 -0.23093746542E+02  0.12652286003E+03 -0.34864898898E+03  0.39207457551E+03  0.12500000000E+03 0.  0.
         25    1    1    2    0    0  0.79615457557E+02 -0.31625648211E+03 -0.21581589498E+03  0.41055850263E+03  0.12500000000E+03 0.  0.
         25    1    1    2    0    0 -0.56521711015E+02  0.18973362208E+03 -0.10242265389E+03  0.25555616055E+03  0.12500000000E+03 0.  0.
</event>
<event>
 5    0  0.5532658E-005  0.2520910E+03  0.7546771E-02  0.1111990E+00
         21   -1    0    0  502  501  0.00000000000E+00  0.00000000000E+00  0.32475812553E+03  0.32475812553E+03  0.00000000000E+00 0.  1.
         21   -1    0    0  501  502 -0.00000000000E+00 -0.00000000000E+00 -0.19568370250E+03  0.19568370250E+03  0.00000000000E+00 0.  1.
         25    1    1    2    0    0 -0.56771831521E+02  0.81813476763E+01  0.16975355825E+03  0.21847481741E+03  0.12500000000E+03 0.  0.
         25    1    1    2    0    0  0.16349469383E+02  0.52945291151E+02 -0.70795319713E+02  0.15397235563E+03  0.12500000000E+03 0.  0.
         25    1    1    2    0    0  0.40422362138E+02 -0.61126638828E+02  0.30116184494E+02  0.14799465498E+03  0.12500000000E+03 0.  0.
</event>
<event>
 5    0  0.5805462E-005  0.3103160E+03  0.7546771E-02  0.1080195E+00
         21   -1    0    0  502  501  0.00000000000E+00  0.00000000000E+00  0.25774394630E+03  0.25774394630E+03  0.00000000000E+00 0. -1.
         21   -1    0    0  501  502 -0.00000000000E+00 -0.00000000000E+00 -0.37361108128E+03  0.37361108128E+03  0.00000000000E+00 0. -1.
         25    1    1    2    0    0  0.66716643919E+02 -0.48212505683E+02  0.46368132098E+02  0.15668618304E+03  0.12500000000E+03 0.  0.
         25    1    1    2    0    0 -0.94837661054E+01 -0.15300880291E+03 -0.39126858554E+02  0.20163716584E+03  0.12500000000E+03 0.  0.
         25    1    1    2    0    0 -0.57232877814E+02  0.20122130859E+03 -0.12310840852E+03  0.27303167872E+03  0.12500000000E+03 0.  0.
</event>
<event>
 5    0  0.5532658E-005  0.5037771E+03  0.7546771E-02  0.1012798E+00
         21   -1    0    0  502  501  0.00000000000E+00  0.00000000000E+00  0.16140515149E+04  0.16140515149E+04  0.00000000000E+00 0. -1.
         21   -1    0    0  501  502 -0.00000000000E+00 -0.00000000000E+00 -0.15723872604E+03  0.15723872604E+03  0.00000000000E+00 0. -1.
         25    1    1    2    0    0  0.31891888057E+02  0.44011049062E+03  0.63184682633E+03  0.78074947866E+03  0.12500000000E+03 0.  0.
         25    1    1    2    0    0 -0.61374220998E+02 -0.20032984231E+03  0.22540188297E+03  0.33215937375E+03  0.12500000000E+03 0.  0.
         25    1    1    2    0    0  0.29482332942E+02 -0.23978064831E+03  0.59956407953E+03  0.65838138850E+03  0.12500000000E+03 0.  0.
</event>
<event>
 5    0  0.5532658E-005  0.2810616E+03  0.7546771E-02  0.1095111E+00
         21   -1    0    0  502  501  0.00000000000E+00  0.00000000000E+00  0.93045089357E+03  0.93045089357E+03  0.00000000000E+00 0. -1.
         21   -1    0    0  501  502 -0.00000000000E+00 -0.00000000000E+00 -0.84900381405E+02  0.84900381405E+02  0.00000000000E+00 0. -1.
         25    1    1    2    0    0 -0.89808706709E+01  0.30512503407E+02  0.10925770813E+03  0.16903820778E+03  0.12500000000E+03 0.  0.
         25    1    1    2    0    0  0.45411072126E+02 -0.94214848344E+02  0.94589976181E+02  0.18844327187E+03  0.12500000000E+03 0.  0.
         25    1    1    2    0    0 -0.36430201455E+02  0.63702344937E+02  0.64170282785E+03  0.65786979532E+03  0.12500000000E+03 0.  0.
</event>
<event>
 5    0  0.5532658E-005  0.4328370E+03  0.7546771E-02  0.1032968E+00
         21   -1    0    0  502  501  0.00000000000E+00  0.00000000000E+00  0.21119656570E+03  0.21119656570E+03  0.00000000000E+00 0. -1.
         21   -1    0    0  501  502 -0.00000000000E+00 -0.00000000000E+00 -0.88707804827E+03  0.88707804827E+03  0.00000000000E+00 0. -1.
         25    1    1    2    0    0  0.10717288518E+03  0.18271219466E+02 -0.47414878833E+02  0.17231667218E+03  0.12500000000E+03 0.  0.
         25    1    1    2    0    0  0.78176820308E+02  0.14583109475E+02 -0.67853033585E+03  0.69451616179E+03  0.12500000000E+03 0.  0.
         25    1    1    2    0    0 -0.18534970548E+03 -0.32854328941E+02  0.50063732111E+02  0.23144177999E+03  0.12500000000E+03 0.  0.
</event>
<event>
 5    0  0.5532658E-005  0.2822376E+03  0.7546771E-02  0.1094473E+00
         21   -1    0    0  502  501  0.00000000000E+00  0.00000000000E+00  0.43278052039E+03  0.43278052039E+03  0.00000000000E+00 0.  1.
         21   -1    0    0  501  502 -0.00000000000E+00 -0.00000000000E+00 -0.18406115976E+03  0.18406115976E+03  0.00000000000E+00 0. -1.
         25    1    1    2    0    0 -0.10144433312E+03 -0.20609043405E+02 -0.41702233729E+01  0.16235170512E+03  0.12500000000E+03 0.  0.
         25    1    1    2    0    0  0.90023936526E+02  0.13364718161E+03  0.10213955522E+03  0.22808631489E+03  0.12500000000E+03 0.  0.
         25    1    1    2    0    0  0.11420396597E+02 -0.11303813820E+03  0.15075002878E+03  0.22640366013E+03  0.12500000000E+03 0.  0.
</event>
<event>
 5    0  0.5532658E-005  0.2851103E+03  0.7546771E-02  0.1092930E+00
         21   -1    0    0  502  501  0.00000000000E+00  0.00000000000E+00  0.58874555766E+03  0.58874555766E+03  0.00000000000E+00 0. -1.
         21   -1    0    0  501  502 -0.00000000000E+00 -0.00000000000E+00 -0.13806960071E+03  0.13806960071E+03  0.00000000000E+00 0. -1.
         25    1    1    2    0    0  0.21669472371E+02 -0.56715678855E+02  0.24505025154E+03  0.28171059625E+03  0.12500000000E+03 0.  0.
         25    1    1    2    0    0 -0.92073796531E+02  0.12680743303E+03  0.20317288794E+03  0.28541536657E+03  0.12500000000E+03 0.  0.
         25    1    1    2    0    0  0.70404324160E+02 -0.70091754176E+02  0.24528174681E+01  0.15968919556E+03  0.12500000000E+03 0.  0.
</event>
<event>
 5    0  0.5532658E-005  0.3118379E+03  0.7546771E-02  0.1079468E+00
         21   -1    0    0  502  501  0.00000000000E+00  0.00000000000E+00  0.11368036597E+04  0.11368036597E+04  0.00000000000E+00 0.  1.
         21   -1    0    0  501  502 -0.00000000000E+00 -0.00000000000E+00 -0.85540607593E+02  0.85540607593E+02  0.00000000000E+00 0.  1.
         25    1    1    2    0    0  0.54898403595E+02  0.13391581148E+02  0.79652992221E+03  0.80825620080E+03  0.12500000000E+03 0.  0.
         25    1    1    2    0    0  0.51974333439E+02  0.47600716347E+02  0.15929809487E+03  0.21440159179E+03  0.12500000000E+03 0.  0.
         25    1    1    2    0    0 -0.10687273703E+03 -0.60992297495E+02  0.95435035067E+02  0.19968647474E+03  0.12500000000E+03 0.  0.
</event>
<event>
 5    0  0.5532658E-005  0.3503946E+03  0.7546771E-02  0.1062453E+00
         21   -1    0    0  502  501  0.00000000000E+00  0.00000000000E+00  0.26608144392E+03  0.26608144392E+03  0.00000000000E+00 0.  1.
         21   -1    0    0  501  502 -0.00000000000E+00 -0.00000000000E+00 -0.46142404759E+03  0.46142404759E+03  0.00000000000E+00 0.  1.
         25    1    1    2    0    0 -0.46026214849E+02  0.16658403361E+02  0.12418208265E+03  0.18287182535E+03  0.12500000000E+03 0.  0.
         25    1    1    2    0    0 -0.10734057186E+03 -0.12830919403E+02  0.40851173562E+01  0.16531279153E+03  0.12500000000E+03 0.  0.
         25    1    1    2    0    0  0.15336678671E+03 -0.38274839584E+01 -0.32360980367E+03  0.37932087463E+03  0.12500000000E+03 0.  0.
</event>
<event>
 5    0  0.5532658E-005  0.2856761E+03  0.7546771E-02  0.1092629E+00
         21   -1    0    0  502  501  0.00000000000E+00  0.00000000000E+00  0.14268684167E+03  0.14268684167E+03  0.00000000000E+00 0. -1.
         21   -1    0    0  501  502 -0.00000000000E+00 -0.00000000000E+00 -0.57195759206E+03  0.57195759206E+03  0.00000000000E+00 0. -1.
         25    1    1    2    0    0 -0.61532771258E+02  0.15521615780E+01 -0.46020278913E+02  0.14673635274E+03  0.12500000000E+03 0.  0.
         25    1    1    2    0    0 -0.35112520390E+02  0.15025575763E+03 -0.20540587641E+03  0.28570309038E+03  0.12500000000E+03 0.  0.
         25    1    1    2    0    0  0.96645291648E+02 -0.15180791921E+03 -0.17784459506E+03  0.28220499061E+03  0.12500000000E+03 0.  0.
</event>
<event>
 5    0  0.5532658E-005  0.3359323E+03  0.7546771E-02  0.1068542E+00
         21   -1    0    0  502  501  0.00000000000E+00  0.00000000000E+00  0.13349836342E+03  0.13349836342E+03  0.00000000000E+00 0.  1.
         21   -1    0    0  501  502 -0.00000000000E+00 -0.00000000000E+00 -0.84533266835E+03  0.84533266835E+03  0.00000000000E+00 0.  1.
         25    1    1    2    0    0 -0.13825158997E+02  0.19556127219E+03 -0.22059780319E+03  0.32050543985E+03  0.12500000000E+03 0.  0.
         25    1    1    2    0    0 -0.10445101111E+03  0.17314460812E+02 -0.16584524644E+03  0.23310823675E+03  0.12500000000E+03 0.  0.
         25    1    1    2    0    0  0.11827617010E+03 -0.21287573300E+03 -0.32539125530E+03  0.42521735517E+03  0.12500000000E+03 0.  0.
</event>
<event>
 5    0  0.5532658E-005  0.5983454E+03  0.7546771E-02  0.9908845E-01
         21   -1    0    0  502  501  0.00000000000E+00  0.00000000000E+00  0.94738508705E+03  0.94738508705E+03  0.00000000000E+00 0. -1.
         21   -1    0    0  501  502 -0.00000000000E+00 -0.00000000000E+00 -0.37790047190E+03  0.37790047190E+03  0.00000000000E+00 0. -1.
         25    1    1    2    0    0 -0.63668476454E+02  0.17318886330E+03  0.30966606434E+03  0.38153129449E+03  0.12500000000E+03 0.  0.
         25    1    1    2    0    0  0.10492984316E+03  0.31698038986E+03  0.25121792835E+03  0.43614480057E+03  0.12500000000E+03 0.  0.
         25    1    1    2    0    0 -0.41261366704E+02 -0.49016925316E+03  0.86006224495E+01  0.50760946389E+03  0.12500000000E+03 0.  0.
</event>
<event>
 5    0  0.5532658E-005  0.3917173E+03  0.7546771E-02  0.1046686E+00
         21   -1    0    0  502  501  0.00000000000E+00  0.00000000000E+00  0.94275062270E+03  0.94275062270E+03  0.00000000000E+00 0. -1.
         21   -1    0    0  501  502 -0.00000000000E+00 -0.00000000000E+00 -0.16276034186E+03  0.16276034186E+03  0.00000000000E+00 0. -1.
         25    1    1    2    0    0  0.39237453907E+02  0.98796213918E+02  0.10616375399E+03  0.19543800125E+03  0.12500000000E+03 0.  0.
         25    1    1    2    0    0  0.12671374814E+03  0.60888252338E+02  0.11089828360E+01  0.18812225568E+03  0.12500000000E+03 0.  0.
         25    1    1    2    0    0 -0.16595120204E+03 -0.15968446626E+03  0.67271754401E+03  0.72195070763E+03  0.12500000000E+03 0.  0.
</event>
<event>
 5    0  0.5532658E-005  0.3066661E+03  0.7546771E-02  0.1081955E+00
         21   -1    0    0  502  501  0.00000000000E+00  0.00000000000E+00  0.21344182855E+03  0.21344182855E+03  0.00000000000E+00 0. -1.
         21   -1    0    0  501  502 -0.00000000000E+00 -0.00000000000E+00 -0.44060761116E+03  0.44060761116E+03  0.00000000000E+00 0. -1.
         25    1    1    2    0    0 -0.92583280984E+02  0.53559564582E+02 -0.15427072353E+03  0.22553214187E+03  0.12500000000E+03 0.  0.
         25    1    1    2    0    0  0.10495776465E+03 -0.29686272939E+02 -0.19202265383E+03  0.25376190956E+03  0.12500000000E+03 0.  0.
         25    1    1    2    0    0 -0.12374483664E+02 -0.23873291643E+02  0.11912759475E+03  0.17475538827E+03  0.12500000000E+03 0.  0.
</event>
<event>
 5    0  0.5532658E-005  0.3190846E+03  0.7546771E-02  0.1076071E+00
         21   -1    0    0  502  501  0.00000000000E+00  0.00000000000E+00  0.13000677088E+03  0.13000677088E+03  0.00000000000E+00 0. -1.
         21   -1    0    0  501  502 -0.00000000000E+00 -0.00000000000E+00 -0.78315124600E+03  0.78315124600E+03  0.00000000000E+00 0. -1.
         25    1    1    2    0    0 -0.22132902899E+03  0.18914973811E+02 -0.42523652108E+03  0.49577758538E+03  0.12500000000E+03 0.  0.
         25    1    1    2    0    0  0.10776813849E+03 -0.14232002948E+02 -0.17351464925E+03  0.23989342443E+03  0.12500000000E+03 0.  0.
         25    1    1    2    0    0  0.11356089050E+03 -0.46829708633E+01 -0.54393304787E+02  0.17748700705E+03  0.12500000000E+03 0.  0.
</event>
<event>
 5    0  0.5532658E-005  0.2933986E+03  0.7546771E-02  0.1088588E+00
         21   -1    0    0  502  501  0.00000000000E+00  0.00000000000E+00  0.50260455533E+03  0.50260455533E+03  0.00000000000E+00 0.  1.
         21   -1    0    0  501  502 -0.00000000000E+00 -0.00000000000E+00 -0.17127328723E+03  0.17127328723E+03  0.00000000000E+00 0.  1.
         25    1    1    2    0    0  0.28138664245E+02  0.12425115982E+02 -0.22268768866E+02  0.13064098132E+03  0.12500000000E+03 0.  0.
         25    1    1    2    0    0  0.97952251464E+02 -0.12503236290E+03  0.17662589699E+03  0.26842027276E+03  0.12500000000E+03 0.  0.
         25    1    1    2    0    0 -0.12609091571E+03  0.11260724692E+03  0.17697413998E+03  0.27481658848E+03  0.12500000000E+03 0.  0.
</event>
<event>
 5    0  0.5532658E-005  0.3317657E+03  0.7546771E-02  0.1070358E+00
         21   -1    0    0  502  501  0.00000000000E+00  0.00000000000E+00  0.22785440621E+03  0.22785440621E+03  0.00000000000E+00 0.  1.
         21   -1    0    0  501  502 -0.00000000000E+00 -0.00000000000E+00 -0.48306484343E+03  0.48306484343E+03  0.00000000000E+00 0.  1.
         25    1    1    2    0    0 -0.20633230826E+03 -0.20437322703E+02 -0.36130861839E+02  0.24478795879E+03  0.12500000000E+03 0.  0.
         25    1    1    2    0    0 -0.36463334890E+02  0.19450872922E+02 -0.33163705234E+02  0.13576723682E+03  0.12500000000E+03 0.  0.
         25    1    1    2    0    0  0.24279564315E+03  0.98644978023E+00 -0.18591587015E+03  0.33036405402E+03  0.12500000000E+03 0.  0.
</event>
<event>
 5    0  0.5532658E-005  0.3700946E+03  0.7546771E-02  0.1054657E+00
         21   -1    0    0  502  501  0.00000000000E+00  0.00000000000E+00  0.10248843494E+03  0.10248843494E+03  0.00000000000E+00 0. -1.
         21   -1    0    0  501  502 -0.00000000000E+00 -0.00000000000E+00 -0.13364437445E+04  0.13364437445E+04  0.00000000000E+00 0. -1.
         25    1    1    2    0    0 -0.52429123689E+02 -0.25016475922E+03 -0.27535010779E+03  0.39594684192E+03  0.12500000000E+03 0.  0.
         25    1    1    2    0    0  0.77630073019E+02  0.71930050171E+02 -0.60670416508E+03  0.62842287058E+03  0.12500000000E+03 0.  0.
         25    1    1    2    0    0 -0.25200949331E+02  0.17823470905E+03 -0.35190103667E+03  0.41456246691E+03  0.12500000000E+03 0.  0.
</event>
<event>
 5    0  0.5532658E-005  0.3046497E+03  0.7546771E-02  0.1082939E+00
         21   -1    0    0  502  501  0.00000000000E+00  0.00000000000E+00  0.15220758996E+04  0.15220758996E+04  0.00000000000E+00 0.  1.
         21   -1    0    0  501  502 -0.00000000000E+00 -0.00000000000E+00 -0.60976888261E+02  0.60976888261E+02  0.00000000000E+00 0.  1.
         25    1    1    2    0    0  0.75137546821E+02 -0.32458938936E+02  0.27652485821E+03  0.31430913265E+03  0.12500000000E+03 0.  0.
         25    1    1    2    0    0  0.18517876327E+02  0.18955033021E+03  0.69496998608E+03  0.73135526318E+03  0.12500000000E+03 0.  0.
         25    1    1    2    0    0 -0.93655423148E+02 -0.15709139128E+03  0.48960416706E+03  0.53738839204E+03  0.12500000000E+03 0.  0.
</event>
<event>
 5    0  0.5532658E-005  0.2955910E+03  0.7546771E-02  0.1087466E+00
         21   -1    0    0  502  501  0.00000000000E+00  0.00000000000E+00  0.12253297669E+04  0.12253297669E+04  0.00000000000E+00 0.  1.
         21   -1    0    0  501  502 -0.00000000000E+00 -0.00000000000E+00 -0.71306551965E+02  0.71306551965E+02  0.00000000000E+00 0.  1.
         25    1    1    2    0    0  0.10735311958E+03 -0.18835519634E+03  0.51276399548E+03  0.57057364760E+03  0.12500000000E+03 0.  0.
         25    1    1    2    0    0 -0.96817686830E+02  0.10940837332E+03  0.36678017549E+03  0.41412142394E+03  0.12500000000E+03 0.  0.
         25    1    1    2    0    0 -0.10535432752E+02  0.78946823019E+02  0.27447904397E+03  0.31194124733E+03  0.12500000000E+03 0.  0.
</event>
<event>
 5    0  0.5532658E-005  0.4915600E+03  0.7546771E-02  0.1016006E+00
         21   -1    0    0  502  501  0.00000000000E+00  0.00000000000E+00  0.48585794288E+03  0.48585794288E+03  0.00000000000E+00 0. -1.
         21   -1    0    0  501  502 -0.00000000000E+00 -0.00000000000E+00 -0.49732900515E+03  0.49732900515E+03  0.00000000000E+00 0. -1.
         25    1    1    2    0    0  0.12451559382E+03  0.31974977373E+03 -0.13747491193E+03  0.39021584068E+03  0.12500000000E+03 0.  0.
         25    1    1    2    0    0  0.91052919990E+02  0.74469870773E+01  0.92439274796E+02  0.18032224317E+03  0.12500000000E+03 0.  0.
         25    1    1    2    0    0 -0.21556851381E+03 -0.32719676081E+03  0.33564574863E+02  0.41264886419E+03  0.12500000000E+03 0.  0.
</event>
<event>
 5    0  0.6103888E-005  0.3329189E+03  0.7546771E-02  0.1069853E+00
         21   -1    0    0  502  501  0.00000000000E+00  0.00000000000E+00  0.69584447626E+03  0.69584447626E+03  0.00000000000E+00 0.  1.
         21   -1    0    0  501  502 -0.00000000000E+00 -0.00000000000E+00 -0.15928125889E+03  0.15928125889E+03  0.00000000000E+00 0.  1.
         25    1    1    2    0    0 -0.11105631323E+03 -0.13692245742E+03  0.29476400862E+03  0.36550251002E+03  0.12500000000E+03 0.  0.
         25    1    1    2    0    0  0.18220284521E+01  0.12364292483E+03  0.26851385167E+03  0.32096040439E+03  0.12500000000E+03 0.  0.
         25    1    1    2    0    0  0.10923428478E+03  0.13279532584E+02 -0.26714642918E+02  0.16866282075E+03  0.12500000000E+03 0.  0.
</event>
<event>
 5    0  0.5532658E-005  0.2179017E+03  0.7546771E-02  0.1135457E+00
         21   -1    0    0  502  501  0.00000000000E+00  0.00000000000E+00  0.70424698719E+02  0.70424698719E+02  0.00000000000E+00 0. -1.
         21   -1    0    0  501  502 -0.00000000000E+00 -0.00000000000E+00 -0.67421156089E+03  0.67421156089E+03  0.00000000000E+00 0. -1.
         25    1    1    2    0    0  0.73872158436E+02  0.36781521612E+01 -0.29005870971E+03  0.32439124476E+03  0.12500000000E+03 0.  0.
         25    1    1    2    0    0 -0.69817497993E+02  0.58162882241E+01 -0.10855254252E+03  0.17976920404E+03  0.12500000000E+03 0.  0.
         25    1    1    2    0    0 -0.40546604434E+01 -0.94944403853E+01 -0.20517560994E+03  0.24047581081E+03  0.12500000000E+03 0.  0.
</event>
<event>
 5    0  0.5532658E-005  0.2225080E+03  0.7546771E-02  0.1132027E+00
         21   -1    0    0  502  501  0.00000000000E+00  0.00000000000E+00  0.40163259840E+03  0.40163259840E+03  0.00000000000E+00 0.  1.
         21   -1    0    0  501  502 -0.00000000000E+00 -0.00000000000E+00 -0.12327137771E+03  0.12327137771E+03  0.00000000000E+00 0.  1.
         25    1    1    2    0    0  0.38920787638E+02  0.42832174736E+01  0.13002961440E+03  0.18456942944E+03  0.12500000000E+03 0.  0.
         25    1    1    2    0    0  0.57814856163E+02  0.13610107490E+02  0.10981301581E+03  0.17666830802E+03  0.12500000000E+03 0.  0.
         25    1    1    2    0    0 -0.96735643800E+02 -0.17893324963E+02  0.38518590482E+02  0.16366623865E+03  0.12500000000E+03 0.  0.
</event>
<event>
 5    0  0.5532658E-005  0.2711955E+03  0.7546771E-02  0.1100597E+00
         21   -1    0    0  502  501  0.00000000000E+00  0.00000000000E+00  0.88579196780E+02  0.88579196780E+02  0.00000000000E+00 0. -1.
         21   -1    0    0  501  502 -0.00000000000E+00 -0.00000000000E+00 -0.83029627434E+03  0.83029627434E+03  0.00000000000E+00 0. -1.
         25    1    1    2    0    0 -0.30220438210E+02  0.44238738041E+01 -0.18201245727E+03  0.22290441931E+03  0.12500000000E+03 0.  0.
         25    1    1    2    0    0  0.17775391619E+02  0.14638759650E+03 -0.16101671224E+03  0.25158830374E+03  0.12500000000E+03 0.  0.
         25    1    1    2    0    0  0.12445046592E+02 -0.15081147031E+03 -0.39868790805E+03  0.44438274808E+03  0.12500000000E+03 0.  0.
</event>
<event>
 5    0  0.5532658E-005  0.4317885E+03  0.7546771E-02  0.1033296E+00
         21   -1    0    0  502  501  0.00000000000E+00  0.00000000000E+00  0.30041529190E+03  0.30041529190E+03  0.00000000000E+00 0. -1.
         21   -1    0    0  501  502 -0.00000000000E+00 -0.00000000000E+00 -0.62061182561E+03  0.62061182561E+03  0.00000000000E+00 0. -1.
         25    1    1    2    0    0 -0.10013054519E+03 -0.45114345713E+02  0.55242634844E+01  0.16648407658E+03  0.12500000000E+03 0.  0.
         25    1    1    2    0    0 -0.23251440034E+03 -0.71779920112E+02 -0.25468325273E+03  0.37376979883E+03  0.12500000000E+03 0.  0.
         25    1    1    2    0    0  0.33264494553E+03  0.11689426582E+03 -0.71037544464E+02  0.38077324210E+03  0.12500000000E+03 0.  0.
</event>
<event>
 5    0  0.5532658E-005  0.2511745E+03  0.7546771E-02  0.1112565E+00
         21   -1    0    0  502  501  0.00000000000E+00  0.00000000000E+00  0.91775188422E+03  0.91775188422E+03  0.00000000000E+00 0. -1.
         21   -1    0    0  501  502 -0.00000000000E+00 -0.00000000000E+00 -0.68742568459E+02  0.68742568459E+02  0.00000000000E+00 0. -1.
         25    1    1    2    0    0 -0.10549288981E+03  0.95236948070E+02  0.35740636551E+03  0.40442939580E+03  0.12500000000E+03 0.  0.
         25    1    1    2    0    0  0.20061279984E+02 -0.66458377133E+01  0.13831783582E+03  0.18762581331E+03  0.12500000000E+03 0.  0.
         25    1    1    2    0    0  0.85431609828E+02 -0.88591110357E+02  0.35328511443E+03  0.39443924357E+03  0.12500000000E+03 0.  0.
</event>
<event>
 5    0  0.5532658E-005  0.2313407E+03  0.7546771E-02  0.1125700E+00
         21   -1    0    0  502  501  0.00000000000E+00  0.00000000000E+00  0.22012941506E+02  0.22012941506E+02  0.00000000000E+00 0.  1.
         21   -1    0    0  501  502 -0.00000000000E+00 -0.00000000000E+00 -0.24312297118E+04  0.24312297118E+04  0.00000000000E+00 0.  1.
         25    1    1    2    0    0 -0.16454494673E+02  0.19844521224E+02 -0.87437483891E+03  0.88364071564E+03  0.12500000000E+03 0.  0.
         25    1    1    2    0    0  0.79043857283E+02 -0.56389704477E+02 -0.11012877352E+04  0.11126038854E+04  0.12500000000E+03 0.  0.
         25    1    1    2    0    0 -0.62589362610E+02  0.36545183253E+02 -0.43355419619E+03  0.45699805225E+03  0.12500000000E+03 0.  0.
</event>
<event>
 5    0  0.5532658E-005  0.2897933E+03  0.7546771E-02  0.1090457E+00
         21   -1    0    0  502  501  0.00000000000E+00  0.00000000000E+00  0.17916858135E+03  0.17916858135E+03  0.00000000000E+00 0. -1.
         21   -1    0    0  501  502 -0.00000000000E+00 -0.00000000000E+00 -0.46872156552E+03  0.46872156552E+03  0.00000000000E+00 0. -1.
         25    1    1    2    0    0  0.10226481826E+02 -0.13740730046E+03  0.86410946762E+01  0.18623913570E+03  0.12500000000E+03 0.  0.
         25    1    1    2    0    0 -0.10172601898E+03  0.10654294145E+03 -0.18345000262E+03  0.26641787622E+03  0.12500000000E+03 0.  0.
         25    1    1    2    0    0  0.91499537151E+02  0.30864359011E+02 -0.11474407623E+03  0.19523313496E+03  0.12500000000E+03 0.  0.
</event>
<event>
 5    0  0.5532658E-005  0.2668914E+03  0.7546771E-02  0.1103072E+00
         21   -1    0    0  502  501  0.00000000000E+00  0.00000000000E+00  0.14848965890E+03  0.14848965890E+03  0.00000000000E+00 0. -1.
         21   -1    0    0  501  502 -0.00000000000E+00 -0.00000000000E+00 -0.47970371748E+03  0.47970371748E+03  0.00000000000E+00 0. -1.
         25    1    1    2    0    0 -0.11015255644E+02  0.72946386241E+02  0.23884892420E+01  0.14516616687E+03  0.12500000000E+03 0.  0.
         25    1    1    2    0    0  0.53319017913E+02 -0.14516985565E+03 -0.19318188143E+03  0.27723896546E+03  0.12500000000E+03 0.  0.
         25    1    1    2    0    0 -0.42303762269E+02  0.72223469406E+02 -0.14042066640E+03  0.20578824405E+03  0.12500000000E+03 0.  0.
</event>
<event>
 5    0  0.5532658E-005  0.2811122E+03  0.7546771E-02  0.1095083E+00
         21   -1    0    0  502  501  0.00000000000E+00  0.00000000000E+00  0.38116350326E+02  0.38116350326E+02  0.00000000000E+00 0.  1.
         21   -1    0    0  501  502 -0.00000000000E+00 -0.00000000000E+00 -0.20732328465E+04  0.20732328465E+04  0.00000000000E+00 0.  1.
         25    1    1    2    0    0 -0.10651836937E+03 -0.72338376981E+02 -0.11996106876E+04  0.12129591113E+04  0.12500000000E+03 0.  0.
         25    1    1    2    0    0 -0.15908545764E+02  0.20076883173E+02 -0.50418622544E+03  0.52008164070E+03  0.12500000000E+03 0.  0.
         25    1    1    2    0    0  0.12242691513E+03  0.52261493808E+02 -0.33131958309E+03  0.37830844482E+03  0.12500000000E+03 0.  0.
</event>
<event>
 5    0  0.5532658E-005  0.2321101E+03  0.7546771E-02  0.1125163E+00
         21   -1    0    0  502  501  0.00000000000E+00  0.00000000000E+00  0.17669715220E+04  0.17669715220E+04  0.00000000000E+00 0. -1.
         21   -1    0    0  501  502 -0.00000000000E+00 -0.00000000000E+00 -0.30490075335E+02  0.30490075335E+02  0.00000000000E+00 0. -1.
         25    1    1    2    0    0  0.30590165990E+02  0.34546382635E+02  0.43293719128E+03  0.45297772837E+03  0.12500000000E+03 0.  0.
         25    1    1    2    0    0  0.86094840253E+02  0.11001459342E+02  0.58490499987E+03  0.60437754136E+03  0.12500000000E+03 0.  0.
         25    1    1    2    0    0 -0.11668500624E+03 -0.45547841977E+02  0.71863925551E+03  0.74010632760E+03  0.12500000000E+03 0.  0.
</event>
<event>
 5    0  0.5532658E-005  0.2537076E+03  0.7546771E-02  0.1110984E+00
         21   -1    0    0  502  501  0.00000000000E+00  0.00000000000E+00  0.42915681008E+03  0.42915681008E+03  0.00000000000E+00 0. -1.
         21   -1    0    0  501  502 -0.00000000000E+00 -0.00000000000E+00 -0.14998607404E+03  0.14998607404E+03  0.00000000000E+00 0. -1.
         25    1    1    2    0    0  0.50641971847E+02 -0.22160502375E+02  0.18293740845E+03  0.22835672223E+03  0.12500000000E+03 0.  0.
         25    1    1    2    0    0 -0.32031729296E+02 -0.77978604836E+02  0.11336583076E+03  0.18863590877E+03  0.12500000000E+03 0.  0.
         25    1    1    2    0    0 -0.18610242551E+02  0.10013910721E+03 -0.17132503163E+02  0.16215025312E+03  0.12500000000E+03 0.  0.
</event>
