<event>
 6    0  0.3800129E+002  0.1091416E+03  0.7546771E-02  0.1262168E+00
          2   -1    0    0  504    0 -0.00000000000E+00  0.00000000000E+00  0.30306710311E+03  0.30306710311E+03  0.00000000000E+00 0. -1.
         21   -1    0    0  505  502  0.00000000000E+00 -0.00000000000E+00 -0.53383748610E+03  0.53383748610E+03  0.00000000000E+00 0. -1.
         21    1    1    2  503  501  0.31031799047E+02 -0.60871733202E+01 -0.18969365400E+03  0.19231148847E+03  0.00000000000E+00 0. -1.
         21    1    1    2  504  502 -0.36109424415E+02  0.35945631288E+02  0.98118801505E+02  0.11055893518E+03  0.00000000000E+00 0. -1.
         21    1    1    2  505  503  0.55669755083E+02  0.52467298787E+02 -0.32000636791E+03  0.32902281771E+03  0.00000000000E+00 0. -1.
          2    1    1    2  501    0 -0.50592129715E+02 -0.82325756754E+02  0.18081083742E+03  0.20501134784E+03  0.00000000000E+00 0. -1.
<scales pt_clust_3="31.01578" pt_clust_4="50.95075" pt_clust_5="31.01578" pt_clust_6="97.90208"></scales>
<clustering>
<clus scale="   31.016">  3  5 -1 -1</clus>
<clus scale="   50.951">  1  4  2 -1</clus>
<clus scale="   97.902">  1  6  2 -1</clus>
<clus scale="  109.142">  2  3  1 -1</clus>
</clustering>
</event>
<event>
 6    0  0.3800129E+002  0.7985405E+02  0.7546771E-02  0.1329466E+00
          1   -1    0    0  504    0 -0.00000000000E+00  0.00000000000E+00  0.19853254281E+04  0.19853254281E+04  0.00000000000E+00 0. -1.
         21   -1    0    0  505  502  0.00000000000E+00 -0.00000000000E+00 -0.25217451106E+02  0.25217451106E+02  0.00000000000E+00 0. -1.
         21    1    1    2  503  501 -0.73433159843E+02  0.56906273288E+01  0.18183102779E+03  0.19618189231E+03  0.00000000000E+00 0. -1.
         21    1    1    2  504  502 -0.41314656088E+02 -0.52529024397E+02  0.10773735142E+04  0.10794442497E+04  0.00000000000E+00 0. -1.
         21    1    1    2  505  503  0.14409063054E+02  0.54614674743E+02  0.47479778069E+02  0.73788299349E+02  0.00000000000E+00 0.  1.
          1    1    1    2  501    0  0.10033875288E+03 -0.77762776750E+01  0.65342365696E+03  0.66112843782E+03  0.00000000000E+00 0. -1.
<scales pt_clust_3="79.85405" pt_clust_4="62.41036" pt_clust_5="56.48348" pt_clust_6="14000.00000"></scales>
<clustering>
<clus scale="   56.483">  2  5  1 -1</clus>
<clus scale="   62.410">  1  4  2 -1</clus>
<clus scale="   79.854">  2  3  1 -1</clus>
<clus scale="   56.483">  2  3  1 -1</clus>
</clustering>
</event>
<event>
 6    0  0.3800129E+002  0.1214038E+03  0.7546771E-02  0.1240799E+00
          3   -1    0    0  503    0 -0.00000000000E+00  0.00000000000E+00  0.32804285359E+03  0.32804285359E+03  0.00000000000E+00 0.  1.
         21   -1    0    0  501  502  0.00000000000E+00 -0.00000000000E+00 -0.12004703500E+03  0.12004703500E+03  0.00000000000E+00 0.  1.
         21    1    1    2  503  504 -0.54371654595E+02 -0.14663986607E+02  0.60409898984E+02  0.82587318772E+02  0.00000000000E+00 0.  1.
         21    1    1    2  504  505 -0.31525412568E+02 -0.27064527928E+02  0.11204028186E+02  0.43033365626E+02  0.00000000000E+00 0.  1.
         21    1    1    2  505  502 -0.17671030306E+02 -0.35229323422E+02 -0.69265804614E+02  0.79693928437E+02  0.00000000000E+00 0.  1.
          3    1    1    2  501    0  0.10356809747E+03  0.76957837957E+02  0.20564769603E+03  0.24277527576E+03  0.00000000000E+00 0.  1.
<scales pt_clust_3="33.62496" pt_clust_4="33.62496" pt_clust_5="39.41282" pt_clust_6="114.91933"></scales>
<clustering>
<clus scale="   33.625">  3  4 -1 -1</clus>
<clus scale="   39.413">  2  5  1 -1</clus>
<clus scale="  114.919">  1  6  2 -1</clus>
<clus scale="   39.413">  2  3  1 -1</clus>
</clustering>
</event>
<event>
 6    0  0.3800129E+002  0.8390265E+03  0.7546771E-02  0.9505185E-01
          2   -1    0    0  504    0 -0.00000000000E+00  0.00000000000E+00  0.17323394954E+04  0.17323394954E+04  0.00000000000E+00 0.  1.
         21   -1    0    0  501  502  0.00000000000E+00 -0.00000000000E+00 -0.73360826977E+03  0.73360826977E+03  0.00000000000E+00 0.  1.
         21    1    1    2  503  505  0.27550486833E+03 -0.11287110043E+03 -0.90941041866E-02  0.29772943736E+03  0.00000000000E+00 0.  1.
         21    1    1    2  504  503  0.22229292707E+02 -0.52856592195E+02  0.77549672842E+03  0.77761374511E+03  0.00000000000E+00 0.  1.
         21    1    1    2  505  502  0.47548073580E+03 -0.19820868346E+03  0.12743977755E+03  0.53066892619E+03  0.00000000000E+00 0.  1.
          2    1    1    2  501    0 -0.77321489685E+03  0.36393637608E+03  0.95803813722E+02  0.85993565647E+03  0.00000000000E+00 0.  1.
<scales pt_clust_3="72.91721" pt_clust_4="57.34074" pt_clust_5="72.91721" pt_clust_6="833.49273"></scales>
<clustering>
<clus scale="   57.341">  1  4  2 -1</clus>
<clus scale="   72.917">  3  5 -1 -1</clus>
<clus scale="  833.493">  1  6  2 -1</clus>
<clus scale="  839.026">  2  3  1 -1</clus>
</clustering>
</event>
<event>
 6    0  0.3800129E+002  0.8956602E+02  0.7546771E-02  0.1303906E+00
          2   -1    0    0  505    0 -0.00000000000E+00  0.00000000000E+00  0.15394407145E+04  0.15394407145E+04  0.00000000000E+00 0.  1.
         21   -1    0    0  504  502  0.00000000000E+00 -0.00000000000E+00 -0.16327563839E+03  0.16327563839E+03  0.00000000000E+00 0. -1.
         21    1    1    2  503  502  0.36277377958E+02 -0.20238478901E+02 -0.49670954052E+02  0.64752203485E+02  0.00000000000E+00 0. -1.
         21    1    1    2  504  501 -0.56586059532E+02 -0.32768211550E+02 -0.75649488203E+02  0.99992914184E+02  0.00000000000E+00 0. -1.
         21    1    1    2  505  503  0.71048226554E+02 -0.23939150063E+02  0.67061694111E+02  0.10058928481E+03  0.00000000000E+00 0.  1.
          2    1    1    2  501    0 -0.50739544980E+02  0.76945840514E+02  0.14344238243E+04  0.14373819504E+04  0.00000000000E+00 0.  1.
<scales pt_clust_3="41.54087" pt_clust_4="56.19261" pt_clust_5="89.56602" pt_clust_6="14000.00000"></scales>
<clustering>
<clus scale="   41.541">  2  3  1 -1</clus>
<clus scale="   56.193">  2  4  1 -1</clus>
<clus scale="   89.566">  2  5  1 -1</clus>
<clus scale="   41.541">  2  3  1 -1</clus>
</clustering>
</event>
<event>
 6    0  0.3800129E+002  0.1568075E+03  0.7546771E-02  0.1192349E+00
         -1   -1    0    0    0  501 -0.00000000000E+00  0.00000000000E+00  0.86848098400E+03  0.86848098400E+03  0.00000000000E+00 0.  1.
         21   -1    0    0  505  502  0.00000000000E+00 -0.00000000000E+00 -0.49551415907E+03  0.49551415907E+03  0.00000000000E+00 0. -1.
         21    1    1    2  503  504  0.40044499751E+02 -0.94948706614E+02 -0.63287490453E+02  0.12093024971E+03  0.00000000000E+00 0. -1.
         21    1    1    2  504  501 -0.37038139839E+02 -0.35336416393E+01  0.30116333097E+02  0.47867566735E+02  0.00000000000E+00 0.  1.
         21    1    1    2  505  503  0.34722032947E+02 -0.54841633763E+02 -0.38399474566E+03  0.38944215111E+03  0.00000000000E+00 0. -1.
         -1    1    1    2    0  502 -0.37728392860E+02  0.15332398202E+03  0.79013272794E+03  0.80575517551E+03  0.00000000000E+00 0.  1.
<scales pt_clust_3="156.80753" pt_clust_4="37.20632" pt_clust_5="64.85419" pt_clust_6="14000.00000"></scales>
<clustering>
<clus scale="   37.206">  1  4  2 -1</clus>
<clus scale="   64.854">  2  5  1 -1</clus>
<clus scale="  156.808">  2  3  1 -1</clus>
<clus scale="   64.854">  2  3  1 -1</clus>
</clustering>
</event>
<event>
 6    0  0.3800129E+002  0.1411037E+03  0.7546771E-02  0.1211852E+00
         21   -1    0    0  505  502  0.00000000000E+00  0.00000000000E+00  0.96044172122E+02  0.96044172122E+02  0.00000000000E+00 0.  1.
          2   -1    0    0  504    0 -0.00000000000E+00 -0.00000000000E+00 -0.75538155461E+03  0.75538155461E+03  0.00000000000E+00 0.  1.
         21    1    1    2  503  502  0.29849879047E+02 -0.27100586044E+02 -0.38908330316E+02  0.56029592280E+02  0.00000000000E+00 0.  1.
         21    1    1    2  504  503 -0.52609492603E+00 -0.73979744115E+02 -0.13781370155E+03  0.15641577813E+03  0.00000000000E+00 0. -1.
         21    1    1    2  505  501  0.35610450630E+02 -0.28461384047E+02  0.61130897756E+02  0.76257073353E+02  0.00000000000E+00 0.  1.
          2    1    1    2  501    0 -0.64934234751E+02  0.12954171421E+03 -0.54374624838E+03  0.56272328296E+03  0.00000000000E+00 0.  1.
<scales pt_clust_3="39.23826" pt_clust_4="39.23826" pt_clust_5="45.58678" pt_clust_6="130.70966"></scales>
<clustering>
<clus scale="   39.238">  3  4 -1 -1</clus>
<clus scale="   45.587">  1  5  2 -1</clus>
<clus scale="  130.710">  2  6  1 -1</clus>
<clus scale="   45.587">  1  3  2 -1</clus>
</clustering>
</event>
<event>
 6    0  0.3800129E+002  0.1138740E+03  0.7546771E-02  0.1253560E+00
          2   -1    0    0  503    0 -0.00000000000E+00  0.00000000000E+00  0.28017426136E+04  0.28017426136E+04  0.00000000000E+00 0.  1.
         21   -1    0    0  504  502  0.00000000000E+00 -0.00000000000E+00 -0.23485054162E+03  0.23485054162E+03  0.00000000000E+00 0.  1.
         21    1    1    2  503  502  0.48279625743E+02  0.12100370071E+03 -0.15196109455E+03  0.20016241432E+03  0.00000000000E+00 0.  1.
         21    1    1    2  504  505 -0.60463607906E+02 -0.69600002556E+02 -0.20297516318E+02  0.94403376029E+02  0.00000000000E+00 0. -1.
         21    1    1    2  505  501  0.60888460370E+02 -0.14124894256E+02  0.11553907290E+04  0.11570802279E+04  0.00000000000E+00 0.  1.
          2    1    1    2  501    0 -0.48704478206E+02 -0.37278803902E+02  0.15837599539E+04  0.15849471370E+04  0.00000000000E+00 0.  1.
<scales pt_clust_3="113.87396" pt_clust_4="14000.00000" pt_clust_5="51.64668" pt_clust_6="61.33380"></scales>
<clustering>
<clus scale="   61.334">  1  6  2 -1</clus>
<clus scale="   51.647">  1  5  2 -1</clus>
<clus scale="  113.874">  2  3  1 -1</clus>
<clus scale="  113.874">  2  3  1 -1</clus>
</clustering>
</event>
<event>
 6    0  0.3800129E+002  0.1112437E+03  0.7546771E-02  0.1258284E+00
          1   -1    0    0  503    0 -0.00000000000E+00  0.00000000000E+00  0.26706323610E+04  0.26706323610E+04  0.00000000000E+00 0. -1.
         21   -1    0    0  505  502  0.00000000000E+00 -0.00000000000E+00 -0.20812985589E+03  0.20812985589E+03  0.00000000000E+00 0. -1.
         21    1    1    2  503  504  0.13259519764E+03  0.77294437661E+02  0.11745064215E+03  0.19326295525E+03  0.00000000000E+00 0. -1.
         21    1    1    2  504  502  0.26213295490E+02 -0.17183820722E+02 -0.24948660516E+02  0.40060656717E+02  0.00000000000E+00 0. -1.
         21    1    1    2  505  501 -0.60588446629E+02 -0.10790806878E+02 -0.12957540668E+03  0.14344750745E+03  0.00000000000E+00 0. -1.
          1    1    1    2  501    0 -0.98220046505E+02 -0.49319810061E+02  0.24995759301E+04  0.25019910975E+04  0.00000000000E+00 0. -1.
<scales pt_clust_3="14000.00000" pt_clust_4="31.34359" pt_clust_5="46.90633" pt_clust_6="111.24372"></scales>
<clustering>
<clus scale="   31.344">  2  4  1 -1</clus>
<clus scale="   46.906">  2  5  1 -1</clus>
<clus scale="  111.244">  1  6  2 -1</clus>
<clus scale="   31.344">  2  3  1 -1</clus>
</clustering>
</event>
<event>
 6    0  0.3800129E+002  0.8938920E+02  0.7546771E-02  0.1304338E+00
         21   -1    0    0  504  502  0.00000000000E+00  0.00000000000E+00  0.12874553432E+03  0.12874553432E+03  0.00000000000E+00 0.  1.
          2   -1    0    0  505    0 -0.00000000000E+00 -0.00000000000E+00 -0.66720119216E+03  0.66720119216E+03  0.00000000000E+00 0. -1.
         21    1    1    2  503  502 -0.49978860798E+02 -0.25265251427E+00  0.34172729909E+02  0.60545237876E+02  0.00000000000E+00 0.  1.
         21    1    1    2  504  501  0.37639085111E+02 -0.31063684087E+02  0.59608074712E+02  0.77037495857E+02  0.00000000000E+00 0.  1.
         21    1    1    2  505  503 -0.81591169895E+02  0.34410879363E+02 -0.34275293628E+03  0.35400678377E+03  0.00000000000E+00 0.  1.
          2    1    1    2  501    0  0.93930945582E+02 -0.30945427616E+01 -0.28948352618E+03  0.30435720898E+03  0.00000000000E+00 0. -1.
<scales pt_clust_3="32.00781" pt_clust_4="48.80218" pt_clust_5="89.38920" pt_clust_6="14000.00000"></scales>
<clustering>
<clus scale="   48.802">  1  4  2 -1</clus>
<clus scale="   32.008">  1  3  2 -1</clus>
<clus scale="   89.389">  2  5  1 -1</clus>
<clus scale="   48.802">  1  3  2 -1</clus>
</clustering>
</event>
<event>
 6    0  0.3800129E+002  0.1169124E+03  0.7546771E-02  0.1248279E+00
         21   -1    0    0  505  502  0.00000000000E+00  0.00000000000E+00  0.20439427437E+03  0.20439427437E+03  0.00000000000E+00 0. -1.
          2   -1    0    0  503    0 -0.00000000000E+00 -0.00000000000E+00 -0.98317735755E+03  0.98317735755E+03  0.00000000000E+00 0. -1.
         21    1    1    2  503  504 -0.43307066704E+02  0.44168794081E+02 -0.24009164920E+03  0.24793221737E+03  0.00000000000E+00 0.  1.
         21    1    1    2  504  502 -0.24432044218E+02 -0.35488773948E+02  0.50156426740E+02  0.66121441336E+02  0.00000000000E+00 0.  1.
         21    1    1    2  505  501  0.13889814209E+03  0.31849728144E+01  0.10611334827E+03  0.17482242593E+03  0.00000000000E+00 0. -1.
          2    1    1    2  501    0 -0.71159031164E+02 -0.11864992947E+02 -0.69496120900E+03  0.69869554728E+03  0.00000000000E+00 0. -1.
<scales pt_clust_3="61.64746" pt_clust_4="43.08570" pt_clust_5="14000.00000" pt_clust_6="116.91238"></scales>
<clustering>
<clus scale="   43.086">  1  4  2 -1</clus>
<clus scale="   61.647">  2  3  1 -1</clus>
<clus scale="  116.912">  2  6  1 -1</clus>
<clus scale="   43.086">  1  3  2 -1</clus>
</clustering>
</event>
<event>
 6    0  0.3800129E+002  0.9899034E+02  0.7546771E-02  0.1282434E+00
         21   -1    0    0  501  502  0.00000000000E+00  0.00000000000E+00  0.70359839533E+02  0.70359839533E+02  0.00000000000E+00 0.  1.
          1   -1    0    0  504    0 -0.00000000000E+00 -0.00000000000E+00 -0.17545684202E+04  0.17545684202E+04  0.00000000000E+00 0. -1.
         21    1    1    2  503  505 -0.10843612502E+00 -0.35172505970E+02  0.41344145036E+00  0.35175102963E+02  0.00000000000E+00 0.  1.
         21    1    1    2  504  503  0.24048275204E+02  0.13116276822E+03 -0.81301879001E+03  0.82388199654E+03  0.00000000000E+00 0. -1.
         21    1    1    2  505  502  0.21778154823E+02 -0.21009878208E+02  0.39939139026E+02  0.50108261155E+02  0.00000000000E+00 0.  1.
          1    1    1    2  501    0 -0.45717993902E+02 -0.74980384043E+02 -0.91154237116E+03  0.91576289911E+03  0.00000000000E+00 0. -1.
<scales pt_clust_3="52.18699" pt_clust_4="14000.00000" pt_clust_5="30.26059" pt_clust_6="98.99034"></scales>
<clustering>
<clus scale="   30.261">  1  5  2 -1</clus>
<clus scale="   52.187">  1  3  2 -1</clus>
<clus scale="   98.990">  2  6  1 -1</clus>
<clus scale="   30.261">  1  3  2 -1</clus>
</clustering>
</event>
<event>
 6    0  0.3800129E+002  0.1060195E+03  0.7546771E-02  0.1268124E+00
         21   -1    0    0  503  502  0.00000000000E+00  0.00000000000E+00  0.87522796488E+02  0.87522796488E+02  0.00000000000E+00 0.  1.
          2   -1    0    0  504    0 -0.00000000000E+00 -0.00000000000E+00 -0.27336687458E+04  0.27336687458E+04  0.00000000000E+00 0. -1.
         21    1    1    2  503  505  0.50455959549E+02  0.65790063142E+02  0.38307944134E+02  0.91332550857E+02  0.00000000000E+00 0.  1.
         21    1    1    2  504  502 -0.43088409954E+02 -0.11273526251E+02 -0.26985321297E+03  0.27350404022E+03  0.00000000000E+00 0.  1.
         21    1    1    2  505  501  0.64502804218E+02 -0.60128091469E+02 -0.75338582376E+02  0.11598233111E+03  0.00000000000E+00 0.  1.
          2    1    1    2  501    0 -0.71870353813E+02  0.56115545778E+01 -0.23392620981E+04  0.23403726201E+04  0.00000000000E+00 0. -1.
<scales pt_clust_3="82.53223" pt_clust_4="44.53879" pt_clust_5="14000.00000" pt_clust_6="106.01951"></scales>
<clustering>
<clus scale="   44.539">  2  4  1 -1</clus>
<clus scale="   82.532">  1  3  2 -1</clus>
<clus scale="  106.020">  2  6  1 -1</clus>
<clus scale="   82.532">  1  3  2 -1</clus>
</clustering>
</event>
<event>
 6    0  0.3800129E+002  0.1951319E+03  0.7546771E-02  0.1153912E+00
         21   -1    0    0  504  502  0.00000000000E+00  0.00000000000E+00  0.23735272293E+03  0.23735272293E+03  0.00000000000E+00 0.  1.
          2   -1    0    0  503    0 -0.00000000000E+00 -0.00000000000E+00 -0.69324462074E+03  0.69324462074E+03  0.00000000000E+00 0.  1.
         21    1    1    2  503  502 -0.25715402614E+02  0.22609784828E+02 -0.35660873098E+03  0.35824889576E+03  0.00000000000E+00 0.  1.
         21    1    1    2  504  505  0.14247972677E+03 -0.26051700507E+02  0.15194616088E+03  0.20992093618E+03  0.00000000000E+00 0.  1.
         21    1    1    2  505  501  0.41340103664E+02  0.23730637742E+02  0.16833439701E+02  0.50552072468E+02  0.00000000000E+00 0.  1.
          2    1    1    2  501    0 -0.15810442782E+03 -0.20288722063E+02 -0.26806276742E+03  0.31187543927E+03  0.00000000000E+00 0.  1.
<scales pt_clust_3="34.24156" pt_clust_4="42.93241" pt_clust_5="42.93241" pt_clust_6="180.31070"></scales>
<clustering>
<clus scale="   34.242">  2  3  1 -1</clus>
<clus scale="   42.932">  4  5 -1 -1</clus>
<clus scale="  180.311">  2  6  1 -1</clus>
<clus scale="  195.132">  1  3  2 -1</clus>
</clustering>
</event>
<event>
 6    0  0.3800129E+002  0.1277761E+03  0.7546771E-02  0.1230793E+00
          2   -1    0    0  503    0 -0.00000000000E+00  0.00000000000E+00  0.61243264331E+03  0.61243264331E+03  0.00000000000E+00 0. -1.
         21   -1    0    0  501  502  0.00000000000E+00 -0.00000000000E+00 -0.30428950211E+03  0.30428950211E+03  0.00000000000E+00 0. -1.
         21    1    1    2  503  504  0.19671687842E+03  0.46808665968E+02  0.26783793688E+03  0.33559758923E+03  0.00000000000E+00 0. -1.
         21    1    1    2  504  505 -0.95578026442E+02 -0.32230152317E+02 -0.18630810482E+03  0.21185998154E+03  0.00000000000E+00 0. -1.
         21    1    1    2  505  502 -0.11335051468E+02  0.45475795985E+02 -0.52259763610E+02  0.70196967918E+02  0.00000000000E+00 0. -1.
          2    1    1    2  501    0 -0.89803800510E+02 -0.60054309636E+02  0.27887307275E+03  0.29906760673E+03  0.00000000000E+00 0. -1.
<scales pt_clust_3="127.77606" pt_clust_4="104.98221" pt_clust_5="46.86717" pt_clust_6="14000.00000"></scales>
<clustering>
<clus scale="   46.867">  2  5  1 -1</clus>
<clus scale="  104.982">  2  4  1 -1</clus>
<clus scale="  127.776">  2  3  1 -1</clus>
<clus scale="   46.867">  2  3  1 -1</clus>
</clustering>
</event>
<event>
 6    0  0.3800129E+002  0.9435665E+02  0.7546771E-02  0.1292632E+00
         21   -1    0    0  503  502  0.00000000000E+00  0.00000000000E+00  0.82414848440E+02  0.82414848440E+02  0.00000000000E+00 0. -1.
          1   -1    0    0  505    0 -0.00000000000E+00 -0.00000000000E+00 -0.13416298665E+04  0.13416298665E+04  0.00000000000E+00 0. -1.
         21    1    1    2  503  501 -0.56093055387E+02  0.81505674924E+02 -0.51243530234E+01  0.99075046815E+02  0.00000000000E+00 0. -1.
         21    1    1    2  504  502  0.74473105885E+02 -0.52462243921E+02 -0.49971915044E+02  0.10390246788E+03  0.00000000000E+00 0. -1.
         21    1    1    2  505  504 -0.10262381005E+03  0.28393662276E+01 -0.82661971070E+03  0.83297050038E+03  0.00000000000E+00 0. -1.
          1    1    1    2  501    0  0.84243759547E+02 -0.31882797230E+02 -0.37749903928E+03  0.38809669986E+03  0.00000000000E+00 0. -1.
<scales pt_clust_3="14000.00000" pt_clust_4="94.35665" pt_clust_5="38.67581" pt_clust_6="90.07510"></scales>
<clustering>
<clus scale="   90.075">  2  6  1 -1</clus>
<clus scale="   38.676">  2  5  1 -1</clus>
<clus scale="   94.357">  2  4  1 -1</clus>
<clus scale="   94.357">  1  3  2 -1</clus>
</clustering>
</event>
<event>
 6    0  0.3800129E+002  0.1401044E+03  0.7546771E-02  0.1213189E+00
          2   -1    0    0  503    0 -0.00000000000E+00  0.00000000000E+00  0.13113758254E+04  0.13113758254E+04  0.00000000000E+00 0.  1.
         21   -1    0    0  504  502  0.00000000000E+00 -0.00000000000E+00 -0.23782740225E+03  0.23782740225E+03  0.00000000000E+00 0.  1.
         21    1    1    2  503  502  0.30950214129E+02 -0.39211751307E+02 -0.15145705485E+03  0.15948265316E+03  0.00000000000E+00 0.  1.
         21    1    1    2  504  505 -0.52738579311E+02  0.76379200786E+02 -0.31197168144E+02  0.97920392976E+02  0.00000000000E+00 0. -1.
         21    1    1    2  505  501  0.21563935922E+02  0.11501133940E+03  0.27491045403E+03  0.29877812714E+03  0.00000000000E+00 0. -1.
          2    1    1    2  501    0  0.22442925964E+00 -0.15217878888E+03  0.98129219215E+03  0.99302205440E+03  0.00000000000E+00 0.  1.
<scales pt_clust_3="49.95475" pt_clust_4="53.79701" pt_clust_5="14000.00000" pt_clust_6="140.10436"></scales>
<clustering>
<clus scale="   49.955">  2  3  1 -1</clus>
<clus scale="   53.797">  2  4  1 -1</clus>
<clus scale="  140.104">  1  6  2 -1</clus>
<clus scale="   49.955">  2  3  1 -1</clus>
</clustering>
</event>
<event>
 6    0  0.3800129E+002  0.1014976E+03  0.7546771E-02  0.1277178E+00
          2   -1    0    0  505    0 -0.00000000000E+00  0.00000000000E+00  0.99180741759E+03  0.99180741759E+03  0.00000000000E+00 0.  1.
         21   -1    0    0  503  502  0.00000000000E+00 -0.00000000000E+00 -0.17351220622E+04  0.17351220622E+04  0.00000000000E+00 0.  1.
         21    1    1    2  503  501  0.60902069944E+02 -0.15061730372E+03 -0.16359596480E+04  0.16440068747E+04  0.00000000000E+00 0.  1.
         21    1    1    2  504  502  0.59901205801E+01  0.76121832527E+02 -0.68716692069E+02  0.10272486895E+03  0.00000000000E+00 0.  1.
         21    1    1    2  505  504  0.33576786305E+02 -0.30077952741E+02  0.18539335298E+03  0.19079512349E+03  0.00000000000E+00 0.  1.
          2    1    1    2  501    0 -0.10046897683E+03  0.10457342394E+03  0.77596834246E+03  0.78940261261E+03  0.00000000000E+00 0.  1.
<scales pt_clust_3="101.49759" pt_clust_4="75.78228" pt_clust_5="45.07864" pt_clust_6="14000.00000"></scales>
<clustering>
<clus scale="   45.079">  1  5  2 -1</clus>
<clus scale="   75.782">  2  4  1 -1</clus>
<clus scale="  101.498">  2  3  1 -1</clus>
<clus scale="   75.782">  2  3  1 -1</clus>
</clustering>
</event>
<event>
 6    0  0.3800129E+002  0.1288458E+03  0.7546771E-02  0.1229178E+00
         21   -1    0    0  505  502  0.00000000000E+00  0.00000000000E+00  0.15961185220E+03  0.15961185220E+03  0.00000000000E+00 0. -1.
          2   -1    0    0  504    0 -0.00000000000E+00 -0.00000000000E+00 -0.77006537412E+03  0.77006537412E+03  0.00000000000E+00 0. -1.
         21    1    1    2  503  502  0.42942855730E+02 -0.10288530861E+03  0.10560640277E+03  0.15356493054E+03  0.00000000000E+00 0. -1.
         21    1    1    2  504  503 -0.26919894957E+02 -0.15323003365E+02 -0.48679788641E+02  0.57699194091E+02  0.00000000000E+00 0. -1.
         21    1    1    2  505  501  0.32972151053E+02 -0.34394499120E+01  0.48554983408E+01  0.33504752274E+02  0.00000000000E+00 0. -1.
          2    1    1    2  501    0 -0.48995111826E+02  0.12164776189E+03 -0.67223563439E+03  0.68490834941E+03  0.00000000000E+00 0. -1.
<scales pt_clust_3="128.84579" pt_clust_4="30.97540" pt_clust_5="32.64980" pt_clust_6="14000.00000"></scales>
<clustering>
<clus scale="   30.975">  2  4  1 -1</clus>
<clus scale="   32.650">  1  5  2 -1</clus>
<clus scale="  128.846">  1  3  2 -1</clus>
<clus scale="   32.650">  1  3  2 -1</clus>
</clustering>
</event>
<event>
 6    0  0.3800129E+002  0.8292800E+02  0.7546771E-02  0.1320942E+00
         21   -1    0    0  503  502  0.00000000000E+00  0.00000000000E+00  0.10182471263E+03  0.10182471263E+03  0.00000000000E+00 0.  1.
         -4   -1    0    0    0  501 -0.00000000000E+00 -0.00000000000E+00 -0.41303716064E+03  0.41303716064E+03  0.00000000000E+00 0.  1.
         21    1    1    2  503  504  0.15412454838E+02 -0.75166746147E+02  0.38431354725E+02  0.85816971028E+02  0.00000000000E+00 0.  1.
         21    1    1    2  504  501  0.43771494618E+02  0.92574724587E+01 -0.44245539384E+02  0.62923066460E+02  0.00000000000E+00 0. -1.
         21    1    1    2  505  502 -0.74245743827E+02 -0.12247736859E+01 -0.26469328834E+02  0.78832454712E+02  0.00000000000E+00 0.  1.
         -4    1    1    2    0  505  0.15061794372E+02  0.67134047374E+02 -0.27892893452E+03  0.28728938107E+03  0.00000000000E+00 0.  1.
<scales pt_clust_3="82.92800" pt_clust_4="44.73974" pt_clust_5="67.83444" pt_clust_6="14000.00000"></scales>
<clustering>
<clus scale="   44.740">  2  4  1 -1</clus>
<clus scale="   67.834">  1  5  2 -1</clus>
<clus scale="   82.928">  1  3  2 -1</clus>
<clus scale="   67.834">  1  3  2 -1</clus>
</clustering>
</event>
<event>
 6    0  0.3800129E+002  0.1014554E+03  0.7546771E-02  0.1277265E+00
         21   -1    0    0  505  502  0.00000000000E+00  0.00000000000E+00  0.64550233214E+03  0.64550233214E+03  0.00000000000E+00 0.  1.
         -2   -1    0    0    0  501 -0.00000000000E+00 -0.00000000000E+00 -0.76791468252E+03  0.76791468252E+03  0.00000000000E+00 0.  1.
         21    1    1    2  503  501 -0.27360089067E+02 -0.62610669342E+02 -0.10410087469E+03  0.12452173505E+03  0.00000000000E+00 0. -1.
         21    1    1    2  504  503 -0.84431187043E+01 -0.59161612206E+02  0.48663871721E+03  0.49029442552E+03  0.00000000000E+00 0.  1.
         21    1    1    2  505  504 -0.21023173280E+02 -0.38758286642E+02  0.13205732012E+03  0.13922397206E+03  0.00000000000E+00 0. -1.
         -2    1    1    2    0  502  0.56826381052E+02  0.16053056819E+03 -0.63700751302E+03  0.65937688203E+03  0.00000000000E+00 0.  1.
<scales pt_clust_3="69.20752" pt_clust_4="14000.00000" pt_clust_5="44.09284" pt_clust_6="101.45544"></scales>
<clustering>
<clus scale="   44.093">  1  5  2 -1</clus>
<clus scale="   69.208">  2  3  1 -1</clus>
<clus scale="  101.455">  2  6  1 -1</clus>
<clus scale="   44.093">  1  3  2 -1</clus>
</clustering>
</event>
<event>
 6    0  0.3800129E+002  0.4197841E+03  0.7546771E-02  0.1037137E+00
         21   -1    0    0  501  502  0.00000000000E+00  0.00000000000E+00  0.13022184024E+04  0.13022184024E+04  0.00000000000E+00 0. -1.
         -1   -1    0    0    0  501 -0.00000000000E+00 -0.00000000000E+00 -0.62646496390E+03  0.62646496390E+03  0.00000000000E+00 0.  1.
         21    1    1    2  503  502  0.24641290275E+03  0.19531462049E+03  0.94694600075E+03  0.99778446969E+03  0.00000000000E+00 0. -1.
         21    1    1    2  504  503  0.83514393348E+02  0.13749874108E+02  0.24868799843E+03  0.26269646648E+03  0.00000000000E+00 0. -1.
         21    1    1    2  505  504 -0.19073268582E+03 -0.78597796765E+02 -0.16069385871E+03  0.26149395275E+03  0.00000000000E+00 0.  1.
         -1    1    1    2    0  505 -0.13919461028E+03 -0.13046669784E+03 -0.35918670193E+03  0.40670847744E+03  0.00000000000E+00 0.  1.
<scales pt_clust_3="399.08837" pt_clust_4="42.50430" pt_clust_5="147.91743" pt_clust_6="147.91743"></scales>
<clustering>
<clus scale="   42.504">  3  4 -1 -1</clus>
<clus scale="  147.917">  5  6 -1 -1</clus>
<clus scale="  399.088">  1  3  2 -1</clus>
<clus scale="  399.088">  1  3  2 -1</clus>
</clustering>
</event>
<event>
 6    0  0.3800129E+002  0.1546986E+03  0.7546771E-02  0.1194815E+00
         21   -1    0    0  501  502  0.00000000000E+00  0.00000000000E+00  0.55964511638E+02  0.55964511638E+02  0.00000000000E+00 0. -1.
          1   -1    0    0  504    0 -0.00000000000E+00 -0.00000000000E+00 -0.20658584124E+04  0.20658584124E+04  0.00000000000E+00 0. -1.
         21    1    1    2  503  502  0.33773446541E+02 -0.21815676195E+02  0.25862105477E+02  0.47806044794E+02  0.00000000000E+00 0. -1.
         21    1    1    2  504  505  0.41181440763E+02 -0.42516332767E+02 -0.15361226755E+03  0.16462162178E+03  0.00000000000E+00 0.  1.
         21    1    1    2  505  503  0.25717843686E+02 -0.54481446742E+02 -0.78072671690E+02  0.98615300982E+02  0.00000000000E+00 0.  1.
          1    1    1    2  501    0 -0.10067273099E+03  0.11881345570E+03 -0.18040710670E+04  0.18107799565E+04  0.00000000000E+00 0. -1.
<scales pt_clust_3="40.20658" pt_clust_4="39.21417" pt_clust_5="39.21417" pt_clust_6="148.99655"></scales>
<clustering>
<clus scale="   40.207">  1  3  2 -1</clus>
<clus scale="   39.214">  4  5 -1 -1</clus>
<clus scale="  148.997">  2  6  1 -1</clus>
<clus scale="   40.207">  1  3  2 -1</clus>
</clustering>
</event>
<event>
 6    0  0.3800129E+002  0.1386523E+03  0.7546771E-02  0.1215154E+00
         21   -1    0    0  503  502  0.00000000000E+00  0.00000000000E+00  0.11937085885E+03  0.11937085885E+03  0.00000000000E+00 0.  1.
         -2   -1    0    0    0  501 -0.00000000000E+00 -0.00000000000E+00 -0.82851956711E+03  0.82851956711E+03  0.00000000000E+00 0.  1.
         21    1    1    2  503  505  0.29684205244E+02  0.18723102576E+03 -0.30882059080E+02  0.19206850502E+03  0.00000000000E+00 0.  1.
         21    1    1    2  504  502 -0.51424021904E+02 -0.65756067677E+02 -0.58911543117E+02  0.10217074130E+03  0.00000000000E+00 0.  1.
         21    1    1    2  505  501  0.42825519418E+02  0.31719599953E+02 -0.13205921563E+03  0.14240714366E+03  0.00000000000E+00 0.  1.
         -2    1    1    2    0  504 -0.21085702758E+02 -0.15319455804E+03 -0.48729589044E+03  0.51124403597E+03  0.00000000000E+00 0.  1.
<scales pt_clust_3="138.65234" pt_clust_4="77.50908" pt_clust_5="53.29313" pt_clust_6="14000.00000"></scales>
<clustering>
<clus scale="   53.293">  2  5  1 -1</clus>
<clus scale="   77.509">  1  4  2 -1</clus>
<clus scale="  138.652">  1  3  2 -1</clus>
<clus scale="   77.509">  1  3  2 -1</clus>
</clustering>
</event>
<event>
 6    0  0.5458529E+002  0.1277186E+03  0.7546771E-02  0.1230881E+00
         21   -1    0    0  501  502  0.00000000000E+00  0.00000000000E+00  0.95039139074E+03  0.95039139074E+03  0.00000000000E+00 0. -1.
          2   -1    0    0  505    0 -0.00000000000E+00 -0.00000000000E+00 -0.11992140789E+04  0.11992140789E+04  0.00000000000E+00 0.  1.
         21    1    1    2  503  504 -0.84608021403E+02  0.75480487948E+02  0.28066551749E+02  0.11680561919E+03  0.00000000000E+00 0. -1.
         21    1    1    2  504  502  0.13232573941E+03  0.19078822872E+02  0.86604895320E+03  0.87630753285E+03  0.00000000000E+00 0. -1.
         21    1    1    2  505  503  0.75937597484E+01 -0.33338253987E+02 -0.50759053823E+02  0.61201192072E+02  0.00000000000E+00 0.  1.
          2    1    1    2  501    0 -0.55311477753E+02 -0.61221056832E+02 -0.10921791393E+04  0.10952911255E+04  0.00000000000E+00 0.  1.
<scales pt_clust_3="14000.00000" pt_clust_4="127.71861" pt_clust_5="34.19217" pt_clust_6="104.78087"></scales>
<clustering>
<clus scale="   34.192">  2  5  1 -1</clus>
<clus scale="  104.781">  2  6  1 -1</clus>
<clus scale="  127.719">  1  4  2 -1</clus>
<clus scale="  127.719">  1  3  2 -1</clus>
</clustering>
</event>
<event>
 6    0  0.3800129E+002  0.9005709E+02  0.7546771E-02  0.1302714E+00
         -1   -1    0    0    0  501 -0.00000000000E+00  0.00000000000E+00  0.28494687282E+03  0.28494687282E+03  0.00000000000E+00 0.  1.
         21   -1    0    0  505  502  0.00000000000E+00 -0.00000000000E+00 -0.20515937298E+03  0.20515937298E+03  0.00000000000E+00 0. -1.
         21    1    1    2  503  502 -0.94958621696E+02  0.68068660236E+00 -0.66828205732E+02  0.11611895732E+03  0.00000000000E+00 0. -1.
         21    1    1    2  504  501 -0.15174379042E+02  0.26422955004E+02  0.77290981067E+02  0.83080262907E+02  0.00000000000E+00 0.  1.
         21    1    1    2  505  504  0.69724407902E+02 -0.72049766044E+02 -0.80995420954E+02  0.12889111707E+03  0.00000000000E+00 0. -1.
         -1    1    1    2    0  503  0.40408592836E+02  0.44946124438E+02  0.15032014545E+03  0.16201590850E+03  0.00000000000E+00 0.  1.
<scales pt_clust_3="14000.00000" pt_clust_4="30.47022" pt_clust_5="90.05709" pt_clust_6="71.19894"></scales>
<clustering>
<clus scale="   30.470">  1  4  2 -1</clus>
<clus scale="   71.199">  1  6  2 -1</clus>
<clus scale="   90.057">  2  5  1 -1</clus>
<clus scale="   90.057">  2  3  1 -1</clus>
</clustering>
</event>
<event>
 6    0  0.3800129E+002  0.8286764E+02  0.7546771E-02  0.1321105E+00
          2   -1    0    0  503    0 -0.00000000000E+00  0.00000000000E+00  0.10414518197E+03  0.10414518197E+03  0.00000000000E+00 0.  1.
         21   -1    0    0  505  502  0.00000000000E+00 -0.00000000000E+00 -0.11116753786E+04  0.11116753786E+04  0.00000000000E+00 0.  1.
         21    1    1    2  503  504  0.32315278830E+02  0.10487908319E+01 -0.25789497571E+02  0.41357893963E+02  0.00000000000E+00 0.  1.
         21    1    1    2  504  502  0.24033190508E+02  0.55904222328E+02 -0.11424698484E+03  0.12944207147E+03  0.00000000000E+00 0.  1.
         21    1    1    2  505  501  0.21613024704E+02 -0.90038285642E+02 -0.93322910329E+03  0.93781158819E+03  0.00000000000E+00 0.  1.
          2    1    1    2  501    0 -0.77961494042E+02  0.33085272482E+02  0.65735389031E+02  0.10720900699E+03  0.00000000000E+00 0.  1.
<scales pt_clust_3="32.33229" pt_clust_4="82.86764" pt_clust_5="14000.00000" pt_clust_6="59.62485"></scales>
<clustering>
<clus scale="   32.332">  1  3  2 -1</clus>
<clus scale="   59.625">  1  6  2 -1</clus>
<clus scale="   82.868">  1  4  2 -1</clus>
<clus scale="   82.868">  2  3  1 -1</clus>
</clustering>
</event>
<event>
 6    0  0.3800129E+002  0.2298455E+03  0.7546771E-02  0.1126749E+00
         21   -1    0    0  505  502  0.00000000000E+00  0.00000000000E+00  0.67047511051E+03  0.67047511051E+03  0.00000000000E+00 0. -1.
          1   -1    0    0  504    0 -0.00000000000E+00 -0.00000000000E+00 -0.50559920146E+03  0.50559920146E+03  0.00000000000E+00 0.  1.
         21    1    1    2  503  501  0.16228574965E+03 -0.19657865171E+02  0.36792958379E+03  0.40261057466E+03  0.00000000000E+00 0. -1.
         21    1    1    2  504  502 -0.67830070103E+02 -0.58710097484E+02 -0.19495821980E+03  0.21460778509E+03  0.00000000000E+00 0.  1.
         21    1    1    2  505  503  0.56729377391E+02 -0.31392461344E+02  0.23981824807E+03  0.24842806000E+03  0.00000000000E+00 0. -1.
          1    1    1    2  501    0 -0.15118505694E+03  0.10976042400E+03 -0.24791370302E+03  0.31042789221E+03  0.00000000000E+00 0.  1.
<scales pt_clust_3="39.43083" pt_clust_4="89.70950" pt_clust_5="39.43083" pt_clust_6="221.15343"></scales>
<clustering>
<clus scale="   39.431">  3  5 -1 -1</clus>
<clus scale="   89.709">  2  4  1 -1</clus>
<clus scale="  221.153">  2  6  1 -1</clus>
<clus scale="  229.846">  1  3  2 -1</clus>
</clustering>
</event>
<event>
 6    0  0.3800129E+002  0.1542085E+03  0.7546771E-02  0.1195395E+00
         21   -1    0    0  504  502  0.00000000000E+00  0.00000000000E+00  0.25117097841E+02  0.25117097841E+02  0.00000000000E+00 0.  1.
          1   -1    0    0  505    0 -0.00000000000E+00 -0.00000000000E+00 -0.28602152068E+04  0.28602152068E+04  0.00000000000E+00 0.  1.
         21    1    1    2  503  502  0.10591576029E+02  0.90435106506E+02 -0.24656715592E+03  0.26284225754E+03  0.00000000000E+00 0.  1.
         21    1    1    2  504  501  0.30832456339E+02 -0.29312766477E+02 -0.59279598462E+02  0.72965398898E+02  0.00000000000E+00 0.  1.
         21    1    1    2  505  503  0.13573137636E+03 -0.43379959840E+02 -0.11832123336E+04  0.11917618277E+04  0.00000000000E+00 0.  1.
          1    1    1    2  501    0 -0.17715540873E+03 -0.17742380188E+02 -0.13460390210E+04  0.13577628206E+04  0.00000000000E+00 0.  1.
<scales pt_clust_3="81.11418" pt_clust_4="42.54267" pt_clust_5="14000.00000" pt_clust_6="154.20849"></scales>
<clustering>
<clus scale="   42.543">  1  4  2 -1</clus>
<clus scale="   81.114">  1  3  2 -1</clus>
<clus scale="  154.208">  1  6  2 -1</clus>
<clus scale="   42.543">  1  3  2 -1</clus>
</clustering>
</event>
<event>
 6    0  0.3800129E+002  0.1527867E+03  0.7546771E-02  0.1197090E+00
         21   -1    0    0  501  502  0.00000000000E+00  0.00000000000E+00  0.79096016828E+02  0.79096016828E+02  0.00000000000E+00 0.  1.
          2   -1    0    0  503    0 -0.00000000000E+00 -0.00000000000E+00 -0.69019052111E+03  0.69019052111E+03  0.00000000000E+00 0.  1.
         21    1    1    2  503  505  0.28713063493E+01 -0.33638721269E+02 -0.97297093635E+02  0.10298802066E+03  0.00000000000E+00 0.  1.
         21    1    1    2  504  502 -0.73616883867E+02 -0.35548192043E+02 -0.38659587231E+02  0.90430543694E+02  0.00000000000E+00 0.  1.
         21    1    1    2  505  504 -0.12085199868E+03  0.55687046858E+02 -0.18372969758E+03  0.22685425838E+03  0.00000000000E+00 0.  1.
          2    1    1    2  501    0  0.19159757620E+03  0.13499866454E+02 -0.29140812583E+03  0.34901371520E+03  0.00000000000E+00 0.  1.
<scales pt_clust_3="33.76104" pt_clust_4="83.13921" pt_clust_5="152.78667" pt_clust_6="14000.00000"></scales>
<clustering>
<clus scale="   33.761">  2  3  1 -1</clus>
<clus scale="   83.139">  1  4  2 -1</clus>
<clus scale="  152.787">  2  5  1 -1</clus>
<clus scale="   83.139">  1  3  2 -1</clus>
</clustering>
</event>
<event>
 6    0  0.3800129E+002  0.7541508E+02  0.7546771E-02  0.1342590E+00
         21   -1    0    0  504  502  0.00000000000E+00  0.00000000000E+00  0.10034728062E+03  0.10034728062E+03  0.00000000000E+00 0. -1.
          2   -1    0    0  503    0 -0.00000000000E+00 -0.00000000000E+00 -0.46559463250E+04  0.46559463250E+04  0.00000000000E+00 0. -1.
         21    1    1    2  503  505  0.34192760811E+02  0.93195381312E+01 -0.18096525154E+04  0.18099995097E+04  0.00000000000E+00 0. -1.
         21    1    1    2  504  501  0.13224906504E+02  0.76052257171E+02  0.71141482490E+02  0.10497597108E+03  0.00000000000E+00 0. -1.
         21    1    1    2  505  502 -0.67797647517E+02 -0.22489397404E+02 -0.97184331532E+02  0.12061131083E+03  0.00000000000E+00 0.  1.
          2    1    1    2  501    0  0.20379980201E+02 -0.62882397898E+02 -0.27199036800E+04  0.27207068140E+04  0.00000000000E+00 0. -1.
<scales pt_clust_3="35.44007" pt_clust_4="14000.00000" pt_clust_5="70.07637" pt_clust_6="75.41508"></scales>
<clustering>
<clus scale="   35.440">  2  3  1 -1</clus>
<clus scale="   70.076">  1  5  2 -1</clus>
<clus scale="   75.415">  2  6  1 -1</clus>
<clus scale="   70.076">  1  3  2 -1</clus>
</clustering>
</event>
<event>
 6    0  0.3800129E+002  0.1661559E+03  0.7546771E-02  0.1181917E+00
          1   -1    0    0  503    0 -0.00000000000E+00  0.00000000000E+00  0.27232251754E+04  0.27232251754E+04  0.00000000000E+00 0.  1.
         21   -1    0    0  504  502  0.00000000000E+00 -0.00000000000E+00 -0.63141061936E+03  0.63141061936E+03  0.00000000000E+00 0.  1.
         21    1    1    2  503  502 -0.74790476449E+02 -0.33086820389E+02 -0.16148931365E+03  0.18101699222E+03  0.00000000000E+00 0.  1.
         21    1    1    2  504  505  0.52044617737E+02 -0.51701046522E+02 -0.44308407207E+03  0.44911594870E+03  0.00000000000E+00 0.  1.
         21    1    1    2  505  501 -0.44334633586E+02 -0.91432404696E+02  0.23658725470E+03  0.25748587039E+03  0.00000000000E+00 0.  1.
          1    1    1    2  501    0  0.67080492297E+02  0.17622027161E+03  0.24598006870E+04  0.24670169834E+04  0.00000000000E+00 0.  1.
<scales pt_clust_3="85.15783" pt_clust_4="73.35966" pt_clust_5="14000.00000" pt_clust_6="166.15589"></scales>
<clustering>
<clus scale="   73.360">  2  4  1 -1</clus>
<clus scale="   85.158">  2  3  1 -1</clus>
<clus scale="  166.156">  1  6  2 -1</clus>
<clus scale="   73.360">  2  3  1 -1</clus>
</clustering>
</event>
<event>
 6    0  0.3800129E+002  0.1686263E+03  0.7546771E-02  0.1179288E+00
         21   -1    0    0  504  502  0.00000000000E+00  0.00000000000E+00  0.19193293175E+03  0.19193293175E+03  0.00000000000E+00 0. -1.
          2   -1    0    0  505    0 -0.00000000000E+00 -0.00000000000E+00 -0.71559869969E+03  0.71559869969E+03  0.00000000000E+00 0.  1.
         21    1    1    2  503  501  0.75121407623E+02 -0.15292770208E+03  0.89852840554E+02  0.19262305392E+03  0.00000000000E+00 0. -1.
         21    1    1    2  504  503  0.42276349328E+02  0.15935854639E+02  0.93154297746E+01  0.46130449894E+02  0.00000000000E+00 0.  1.
         21    1    1    2  505  502 -0.13407823564E+02  0.40475283050E+02 -0.41470482048E+03  0.41689100062E+03  0.00000000000E+00 0.  1.
          2    1    1    2  501    0 -0.10398993339E+03  0.96516564390E+02 -0.20812921779E+03  0.25188712700E+03  0.00000000000E+00 0.  1.
<scales pt_clust_3="168.62634" pt_clust_4="45.36182" pt_clust_5="42.63823" pt_clust_6="14000.00000"></scales>
<clustering>
<clus scale="   42.638">  2  5  1 -1</clus>
<clus scale="   45.362">  1  4  2 -1</clus>
<clus scale="  168.626">  1  3  2 -1</clus>
<clus scale="   45.362">  1  3  2 -1</clus>
</clustering>
</event>
<event>
 6    0  0.3800129E+002  0.7581798E+02  0.7546771E-02  0.1341357E+00
         21   -1    0    0  504  502  0.00000000000E+00  0.00000000000E+00  0.38272953471E+03  0.38272953471E+03  0.00000000000E+00 0. -1.
          2   -1    0    0  503    0 -0.00000000000E+00 -0.00000000000E+00 -0.11191586256E+04  0.11191586256E+04  0.00000000000E+00 0. -1.
         21    1    1    2  503  505 -0.52373930928E+02 -0.52007580518E+02 -0.59051136803E+02  0.94524355750E+02  0.00000000000E+00 0. -1.
         21    1    1    2  504  501 -0.38146118225E+02  0.29219548411E+02  0.31928674177E+03  0.32288222592E+03  0.00000000000E+00 0. -1.
         21    1    1    2  505  502  0.27665415945E+01  0.40395281252E+02  0.32199098405E+02  0.51732141246E+02  0.00000000000E+00 0. -1.
          2    1    1    2  501    0  0.87753507558E+02 -0.17607249145E+02 -0.10288637943E+04  0.10327494374E+04  0.00000000000E+00 0. -1.
<scales pt_clust_3="72.23903" pt_clust_4="75.81798" pt_clust_5="40.48991" pt_clust_6="14000.00000"></scales>
<clustering>
<clus scale="   40.490">  1  5  2 -1</clus>
<clus scale="   72.239">  2  3  1 -1</clus>
<clus scale="   75.818">  1  4  2 -1</clus>
<clus scale="   40.490">  1  3  2 -1</clus>
</clustering>
</event>
<event>
 6    0  0.3800129E+002  0.9721447E+02  0.7546771E-02  0.1286265E+00
          3   -1    0    0  505    0 -0.00000000000E+00  0.00000000000E+00  0.65225504491E+02  0.65225504491E+02  0.00000000000E+00 0.  1.
         21   -1    0    0  503  502  0.00000000000E+00 -0.00000000000E+00 -0.16664106755E+04  0.16664106755E+04  0.00000000000E+00 0.  1.
         21    1    1    2  503  501 -0.21408123925E+02  0.22045480758E+02 -0.89873081819E+03  0.89925602281E+03  0.00000000000E+00 0.  1.
         21    1    1    2  504  502 -0.25765196981E+02  0.64619406979E+02 -0.63716520681E+03  0.64095164708E+03  0.00000000000E+00 0.  1.
         21    1    1    2  505  504 -0.23777565461E+02  0.28989614067E+02  0.62969866925E+01  0.38018710978E+02  0.00000000000E+00 0.  1.
          3    1    1    2  501    0  0.70950886367E+02 -0.11565450180E+03 -0.71586132660E+02  0.15340979908E+03  0.00000000000E+00 0.  1.
<scales pt_clust_3="30.72964" pt_clust_4="14000.00000" pt_clust_5="38.12653" pt_clust_6="97.21447"></scales>
<clustering>
<clus scale="   30.730">  2  3  1 -1</clus>
<clus scale="   38.127">  1  5  2 -1</clus>
<clus scale="   97.214">  1  6  2 -1</clus>
<clus scale="   30.730">  2  3  1 -1</clus>
</clustering>
</event>
<event>
 6    0  0.3800129E+002  0.7319726E+02  0.7546771E-02  0.1349546E+00
         21   -1    0    0  505  502  0.00000000000E+00  0.00000000000E+00  0.71108028114E+03  0.71108028114E+03  0.00000000000E+00 0.  1.
          2   -1    0    0  503    0 -0.00000000000E+00 -0.00000000000E+00 -0.12266545309E+04  0.12266545309E+04  0.00000000000E+00 0.  1.
         21    1    1    2  503  504 -0.40418399717E+02  0.19930079151E+02 -0.50186043574E+02  0.67449937437E+02  0.00000000000E+00 0.  1.
         21    1    1    2  504  502 -0.94948463238E+02 -0.67065364778E+02  0.18413885258E+03  0.21776154586E+03  0.00000000000E+00 0.  1.
         21    1    1    2  505  501  0.24682674003E+02  0.56723359392E+02  0.49689486582E+03  0.50073074758E+03  0.00000000000E+00 0.  1.
          2    1    1    2  501    0  0.11068418895E+03 -0.95880737650E+01 -0.11464219246E+04  0.11517925812E+04  0.00000000000E+00 0.  1.
<scales pt_clust_3="45.06501" pt_clust_4="73.19726" pt_clust_5="61.86450" pt_clust_6="14000.00000"></scales>
<clustering>
<clus scale="   45.065">  2  3  1 -1</clus>
<clus scale="   61.864">  1  5  2 -1</clus>
<clus scale="   73.197">  1  4  2 -1</clus>
<clus scale="   61.864">  1  3  2 -1</clus>
</clustering>
</event>
<event>
 6    0  0.3800129E+002  0.2128212E+03  0.7546771E-02  0.1139351E+00
          2   -1    0    0  504    0 -0.00000000000E+00  0.00000000000E+00  0.11195419409E+04  0.11195419409E+04  0.00000000000E+00 0.  1.
         21   -1    0    0  505  502  0.00000000000E+00 -0.00000000000E+00 -0.59007669372E+03  0.59007669372E+03  0.00000000000E+00 0. -1.
         21    1    1    2  503  502 -0.11593395513E+03  0.19713107009E+03 -0.51772775714E+03  0.56598884376E+03  0.00000000000E+00 0. -1.
         21    1    1    2  504  503 -0.35942368995E+02  0.60265932486E+01  0.41033720876E+03  0.41195242275E+03  0.00000000000E+00 0.  1.
         21    1    1    2  505  501  0.54542444083E+02 -0.12607423203E+03  0.75485834197E+02  0.15674087327E+03  0.00000000000E+00 0. -1.
          2    1    1    2  501    0  0.97333880043E+02 -0.77083431306E+02  0.56136996132E+03  0.57493649480E+03  0.00000000000E+00 0.  1.
<scales pt_clust_3="212.82118" pt_clust_4="36.44412" pt_clust_5="14000.00000" pt_clust_6="99.56548"></scales>
<clustering>
<clus scale="   36.444">  1  4  2 -1</clus>
<clus scale="   99.565">  1  6  2 -1</clus>
<clus scale="  212.821">  2  3  1 -1</clus>
<clus scale="  212.821">  2  3  1 -1</clus>
</clustering>
</event>
<event>
 6    0  0.3800129E+002  0.2248292E+03  0.7546771E-02  0.1130333E+00
         21   -1    0    0  501  502  0.00000000000E+00  0.00000000000E+00  0.32353621378E+03  0.32353621378E+03  0.00000000000E+00 0.  1.
          1   -1    0    0  505    0 -0.00000000000E+00 -0.00000000000E+00 -0.18517468071E+03  0.18517468071E+03  0.00000000000E+00 0.  1.
         21    1    1    2  503  504 -0.41522474366E+02 -0.76968756713E+02 -0.61629756891E+01  0.87671475730E+02  0.00000000000E+00 0.  1.
         21    1    1    2  504  502 -0.12663385379E+03 -0.50687588825E+02  0.58182983430E+02  0.14829236038E+03  0.00000000000E+00 0.  1.
         21    1    1    2  505  503  0.37602915406E+02 -0.28277792541E+02 -0.93808408317E+01  0.47975128689E+02  0.00000000000E+00 0.  1.
          1    1    1    2  501    0  0.13055341275E+03  0.15593413808E+03  0.95722366161E+02  0.22477192970E+03  0.00000000000E+00 0.  1.
<scales pt_clust_3="76.56253" pt_clust_4="76.56253" pt_clust_5="47.04905" pt_clust_6="205.29986"></scales>
<clustering>
<clus scale="   47.049">  2  5  1 -1</clus>
<clus scale="   76.563">  3  4 -1 -1</clus>
<clus scale="  205.300">  1  6  2 -1</clus>
<clus scale="  205.300">  1  3  2 -1</clus>
</clustering>
</event>
<event>
 6    0  0.3800129E+002  0.2462042E+03  0.7546771E-02  0.1115727E+00
         21   -1    0    0  504  502  0.00000000000E+00  0.00000000000E+00  0.68127436104E+03  0.68127436104E+03  0.00000000000E+00 0. -1.
          2   -1    0    0  505    0 -0.00000000000E+00 -0.00000000000E+00 -0.63304800408E+03  0.63304800408E+03  0.00000000000E+00 0.  1.
         21    1    1    2  503  501 -0.14352595126E+03  0.17406930617E+03  0.35277203418E+03  0.41874566283E+03  0.00000000000E+00 0. -1.
         21    1    1    2  504  503 -0.50353123262E+02 -0.59717553918E+01  0.25486185148E+03  0.25985700342E+03  0.00000000000E+00 0. -1.
         21    1    1    2  505  502  0.42978892536E+02 -0.86077210950E+02 -0.75687592345E+02  0.12241357393E+03  0.00000000000E+00 0. -1.
          2    1    1    2  501    0  0.15090018198E+03 -0.82020339832E+02 -0.48371993636E+03  0.51330612494E+03  0.00000000000E+00 0.  1.
<scales pt_clust_3="246.20422" pt_clust_4="50.70600" pt_clust_5="95.30163" pt_clust_6="14000.00000"></scales>
<clustering>
<clus scale="   50.706">  1  4  2 -1</clus>
<clus scale="   95.302">  2  5  1 -1</clus>
<clus scale="  246.204">  1  3  2 -1</clus>
<clus scale="   50.706">  1  3  2 -1</clus>
</clustering>
</event>
<event>
 6    0  0.3800129E+002  0.8825772E+02  0.7546771E-02  0.1307127E+00
         21   -1    0    0  505  502  0.00000000000E+00  0.00000000000E+00  0.27128881370E+03  0.27128881370E+03  0.00000000000E+00 0. -1.
          2   -1    0    0  504    0 -0.00000000000E+00 -0.00000000000E+00 -0.96885981943E+02  0.96885981943E+02  0.00000000000E+00 0. -1.
         21    1    1    2  503  502 -0.44254773002E+02  0.43899181418E+02  0.10392444771E+03  0.12118545249E+03  0.00000000000E+00 0. -1.
         21    1    1    2  504  503  0.22948788156E+02  0.54821610336E+02  0.37869535577E+01  0.59551631841E+02  0.00000000000E+00 0. -1.
         21    1    1    2  505  501 -0.55040342313E+02 -0.11976025360E+02  0.39287358949E+02  0.68675767477E+02  0.00000000000E+00 0.  1.
          2    1    1    2  501    0  0.76346327158E+02 -0.86744766394E+02  0.27404071541E+02  0.11876194384E+03  0.00000000000E+00 0. -1.
<scales pt_clust_3="88.25772" pt_clust_4="55.13548" pt_clust_5="56.32819" pt_clust_6="14000.00000"></scales>
<clustering>
<clus scale="   56.328">  1  5  2 -1</clus>
<clus scale="   55.135">  2  4  1 -1</clus>
<clus scale="   88.258">  1  3  2 -1</clus>
<clus scale="   56.328">  1  3  2 -1</clus>
</clustering>
</event>
<event>
 6    0  0.3800129E+002  0.8825445E+02  0.7546771E-02  0.1307135E+00
         21   -1    0    0  503  502  0.00000000000E+00  0.00000000000E+00  0.75075486044E+02  0.75075486044E+02  0.00000000000E+00 0. -1.
          2   -1    0    0  504    0 -0.00000000000E+00 -0.00000000000E+00 -0.21025874410E+04  0.21025874410E+04  0.00000000000E+00 0. -1.
         21    1    1    2  503  501 -0.73602694913E+02 -0.78710107940E+02 -0.57715529721E+02  0.12224450974E+03  0.00000000000E+00 0. -1.
         21    1    1    2  504  505 -0.29744589495E+02 -0.17219852474E+02 -0.27973240796E+03  0.28183591678E+03  0.00000000000E+00 0. -1.
         21    1    1    2  505  502  0.86193593322E+02  0.92485164850E+01 -0.56713199705E+01  0.86873669527E+02  0.00000000000E+00 0. -1.
          2    1    1    2  501    0  0.17153691086E+02  0.86681443929E+02 -0.16843926973E+04  0.16867088310E+04  0.00000000000E+00 0. -1.
<scales pt_clust_3="14000.00000" pt_clust_4="34.36952" pt_clust_5="88.25445" pt_clust_6="71.50487"></scales>
<clustering>
<clus scale="   34.370">  2  4  1 -1</clus>
<clus scale="   71.505">  2  6  1 -1</clus>
<clus scale="   88.254">  1  5  2 -1</clus>
<clus scale="   88.254">  1  3  2 -1</clus>
</clustering>
</event>
<event>
 6    0  0.3800129E+002  0.3611452E+03  0.7546771E-02  0.1058131E+00
         21   -1    0    0  503  502  0.00000000000E+00  0.00000000000E+00  0.71995507376E+03  0.71995507376E+03  0.00000000000E+00 0.  1.
          1   -1    0    0  504    0 -0.00000000000E+00 -0.00000000000E+00 -0.85295455136E+03  0.85295455136E+03  0.00000000000E+00 0.  1.
         21    1    1    2  503  501 -0.67416069307E+02  0.36506727441E+02 -0.14405290220E+01  0.76679480131E+02  0.00000000000E+00 0. -1.
         21    1    1    2  504  505  0.30013237148E+03  0.17527671939E+03 -0.44652818499E+03  0.56585226761E+03  0.00000000000E+00 0.  1.
         21    1    1    2  505  502  0.14964993733E+03 -0.27441985888E+03  0.42502648005E+03  0.52758778552E+03  0.00000000000E+00 0.  1.
          1    1    1    2  501    0 -0.38236623950E+03  0.62636412053E+02 -0.11005724364E+03  0.40279009186E+03  0.00000000000E+00 0.  1.
<scales pt_clust_3="32.46235" pt_clust_4="353.69483" pt_clust_5="312.57217" pt_clust_6="32.46235"></scales>
<clustering>
<clus scale="   32.462">  3  6 -1 -1</clus>
<clus scale="  312.572">  1  5  2 -1</clus>
<clus scale="  353.695">  2  4  1 -1</clus>
<clus scale="  312.572">  1  3  2 -1</clus>
</clustering>
</event>
<event>
 6    0  0.3800129E+002  0.8995533E+02  0.7546771E-02  0.1302960E+00
          1   -1    0    0  503    0 -0.00000000000E+00  0.00000000000E+00  0.25272174423E+03  0.25272174423E+03  0.00000000000E+00 0. -1.
         21   -1    0    0  505  502  0.00000000000E+00 -0.00000000000E+00 -0.27263521916E+03  0.27263521916E+03  0.00000000000E+00 0. -1.
         21    1    1    2  503  504  0.10189131552E+02 -0.46653189677E+02  0.11889303569E+02  0.49210710705E+02  0.00000000000E+00 0. -1.
         21    1    1    2  504  502 -0.49780315558E+02  0.74898038693E+02 -0.19255442836E+03  0.21252059641E+03  0.00000000000E+00 0. -1.
         21    1    1    2  505  501 -0.38514978763E+02 -0.38013052396E+02 -0.26681431682E+02  0.60334853428E+02  0.00000000000E+00 0.  1.
          1    1    1    2  501    0  0.78106162769E+02  0.97682033792E+01  0.18743308155E+03  0.20329080284E+03  0.00000000000E+00 0. -1.
<scales pt_clust_3="47.75289" pt_clust_4="89.95533" pt_clust_5="56.13076" pt_clust_6="14000.00000"></scales>
<clustering>
<clus scale="   47.753">  1  3  2 -1</clus>
<clus scale="   56.131">  2  5  1 -1</clus>
<clus scale="   89.955">  2  4  1 -1</clus>
<clus scale="   56.131">  2  3  1 -1</clus>
</clustering>
</event>
<event>
 6    0  0.3800129E+002  0.8147980E+02  0.7546771E-02  0.1324904E+00
          1   -1    0    0  503    0 -0.00000000000E+00  0.00000000000E+00  0.71168138712E+03  0.71168138712E+03  0.00000000000E+00 0. -1.
         21   -1    0    0  505  502  0.00000000000E+00 -0.00000000000E+00 -0.51459711369E+03  0.51459711369E+03  0.00000000000E+00 0. -1.
         21    1    1    2  503  504  0.43985487604E+02  0.32407156977E+01  0.44936468665E+03  0.45152391627E+03  0.00000000000E+00 0. -1.
         21    1    1    2  504  502 -0.31646264692E+01 -0.48584538969E+02 -0.37397010129E+02  0.61392252394E+02  0.00000000000E+00 0.  1.
         21    1    1    2  505  501  0.81573025184E+02  0.41063406379E+02 -0.44414675256E+03  0.45343874955E+03  0.00000000000E+00 0. -1.
          1    1    1    2  501    0 -0.12239388632E+03  0.42804168919E+01  0.22926334947E+03  0.25992358259E+03  0.00000000000E+00 0. -1.
<scales pt_clust_3="44.10471" pt_clust_4="48.44923" pt_clust_5="81.47980" pt_clust_6="14000.00000"></scales>
<clustering>
<clus scale="   44.105">  1  3  2 -1</clus>
<clus scale="   48.449">  2  4  1 -1</clus>
<clus scale="   81.480">  2  5  1 -1</clus>
<clus scale="   48.449">  2  3  1 -1</clus>
</clustering>
</event>
<event>
 6    0  0.3800129E+002  0.9687709E+02  0.7546771E-02  0.1287003E+00
         21   -1    0    0  501  502  0.00000000000E+00  0.00000000000E+00  0.89731861149E+02  0.89731861149E+02  0.00000000000E+00 0. -1.
          1   -1    0    0  505    0 -0.00000000000E+00 -0.00000000000E+00 -0.92942015229E+03  0.92942015229E+03  0.00000000000E+00 0. -1.
         21    1    1    2  503  502  0.26464299239E+02 -0.33472919352E+02 -0.21146192040E+01  0.42723144530E+02  0.00000000000E+00 0. -1.
         21    1    1    2  504  503  0.33867400881E+02 -0.23546496943E+02 -0.40733335006E+02  0.57971052617E+02  0.00000000000E+00 0. -1.
         21    1    1    2  505  504 -0.34159025432E+02 -0.88923552729E+02 -0.75964227570E+03  0.76559168248E+03  0.00000000000E+00 0. -1.
          1    1    1    2  501    0 -0.26172674688E+02  0.14594296902E+03 -0.37198061229E+02  0.15286613381E+03  0.00000000000E+00 0. -1.
<scales pt_clust_3="91.12285" pt_clust_4="36.94826" pt_clust_5="96.87709" pt_clust_6="14000.00000"></scales>
<clustering>
<clus scale="   36.948">  3  4 -1 -1</clus>
<clus scale="   91.123">  1  3  2 -1</clus>
<clus scale="   96.877">  2  5  1 -1</clus>
<clus scale="   91.123">  1  3  2 -1</clus>
</clustering>
</event>
<event>
 6    0  0.3800129E+002  0.8344269E+02  0.7546771E-02  0.1319556E+00
          2   -1    0    0  504    0 -0.00000000000E+00  0.00000000000E+00  0.16771925570E+04  0.16771925570E+04  0.00000000000E+00 0.  1.
         21   -1    0    0  503  502  0.00000000000E+00 -0.00000000000E+00 -0.18849626030E+03  0.18849626030E+03  0.00000000000E+00 0. -1.
         21    1    1    2  503  505 -0.59076187381E+02 -0.42802615070E+02 -0.15550568111E+03  0.17176750749E+03  0.00000000000E+00 0. -1.
         21    1    1    2  504  502  0.16703375963E+02  0.42547544234E+02  0.43207889426E+02  0.62898473730E+02  0.00000000000E+00 0.  1.
         21    1    1    2  505  501 -0.42163029666E+02  0.19570246869E+02  0.25258023675E+02  0.52902583992E+02  0.00000000000E+00 0. -1.
          2    1    1    2  501    0  0.84535841084E+02 -0.19315176032E+02  0.15757360647E+04  0.15781202521E+04  0.00000000000E+00 0.  1.
<scales pt_clust_3="43.94392" pt_clust_4="45.70882" pt_clust_5="83.44269" pt_clust_6="14000.00000"></scales>
<clustering>
<clus scale="   45.709">  2  4  1 -1</clus>
<clus scale="   43.944">  2  3  1 -1</clus>
<clus scale="   83.443">  2  5  1 -1</clus>
<clus scale="   45.709">  2  3  1 -1</clus>
</clustering>
</event>
<event>
 6    0  0.3800129E+002  0.1866852E+03  0.7546771E-02  0.1161485E+00
         21   -1    0    0  503  502  0.00000000000E+00  0.00000000000E+00  0.22398326808E+03  0.22398326808E+03  0.00000000000E+00 0. -1.
          2   -1    0    0  502    0 -0.00000000000E+00 -0.00000000000E+00 -0.17006678116E+03  0.17006678116E+03  0.00000000000E+00 0. -1.
         21    1    1    2  503  504  0.35564764835E+02  0.30691625862E+02  0.49196144729E+02  0.68022709825E+02  0.00000000000E+00 0. -1.
         21    1    1    2  504  505  0.49616094230E+02  0.37461115855E+02  0.13810486103E+02  0.63685332174E+02  0.00000000000E+00 0. -1.
         21    1    1    2  505  501  0.70897473093E+02  0.29631060058E+01  0.43146567355E+02  0.83047323634E+02  0.00000000000E+00 0.  1.
          2    1    1    2  501    0 -0.15607833216E+03 -0.71115847723E+02 -0.52236711262E+02  0.17929468361E+03  0.00000000000E+00 0. -1.
<scales pt_clust_3="33.40283" pt_clust_4="44.23473" pt_clust_5="44.23473" pt_clust_6="171.51650"></scales>
<clustering>
<clus scale="   33.403">  3  4 -1 -1</clus>
<clus scale="   44.235">  3  5 -1 -1</clus>
<clus scale="  171.516">  2  6  1 -1</clus>
<clus scale="  186.685">  1  3  2 -1</clus>
</clustering>
</event>
<event>
 6    0  0.3800129E+002  0.1155694E+03  0.7546771E-02  0.1250590E+00
          1   -1    0    0  504    0 -0.00000000000E+00  0.00000000000E+00  0.12068828624E+04  0.12068828624E+04  0.00000000000E+00 0. -1.
         21   -1    0    0  503  502  0.00000000000E+00 -0.00000000000E+00 -0.47985493295E+02  0.47985493295E+02  0.00000000000E+00 0. -1.
         21    1    1    2  503  501  0.98385969587E+02 -0.12712667967E+02  0.78796470125E+02  0.12668975745E+03  0.00000000000E+00 0. -1.
         21    1    1    2  504  505  0.23421803437E+02 -0.24091816721E+02  0.14070725646E+03  0.14466350103E+03  0.00000000000E+00 0. -1.
         21    1    1    2  505  502  0.45744889747E+02  0.86224277343E+01  0.61996524809E+03  0.62171042298E+03  0.00000000000E+00 0. -1.
          1    1    1    2  501    0 -0.16755266277E+03  0.28182056954E+02  0.31942839444E+03  0.36180467425E+03  0.00000000000E+00 0. -1.
<scales pt_clust_3="14000.00000" pt_clust_4="33.60054" pt_clust_5="59.65670" pt_clust_6="115.56940"></scales>
<clustering>
<clus scale="   33.601">  1  4  2 -1</clus>
<clus scale="   59.657">  1  5  2 -1</clus>
<clus scale="  115.569">  1  6  2 -1</clus>
<clus scale="  115.569">  2  3  1 -1</clus>
</clustering>
</event>
<event>
 6    0  0.3800129E+002  0.1126479E+03  0.7546771E-02  0.1255743E+00
          4   -1    0    0  505    0 -0.00000000000E+00  0.00000000000E+00  0.18330655462E+03  0.18330655462E+03  0.00000000000E+00 0. -1.
         21   -1    0    0  501  502  0.00000000000E+00 -0.00000000000E+00 -0.82126989855E+03  0.82126989855E+03  0.00000000000E+00 0.  1.
         21    1    1    2  503  502 -0.34702043086E+02 -0.44129032442E+02 -0.27029998212E+03  0.27606825901E+03  0.00000000000E+00 0.  1.
         21    1    1    2  504  503 -0.44465895526E+02 -0.21084866250E+02 -0.49514108870E+03  0.49758063183E+03  0.00000000000E+00 0.  1.
         21    1    1    2  505  504 -0.28949598606E+02  0.16792008539E+02 -0.22110668737E+02  0.40111500623E+02  0.00000000000E+00 0. -1.
          4    1    1    2  501    0  0.10811753722E+03  0.48421890153E+02  0.14958839563E+03  0.19081606171E+03  0.00000000000E+00 0. -1.
<scales pt_clust_3="43.05664" pt_clust_4="43.05664" pt_clust_5="33.46716" pt_clust_6="102.84645"></scales>
<clustering>
<clus scale="   33.467">  1  5  2 -1</clus>
<clus scale="   43.057">  3  4 -1 -1</clus>
<clus scale="  102.846">  1  6  2 -1</clus>
<clus scale="  112.648">  2  3  1 -1</clus>
</clustering>
</event>
<event>
 6    0  0.3800129E+002  0.1662120E+03  0.7546771E-02  0.1181857E+00
         21   -1    0    0  505  502  0.00000000000E+00  0.00000000000E+00  0.42480655917E+03  0.42480655917E+03  0.00000000000E+00 0. -1.
          1   -1    0    0  504    0 -0.00000000000E+00 -0.00000000000E+00 -0.60132472188E+03  0.60132472188E+03  0.00000000000E+00 0. -1.
         21    1    1    2  503  502 -0.34070971986E+02 -0.84813775828E+01  0.31500584465E+02  0.47170453882E+02  0.00000000000E+00 0.  1.
         21    1    1    2  504  503  0.26831685992E+02  0.13825489126E+02 -0.30324858728E+02  0.42786453225E+02  0.00000000000E+00 0. -1.
         21    1    1    2  505  501  0.39725325682E+02  0.17332959346E+03  0.34210740945E+03  0.38556287304E+03  0.00000000000E+00 0. -1.
          1    1    1    2  501    0 -0.32486039689E+02 -0.17867370500E+03 -0.51980129790E+03  0.55061150091E+03  0.00000000000E+00 0. -1.
<scales pt_clust_3="34.70335" pt_clust_4="30.18416" pt_clust_5="14000.00000" pt_clust_6="166.21202"></scales>
<clustering>
<clus scale="   30.184">  2  4  1 -1</clus>
<clus scale="   34.703">  1  3  2 -1</clus>
<clus scale="  166.212">  2  6  1 -1</clus>
<clus scale="   34.703">  1  3  2 -1</clus>
</clustering>
</event>
<event>
 6    0  0.3800129E+002  0.1077379E+03  0.7546771E-02  0.1264817E+00
         21   -1    0    0  503  502  0.00000000000E+00  0.00000000000E+00  0.60949082454E+02  0.60949082454E+02  0.00000000000E+00 0. -1.
          1   -1    0    0  504    0 -0.00000000000E+00 -0.00000000000E+00 -0.15277262712E+04  0.15277262712E+04  0.00000000000E+00 0.  1.
         21    1    1    2  503  501  0.39935590607E+02 -0.16219768951E+01 -0.55557711534E+02  0.68440788402E+02  0.00000000000E+00 0. -1.
         21    1    1    2  504  505  0.86599592007E+02  0.43314080279E+02 -0.65675628982E+03  0.66385572461E+03  0.00000000000E+00 0.  1.
         21    1    1    2  505  502  0.15442561317E+02 -0.65580575991E+02  0.18703031153E+02  0.69922013855E+02  0.00000000000E+00 0. -1.
          1    1    1    2  501    0 -0.14197774393E+03  0.23888472607E+02 -0.77316621860E+03  0.78645682684E+03  0.00000000000E+00 0.  1.
<scales pt_clust_3="39.96852" pt_clust_4="14000.00000" pt_clust_5="82.28450" pt_clust_6="107.73792"></scales>
<clustering>
<clus scale="   39.969">  1  3  2 -1</clus>
<clus scale="   82.285">  1  5  2 -1</clus>
<clus scale="  107.738">  1  6  2 -1</clus>
<clus scale="   39.969">  1  3  2 -1</clus>
</clustering>
</event>
<event>
 6    0  0.3800129E+002  0.1155334E+03  0.7546771E-02  0.1250653E+00
         21   -1    0    0  505  502  0.00000000000E+00  0.00000000000E+00  0.43429759487E+02  0.43429759487E+02  0.00000000000E+00 0.  1.
          2   -1    0    0  504    0 -0.00000000000E+00 -0.00000000000E+00 -0.10922587421E+04  0.10922587421E+04  0.00000000000E+00 0. -1.
         21    1    1    2  503  502 -0.22146780834E+02  0.30117581299E+02 -0.23478765599E+01  0.37457457588E+02  0.00000000000E+00 0.  1.
         21    1    1    2  504  503 -0.20833245166E+02 -0.12754605696E+03 -0.16524787674E+03  0.20978293905E+03  0.00000000000E+00 0.  1.
         21    1    1    2  505  501  0.17511675503E+02  0.54462600752E+02 -0.32679684411E+03  0.33176650069E+03  0.00000000000E+00 0. -1.
          2    1    1    2  501    0  0.25468350498E+02  0.42965874907E+02 -0.55443638525E+03  0.55668160431E+03  0.00000000000E+00 0. -1.
<scales pt_clust_3="37.38380" pt_clust_4="109.17661" pt_clust_5="35.31464" pt_clust_6="35.31464"></scales>
<clustering>
<clus scale="   35.315">  5  6 -1 -1</clus>
<clus scale="   37.384">  1  3  2 -1</clus>
<clus scale="  109.177">  1  4  2 -1</clus>
<clus scale="   37.384">  1  3  2 -1</clus>
</clustering>
</event>
<event>
 6    0  0.3800129E+002  0.2138753E+03  0.7546771E-02  0.1138533E+00
          2   -1    0    0  503    0 -0.00000000000E+00  0.00000000000E+00  0.18730767385E+04  0.18730767385E+04  0.00000000000E+00 0. -1.
         21   -1    0    0  504  502  0.00000000000E+00 -0.00000000000E+00 -0.55173906140E+02  0.55173906140E+02  0.00000000000E+00 0. -1.
         21    1    1    2  503  502  0.36801757064E+02  0.11918187022E+02  0.40493279836E+03  0.40677633129E+03  0.00000000000E+00 0.  1.
         21    1    1    2  504  505  0.95047878327E+02 -0.50766089391E+00  0.11370675666E+03  0.14820115858E+03  0.00000000000E+00 0. -1.
         21    1    1    2  505  501  0.10686861795E+03 -0.32571917680E+02  0.98862502542E+02  0.14918319521E+03  0.00000000000E+00 0. -1.
          2    1    1    2  501    0 -0.23871825334E+03  0.21161391552E+02  0.12004007748E+04  0.12240899595E+04  0.00000000000E+00 0. -1.
<scales pt_clust_3="38.68349" pt_clust_4="34.35418" pt_clust_5="34.35418" pt_clust_6="210.60722"></scales>
<clustering>
<clus scale="   34.354">  4  5 -1 -1</clus>
<clus scale="   38.683">  1  3  2 -1</clus>
<clus scale="  210.607">  1  6  2 -1</clus>
<clus scale="  213.875">  2  3  1 -1</clus>
</clustering>
</event>
<event>
 6    0  0.3800129E+002  0.1011725E+03  0.7546771E-02  0.1277849E+00
         21   -1    0    0  505  502  0.00000000000E+00  0.00000000000E+00  0.12097751044E+03  0.12097751044E+03  0.00000000000E+00 0. -1.
          1   -1    0    0  503    0 -0.00000000000E+00 -0.00000000000E+00 -0.28606484127E+03  0.28606484127E+03  0.00000000000E+00 0.  1.
         21    1    1    2  503  504 -0.31726965192E+02 -0.23962322442E+01 -0.47664761347E+02  0.57308565883E+02  0.00000000000E+00 0. -1.
         21    1    1    2  504  502 -0.81095241155E+02  0.45063183529E+02  0.50593377696E+02  0.10567316838E+03  0.00000000000E+00 0. -1.
         21    1    1    2  505  501  0.14601831038E+02  0.29105367643E+02  0.45997567291E+01  0.32886070870E+02  0.00000000000E+00 0. -1.
          1    1    1    2  501    0  0.98220375310E+02 -0.71772318928E+02 -0.17261570390E+03  0.21117454658E+03  0.00000000000E+00 0.  1.
<scales pt_clust_3="31.81733" pt_clust_4="14000.00000" pt_clust_5="31.61486" pt_clust_6="101.17251"></scales>
<clustering>
<clus scale="   31.817">  2  3  1 -1</clus>
<clus scale="   31.615">  1  5  2 -1</clus>
<clus scale="  101.173">  2  6  1 -1</clus>
<clus scale="   31.615">  1  3  2 -1</clus>
</clustering>
</event>
<event>
 6    0  0.3800129E+002  0.1171369E+03  0.7546771E-02  0.1247896E+00
         -2   -1    0    0    0  501 -0.00000000000E+00  0.00000000000E+00  0.11662312660E+03  0.11662312660E+03  0.00000000000E+00 0.  1.
         21   -1    0    0  505  502  0.00000000000E+00 -0.00000000000E+00 -0.34781808093E+03  0.34781808093E+03  0.00000000000E+00 0.  1.
         21    1    1    2  503  502  0.51218305020E+02 -0.11413150664E+03 -0.16999895309E+03  0.21106624465E+03  0.00000000000E+00 0.  1.
         21    1    1    2  504  501 -0.12169979082E+02  0.63142279139E+02  0.14420114757E+02  0.65901407537E+02  0.00000000000E+00 0.  1.
         21    1    1    2  505  504 -0.67995023730E+02  0.85332540367E+02 -0.88783606576E+02  0.14066802940E+03  0.00000000000E+00 0.  1.
         -2    1    1    2    0  503  0.28946697792E+02 -0.34343312870E+02  0.13167490578E+02  0.46805525957E+02  0.00000000000E+00 0.  1.
<scales pt_clust_3="117.13694" pt_clust_4="47.23879" pt_clust_5="14000.00000" pt_clust_6="44.91519"></scales>
<clustering>
<clus scale="   44.915">  1  6  2 -1</clus>
<clus scale="   47.239">  1  4  2 -1</clus>
<clus scale="  117.137">  2  3  1 -1</clus>
<clus scale="  117.137">  2  3  1 -1</clus>
</clustering>
</event>
<event>
 6    0  0.3800129E+002  0.1019846E+03  0.7546771E-02  0.1276177E+00
         21   -1    0    0  504  502  0.00000000000E+00  0.00000000000E+00  0.12217901788E+03  0.12217901788E+03  0.00000000000E+00 0. -1.
          2   -1    0    0  503    0 -0.00000000000E+00 -0.00000000000E+00 -0.98824322016E+03  0.98824322016E+03  0.00000000000E+00 0.  1.
         21    1    1    2  503  505  0.27075862890E+02  0.77752656484E+02 -0.24153279619E+03  0.25517968097E+03  0.00000000000E+00 0.  1.
         21    1    1    2  504  501 -0.20488335353E+01  0.32598948300E+02  0.16770069114E+02  0.36716813141E+02  0.00000000000E+00 0. -1.
         21    1    1    2  505  502  0.41156797923E+02 -0.13947669950E+02  0.78264797408E+02  0.89519819178E+02  0.00000000000E+00 0. -1.
          2    1    1    2  501    0 -0.66183827278E+02 -0.96403934835E+02 -0.71956627261E+03  0.72900592476E+03  0.00000000000E+00 0.  1.
<scales pt_clust_3="101.98462" pt_clust_4="32.66327" pt_clust_5="42.01443" pt_clust_6="14000.00000"></scales>
<clustering>
<clus scale="   32.663">  1  4  2 -1</clus>
<clus scale="   42.014">  1  5  2 -1</clus>
<clus scale="  101.985">  1  3  2 -1</clus>
<clus scale="   32.663">  1  3  2 -1</clus>
</clustering>
</event>
<event>
 6    0  0.3800129E+002  0.1358552E+03  0.7546771E-02  0.1219017E+00
         -2   -1    0    0    0  501 -0.00000000000E+00  0.00000000000E+00  0.62888013310E+03  0.62888013310E+03  0.00000000000E+00 0. -1.
         21   -1    0    0  505  502  0.00000000000E+00 -0.00000000000E+00 -0.77419751694E+03  0.77419751694E+03  0.00000000000E+00 0.  1.
         21    1    1    2  503  504  0.65020580334E+02 -0.43398203345E+02 -0.33885042658E+03  0.34775090440E+03  0.00000000000E+00 0.  1.
         21    1    1    2  504  502  0.50672607051E+02 -0.10390910771E+02 -0.41626612347E+03  0.41946772186E+03  0.00000000000E+00 0.  1.
         21    1    1    2  505  501 -0.52067217665E+01 -0.36851671727E+02  0.12036503796E+03  0.12598768997E+03  0.00000000000E+00 0. -1.
         -2    1    1    2    0  503 -0.11048646562E+03  0.90640785843E+02  0.48943412825E+03  0.50987133381E+03  0.00000000000E+00 0. -1.
<scales pt_clust_3="37.64456" pt_clust_4="37.64456" pt_clust_5="37.21768" pt_clust_6="127.71610"></scales>
<clustering>
<clus scale="   37.218">  1  5  2 -1</clus>
<clus scale="   37.645">  3  4 -1 -1</clus>
<clus scale="  127.716">  1  6  2 -1</clus>
<clus scale="  135.855">  2  3  1 -1</clus>
</clustering>
</event>
<event>
 6    0  0.3800129E+002  0.2552113E+03  0.7546771E-02  0.1110055E+00
         21   -1    0    0  503  502  0.00000000000E+00  0.00000000000E+00  0.19701947243E+03  0.19701947243E+03  0.00000000000E+00 0. -1.
          2   -1    0    0  505    0 -0.00000000000E+00 -0.00000000000E+00 -0.13512490579E+04  0.13512490579E+04  0.00000000000E+00 0.  1.
         21    1    1    2  503  504  0.56237718129E+02 -0.11253112672E+02 -0.24811616818E+02  0.62489437622E+02  0.00000000000E+00 0.  1.
         21    1    1    2  504  501  0.32021042602E+02  0.17364132680E+02 -0.50540437969E+02  0.62299246730E+02  0.00000000000E+00 0. -1.
         21    1    1    2  505  502  0.30414765678E+02  0.22404257596E+03  0.77078628202E+02  0.23887496465E+03  0.00000000000E+00 0. -1.
          2    1    1    2  501    0 -0.11867352641E+03 -0.23015359596E+03 -0.11559561589E+04  0.11846048814E+04  0.00000000000E+00 0.  1.
<scales pt_clust_3="99.47001" pt_clust_4="36.23555" pt_clust_5="14000.00000" pt_clust_6="255.21129"></scales>
<clustering>
<clus scale="   36.236">  3  4 -1 -1</clus>
<clus scale="   99.470">  1  3  2 -1</clus>
<clus scale="  255.211">  2  6  1 -1</clus>
<clus scale="   99.470">  1  3  2 -1</clus>
</clustering>
</event>
<event>
 6    0  0.3800129E+002  0.8137796E+02  0.7546771E-02  0.1325186E+00
         21   -1    0    0  501  502  0.00000000000E+00  0.00000000000E+00  0.20282420569E+03  0.20282420569E+03  0.00000000000E+00 0.  1.
          4   -1    0    0  504    0 -0.00000000000E+00 -0.00000000000E+00 -0.11651455978E+03  0.11651455978E+03  0.00000000000E+00 0.  1.
         21    1    1    2  503  505  0.18528790851E+02  0.35376496459E+02  0.65738671176E+01  0.40472562570E+02  0.00000000000E+00 0.  1.
         21    1    1    2  504  503  0.29975441525E+02  0.90891440703E+01 -0.38806491543E+02  0.49870666934E+02  0.00000000000E+00 0. -1.
         21    1    1    2  505  502 -0.63418239875E+02  0.51982720507E+02  0.10056496394E+03  0.12975896251E+03  0.00000000000E+00 0.  1.
          4    1    1    2  501    0  0.14914007499E+02 -0.96448361037E+02  0.17977306390E+02  0.99236573456E+02  0.00000000000E+00 0.  1.
<scales pt_clust_3="45.39597" pt_clust_4="31.32315" pt_clust_5="81.37796" pt_clust_6="14000.00000"></scales>
<clustering>
<clus scale="   31.323">  2  4  1 -1</clus>
<clus scale="   45.396">  2  3  1 -1</clus>
<clus scale="   81.378">  1  5  2 -1</clus>
<clus scale="   81.378">  1  3  2 -1</clus>
</clustering>
</event>
<event>
 6    0  0.3800129E+002  0.8571870E+02  0.7546771E-02  0.1313564E+00
          3   -1    0    0  505    0 -0.00000000000E+00  0.00000000000E+00  0.90164023700E+03  0.90164023700E+03  0.00000000000E+00 0.  1.
         21   -1    0    0  501  502  0.00000000000E+00 -0.00000000000E+00 -0.14023214894E+03  0.14023214894E+03  0.00000000000E+00 0.  1.
         21    1    1    2  503  504  0.58512812207E+02  0.60978717805E+01 -0.23749573744E+02  0.63442694502E+02  0.00000000000E+00 0.  1.
         21    1    1    2  504  502  0.18024586974E+02 -0.52691317660E+02 -0.79074149111E+02  0.96715984976E+02  0.00000000000E+00 0.  1.
         21    1    1    2  505  503  0.32194346954E+01 -0.43058396986E+02  0.39614925982E+03  0.39849545338E+03  0.00000000000E+00 0.  1.
          3    1    1    2  501    0 -0.79756833876E+02  0.89651842865E+02  0.46808255110E+03  0.48321825309E+03  0.00000000000E+00 0.  1.
<scales pt_clust_3="14000.00000" pt_clust_4="56.42010" pt_clust_5="43.17859" pt_clust_6="85.71870"></scales>
<clustering>
<clus scale="   43.179">  1  5  2 -1</clus>
<clus scale="   56.420">  2  4  1 -1</clus>
<clus scale="   85.719">  1  6  2 -1</clus>
<clus scale="   56.420">  2  3  1 -1</clus>
</clustering>
</event>
<event>
 6    0  0.3800129E+002  0.9288545E+02  0.7546771E-02  0.1296011E+00
         21   -1    0    0  504  502  0.00000000000E+00  0.00000000000E+00  0.73970573418E+02  0.73970573418E+02  0.00000000000E+00 0.  1.
          2   -1    0    0  505    0 -0.00000000000E+00 -0.00000000000E+00 -0.14314013736E+04  0.14314013736E+04  0.00000000000E+00 0.  1.
         21    1    1    2  503  502  0.13785191301E+02 -0.36224000391E+02 -0.64109855127E+02  0.74915173549E+02  0.00000000000E+00 0.  1.
         21    1    1    2  504  501 -0.33771595201E+02  0.12690761593E+03 -0.24363169198E+01  0.13134686621E+03  0.00000000000E+00 0.  1.
         21    1    1    2  505  503  0.54034790162E+02 -0.11748957983E+02 -0.35441814361E+03  0.35870603157E+03  0.00000000000E+00 0.  1.
          2    1    1    2  501    0 -0.34048386262E+02 -0.78934657559E+02 -0.93646648450E+03  0.94040387566E+03  0.00000000000E+00 0.  1.
<scales pt_clust_3="38.75835" pt_clust_4="14000.00000" pt_clust_5="55.96839" pt_clust_6="92.88545"></scales>
<clustering>
<clus scale="   38.758">  1  3  2 -1</clus>
<clus scale="   55.968">  2  5  1 -1</clus>
<clus scale="   92.885">  2  6  1 -1</clus>
<clus scale="   38.758">  1  3  2 -1</clus>
</clustering>
</event>
<event>
 6    0  0.3800129E+002  0.2062706E+03  0.7546771E-02  0.1144554E+00
         21   -1    0    0  505  502  0.00000000000E+00  0.00000000000E+00  0.11398281028E+03  0.11398281028E+03  0.00000000000E+00 0. -1.
          2   -1    0    0  503    0 -0.00000000000E+00 -0.00000000000E+00 -0.35311566735E+04  0.35311566735E+04  0.00000000000E+00 0.  1.
         21    1    1    2  503  504  0.16461015048E+02 -0.16505553392E+03 -0.82735885943E+03  0.84382283482E+03  0.00000000000E+00 0.  1.
         21    1    1    2  504  502 -0.68572838160E+02 -0.18018857211E+01 -0.84615400135E+02  0.10892771395E+03  0.00000000000E+00 0. -1.
         21    1    1    2  505  501 -0.82422783686E+02 -0.50215973494E+02  0.60566128224E+02  0.11394478993E+03  0.00000000000E+00 0. -1.
          2    1    1    2  501    0  0.13453460680E+03  0.21707339313E+03 -0.25657657319E+04  0.25784441451E+04  0.00000000000E+00 0.  1.
<scales pt_clust_3="206.27059" pt_clust_4="68.59651" pt_clust_5="150.37198" pt_clust_6="14000.00000"></scales>
<clustering>
<clus scale="   68.597">  1  4  2 -1</clus>
<clus scale="  150.372">  1  5  2 -1</clus>
<clus scale="  206.271">  1  3  2 -1</clus>
<clus scale="   68.597">  1  3  2 -1</clus>
</clustering>
</event>
<event>
 6    0  0.3800129E+002  0.1739782E+03  0.7546771E-02  0.1173762E+00
         21   -1    0    0  505  502  0.00000000000E+00  0.00000000000E+00  0.34211173990E+03  0.34211173990E+03  0.00000000000E+00 0.  1.
         -3   -1    0    0    0  501 -0.00000000000E+00 -0.00000000000E+00 -0.12053585392E+04  0.12053585392E+04  0.00000000000E+00 0.  1.
         21    1    1    2  503  504  0.44039481826E+02  0.30904491760E+02  0.53365310363E+02  0.75778756393E+02  0.00000000000E+00 0. -1.
         21    1    1    2  504  501 -0.66888616370E+02  0.35503550610E+02 -0.30639037653E+03  0.31560996805E+03  0.00000000000E+00 0.  1.
         21    1    1    2  505  503  0.10857978136E+03  0.30254776939E+02  0.25629472441E+03  0.27998554643E+03  0.00000000000E+00 0.  1.
         -3    1    1    2    0  502 -0.85730646814E+02 -0.96662819308E+02 -0.86651645754E+03  0.87609600823E+03  0.00000000000E+00 0.  1.
<scales pt_clust_3="41.71570" pt_clust_4="75.72707" pt_clust_5="41.71570" pt_clust_6="163.16431"></scales>
<clustering>
<clus scale="   41.716">  3  5 -1 -1</clus>
<clus scale="   75.727">  2  4  1 -1</clus>
<clus scale="  163.164">  2  6  1 -1</clus>
<clus scale="  173.978">  1  3  2 -1</clus>
</clustering>
</event>
<event>
 6    0  0.3800129E+002  0.1249630E+03  0.7546771E-02  0.1235127E+00
          1   -1    0    0  504    0 -0.00000000000E+00  0.00000000000E+00  0.28150166273E+04  0.28150166273E+04  0.00000000000E+00 0. -1.
         21   -1    0    0  503  502  0.00000000000E+00 -0.00000000000E+00 -0.60464921162E+02  0.60464921162E+02  0.00000000000E+00 0.  1.
         21    1    1    2  503  505  0.14486095123E+02 -0.42751720188E+02  0.13063339674E+02  0.46991567056E+02  0.00000000000E+00 0. -1.
         21    1    1    2  504  502 -0.99737034260E+02  0.24710016664E+02  0.36551119684E+02  0.10905982430E+03  0.00000000000E+00 0.  1.
         21    1    1    2  505  501 -0.39907902189E+02  0.31996009244E+02  0.10862752933E+03  0.12006800321E+03  0.00000000000E+00 0.  1.
          1    1    1    2  501    0  0.12515884133E+03 -0.13954305719E+02  0.25963097174E+04  0.25993621539E+04  0.00000000000E+00 0. -1.
<scales pt_clust_3="45.13930" pt_clust_4="124.96304" pt_clust_5="46.25832" pt_clust_6="14000.00000"></scales>
<clustering>
<clus scale="   45.139">  2  3  1 -1</clus>
<clus scale="   46.258">  2  5  1 -1</clus>
<clus scale="  124.963">  2  4  1 -1</clus>
<clus scale="   45.139">  2  3  1 -1</clus>
</clustering>
</event>
<event>
 6    0  0.6233945E+002  0.9122731E+02  0.7546771E-02  0.1299907E+00
         -3   -1    0    0    0  501 -0.00000000000E+00  0.00000000000E+00  0.52274201010E+03  0.52274201010E+03  0.00000000000E+00 0. -1.
         21   -1    0    0  504  502  0.00000000000E+00 -0.00000000000E+00 -0.19441289131E+04  0.19441289131E+04  0.00000000000E+00 0. -1.
         21    1    1    2  503  501  0.42821607884E+02 -0.25472358410E+02  0.31446766718E+02  0.58918844878E+02  0.00000000000E+00 0.  1.
         21    1    1    2  504  503 -0.90900077111E+02 -0.56813361379E+02 -0.18616585141E+04  0.18647420747E+04  0.00000000000E+00 0. -1.
         21    1    1    2  505  502 -0.13120177413E+01  0.53194750429E+02 -0.54607857444E+02  0.76245793054E+02  0.00000000000E+00 0. -1.
         -3    1    1    2    0  505  0.49390486968E+02  0.29090969360E+02  0.46343270189E+03  0.46696421049E+03  0.00000000000E+00 0. -1.
<scales pt_clust_3="49.82501" pt_clust_4="91.22731" pt_clust_5="52.61879" pt_clust_6="14000.00000"></scales>
<clustering>
<clus scale="   49.825">  1  3  2 -1</clus>
<clus scale="   52.619">  2  5  1 -1</clus>
<clus scale="   91.227">  2  4  1 -1</clus>
<clus scale="   52.619">  2  3  1 -1</clus>
</clustering>
</event>
<event>
 6    0  0.3800129E+002  0.1301803E+03  0.7546771E-02  0.1227188E+00
          2   -1    0    0  503    0 -0.00000000000E+00  0.00000000000E+00  0.20738136218E+04  0.20738136218E+04  0.00000000000E+00 0. -1.
         21   -1    0    0  505  502  0.00000000000E+00 -0.00000000000E+00 -0.68719395130E+02  0.68719395130E+02  0.00000000000E+00 0. -1.
         21    1    1    2  503  504  0.62274631311E+02 -0.14151604948E+02  0.29927849281E+03  0.30601636212E+03  0.00000000000E+00 0. -1.
         21    1    1    2  504  502 -0.24818401600E+02 -0.41815248271E+02  0.61833531505E+02  0.78662911619E+02  0.00000000000E+00 0.  1.
         21    1    1    2  505  501 -0.10657805810E+03  0.13315279421E+01 -0.48236682246E+01  0.10669546950E+03  0.00000000000E+00 0. -1.
          2    1    1    2  501    0  0.69121828393E+02  0.54635325278E+02  0.16488058706E+04  0.16511582737E+04  0.00000000000E+00 0. -1.
<scales pt_clust_3="63.08096" pt_clust_4="48.62580" pt_clust_5="130.18035" pt_clust_6="14000.00000"></scales>
<clustering>
<clus scale="   48.626">  2  4  1 -1</clus>
<clus scale="   63.081">  1  3  2 -1</clus>
<clus scale="  130.180">  2  5  1 -1</clus>
<clus scale="   48.626">  2  3  1 -1</clus>
</clustering>
</event>
<event>
 6    0  0.3800129E+002  0.1676995E+03  0.7546771E-02  0.1180268E+00
          2   -1    0    0  505    0 -0.00000000000E+00  0.00000000000E+00  0.25544297009E+04  0.25544297009E+04  0.00000000000E+00 0. -1.
         21   -1    0    0  501  502  0.00000000000E+00 -0.00000000000E+00 -0.68085757952E+03  0.68085757952E+03  0.00000000000E+00 0. -1.
         21    1    1    2  503  504  0.16017671053E+03  0.12411128726E+03 -0.41754708700E+03  0.46411826088E+03  0.00000000000E+00 0. -1.
         21    1    1    2  504  502 -0.17031650366E+02 -0.39397281979E+02 -0.22845774182E+03  0.23245464663E+03  0.00000000000E+00 0. -1.
         21    1    1    2  505  503  0.67081171848E+02  0.24628155369E+02  0.45392846830E+03  0.45951875259E+03  0.00000000000E+00 0.  1.
          2    1    1    2  501    0 -0.21022623201E+03 -0.10934216065E+03  0.20656484819E+04  0.20791956203E+04  0.00000000000E+00 0. -1.
<scales pt_clust_3="14000.00000" pt_clust_4="42.92112" pt_clust_5="71.27606" pt_clust_6="167.69945"></scales>
<clustering>
<clus scale="   42.921">  2  4  1 -1</clus>
<clus scale="   71.276">  1  5  2 -1</clus>
<clus scale="  167.699">  1  6  2 -1</clus>
<clus scale="   42.921">  2  3  1 -1</clus>
</clustering>
</event>
<event>
 6    0  0.3800129E+002  0.4045027E+03  0.7546771E-02  0.1042232E+00
         21   -1    0    0  501  502  0.00000000000E+00  0.00000000000E+00  0.12847034990E+04  0.12847034990E+04  0.00000000000E+00 0. -1.
          4   -1    0    0  503    0 -0.00000000000E+00 -0.00000000000E+00 -0.15522599079E+04  0.15522599079E+04  0.00000000000E+00 0. -1.
         21    1    1    2  503  505  0.25037445176E+02 -0.29046320918E+02 -0.49076809158E+03  0.49226403701E+03  0.00000000000E+00 0. -1.
         21    1    1    2  504  502  0.17376689946E+03 -0.20807285005E+03  0.88348147998E+03  0.92413677112E+03  0.00000000000E+00 0. -1.
         21    1    1    2  505  504  0.68463215733E+02 -0.10973699919E+03  0.32097073230E+03  0.34605148734E+03  0.00000000000E+00 0. -1.
          4    1    1    2  501    0 -0.26726756037E+03  0.34685617016E+03 -0.98124052964E+03  0.10745111114E+04  0.00000000000E+00 0. -1.
<scales pt_clust_3="38.34791" pt_clust_4="37.79899" pt_clust_5="37.79899" pt_clust_6="400.78406"></scales>
<clustering>
<clus scale="   37.799">  4  5 -1 -1</clus>
<clus scale="   38.348">  2  3  1 -1</clus>
<clus scale="  400.784">  2  6  1 -1</clus>
<clus scale="  404.503">  1  3  2 -1</clus>
</clustering>
</event>
<event>
 6    0  0.3800129E+002  0.1700572E+03  0.7546771E-02  0.1177788E+00
          1   -1    0    0  505    0 -0.00000000000E+00  0.00000000000E+00  0.14056327629E+04  0.14056327629E+04  0.00000000000E+00 0. -1.
         21   -1    0    0  501  502  0.00000000000E+00 -0.00000000000E+00 -0.19957400164E+03  0.19957400164E+03  0.00000000000E+00 0.  1.
         21    1    1    2  503  502  0.49173320293E+01 -0.63541511233E+02 -0.80172711553E+02  0.10241761314E+03  0.00000000000E+00 0.  1.
         21    1    1    2  504  503 -0.84102660405E+01 -0.10408174599E+03 -0.67722019419E+02  0.12445888613E+03  0.00000000000E+00 0.  1.
         21    1    1    2  505  504  0.25569910778E+02  0.65788014929E+02  0.11451787081E+03  0.13452221371E+03  0.00000000000E+00 0. -1.
          1    1    1    2  501    0 -0.22076976767E+02  0.10183524229E+03  0.12394356214E+04  0.12438080515E+04  0.00000000000E+00 0. -1.
<scales pt_clust_3="30.15959" pt_clust_4="30.15959" pt_clust_5="70.58246" pt_clust_6="165.61740"></scales>
<clustering>
<clus scale="   30.160">  3  4 -1 -1</clus>
<clus scale="   70.582">  1  5  2 -1</clus>
<clus scale="  165.617">  1  6  2 -1</clus>
<clus scale="  170.057">  2  3  1 -1</clus>
</clustering>
</event>
<event>
 6    0  0.3800129E+002  0.8079666E+02  0.7546771E-02  0.1326806E+00
         -3   -1    0    0    0  501 -0.00000000000E+00  0.00000000000E+00  0.75461276768E+03  0.75461276768E+03  0.00000000000E+00 0.  1.
         21   -1    0    0  504  502  0.00000000000E+00 -0.00000000000E+00 -0.47011269611E+02  0.47011269611E+02  0.00000000000E+00 0.  1.
         21    1    1    2  503  502  0.24380858548E+02 -0.69404341041E+02  0.66679557846E+01  0.73863728942E+02  0.00000000000E+00 0.  1.
         21    1    1    2  504  505 -0.25927455418E+02 -0.26107819897E+02  0.56951649180E+02  0.67803698634E+02  0.00000000000E+00 0. -1.
         21    1    1    2  505  501 -0.50798141674E+02  0.37830778021E+02  0.35786400778E+03  0.36342573798E+03  0.00000000000E+00 0. -1.
         -3    1    1    2    0  503  0.52344738544E+02  0.57681382916E+02  0.28611788532E+03  0.29653087173E+03  0.00000000000E+00 0.  1.
<scales pt_clust_3="80.79666" pt_clust_4="36.79472" pt_clust_5="63.73167" pt_clust_6="14000.00000"></scales>
<clustering>
<clus scale="   36.795">  2  4  1 -1</clus>
<clus scale="   63.732">  1  5  2 -1</clus>
<clus scale="   80.797">  2  3  1 -1</clus>
<clus scale="   36.795">  2  3  1 -1</clus>
</clustering>
</event>
<event>
 6    0  0.3800129E+002  0.2911701E+03  0.7546771E-02  0.1089740E+00
         21   -1    0    0  504  502  0.00000000000E+00  0.00000000000E+00  0.49828842562E+03  0.49828842562E+03  0.00000000000E+00 0. -1.
          2   -1    0    0  505    0 -0.00000000000E+00 -0.00000000000E+00 -0.30308226015E+03  0.30308226015E+03  0.00000000000E+00 0.  1.
         21    1    1    2  503  501 -0.11934453960E+03 -0.29761858571E+02  0.16585580482E+03  0.20648737334E+03  0.00000000000E+00 0.  1.
         21    1    1    2  504  503 -0.15715050239E+03  0.15476978350E+02  0.16421361987E+03  0.22781995130E+03  0.00000000000E+00 0. -1.
         21    1    1    2  505  502 -0.11122008438E+02  0.35529486413E+02  0.17221036937E+02  0.41019600067E+02  0.00000000000E+00 0. -1.
          2    1    1    2  501    0  0.28761705043E+03 -0.21244606193E+02 -0.15208429615E+03  0.32604376106E+03  0.00000000000E+00 0.  1.
<scales pt_clust_3="47.86641" pt_clust_4="47.86641" pt_clust_5="37.22960" pt_clust_6="285.93107"></scales>
<clustering>
<clus scale="   37.230">  1  5  2 -1</clus>
<clus scale="   47.866">  3  4 -1 -1</clus>
<clus scale="  285.931">  2  6  1 -1</clus>
<clus scale="   37.230">  1  3  2 -1</clus>
</clustering>
</event>
<event>
 6    0  0.3800129E+002  0.1008642E+03  0.7546771E-02  0.1278489E+00
          2   -1    0    0  505    0 -0.00000000000E+00  0.00000000000E+00  0.22159945597E+04  0.22159945597E+04  0.00000000000E+00 0. -1.
         21   -1    0    0  504  502  0.00000000000E+00 -0.00000000000E+00 -0.27301553304E+02  0.27301553304E+02  0.00000000000E+00 0. -1.
         21    1    1    2  503  501  0.65311862107E+02  0.39727412425E+01  0.21948430189E+03  0.22903008706E+03  0.00000000000E+00 0. -1.
         21    1    1    2  504  503 -0.32869997586E+01  0.52202714166E+02  0.17322447800E+03  0.18094929542E+03  0.00000000000E+00 0. -1.
         21    1    1    2  505  502  0.25584381443E+02  0.28570185324E+02  0.55646009758E+01  0.38752817282E+02  0.00000000000E+00 0. -1.
          2    1    1    2  501    0 -0.87609243791E+02 -0.84745640733E+02  0.17904196255E+04  0.17945639132E+04  0.00000000000E+00 0. -1.
<scales pt_clust_3="14000.00000" pt_clust_4="62.79037" pt_clust_5="38.35122" pt_clust_6="100.86420"></scales>
<clustering>
<clus scale="   38.351">  2  5  1 -1</clus>
<clus scale="   62.790">  2  4  1 -1</clus>
<clus scale="  100.864">  1  6  2 -1</clus>
<clus scale="   38.351">  2  3  1 -1</clus>
</clustering>
</event>
<event>
 6    0  0.3800129E+002  0.3334306E+03  0.7546771E-02  0.1069629E+00
         21   -1    0    0  505  502  0.00000000000E+00  0.00000000000E+00  0.11303992628E+03  0.11303992628E+03  0.00000000000E+00 0. -1.
          2   -1    0    0  504    0 -0.00000000000E+00 -0.00000000000E+00 -0.23504086613E+04  0.23504086613E+04  0.00000000000E+00 0. -1.
         21    1    1    2  503  501 -0.22868651701E+03 -0.15711383835E+03 -0.23956543596E+03  0.36657042894E+03  0.00000000000E+00 0. -1.
         21    1    1    2  504  502 -0.34587857956E+01  0.13295244975E+03 -0.10328932063E+04  0.10414205167E+04  0.00000000000E+00 0. -1.
         21    1    1    2  505  503 -0.67364369776E+02 -0.10134506063E+02 -0.32412494297E+02  0.75440283106E+02  0.00000000000E+00 0. -1.
          2    1    1    2  501    0  0.29950967259E+03  0.34295894666E+02 -0.93249759852E+03  0.98001735883E+03  0.00000000000E+00 0. -1.
<scales pt_clust_3="37.68224" pt_clust_4="132.99743" pt_clust_5="37.68224" pt_clust_6="324.64235"></scales>
<clustering>
<clus scale="   37.682">  3  5 -1 -1</clus>
<clus scale="  132.997">  2  4  1 -1</clus>
<clus scale="  324.642">  2  6  1 -1</clus>
<clus scale="  333.431">  1  3  2 -1</clus>
</clustering>
</event>
<event>
 6    0  0.3800129E+002  0.1568550E+03  0.7546771E-02  0.1192294E+00
         -2   -1    0    0    0  501 -0.00000000000E+00  0.00000000000E+00  0.14851837143E+04  0.14851837143E+04  0.00000000000E+00 0.  1.
         21   -1    0    0  504  502  0.00000000000E+00 -0.00000000000E+00 -0.49374904105E+03  0.49374904105E+03  0.00000000000E+00 0. -1.
         21    1    1    2  503  501  0.16743636359E+02 -0.26719316225E+02  0.43235747701E+03  0.43350577752E+03  0.00000000000E+00 0.  1.
         21    1    1    2  504  503  0.10653052602E+03  0.11262657392E+03 -0.34995804960E+03  0.38275858528E+03  0.00000000000E+00 0. -1.
         21    1    1    2  505  502 -0.56862003281E+02  0.36993127413E+02 -0.11263843869E+03  0.13148839023E+03  0.00000000000E+00 0.  1.
         -2    1    1    2    0  505 -0.66412159094E+02 -0.12290038511E+03  0.10216736845E+04  0.10311800023E+04  0.00000000000E+00 0.  1.
<scales pt_clust_3="31.53207" pt_clust_4="156.85505" pt_clust_5="67.58030" pt_clust_6="14000.00000"></scales>
<clustering>
<clus scale="   31.532">  1  3  2 -1</clus>
<clus scale="   67.580">  2  5  1 -1</clus>
<clus scale="  156.855">  2  4  1 -1</clus>
<clus scale="   67.580">  2  3  1 -1</clus>
</clustering>
</event>
<event>
 6    0  0.3800129E+002  0.1345324E+03  0.7546771E-02  0.1220881E+00
         21   -1    0    0  505  502  0.00000000000E+00  0.00000000000E+00  0.18634130218E+04  0.18634130218E+04  0.00000000000E+00 0. -1.
          1   -1    0    0  504    0 -0.00000000000E+00 -0.00000000000E+00 -0.38398187679E+02  0.38398187679E+02  0.00000000000E+00 0. -1.
         21    1    1    2  503  501  0.59731915197E+02 -0.29099685851E+02  0.18367291230E+03  0.19532135604E+03  0.00000000000E+00 0. -1.
         21    1    1    2  504  502 -0.99477041168E+02 -0.66335817713E+02  0.81059820230E+03  0.81936900600E+03  0.00000000000E+00 0. -1.
         21    1    1    2  505  503 -0.22221180888E+02 -0.31068423973E+02  0.67899419557E+03  0.68006775065E+03  0.00000000000E+00 0. -1.
          1    1    1    2  501    0  0.61966306859E+02  0.12650392754E+03  0.15174952390E+03  0.20705309674E+03  0.00000000000E+00 0. -1.
<scales pt_clust_3="65.70073" pt_clust_4="14000.00000" pt_clust_5="38.19722" pt_clust_6="134.53239"></scales>
<clustering>
<clus scale="   38.197">  1  5  2 -1</clus>
<clus scale="   65.701">  1  3  2 -1</clus>
<clus scale="  134.532">  2  6  1 -1</clus>
<clus scale="   38.197">  1  3  2 -1</clus>
</clustering>
</event>
<event>
 6    0  0.3800129E+002  0.1081546E+03  0.7546771E-02  0.1264026E+00
         21   -1    0    0  505  502  0.00000000000E+00  0.00000000000E+00  0.14470608260E+03  0.14470608260E+03  0.00000000000E+00 0. -1.
          4   -1    0    0  504    0 -0.00000000000E+00 -0.00000000000E+00 -0.47985563069E+03  0.47985563069E+03  0.00000000000E+00 0. -1.
         21    1    1    2  503  502  0.30149800838E+02 -0.75616800762E+02  0.96385269094E+02  0.12616271694E+03  0.00000000000E+00 0. -1.
         21    1    1    2  504  503 -0.20251000661E+02 -0.28198626113E+02 -0.78150422452E+02  0.85514642441E+02  0.00000000000E+00 0. -1.
         21    1    1    2  505  501 -0.19390309306E+02 -0.32790463099E+02 -0.48342719945E+01  0.38400113944E+02  0.00000000000E+00 0. -1.
          4    1    1    2  501    0  0.94915091287E+01  0.13660588997E+03 -0.34855012274E+03  0.37448423997E+03  0.00000000000E+00 0. -1.
<scales pt_clust_3="108.15462" pt_clust_4="34.71693" pt_clust_5="39.97305" pt_clust_6="14000.00000"></scales>
<clustering>
<clus scale="   34.717">  2  4  1 -1</clus>
<clus scale="   39.973">  1  5  2 -1</clus>
<clus scale="  108.155">  1  3  2 -1</clus>
<clus scale="   39.973">  1  3  2 -1</clus>
</clustering>
</event>
<event>
 6    0  0.3800129E+002  0.2876466E+03  0.7546771E-02  0.1091584E+00
         21   -1    0    0  504  502  0.00000000000E+00  0.00000000000E+00  0.80955677232E+03  0.80955677232E+03  0.00000000000E+00 0. -1.
          1   -1    0    0  505    0 -0.00000000000E+00 -0.00000000000E+00 -0.42229711800E+03  0.42229711800E+03  0.00000000000E+00 0.  1.
         21    1    1    2  503  502  0.11636183000E+02 -0.39853912513E+02  0.78507861632E+02  0.88810018778E+02  0.00000000000E+00 0.  1.
         21    1    1    2  504  501  0.25696559796E+03  0.14049367395E+03  0.52802594059E+03  0.60380558534E+03  0.00000000000E+00 0. -1.
         21    1    1    2  505  503  0.56114497063E+02 -0.15304924711E+03 -0.59123087564E+02  0.17340256141E+03  0.00000000000E+00 0. -1.
          1    1    1    2  501    0 -0.32471627802E+03  0.52409485672E+02 -0.16015106034E+03  0.36583572478E+03  0.00000000000E+00 0.  1.
<scales pt_clust_3="41.51789" pt_clust_4="287.64661" pt_clust_5="166.27285" pt_clust_6="14000.00000"></scales>
<clustering>
<clus scale="   41.518">  1  3  2 -1</clus>
<clus scale="  166.273">  2  5  1 -1</clus>
<clus scale="  287.647">  1  4  2 -1</clus>
<clus scale="   41.518">  1  3  2 -1</clus>
</clustering>
</event>
<event>
 6    0  0.3800129E+002  0.1557212E+03  0.7546771E-02  0.1193614E+00
          1   -1    0    0  503    0 -0.00000000000E+00  0.00000000000E+00  0.43689158963E+03  0.43689158963E+03  0.00000000000E+00 0.  1.
         21   -1    0    0  505  502  0.00000000000E+00 -0.00000000000E+00 -0.32244251063E+03  0.32244251063E+03  0.00000000000E+00 0.  1.
         21    1    1    2  503  504  0.99444150151E+02 -0.13033842011E+03  0.93811261755E+01  0.16421098710E+03  0.00000000000E+00 0.  1.
         21    1    1    2  504  502 -0.16176849735E+02 -0.28488042150E+02 -0.14017369801E+03  0.14395111888E+03  0.00000000000E+00 0.  1.
         21    1    1    2  505  501 -0.47895197890E+02  0.63351969695E+01 -0.78154353114E+02  0.91881377940E+02  0.00000000000E+00 0.  1.
          1    1    1    2  501    0 -0.35372102526E+02  0.15249126529E+03  0.32339600394E+03  0.35929061634E+03  0.00000000000E+00 0.  1.
<scales pt_clust_3="155.72120" pt_clust_4="32.76063" pt_clust_5="55.97089" pt_clust_6="14000.00000"></scales>
<clustering>
<clus scale="   32.761">  2  4  1 -1</clus>
<clus scale="   55.971">  2  5  1 -1</clus>
<clus scale="  155.721">  2  3  1 -1</clus>
<clus scale="   32.761">  2  3  1 -1</clus>
</clustering>
</event>
<event>
 6    0  0.3800129E+002  0.1576486E+03  0.7546771E-02  0.1191377E+00
         21   -1    0    0  505  502  0.00000000000E+00  0.00000000000E+00  0.19164920982E+03  0.19164920982E+03  0.00000000000E+00 0.  1.
          2   -1    0    0  504    0 -0.00000000000E+00 -0.00000000000E+00 -0.34399770953E+04  0.34399770953E+04  0.00000000000E+00 0.  1.
         21    1    1    2  503  502  0.32276343993E+01 -0.63418320038E+02  0.10488075585E+03  0.12260617394E+03  0.00000000000E+00 0.  1.
         21    1    1    2  504  503  0.50504070198E+02  0.11354276384E+03 -0.92568061316E+03  0.93398459190E+03  0.00000000000E+00 0.  1.
         21    1    1    2  505  501  0.60426689924E+01  0.12659992611E+03  0.12980317468E+02  0.12740700052E+03  0.00000000000E+00 0.  1.
          2    1    1    2  501    0 -0.59774373590E+02 -0.17672436991E+03 -0.24405083457E+04  0.24476285388E+04  0.00000000000E+00 0.  1.
<scales pt_clust_3="63.50040" pt_clust_4="157.64863" pt_clust_5="70.03389" pt_clust_6="14000.00000"></scales>
<clustering>
<clus scale="   63.500">  1  3  2 -1</clus>
<clus scale="   70.034">  1  5  2 -1</clus>
<clus scale="  157.649">  1  4  2 -1</clus>
<clus scale="   63.500">  1  3  2 -1</clus>
</clustering>
</event>
<event>
 6    0  0.3800129E+002  0.7620887E+02  0.7546771E-02  0.1340168E+00
         21   -1    0    0  504  502  0.00000000000E+00  0.00000000000E+00  0.15324759477E+03  0.15324759477E+03  0.00000000000E+00 0.  1.
          1   -1    0    0  505    0 -0.00000000000E+00 -0.00000000000E+00 -0.11503998578E+04  0.11503998578E+04  0.00000000000E+00 0. -1.
         21    1    1    2  503  502 -0.28326993550E+02  0.23612234452E+02  0.10072315078E+03  0.10726187245E+03  0.00000000000E+00 0.  1.
         21    1    1    2  504  501  0.51442452627E+02  0.49743736184E+02  0.10273658358E+02  0.72293245036E+02  0.00000000000E+00 0.  1.
         21    1    1    2  505  503  0.66631700872E+02 -0.10808305154E+02 -0.62913577403E+03  0.63274673068E+03  0.00000000000E+00 0. -1.
          1    1    1    2  501    0 -0.89747159950E+02 -0.62547665482E+02 -0.47901329814E+03  0.49134560441E+03  0.00000000000E+00 0. -1.
<scales pt_clust_3="36.87758" pt_clust_4="14000.00000" pt_clust_5="66.34265" pt_clust_6="76.20887"></scales>
<clustering>
<clus scale="   36.878">  1  3  2 -1</clus>
<clus scale="   66.343">  2  5  1 -1</clus>
<clus scale="   76.209">  2  6  1 -1</clus>
<clus scale="   36.878">  1  3  2 -1</clus>
</clustering>
</event>
<event>
 6    0  0.3800129E+002  0.1624548E+03  0.7546771E-02  0.1185953E+00
         -1   -1    0    0    0  501 -0.00000000000E+00  0.00000000000E+00  0.73957674526E+02  0.73957674526E+02  0.00000000000E+00 0.  1.
         21   -1    0    0  503  502  0.00000000000E+00 -0.00000000000E+00 -0.52164187515E+03  0.52164187515E+03  0.00000000000E+00 0.  1.
         21    1    1    2  503  505 -0.61766005699E+02 -0.52827464111E+02 -0.16318258877E+03  0.18230287355E+03  0.00000000000E+00 0.  1.
         21    1    1    2  504  501 -0.35470589979E+02 -0.19105037599E+02 -0.51355468179E+01  0.40614517802E+02  0.00000000000E+00 0. -1.
         21    1    1    2  505  504 -0.54729125980E+02 -0.31181986914E+02 -0.74116966146E+02  0.97267251473E+02  0.00000000000E+00 0.  1.
         -1    1    1    2    0  502  0.15196572166E+03  0.10311448862E+03 -0.20524909889E+03  0.27541490685E+03  0.00000000000E+00 0.  1.
<scales pt_clust_3="30.74485" pt_clust_4="40.28852" pt_clust_5="30.74485" pt_clust_6="158.65654"></scales>
<clustering>
<clus scale="   30.745">  3  5 -1 -1</clus>
<clus scale="   40.289">  1  4  2 -1</clus>
<clus scale="  158.657">  1  6  2 -1</clus>
<clus scale="  162.455">  2  3  1 -1</clus>
</clustering>
</event>
<event>
 6    0  0.3800129E+002  0.1052947E+03  0.7546771E-02  0.1269540E+00
         21   -1    0    0  503  502  0.00000000000E+00  0.00000000000E+00  0.67114197220E+02  0.67114197220E+02  0.00000000000E+00 0.  1.
          2   -1    0    0  504    0 -0.00000000000E+00 -0.00000000000E+00 -0.36569302900E+04  0.36569302900E+04  0.00000000000E+00 0.  1.
         21    1    1    2  503  501 -0.67391007783E+02  0.80760835042E+02  0.16538574039E+02  0.10647715641E+03  0.00000000000E+00 0.  1.
         21    1    1    2  504  505  0.13928664208E+02  0.48783462036E+02 -0.21765584303E+03  0.22349026793E+03  0.00000000000E+00 0. -1.
         21    1    1    2  505  502 -0.40853745498E+02 -0.64773254791E+02 -0.13585483221E+04  0.13607050182E+04  0.00000000000E+00 0.  1.
          2    1    1    2  501    0  0.94316089073E+02 -0.64771042288E+02 -0.20301505017E+04  0.20333720447E+04  0.00000000000E+00 0.  1.
<scales pt_clust_3="14000.00000" pt_clust_4="50.73297" pt_clust_5="57.59147" pt_clust_6="105.29472"></scales>
<clustering>
<clus scale="   50.733">  2  4  1 -1</clus>
<clus scale="   57.591">  2  5  1 -1</clus>
<clus scale="  105.295">  2  6  1 -1</clus>
<clus scale="  105.295">  1  3  2 -1</clus>
</clustering>
</event>
<event>
 6    0  0.3800129E+002  0.2088149E+03  0.7546771E-02  0.1142508E+00
          1   -1    0    0  503    0 -0.00000000000E+00  0.00000000000E+00  0.12094171573E+04  0.12094171573E+04  0.00000000000E+00 0. -1.
         21   -1    0    0  505  502  0.00000000000E+00 -0.00000000000E+00 -0.14655863034E+03  0.14655863034E+03  0.00000000000E+00 0.  1.
         21    1    1    2  503  504  0.14199205779E+03 -0.43057953093E+02  0.21396947707E+03  0.26038177532E+03  0.00000000000E+00 0.  1.
         21    1    1    2  504  502  0.80732247807E+02 -0.11188731565E+03 -0.41553059317E+02  0.14409414970E+03  0.00000000000E+00 0.  1.
         21    1    1    2  505  501  0.47818444355E+01  0.31054770340E+02  0.88620445392E+01  0.32646602128E+02  0.00000000000E+00 0.  1.
          1    1    1    2  501    0 -0.22750615003E+03  0.12389049840E+03  0.88158006472E+03  0.91885326054E+03  0.00000000000E+00 0. -1.
<scales pt_clust_3="14000.00000" pt_clust_4="123.48156" pt_clust_5="31.42077" pt_clust_6="208.81492"></scales>
<clustering>
<clus scale="   31.421">  2  5  1 -1</clus>
<clus scale="  123.482">  2  4  1 -1</clus>
<clus scale="  208.815">  1  6  2 -1</clus>
<clus scale="   31.421">  2  3  1 -1</clus>
</clustering>
</event>
<event>
 6    0  0.3800129E+002  0.1480425E+03  0.7546771E-02  0.1202899E+00
         21   -1    0    0  501  502  0.00000000000E+00  0.00000000000E+00  0.50773522808E+03  0.50773522808E+03  0.00000000000E+00 0. -1.
          4   -1    0    0  504    0 -0.00000000000E+00 -0.00000000000E+00 -0.94712467111E+03  0.94712467111E+03  0.00000000000E+00 0.  1.
         21    1    1    2  503  505  0.34473362965E+01 -0.79162012621E+02  0.22522048068E+03  0.23875253567E+03  0.00000000000E+00 0. -1.
         21    1    1    2  504  503 -0.61774163888E+02  0.49424615944E+02 -0.21452054440E+03  0.22864361779E+03  0.00000000000E+00 0.  1.
         21    1    1    2  505  502  0.39010681595E+02 -0.56016829850E+02  0.26160347713E+03  0.27036290011E+03  0.00000000000E+00 0. -1.
          4    1    1    2  501    0  0.19316145997E+02  0.85754226527E+02 -0.71169285646E+03  0.71710084562E+03  0.00000000000E+00 0.  1.
<scales pt_clust_3="42.78593" pt_clust_4="79.11283" pt_clust_5="42.78593" pt_clust_6="140.68271"></scales>
<clustering>
<clus scale="   42.786">  3  5 -1 -1</clus>
<clus scale="   79.113">  2  4  1 -1</clus>
<clus scale="  140.683">  2  6  1 -1</clus>
<clus scale="  148.043">  1  3  2 -1</clus>
</clustering>
</event>
<event>
 6    0  0.3800129E+002  0.1563676E+03  0.7546771E-02  0.1192860E+00
          1   -1    0    0  504    0 -0.00000000000E+00  0.00000000000E+00  0.15266553671E+04  0.15266553671E+04  0.00000000000E+00 0. -1.
         21   -1    0    0  503  502  0.00000000000E+00 -0.00000000000E+00 -0.19027751110E+03  0.19027751110E+03  0.00000000000E+00 0. -1.
         21    1    1    2  503  501 -0.44646522423E+02 -0.11625838634E+03  0.75081440974E+02  0.14541852405E+03  0.00000000000E+00 0. -1.
         21    1    1    2  504  505  0.34035369994E+02 -0.59134354604E+02  0.17562693127E+03  0.18841469500E+03  0.00000000000E+00 0. -1.
         21    1    1    2  505  502 -0.68043231355E+02 -0.51731102324E+01 -0.13253801950E+03  0.14907370330E+03  0.00000000000E+00 0.  1.
          1    1    1    2  501    0  0.78654383784E+02  0.18056585118E+03  0.12182075032E+04  0.12340259558E+04  0.00000000000E+00 0. -1.
<scales pt_clust_3="14000.00000" pt_clust_4="68.22960" pt_clust_5="68.05954" pt_clust_6="156.36759"></scales>
<clustering>
<clus scale="   68.230">  1  4  2 -1</clus>
<clus scale="   68.060">  2  5  1 -1</clus>
<clus scale="  156.368">  1  6  2 -1</clus>
<clus scale="   68.060">  2  3  1 -1</clus>
</clustering>
</event>
<event>
 6    0  0.3800129E+002  0.1239160E+03  0.7546771E-02  0.1236773E+00
         21   -1    0    0  503  502  0.00000000000E+00  0.00000000000E+00  0.18008804947E+03  0.18008804947E+03  0.00000000000E+00 0.  1.
          2   -1    0    0  505    0 -0.00000000000E+00 -0.00000000000E+00 -0.31119447449E+03  0.31119447449E+03  0.00000000000E+00 0.  1.
         21    1    1    2  503  501 -0.41015823349E+02  0.13113181846E+02  0.70792372375E+02  0.82860203292E+02  0.00000000000E+00 0.  1.
         21    1    1    2  504  502  0.54263488144E+01 -0.40132547235E+02  0.38758649962E+02  0.56056217816E+02  0.00000000000E+00 0.  1.
         21    1    1    2  505  504  0.41780075500E+02 -0.11010086309E+03 -0.13503865732E+03  0.17917369710E+03  0.00000000000E+00 0.  1.
          2    1    1    2  501    0 -0.61906009655E+01  0.13712022848E+03 -0.10561879005E+03  0.17319240575E+03  0.00000000000E+00 0.  1.
<scales pt_clust_3="39.20378" pt_clust_4="40.49774" pt_clust_5="123.91600" pt_clust_6="14000.00000"></scales>
<clustering>
<clus scale="   40.498">  1  4  2 -1</clus>
<clus scale="   39.204">  1  3  2 -1</clus>
<clus scale="  123.916">  2  5  1 -1</clus>
<clus scale="   40.498">  1  3  2 -1</clus>
</clustering>
</event>
<event>
 6    0  0.3800129E+002  0.9841114E+02  0.7546771E-02  0.1283673E+00
          1   -1    0    0  504    0 -0.00000000000E+00  0.00000000000E+00  0.35017039280E+03  0.35017039280E+03  0.00000000000E+00 0. -1.
         21   -1    0    0  505  502  0.00000000000E+00 -0.00000000000E+00 -0.21451646170E+04  0.21451646170E+04  0.00000000000E+00 0.  1.
         21    1    1    2  503  501 -0.33588673685E+02 -0.85906586921E+02 -0.75729564727E+02  0.11934449149E+03  0.00000000000E+00 0.  1.
         21    1    1    2  504  502  0.28255678330E+02  0.28442214874E+02 -0.24853550106E+03  0.25174836292E+03  0.00000000000E+00 0. -1.
         21    1    1    2  505  503 -0.74971013807E+02  0.64912640477E+02 -0.17911167369E+04  0.17938599357E+04  0.00000000000E+00 0.  1.
          1    1    1    2  501    0  0.80304009162E+02 -0.74482684305E+01  0.32038757850E+03  0.33038221963E+03  0.00000000000E+00 0. -1.
<scales pt_clust_3="14000.00000" pt_clust_4="40.09168" pt_clust_5="98.41114" pt_clust_6="80.71599"></scales>
<clustering>
<clus scale="   40.092">  2  4  1 -1</clus>
<clus scale="   80.716">  1  6  2 -1</clus>
<clus scale="   98.411">  2  5  1 -1</clus>
<clus scale="   40.092">  2  3  1 -1</clus>
</clustering>
</event>
<event>
 6    0  0.3800129E+002  0.1051539E+03  0.7546771E-02  0.1269817E+00
         21   -1    0    0  501  502  0.00000000000E+00  0.00000000000E+00  0.17799092532E+02  0.17799092532E+02  0.00000000000E+00 0.  1.
          1   -1    0    0  504    0 -0.00000000000E+00 -0.00000000000E+00 -0.21463665716E+04  0.21463665716E+04  0.00000000000E+00 0. -1.
         21    1    1    2  503  502  0.73718234257E+01  0.52888996593E+02 -0.79385715649E+02  0.95674874394E+02  0.00000000000E+00 0.  1.
         21    1    1    2  504  505 -0.50085708677E+02  0.44417704624E+02 -0.71468872469E+03  0.71781716607E+03  0.00000000000E+00 0.  1.
         21    1    1    2  505  503 -0.26151355797E+02  0.32106147982E+02 -0.11176922074E+03  0.11919335910E+03  0.00000000000E+00 0.  1.
          1    1    1    2  501    0  0.68865241048E+02 -0.12941284920E+03 -0.12227238180E+04  0.12314802646E+04  0.00000000000E+00 0. -1.
<scales pt_clust_3="39.88320" pt_clust_4="66.94409" pt_clust_5="39.88320" pt_clust_6="94.90014"></scales>
<clustering>
<clus scale="   39.883">  3  5 -1 -1</clus>
<clus scale="   66.944">  2  4  1 -1</clus>
<clus scale="   94.900">  2  6  1 -1</clus>
<clus scale="  105.154">  1  3  2 -1</clus>
</clustering>
</event>
<event>
 6    0  0.3800129E+002  0.3894746E+03  0.7546771E-02  0.1047486E+00
          3   -1    0    0  504    0 -0.00000000000E+00  0.00000000000E+00  0.37781230005E+03  0.37781230005E+03  0.00000000000E+00 0.  1.
         21   -1    0    0  501  502  0.00000000000E+00 -0.00000000000E+00 -0.61324168949E+03  0.61324168949E+03  0.00000000000E+00 0.  1.
         21    1    1    2  503  502  0.12339725729E+03  0.62992631777E+02 -0.56988902139E+02  0.14980884397E+03  0.00000000000E+00 0.  1.
         21    1    1    2  504  505  0.32988862404E+02  0.18809772679E+02  0.81479105394E+02  0.89893921967E+02  0.00000000000E+00 0.  1.
         21    1    1    2  505  503  0.22101396769E+03 -0.84579270966E+01 -0.29114032757E+03  0.36562467201E+03  0.00000000000E+00 0.  1.
          3    1    1    2  501    0 -0.37740008738E+03 -0.73344477359E+02  0.31220734879E+02  0.38572655159E+03  0.00000000000E+00 0.  1.
<scales pt_clust_3="121.18067" pt_clust_4="37.97463" pt_clust_5="121.18067" pt_clust_6="358.89535"></scales>
<clustering>
<clus scale="   37.975">  1  4  2 -1</clus>
<clus scale="  121.181">  3  5 -1 -1</clus>
<clus scale="  358.895">  1  6  2 -1</clus>
<clus scale="  389.475">  2  3  1 -1</clus>
</clustering>
</event>
<event>
 6    0  0.3800129E+002  0.1552855E+03  0.7546771E-02  0.1194125E+00
         21   -1    0    0  503  502  0.00000000000E+00  0.00000000000E+00  0.11485188046E+03  0.11485188046E+03  0.00000000000E+00 0.  1.
          1   -1    0    0  505    0 -0.00000000000E+00 -0.00000000000E+00 -0.29830057379E+04  0.29830057379E+04  0.00000000000E+00 0.  1.
         21    1    1    2  503  504  0.20155284191E+03 -0.75463632946E+02 -0.18700540107E+02  0.21602781807E+03  0.00000000000E+00 0.  1.
         21    1    1    2  504  501 -0.46331646106E+02  0.24542996354E+02 -0.65189044988E+03  0.65399551891E+03  0.00000000000E+00 0.  1.
         21    1    1    2  505  502 -0.76989691586E+02 -0.49113715751E+01 -0.91938657535E+02  0.12001771090E+03  0.00000000000E+00 0.  1.
          1    1    1    2  501    0 -0.78231504219E+02  0.55832008167E+02 -0.21056242099E+04  0.21078165705E+04  0.00000000000E+00 0.  1.
<scales pt_clust_3="149.56872" pt_clust_4="30.83396" pt_clust_5="77.14619" pt_clust_6="30.83396"></scales>
<clustering>
<clus scale="   30.834">  4  6 -1 -1</clus>
<clus scale="   77.146">  1  5  2 -1</clus>
<clus scale="  149.569">  1  3  2 -1</clus>
<clus scale="   77.146">  1  3  2 -1</clus>
</clustering>
</event>
<event>
 6    0  0.3800129E+002  0.1392664E+03  0.7546771E-02  0.1214319E+00
         21   -1    0    0  501  502  0.00000000000E+00  0.00000000000E+00  0.14354357229E+03  0.14354357229E+03  0.00000000000E+00 0.  1.
          1   -1    0    0  503    0 -0.00000000000E+00 -0.00000000000E+00 -0.10609580073E+04  0.10609580073E+04  0.00000000000E+00 0. -1.
         21    1    1    2  503  504  0.30107315867E+01  0.32250378016E+02 -0.40665139837E+02  0.51988508199E+02  0.00000000000E+00 0. -1.
         21    1    1    2  504  505  0.69961581282E+02 -0.17418413803E+02  0.42208345443E+02  0.83543811380E+02  0.00000000000E+00 0.  1.
         21    1    1    2  505  502  0.52451212996E+02 -0.41542697861E+02  0.54995156256E+02  0.86610580774E+02  0.00000000000E+00 0.  1.
          1    1    1    2  501    0 -0.12542352586E+03  0.26710733648E+02 -0.97395279687E+03  0.98235867923E+03  0.00000000000E+00 0. -1.
<scales pt_clust_3="32.39061" pt_clust_4="31.10737" pt_clust_5="31.10737" pt_clust_6="135.47119"></scales>
<clustering>
<clus scale="   31.107">  4  5 -1 -1</clus>
<clus scale="   32.391">  2  3  1 -1</clus>
<clus scale="  135.471">  2  6  1 -1</clus>
<clus scale="  139.266">  1  3  2 -1</clus>
</clustering>
</event>
<event>
 6    0  0.3800129E+002  0.2116236E+03  0.7546771E-02  0.1140287E+00
         21   -1    0    0  503  502  0.00000000000E+00  0.00000000000E+00  0.17672988324E+03  0.17672988324E+03  0.00000000000E+00 0. -1.
          1   -1    0    0  505    0 -0.00000000000E+00 -0.00000000000E+00 -0.16924025720E+04  0.16924025720E+04  0.00000000000E+00 0.  1.
         21    1    1    2  503  501 -0.44599010058E+02  0.68744604579E+02  0.94119024270E+02  0.12479296088E+03  0.00000000000E+00 0. -1.
         21    1    1    2  504  502  0.37855052458E+01  0.15107738970E+03 -0.48147073798E+02  0.15860910580E+03  0.00000000000E+00 0. -1.
         21    1    1    2  505  504  0.33217508226E+02  0.12161909212E+02 -0.10730427819E+03  0.11298461403E+03  0.00000000000E+00 0. -1.
          1    1    1    2  501    0  0.75959965867E+01 -0.23198390349E+03 -0.14543403610E+04  0.14727457745E+04  0.00000000000E+00 0.  1.
<scales pt_clust_3="81.86879" pt_clust_4="14000.00000" pt_clust_5="35.37393" pt_clust_6="211.62361"></scales>
<clustering>
<clus scale="   35.374">  2  5  1 -1</clus>
<clus scale="   81.869">  1  3  2 -1</clus>
<clus scale="  211.624">  2  6  1 -1</clus>
<clus scale="   81.869">  1  3  2 -1</clus>
</clustering>
</event>
<event>
 6    0  0.3800129E+002  0.1285286E+03  0.7546771E-02  0.1229655E+00
         21   -1    0    0  501  502  0.00000000000E+00  0.00000000000E+00  0.14074447813E+02  0.14074447813E+02  0.00000000000E+00 0.  1.
          2   -1    0    0  504    0 -0.00000000000E+00 -0.00000000000E+00 -0.23873392647E+04  0.23873392647E+04  0.00000000000E+00 0.  1.
         21    1    1    2  503  505 -0.82136888633E+02 -0.85325227104E+02 -0.67383457914E+03  0.68416365213E+03  0.00000000000E+00 0.  1.
         21    1    1    2  504  503 -0.43487229745E+02  0.14756691851E+02 -0.37624248349E+03  0.37903470222E+03  0.00000000000E+00 0. -1.
         21    1    1    2  505  502  0.39196542490E+02 -0.40689008540E+02 -0.28845665852E+03  0.29393742225E+03  0.00000000000E+00 0.  1.
          2    1    1    2  501    0  0.86427575888E+02  0.11125754379E+03 -0.10347310957E+04  0.10442779359E+04  0.00000000000E+00 0.  1.
<scales pt_clust_3="128.52864" pt_clust_4="45.92275" pt_clust_5="50.67816" pt_clust_6="14000.00000"></scales>
<clustering>
<clus scale="   45.923">  2  4  1 -1</clus>
<clus scale="   50.678">  1  5  2 -1</clus>
<clus scale="  128.529">  1  3  2 -1</clus>
<clus scale="   50.678">  1  3  2 -1</clus>
</clustering>
</event>
<event>
 6    0  0.3800129E+002  0.8776385E+02  0.7546771E-02  0.1308359E+00
         21   -1    0    0  503  502  0.00000000000E+00  0.00000000000E+00  0.32931844817E+02  0.32931844817E+02  0.00000000000E+00 0. -1.
          2   -1    0    0  504    0 -0.00000000000E+00 -0.00000000000E+00 -0.33078776745E+04  0.33078776745E+04  0.00000000000E+00 0. -1.
         21    1    1    2  503  505  0.34895358076E+02 -0.47453170873E+02 -0.89921220096E+02  0.10749565231E+03  0.00000000000E+00 0. -1.
         21    1    1    2  504  502 -0.26927968347E+02  0.28541309281E+02 -0.33711389727E+03  0.33938989606E+03  0.00000000000E+00 0.  1.
         21    1    1    2  505  501 -0.10145860161E+03 -0.96004609555E+01 -0.95141201848E+02  0.13941974387E+03  0.00000000000E+00 0. -1.
          2    1    1    2  501    0  0.93491211885E+02  0.28512322547E+02 -0.27527695104E+04  0.27545042270E+04  0.00000000000E+00 0. -1.
<scales pt_clust_3="57.60804" pt_clust_4="39.23929" pt_clust_5="87.76385" pt_clust_6="14000.00000"></scales>
<clustering>
<clus scale="   39.239">  2  4  1 -1</clus>
<clus scale="   57.608">  1  3  2 -1</clus>
<clus scale="   87.764">  1  5  2 -1</clus>
<clus scale="   57.608">  1  3  2 -1</clus>
</clustering>
</event>
<event>
 6    0  0.3800129E+002  0.2522011E+03  0.7546771E-02  0.1111922E+00
         21   -1    0    0  503  502  0.00000000000E+00  0.00000000000E+00  0.42648473347E+03  0.42648473347E+03  0.00000000000E+00 0. -1.
         -2   -1    0    0    0  501 -0.00000000000E+00 -0.00000000000E+00 -0.33054454011E+03  0.33054454011E+03  0.00000000000E+00 0. -1.
         21    1    1    2  503  504 -0.14921214700E+03 -0.77100165363E+02  0.19812474318E+03  0.25973469959E+03  0.00000000000E+00 0. -1.
         21    1    1    2  504  505 -0.98432913993E+02 -0.42747491213E+01  0.59665089495E+02  0.11518348381E+03  0.00000000000E+00 0. -1.
         21    1    1    2  505  501  0.15263199238E+03  0.14359222685E+03 -0.36064668221E+02  0.21264033719E+03  0.00000000000E+00 0. -1.
         -2    1    1    2    0  502  0.95013068614E+02 -0.62217312362E+02 -0.12578497109E+03  0.16947075299E+03  0.00000000000E+00 0. -1.
<scales pt_clust_3="60.10383" pt_clust_4="60.10383" pt_clust_5="239.68168" pt_clust_6="113.57146"></scales>
<clustering>
<clus scale="   60.104">  3  4 -1 -1</clus>
<clus scale="  113.571">  2  6  1 -1</clus>
<clus scale="  239.682">  2  5  1 -1</clus>
<clus scale="  252.201">  1  3  2 -1</clus>
</clustering>
</event>
<event>
 6    0  0.3800129E+002  0.1042018E+03  0.7546771E-02  0.1271700E+00
         21   -1    0    0  504  502  0.00000000000E+00  0.00000000000E+00  0.40845173211E+03  0.40845173211E+03  0.00000000000E+00 0. -1.
         -1   -1    0    0    0  501 -0.00000000000E+00 -0.00000000000E+00 -0.43964876471E+03  0.43964876471E+03  0.00000000000E+00 0. -1.
         21    1    1    2  503  502  0.11027612161E+03 -0.37728751823E+02  0.34782005748E+03  0.36682839870E+03  0.00000000000E+00 0. -1.
         21    1    1    2  504  501 -0.43426459653E+02  0.29539007649E+02 -0.24290586281E+02  0.57865732111E+02  0.00000000000E+00 0. -1.
         21    1    1    2  505  503 -0.45865082481E+02 -0.30099684022E+02  0.10265541525E+02  0.55811988963E+02  0.00000000000E+00 0. -1.
         -1    1    1    2    0  505 -0.20984579474E+02  0.38289428196E+02 -0.36499204532E+03  0.36759437705E+03  0.00000000000E+00 0. -1.
<scales pt_clust_3="14000.00000" pt_clust_4="104.20178" pt_clust_5="55.45576" pt_clust_6="43.66272"></scales>
<clustering>
<clus scale="   43.663">  2  6  1 -1</clus>
<clus scale="   55.456">  2  5  1 -1</clus>
<clus scale="  104.202">  2  4  1 -1</clus>
<clus scale="  104.202">  1  3  2 -1</clus>
</clustering>
</event>
<event>
 6    0  0.3800129E+002  0.7395894E+02  0.7546771E-02  0.1347125E+00
          2   -1    0    0  505    0 -0.00000000000E+00  0.00000000000E+00  0.36461707584E+04  0.36461707584E+04  0.00000000000E+00 0.  1.
         21   -1    0    0  503  502  0.00000000000E+00 -0.00000000000E+00 -0.59612486489E+02  0.59612486489E+02  0.00000000000E+00 0.  1.
         21    1    1    2  503  504  0.20248490864E+02  0.29011143479E+02  0.10562431725E+02  0.36921711664E+02  0.00000000000E+00 0.  1.
         21    1    1    2  504  501  0.49970781137E+02 -0.54289917197E+02 -0.12378574238E+02  0.74817799867E+02  0.00000000000E+00 0.  1.
         21    1    1    2  505  502  0.17468071072E+02  0.54363675418E+02  0.27502942446E+04  0.27508869432E+04  0.00000000000E+00 0. -1.
          2    1    1    2  501    0 -0.87687343073E+02 -0.29084901700E+02  0.83808016991E+03  0.84315679018E+03  0.00000000000E+00 0.  1.
<scales pt_clust_3="35.37864" pt_clust_4="73.95894" pt_clust_5="57.31702" pt_clust_6="14000.00000"></scales>
<clustering>
<clus scale="   35.379">  2  3  1 -1</clus>
<clus scale="   57.317">  1  5  2 -1</clus>
<clus scale="   73.959">  2  4  1 -1</clus>
<clus scale="   35.379">  2  3  1 -1</clus>
</clustering>
</event>
<event>
 6    0  0.3800129E+002  0.1396828E+03  0.7546771E-02  0.1213756E+00
          2   -1    0    0  504    0 -0.00000000000E+00  0.00000000000E+00  0.28373670103E+04  0.28373670103E+04  0.00000000000E+00 0. -1.
         21   -1    0    0  501  502  0.00000000000E+00 -0.00000000000E+00 -0.26363313432E+03  0.26363313432E+03  0.00000000000E+00 0. -1.
         21    1    1    2  503  502 -0.11001587209E+02  0.39754925936E+02 -0.50797671275E+02  0.65436170917E+02  0.00000000000E+00 0. -1.
         21    1    1    2  504  505  0.90225436891E+02  0.69263238515E+02  0.41273500911E+03  0.42812172733E+03  0.00000000000E+00 0. -1.
         21    1    1    2  505  503 -0.11347217659E+03  0.27921671403E+02 -0.17829960762E+03  0.21318138913E+03  0.00000000000E+00 0. -1.
          2    1    1    2  501    0  0.34248326906E+02 -0.13693983585E+03  0.23900961458E+04  0.23942608573E+04  0.00000000000E+00 0. -1.
<scales pt_clust_3="41.24911" pt_clust_4="114.33393" pt_clust_5="139.68275" pt_clust_6="14000.00000"></scales>
<clustering>
<clus scale="   41.249">  2  3  1 -1</clus>
<clus scale="  114.334">  1  4  2 -1</clus>
<clus scale="  139.683">  2  5  1 -1</clus>
<clus scale="   41.249">  2  3  1 -1</clus>
</clustering>
</event>
<event>
 6    0  0.3800129E+002  0.1224523E+03  0.7546771E-02  0.1239106E+00
          3   -1    0    0  505    0 -0.00000000000E+00  0.00000000000E+00  0.17396449755E+04  0.17396449755E+04  0.00000000000E+00 0. -1.
         21   -1    0    0  504  502  0.00000000000E+00 -0.00000000000E+00 -0.62868358973E+02  0.62868358973E+02  0.00000000000E+00 0. -1.
         21    1    1    2  503  502 -0.68999690194E+02  0.13012678733E+03  0.19243632301E+03  0.24233381201E+03  0.00000000000E+00 0. -1.
         21    1    1    2  504  501 -0.62414988386E+02 -0.99342326429E+02  0.73552673261E+02  0.13847210672E+03  0.00000000000E+00 0. -1.
         21    1    1    2  505  503  0.33860974411E+02  0.21980055913E+02  0.79412783466E+03  0.79515325959E+03  0.00000000000E+00 0. -1.
          3    1    1    2  501    0  0.97553704169E+02 -0.52764516817E+02  0.61665978559E+03  0.62655415615E+03  0.00000000000E+00 0. -1.
<scales pt_clust_3="122.45226" pt_clust_4="113.22964" pt_clust_5="40.36940" pt_clust_6="14000.00000"></scales>
<clustering>
<clus scale="   40.369">  1  5  2 -1</clus>
<clus scale="  113.230">  2  4  1 -1</clus>
<clus scale="  122.452">  2  3  1 -1</clus>
<clus scale="  113.230">  2  3  1 -1</clus>
</clustering>
</event>
<event>
 6    0  0.3800129E+002  0.1794224E+03  0.7546771E-02  0.1168363E+00
         -4   -1    0    0    0  501 -0.00000000000E+00  0.00000000000E+00  0.12491532729E+04  0.12491532729E+04  0.00000000000E+00 0. -1.
         21   -1    0    0  504  502  0.00000000000E+00 -0.00000000000E+00 -0.86218163411E+03  0.86218163411E+03  0.00000000000E+00 0. -1.
         21    1    1    2  503  501  0.12870741346E+03  0.81113885652E+02  0.27142234345E+03  0.31115132853E+03  0.00000000000E+00 0. -1.
         21    1    1    2  504  505 -0.26399774910E+01 -0.77487274220E+02 -0.31478221330E+03  0.32418989645E+03  0.00000000000E+00 0. -1.
         21    1    1    2  505  503  0.49624696019E+02  0.77277221614E+02 -0.50886516946E+03  0.51708620183E+03  0.00000000000E+00 0. -1.
         -4    1    1    2    0  502 -0.17569213199E+03 -0.80903833046E+02  0.93919667813E+03  0.95890748023E+03  0.00000000000E+00 0. -1.
<scales pt_clust_3="179.42245" pt_clust_4="77.53223" pt_clust_5="47.30157" pt_clust_6="14000.00000"></scales>
<clustering>
<clus scale="   77.532">  2  4  1 -1</clus>
<clus scale="   47.302">  2  5  1 -1</clus>
<clus scale="  179.422">  2  3  1 -1</clus>
<clus scale="   77.532">  2  3  1 -1</clus>
</clustering>
</event>
<event>
 6    0  0.3800129E+002  0.6105090E+02  0.7546771E-02  0.1393474E+00
          2   -1    0    0  503    0 -0.00000000000E+00  0.00000000000E+00  0.84173204229E+03  0.84173204229E+03  0.00000000000E+00 0. -1.
         21   -1    0    0  505  502  0.00000000000E+00 -0.00000000000E+00 -0.15353224435E+03  0.15353224435E+03  0.00000000000E+00 0.  1.
         21    1    1    2  503  504  0.10227396802E+02  0.42027837505E+02  0.26476040662E+03  0.26827040777E+03  0.00000000000E+00 0.  1.
         21    1    1    2  504  502  0.65875955118E+02  0.77043116242E+02 -0.48410386390E+02  0.11233364916E+03  0.00000000000E+00 0.  1.
         21    1    1    2  505  501 -0.26655602652E+02 -0.36510125836E+02 -0.59467004078E+02  0.74698293256E+02  0.00000000000E+00 0.  1.
          2    1    1    2  501    0 -0.49447749269E+02 -0.82560827911E+02  0.53131678179E+03  0.53996193646E+03  0.00000000000E+00 0. -1.
<scales pt_clust_3="43.25435" pt_clust_4="61.05090" pt_clust_5="44.67649" pt_clust_6="14000.00000"></scales>
<clustering>
<clus scale="   43.254">  1  3  2 -1</clus>
<clus scale="   44.676">  2  5  1 -1</clus>
<clus scale="   61.051">  2  4  1 -1</clus>
<clus scale="   44.676">  2  3  1 -1</clus>
</clustering>
</event>
<event>
 6    0  0.3800129E+002  0.3114261E+03  0.7546771E-02  0.1079664E+00
          1   -1    0    0  503    0 -0.00000000000E+00  0.00000000000E+00  0.69453584081E+03  0.69453584081E+03  0.00000000000E+00 0. -1.
         21   -1    0    0  504  502  0.00000000000E+00 -0.00000000000E+00 -0.71611233784E+03  0.71611233784E+03  0.00000000000E+00 0. -1.
         21    1    1    2  503  505 -0.78282562650E+02 -0.45018138822E+02 -0.14850714000E+03  0.17380783374E+03  0.00000000000E+00 0. -1.
         21    1    1    2  504  501  0.56994859667E+02 -0.56173024306E+01  0.90653000589E+02  0.10722842268E+03  0.00000000000E+00 0.  1.
         21    1    1    2  505  502 -0.17152278817E+03 -0.11262474425E+03 -0.49799652344E+03  0.53861390368E+03  0.00000000000E+00 0. -1.
          1    1    1    2  501    0  0.19281049116E+03  0.16326018550E+03  0.53427416582E+03  0.59099801855E+03  0.00000000000E+00 0. -1.
<scales pt_clust_3="31.97911" pt_clust_4="46.96964" pt_clust_5="299.29541" pt_clust_6="46.96964"></scales>
<clustering>
<clus scale="   31.979">  3  5 -1 -1</clus>
<clus scale="   46.970">  4  6 -1 -1</clus>
<clus scale="  299.295">  2  3  1 -1</clus>
<clus scale="  299.295">  2  3  1 -1</clus>
</clustering>
</event>
<event>
 6    0  0.3800129E+002  0.1142135E+03  0.7546771E-02  0.1252960E+00
          2   -1    0    0  504    0 -0.00000000000E+00  0.00000000000E+00  0.32748017610E+04  0.32748017610E+04  0.00000000000E+00 0. -1.
         21   -1    0    0  503  502  0.00000000000E+00 -0.00000000000E+00 -0.47352087253E+02  0.47352087253E+02  0.00000000000E+00 0. -1.
         21    1    1    2  503  505  0.31445219891E+02 -0.10389504419E+02 -0.15832962648E+02  0.36707306660E+02  0.00000000000E+00 0. -1.
         21    1    1    2  504  502 -0.50095688868E+01 -0.34287444052E+02  0.38696439762E+03  0.38851276636E+03  0.00000000000E+00 0.  1.
         21    1    1    2  505  501  0.81799932374E+02  0.41630047610E+02  0.90165993390E+02  0.12866311113E+03  0.00000000000E+00 0. -1.
          2    1    1    2  501    0 -0.10823558338E+03  0.30469008607E+01  0.27661522454E+04  0.27682706641E+04  0.00000000000E+00 0. -1.
<scales pt_clust_3="33.11712" pt_clust_4="34.88262" pt_clust_5="114.21353" pt_clust_6="14000.00000"></scales>
<clustering>
<clus scale="   33.117">  2  3  1 -1</clus>
<clus scale="   34.883">  1  4  2 -1</clus>
<clus scale="  114.214">  2  5  1 -1</clus>
<clus scale="   33.117">  2  3  1 -1</clus>
</clustering>
</event>
<event>
 6    0  0.3800129E+002  0.8055764E+02  0.7546771E-02  0.1327476E+00
          1   -1    0    0  505    0 -0.00000000000E+00  0.00000000000E+00  0.42500001379E+03  0.42500001379E+03  0.00000000000E+00 0. -1.
         21   -1    0    0  504  502  0.00000000000E+00 -0.00000000000E+00 -0.24196546368E+03  0.24196546368E+03  0.00000000000E+00 0. -1.
         21    1    1    2  503  501  0.29275469472E+02 -0.24964199662E+02 -0.51075541413E+02  0.63945096045E+02  0.00000000000E+00 0. -1.
         21    1    1    2  504  503 -0.20846552786E+02 -0.22339232879E+02 -0.11997227594E+03  0.12380212875E+03  0.00000000000E+00 0. -1.
         21    1    1    2  505  502  0.77069579057E+02 -0.18233398263E+02  0.36260671207E+03  0.37115469075E+03  0.00000000000E+00 0. -1.
          1    1    1    2  501    0 -0.85498495743E+02  0.65536830804E+02 -0.85243446007E+01  0.10806356193E+03  0.00000000000E+00 0. -1.
<scales pt_clust_3="40.54659" pt_clust_4="30.55520" pt_clust_5="14000.00000" pt_clust_6="80.55764"></scales>
<clustering>
<clus scale="   30.555">  2  4  1 -1</clus>
<clus scale="   40.547">  2  3  1 -1</clus>
<clus scale="   80.558">  2  6  1 -1</clus>
<clus scale="   30.555">  2  3  1 -1</clus>
</clustering>
</event>
<event>
 6    0  0.3800129E+002  0.1258745E+03  0.7546771E-02  0.1233709E+00
          2   -1    0    0  503    0 -0.00000000000E+00  0.00000000000E+00  0.59555230702E+03  0.59555230702E+03  0.00000000000E+00 0.  1.
         21   -1    0    0  505  502  0.00000000000E+00 -0.00000000000E+00 -0.18494282948E+03  0.18494282948E+03  0.00000000000E+00 0. -1.
         21    1    1    2  503  502  0.53376481133E+01  0.49546953267E+02  0.31004252561E+03  0.31402190807E+03  0.00000000000E+00 0. -1.
         21    1    1    2  504  501  0.78622395320E+02 -0.45854114308E+02 -0.13433133175E+03  0.16226209518E+03  0.00000000000E+00 0. -1.
         21    1    1    2  505  504  0.33342977094E+02 -0.27492418527E+02  0.30909480082E+01  0.43325987093E+02  0.00000000000E+00 0. -1.
          2    1    1    2  501    0 -0.11730302053E+03  0.23799579569E+02  0.23180733567E+03  0.26088514615E+03  0.00000000000E+00 0.  1.
<scales pt_clust_3="49.54870" pt_clust_4="125.87447" pt_clust_5="43.21559" pt_clust_6="14000.00000"></scales>
<clustering>
<clus scale="   43.216">  2  5  1 -1</clus>
<clus scale="   49.549">  1  3  2 -1</clus>
<clus scale="  125.874">  2  4  1 -1</clus>
<clus scale="   43.216">  2  3  1 -1</clus>
</clustering>
</event>
<event>
 6    0  0.3800129E+002  0.1121378E+03  0.7546771E-02  0.1256661E+00
          2   -1    0    0  502    0 -0.00000000000E+00  0.00000000000E+00  0.20631573404E+04  0.20631573404E+04  0.00000000000E+00 0.  1.
         21   -1    0    0  505  502  0.00000000000E+00 -0.00000000000E+00 -0.26178026407E+03  0.26178026407E+03  0.00000000000E+00 0. -1.
         21    1    1    2  503  504 -0.52961879166E+02  0.16084557034E+02 -0.27531315343E+02  0.61819470592E+02  0.00000000000E+00 0.  1.
         21    1    1    2  504  501  0.15861708861E+02 -0.98273942476E+02  0.48035712343E+03  0.49056327585E+03  0.00000000000E+00 0. -1.
         21    1    1    2  505  503  0.46999505032E+01 -0.34390349129E+02 -0.20821757965E+03  0.21109084803E+03  0.00000000000E+00 0. -1.
          2    1    1    2  501    0  0.32400219802E+02  0.11657973457E+03  0.15567688479E+04  0.15614640100E+04  0.00000000000E+00 0.  1.
<scales pt_clust_3="50.73269" pt_clust_4="14000.00000" pt_clust_5="34.71002" pt_clust_6="112.13784"></scales>
<clustering>
<clus scale="   34.710">  2  5  1 -1</clus>
<clus scale="   50.733">  2  3  1 -1</clus>
<clus scale="  112.138">  1  6  2 -1</clus>
<clus scale="   34.710">  2  3  1 -1</clus>
</clustering>
</event>
<event>
 6    0  0.3800129E+002  0.3777490E+03  0.7546771E-02  0.1051769E+00
         21   -1    0    0  503  502  0.00000000000E+00  0.00000000000E+00  0.14498884748E+04  0.14498884748E+04  0.00000000000E+00 0.  1.
          2   -1    0    0  505    0 -0.00000000000E+00 -0.00000000000E+00 -0.38398900013E+03  0.38398900013E+03  0.00000000000E+00 0.  1.
         21    1    1    2  503  501 -0.92992224673E+01  0.36842476306E+02  0.39827702213E+02  0.55046248396E+02  0.00000000000E+00 0.  1.
         21    1    1    2  504  502 -0.20192705897E+03  0.28882695755E+03  0.12211204249E+04  0.12709565849E+04  0.00000000000E+00 0.  1.
         21    1    1    2  505  504 -0.54433261945E+02 -0.10551728288E+03 -0.18037438336E+02  0.12009257335E+03  0.00000000000E+00 0.  1.
          2    1    1    2  501    0  0.26565954339E+03 -0.22015215098E+03 -0.17701121411E+03  0.38778206830E+03  0.00000000000E+00 0.  1.
<scales pt_clust_3="37.99794" pt_clust_4="14000.00000" pt_clust_5="117.69763" pt_clust_6="377.74899"></scales>
<clustering>
<clus scale="   37.998">  1  3  2 -1</clus>
<clus scale="  117.698">  2  5  1 -1</clus>
<clus scale="  377.749">  2  6  1 -1</clus>
<clus scale="   37.998">  1  3  2 -1</clus>
</clustering>
</event>
<event>
 6    0  0.7553842E+002  0.7766056E+02  0.7546771E-02  0.1335825E+00
         -1   -1    0    0    0  501 -0.00000000000E+00  0.00000000000E+00  0.12402344081E+04  0.12402344081E+04  0.00000000000E+00 0. -1.
         21   -1    0    0  504  502  0.00000000000E+00 -0.00000000000E+00 -0.39402023304E+03  0.39402023304E+03  0.00000000000E+00 0.  1.
         21    1    1    2  503  501  0.41370618151E+02  0.17709202173E+02  0.79268005778E+02  0.91151306232E+02  0.00000000000E+00 0.  1.
         21    1    1    2  504  503  0.31671891827E+02 -0.42360885708E+02  0.27823418902E+02  0.59763667970E+02  0.00000000000E+00 0. -1.
         21    1    1    2  505  502 -0.10836008739E+03  0.59280712123E+02 -0.36128782345E+03  0.38181802307E+03  0.00000000000E+00 0.  1.
         -1    1    1    2    0  505  0.35317577408E+02 -0.34629028589E+02  0.11004105739E+04  0.11015216439E+04  0.00000000000E+00 0. -1.
<scales pt_clust_3="45.00160" pt_clust_4="53.31921" pt_clust_5="14000.00000" pt_clust_6="77.66056"></scales>
<clustering>
<clus scale="   45.002">  1  3  2 -1</clus>
<clus scale="   53.319">  2  4  1 -1</clus>
<clus scale="   77.661">  1  6  2 -1</clus>
<clus scale="   53.319">  2  3  1 -1</clus>
</clustering>
</event>
<event>
 6    0  0.3800129E+002  0.9445273E+02  0.7546771E-02  0.1292413E+00
          2   -1    0    0  504    0 -0.00000000000E+00  0.00000000000E+00  0.11426634296E+04  0.11426634296E+04  0.00000000000E+00 0.  1.
         21   -1    0    0  505  502  0.00000000000E+00 -0.00000000000E+00 -0.21799330091E+03  0.21799330091E+03  0.00000000000E+00 0.  1.
         21    1    1    2  503  502 -0.39794084642E+00 -0.58083254663E+02 -0.16096671803E+03  0.17112599786E+03  0.00000000000E+00 0.  1.
         21    1    1    2  504  503  0.44520567775E+01 -0.29795196795E+02  0.95577504340E+03  0.95624971015E+03  0.00000000000E+00 0.  1.
         21    1    1    2  505  501 -0.15098242415E+02 -0.35588140298E+02 -0.16019496682E+02  0.41846110068E+02  0.00000000000E+00 0.  1.
          2    1    1    2  501    0  0.11044126484E+02  0.12346659176E+03  0.14588129998E+03  0.19143491242E+03  0.00000000000E+00 0.  1.
<scales pt_clust_3="14000.00000" pt_clust_4="30.12598" pt_clust_5="40.45041" pt_clust_6="94.45273"></scales>
<clustering>
<clus scale="   30.126">  1  4  2 -1</clus>
<clus scale="   40.450">  2  5  1 -1</clus>
<clus scale="   94.453">  1  6  2 -1</clus>
<clus scale="   40.450">  2  3  1 -1</clus>
</clustering>
</event>
<event>
 6    0  0.3800129E+002  0.1083798E+03  0.7546771E-02  0.1263600E+00
         21   -1    0    0  504  502  0.00000000000E+00  0.00000000000E+00  0.79270011133E+02  0.79270011133E+02  0.00000000000E+00 0. -1.
          2   -1    0    0  503    0 -0.00000000000E+00 -0.00000000000E+00 -0.17684905403E+04  0.17684905403E+04  0.00000000000E+00 0. -1.
         21    1    1    2  503  502  0.71222413245E+02 -0.22130740716E+02 -0.28787233757E+02  0.79944397305E+02  0.00000000000E+00 0. -1.
         21    1    1    2  504  505  0.19556220429E+02  0.23319340237E+02  0.35324918832E+02  0.46627108821E+02  0.00000000000E+00 0. -1.
         21    1    1    2  505  501 -0.10407493521E+01  0.78999180811E+02 -0.13977186905E+03  0.16055568849E+03  0.00000000000E+00 0. -1.
          2    1    1    2  501    0 -0.89737884321E+02 -0.80187780333E+02 -0.15559863452E+04  0.15606333568E+04  0.00000000000E+00 0. -1.
<scales pt_clust_3="84.53952" pt_clust_4="30.43415" pt_clust_5="108.37982" pt_clust_6="14000.00000"></scales>
<clustering>
<clus scale="   30.434">  1  4  2 -1</clus>
<clus scale="   84.540">  1  3  2 -1</clus>
<clus scale="  108.380">  1  5  2 -1</clus>
<clus scale="   30.434">  1  3  2 -1</clus>
</clustering>
</event>
<event>
 6    0  0.3800129E+002  0.8901243E+02  0.7546771E-02  0.1305261E+00
         -1   -1    0    0    0  501 -0.00000000000E+00  0.00000000000E+00  0.26620567291E+04  0.26620567291E+04  0.00000000000E+00 0. -1.
         21   -1    0    0  503  502  0.00000000000E+00 -0.00000000000E+00 -0.64616216168E+02  0.64616216168E+02  0.00000000000E+00 0.  1.
         21    1    1    2  503  505 -0.31970432223E+02  0.32147512615E+02 -0.37999611739E+02  0.59156923485E+02  0.00000000000E+00 0.  1.
         21    1    1    2  504  502  0.46469850464E+02 -0.12144315963E+03  0.26944524467E+03  0.29917992563E+03  0.00000000000E+00 0.  1.
         21    1    1    2  505  501  0.18956850861E+01  0.45124017290E+02  0.59383011831E+03  0.59554511162E+03  0.00000000000E+00 0. -1.
         -1    1    1    2    0  504 -0.16395103327E+02  0.44171629726E+02  0.17721647616E+04  0.17727909845E+04  0.00000000000E+00 0. -1.
<scales pt_clust_3="45.49560" pt_clust_4="89.01243" pt_clust_5="45.16382" pt_clust_6="14000.00000"></scales>
<clustering>
<clus scale="   45.164">  1  5  2 -1</clus>
<clus scale="   45.496">  2  3  1 -1</clus>
<clus scale="   89.012">  2  4  1 -1</clus>
<clus scale="   45.496">  2  3  1 -1</clus>
</clustering>
</event>
<event>
 6    0  0.3800129E+002  0.1047794E+03  0.7546771E-02  0.1270555E+00
         21   -1    0    0  505  502  0.00000000000E+00  0.00000000000E+00  0.39792773946E+03  0.39792773946E+03  0.00000000000E+00 0. -1.
         -1   -1    0    0    0  501 -0.00000000000E+00 -0.00000000000E+00 -0.50703612490E+03  0.50703612490E+03  0.00000000000E+00 0. -1.
         21    1    1    2  503  504  0.18754200713E+02 -0.85315026645E+02  0.97403152116E+02  0.13083481134E+03  0.00000000000E+00 0.  1.
         21    1    1    2  504  502 -0.36363536647E+02  0.11256532235E+03  0.26110969352E+03  0.28665577029E+03  0.00000000000E+00 0. -1.
         21    1    1    2  505  501  0.36479740089E+02  0.25086584468E+02 -0.52655700881E+02  0.68794847136E+02  0.00000000000E+00 0. -1.
         -1    1    1    2    0  503 -0.18870404156E+02 -0.52336880168E+02 -0.41496553020E+03  0.41867843559E+03  0.00000000000E+00 0. -1.
<scales pt_clust_3="104.77942" pt_clust_4="14000.00000" pt_clust_5="44.27311" pt_clust_6="32.65996"></scales>
<clustering>
<clus scale="   44.273">  2  5  1 -1</clus>
<clus scale="   32.660">  2  6  1 -1</clus>
<clus scale="  104.779">  2  3  1 -1</clus>
<clus scale="  104.779">  1  3  2 -1</clus>
</clustering>
</event>
<event>
 6    0  0.3800129E+002  0.7196500E+02  0.7546771E-02  0.1353536E+00
          4   -1    0    0  505    0 -0.00000000000E+00  0.00000000000E+00  0.30488770429E+03  0.30488770429E+03  0.00000000000E+00 0.  1.
         21   -1    0    0  501  502  0.00000000000E+00 -0.00000000000E+00 -0.83441546831E+02  0.83441546831E+02  0.00000000000E+00 0.  1.
         21    1    1    2  503  502  0.11218720512E+02  0.29738616800E+02  0.88595818560E+01  0.32996018090E+02  0.00000000000E+00 0. -1.
         21    1    1    2  504  503  0.78683105318E+02  0.31740238415E+01  0.18196323579E+03  0.19827184538E+03  0.00000000000E+00 0.  1.
         21    1    1    2  505  504 -0.28498684784E+02  0.38989711369E+02  0.39086971406E+02  0.62130217775E+02  0.00000000000E+00 0.  1.
          4    1    1    2  501    0 -0.61403141046E+02 -0.71902352011E+02 -0.84636315929E+01  0.94931169880E+02  0.00000000000E+00 0.  1.
<scales pt_clust_3="31.78435" pt_clust_4="71.96500" pt_clust_5="51.28183" pt_clust_6="14000.00000"></scales>
<clustering>
<clus scale="   31.784">  2  3  1 -1</clus>
<clus scale="   51.282">  1  5  2 -1</clus>
<clus scale="   71.965">  1  4  2 -1</clus>
<clus scale="   31.784">  2  3  1 -1</clus>
</clustering>
</event>
<event>
 6    0  0.3800129E+002  0.9370097E+02  0.7546771E-02  0.1294129E+00
         21   -1    0    0  504  502  0.00000000000E+00  0.00000000000E+00  0.82568338140E+02  0.82568338140E+02  0.00000000000E+00 0. -1.
          2   -1    0    0  505    0 -0.00000000000E+00 -0.00000000000E+00 -0.20445678266E+04  0.20445678266E+04  0.00000000000E+00 0. -1.
         21    1    1    2  503  502 -0.58680571634E+02  0.54622876671E+01 -0.19722147774E+02  0.62146674784E+02  0.00000000000E+00 0. -1.
         21    1    1    2  504  501 -0.39394935099E+02 -0.24106710157E+02  0.48495167927E+02  0.66969214557E+02  0.00000000000E+00 0. -1.
         21    1    1    2  505  503  0.11255942313E+02 -0.55016378071E+02 -0.64499849635E+03  0.64743845915E+03  0.00000000000E+00 0. -1.
          2    1    1    2  501    0  0.86819564421E+02  0.73660800562E+02 -0.13457740123E+04  0.13505818163E+04  0.00000000000E+00 0. -1.
<scales pt_clust_3="93.70097" pt_clust_4="46.18543" pt_clust_5="56.96821" pt_clust_6="14000.00000"></scales>
<clustering>
<clus scale="   46.185">  1  4  2 -1</clus>
<clus scale="   56.968">  2  5  1 -1</clus>
<clus scale="   93.701">  1  3  2 -1</clus>
<clus scale="   46.185">  1  3  2 -1</clus>
</clustering>
</event>
<event>
 6    0  0.3800129E+002  0.1325609E+03  0.7546771E-02  0.1223704E+00
          2   -1    0    0  504    0 -0.00000000000E+00  0.00000000000E+00  0.75235688466E+03  0.75235688466E+03  0.00000000000E+00 0. -1.
         21   -1    0    0  505  502  0.00000000000E+00 -0.00000000000E+00 -0.14932765673E+04  0.14932765673E+04  0.00000000000E+00 0.  1.
         21    1    1    2  503  501 -0.91485208687E+01 -0.46090395962E+02 -0.38642758687E+03  0.38927406789E+03  0.00000000000E+00 0.  1.
         21    1    1    2  504  502  0.24815947926E+02 -0.54709012416E+02 -0.13866777834E+00  0.60074341776E+02  0.00000000000E+00 0. -1.
         21    1    1    2  505  503 -0.14341704768E+02 -0.33144072428E+02 -0.10687898929E+04  0.10693998547E+04  0.00000000000E+00 0.  1.
          2    1    1    2  501    0 -0.13257222892E+01  0.13394348081E+03  0.71443646490E+03  0.72688518761E+03  0.00000000000E+00 0. -1.
<scales pt_clust_3="132.56093" pt_clust_4="61.82518" pt_clust_5="36.11390" pt_clust_6="14000.00000"></scales>
<clustering>
<clus scale="   36.114">  2  5  1 -1</clus>
<clus scale="   61.825">  2  4  1 -1</clus>
<clus scale="  132.561">  2  3  1 -1</clus>
<clus scale="   36.114">  2  3  1 -1</clus>
</clustering>
</event>
<event>
 6    0  0.3800129E+002  0.1317660E+03  0.7546771E-02  0.1224859E+00
         21   -1    0    0  501  502  0.00000000000E+00  0.00000000000E+00  0.23327049340E+02  0.23327049340E+02  0.00000000000E+00 0.  1.
          2   -1    0    0  503    0 -0.00000000000E+00 -0.00000000000E+00 -0.13796291522E+04  0.13796291522E+04  0.00000000000E+00 0.  1.
         21    1    1    2  503  505 -0.17100204848E+02  0.43350297095E+02 -0.38879720931E+03  0.39158004958E+03  0.00000000000E+00 0.  1.
         21    1    1    2  504  502  0.74653056693E+02 -0.51788149096E+02 -0.13287174745E+03  0.16096581168E+03  0.00000000000E+00 0.  1.
         21    1    1    2  505  504  0.42855697546E+02  0.12415527012E+02 -0.10787570218E+03  0.11673869643E+03  0.00000000000E+00 0.  1.
          2    1    1    2  501    0 -0.10040854939E+03 -0.39776750114E+01 -0.72675744397E+03  0.73367164389E+03  0.00000000000E+00 0.  1.
<scales pt_clust_3="46.60113" pt_clust_4="43.20929" pt_clust_5="43.20929" pt_clust_6="116.44879"></scales>
<clustering>
<clus scale="   43.209">  4  5 -1 -1</clus>
<clus scale="   46.601">  2  3  1 -1</clus>
<clus scale="  116.449">  2  6  1 -1</clus>
<clus scale="  131.766">  1  3  2 -1</clus>
</clustering>
</event>
<event>
 6    0  0.3800129E+002  0.9908409E+02  0.7546771E-02  0.1282234E+00
          2   -1    0    0  505    0 -0.00000000000E+00  0.00000000000E+00  0.17615757097E+04  0.17615757097E+04  0.00000000000E+00 0. -1.
         21   -1    0    0  503  502  0.00000000000E+00 -0.00000000000E+00 -0.53564484131E+03  0.53564484131E+03  0.00000000000E+00 0.  1.
         21    1    1    2  503  504  0.23966906721E+02  0.94884614330E+02 -0.46630658151E+03  0.47646545584E+03  0.00000000000E+00 0.  1.
         21    1    1    2  504  501  0.37324210227E+02 -0.12842393877E+03  0.13628938988E+02  0.13443047533E+03  0.00000000000E+00 0. -1.
         21    1    1    2  505  502  0.36949691924E+02 -0.79436145058E+01  0.17990700590E+03  0.18383392374E+03  0.00000000000E+00 0.  1.
          2    1    1    2  501    0 -0.98240808872E+02  0.41482938947E+02  0.14987015050E+04  0.15024906961E+04  0.00000000000E+00 0. -1.
<scales pt_clust_3="14000.00000" pt_clust_4="99.08409" pt_clust_5="37.79392" pt_clust_6="71.68387"></scales>
<clustering>
<clus scale="   37.794">  1  5  2 -1</clus>
<clus scale="   71.684">  1  6  2 -1</clus>
<clus scale="   99.084">  1  4  2 -1</clus>
<clus scale="   99.084">  2  3  1 -1</clus>
</clustering>
</event>
<event>
 6    0  0.3800129E+002  0.2648190E+03  0.7546771E-02  0.1104282E+00
         21   -1    0    0  501  502  0.00000000000E+00  0.00000000000E+00  0.77245237325E+02  0.77245237325E+02  0.00000000000E+00 0.  1.
          2   -1    0    0  504    0 -0.00000000000E+00 -0.00000000000E+00 -0.18933356418E+04  0.18933356418E+04  0.00000000000E+00 0. -1.
         21    1    1    2  503  505  0.55671067636E+02 -0.30261998542E+02 -0.34458572291E+02  0.72128007957E+02  0.00000000000E+00 0. -1.
         21    1    1    2  504  503 -0.79027145153E+01  0.59453142614E+02 -0.29528047044E+03  0.30130994887E+03  0.00000000000E+00 0.  1.
         21    1    1    2  505  502  0.17775871137E+03  0.87020366035E+02 -0.18375050792E+03  0.27006471952E+03  0.00000000000E+00 0.  1.
          2    1    1    2  501    0 -0.22552706449E+03 -0.11621151011E+03 -0.13026008539E+04  0.13270782028E+04  0.00000000000E+00 0. -1.
<scales pt_clust_3="60.38454" pt_clust_4="59.97607" pt_clust_5="60.38454" pt_clust_6="241.57698"></scales>
<clustering>
<clus scale="   59.976">  2  4  1 -1</clus>
<clus scale="   60.385">  3  5 -1 -1</clus>
<clus scale="  241.577">  2  6  1 -1</clus>
<clus scale="  264.819">  1  3  2 -1</clus>
</clustering>
</event>
<event>
 6    0  0.3800129E+002  0.9912397E+02  0.7546771E-02  0.1282149E+00
         21   -1    0    0  505  502  0.00000000000E+00  0.00000000000E+00  0.58054850641E+03  0.58054850641E+03  0.00000000000E+00 0.  1.
          1   -1    0    0  504    0 -0.00000000000E+00 -0.00000000000E+00 -0.15485202239E+03  0.15485202239E+03  0.00000000000E+00 0.  1.
         21    1    1    2  503  502  0.73711595971E+02 -0.23529901124E+02  0.31266452783E+02  0.83454458822E+02  0.00000000000E+00 0.  1.
         21    1    1    2  504  503  0.56142905085E+02  0.53759670498E+01 -0.99399843691E+02  0.11428585100E+03  0.00000000000E+00 0.  1.
         21    1    1    2  505  501 -0.98105874925E+02  0.33379312269E+02  0.49157304969E+03  0.50237735256E+03  0.00000000000E+00 0.  1.
          1    1    1    2  501    0 -0.31748626131E+02 -0.15225378195E+02  0.22568252381E+01  0.35282866417E+02  0.00000000000E+00 0.  1.
<scales pt_clust_3="14000.00000" pt_clust_4="32.26038" pt_clust_5="99.12397" pt_clust_6="35.21061"></scales>
<clustering>
<clus scale="   35.211">  2  6  1 -1</clus>
<clus scale="   32.260">  2  4  1 -1</clus>
<clus scale="   99.124">  1  5  2 -1</clus>
<clus scale="   99.124">  1  3  2 -1</clus>
</clustering>
</event>
<event>
 6    0  0.3800129E+002  0.1568410E+03  0.7546771E-02  0.1192310E+00
          2   -1    0    0  504    0 -0.00000000000E+00  0.00000000000E+00  0.66648875450E+03  0.66648875450E+03  0.00000000000E+00 0.  1.
         21   -1    0    0  503  502  0.00000000000E+00 -0.00000000000E+00 -0.32591637060E+03  0.32591637060E+03  0.00000000000E+00 0. -1.
         21    1    1    2  503  505  0.29629484332E+02 -0.30184244186E+02 -0.68106723582E+02  0.80171820086E+02  0.00000000000E+00 0. -1.
         21    1    1    2  504  502  0.17502867056E+02  0.56526281846E+02 -0.17414387786E+03  0.18392297597E+03  0.00000000000E+00 0. -1.
         21    1    1    2  505  501  0.11656915516E+03 -0.10466746544E+02 -0.57603413998E+01  0.11717978602E+03  0.00000000000E+00 0. -1.
          2    1    1    2  501    0 -0.16370150655E+03 -0.15875291117E+02  0.58858332673E+03  0.61113054303E+03  0.00000000000E+00 0.  1.
<scales pt_clust_3="42.29651" pt_clust_4="52.12666" pt_clust_5="156.84105" pt_clust_6="14000.00000"></scales>
<clustering>
<clus scale="   42.297">  2  3  1 -1</clus>
<clus scale="   52.127">  2  4  1 -1</clus>
<clus scale="  156.841">  2  5  1 -1</clus>
<clus scale="   42.297">  2  3  1 -1</clus>
</clustering>
</event>
<event>
 6    0  0.3800129E+002  0.8694182E+02  0.7546771E-02  0.1310431E+00
         21   -1    0    0  504  502  0.00000000000E+00  0.00000000000E+00  0.42601011458E+03  0.42601011458E+03  0.00000000000E+00 0. -1.
          1   -1    0    0  503    0 -0.00000000000E+00 -0.00000000000E+00 -0.12066967553E+04  0.12066967553E+04  0.00000000000E+00 0. -1.
         21    1    1    2  503  505  0.34194291287E+02 -0.11960197447E+03 -0.18353855253E+03  0.22172118103E+03  0.00000000000E+00 0. -1.
         21    1    1    2  504  501  0.11332876834E+02  0.28028368889E+02  0.15217207901E+03  0.15514627031E+03  0.00000000000E+00 0. -1.
         21    1    1    2  505  502 -0.40557890598E+02  0.79754623117E+01  0.24980952660E+03  0.25320614145E+03  0.00000000000E+00 0. -1.
          1    1    1    2  501    0 -0.49692775243E+01  0.83598143269E+02 -0.99912969380E+03  0.10026332771E+04  0.00000000000E+00 0. -1.
<scales pt_clust_3="14000.00000" pt_clust_4="30.23282" pt_clust_5="45.29864" pt_clust_6="86.94182"></scales>
<clustering>
<clus scale="   30.233">  1  4  2 -1</clus>
<clus scale="   45.299">  1  5  2 -1</clus>
<clus scale="   86.942">  2  6  1 -1</clus>
<clus scale="   30.233">  1  3  2 -1</clus>
</clustering>
</event>
<event>
 6    0  0.3800129E+002  0.1101382E+03  0.7546771E-02  0.1260314E+00
         21   -1    0    0  503  502  0.00000000000E+00  0.00000000000E+00  0.10659763115E+03  0.10659763115E+03  0.00000000000E+00 0.  1.
         -1   -1    0    0    0  501 -0.00000000000E+00 -0.00000000000E+00 -0.10630573522E+04  0.10630573522E+04  0.00000000000E+00 0.  1.
         21    1    1    2  503  504 -0.48317895952E+02 -0.73183908673E+02  0.61911633257E+02  0.10734781735E+03  0.00000000000E+00 0.  1.
         21    1    1    2  504  501 -0.14362024689E+02 -0.32141917527E+02 -0.53707151941E+03  0.53822410534E+03  0.00000000000E+00 0.  1.
         21    1    1    2  505  502 -0.39016996725E+02  0.81280540533E+01 -0.26097133079E+02  0.47638762064E+02  0.00000000000E+00 0.  1.
         -1    1    1    2    0  505  0.10169691737E+03  0.97197772147E+02 -0.45520270179E+03  0.47644429856E+03  0.00000000000E+00 0.  1.
<scales pt_clust_3="14000.00000" pt_clust_4="35.20470" pt_clust_5="40.45332" pt_clust_6="110.13824"></scales>
<clustering>
<clus scale="   35.205">  2  4  1 -1</clus>
<clus scale="   40.453">  1  5  2 -1</clus>
<clus scale="  110.138">  2  6  1 -1</clus>
<clus scale="   40.453">  1  3  2 -1</clus>
</clustering>
</event>
<event>
 6    0  0.3800129E+002  0.1242379E+03  0.7546771E-02  0.1236265E+00
          2   -1    0    0  504    0 -0.00000000000E+00  0.00000000000E+00  0.13037782473E+03  0.13037782473E+03  0.00000000000E+00 0.  1.
         21   -1    0    0  501  502  0.00000000000E+00 -0.00000000000E+00 -0.27374326766E+04  0.27374326766E+04  0.00000000000E+00 0.  1.
         21    1    1    2  503  505 -0.22987349662E+02 -0.57160001314E+02 -0.84657862658E+02  0.10470261556E+03  0.00000000000E+00 0. -1.
         21    1    1    2  504  503 -0.16126273452E+02  0.37128095938E+02 -0.37332989288E+02  0.55066362624E+02  0.00000000000E+00 0. -1.
         21    1    1    2  505  502  0.13495452771E+02  0.12383061417E+03 -0.25690606341E+04  0.25720786710E+04  0.00000000000E+00 0.  1.
          2    1    1    2  501    0  0.25618170343E+02 -0.10379870879E+03  0.83996634191E+02  0.13596285211E+03  0.00000000000E+00 0.  1.
<scales pt_clust_3="59.31183" pt_clust_4="40.47903" pt_clust_5="14000.00000" pt_clust_6="124.23793"></scales>
<clustering>
<clus scale="   40.479">  1  4  2 -1</clus>
<clus scale="   59.312">  1  3  2 -1</clus>
<clus scale="  124.238">  1  6  2 -1</clus>
<clus scale="  124.238">  2  3  1 -1</clus>
</clustering>
</event>
<event>
 6    0  0.3800129E+002  0.8838122E+02  0.7546771E-02  0.1306820E+00
         21   -1    0    0  501  502  0.00000000000E+00  0.00000000000E+00  0.11952992856E+03  0.11952992856E+03  0.00000000000E+00 0. -1.
          2   -1    0    0  505    0 -0.00000000000E+00 -0.00000000000E+00 -0.66215434839E+03  0.66215434839E+03  0.00000000000E+00 0. -1.
         21    1    1    2  503  502  0.77521021403E+02  0.36469037079E+02  0.58194173349E+02  0.10356669946E+03  0.00000000000E+00 0. -1.
         21    1    1    2  504  503 -0.62089163143E+02 -0.92861108445E+02 -0.58701727197E+02  0.12619089673E+03  0.00000000000E+00 0. -1.
         21    1    1    2  505  504 -0.33850977242E+02  0.45659154615E+01 -0.86468322174E+02  0.92970462964E+02  0.00000000000E+00 0. -1.
          2    1    1    2  501    0  0.18419118982E+02  0.51826155905E+02 -0.45564854381E+03  0.45895621780E+03  0.00000000000E+00 0. -1.
<scales pt_clust_3="14000.00000" pt_clust_4="88.38122" pt_clust_5="34.15752" pt_clust_6="56.14001"></scales>
<clustering>
<clus scale="   34.158">  2  5  1 -1</clus>
<clus scale="   56.140">  2  6  1 -1</clus>
<clus scale="   88.381">  2  4  1 -1</clus>
<clus scale="   88.381">  1  3  2 -1</clus>
</clustering>
</event>
<event>
 6    0  0.3800129E+002  0.2193770E+03  0.7546771E-02  0.1134348E+00
         21   -1    0    0  503  502  0.00000000000E+00  0.00000000000E+00  0.61062788858E+03  0.61062788858E+03  0.00000000000E+00 0.  1.
          2   -1    0    0  505    0 -0.00000000000E+00 -0.00000000000E+00 -0.68205535824E+03  0.68205535824E+03  0.00000000000E+00 0. -1.
         21    1    1    2  503  501  0.11678954163E+03 -0.22566620111E+03  0.31301803561E+03  0.40316909849E+03  0.00000000000E+00 0.  1.
         21    1    1    2  504  502 -0.17122124640E+03  0.10596413738E+03  0.18460517725E+03  0.27317427606E+03  0.00000000000E+00 0.  1.
         21    1    1    2  505  504 -0.58534620046E+02 -0.10736459977E+02 -0.97714653046E+02  0.11441034366E+03  0.00000000000E+00 0.  1.
          2    1    1    2  501    0  0.11296632482E+03  0.13043852371E+03 -0.47133602948E+03  0.50192952861E+03  0.00000000000E+00 0. -1.
<scales pt_clust_3="219.37697" pt_clust_4="14000.00000" pt_clust_5="59.51112" pt_clust_6="136.98177"></scales>
<clustering>
<clus scale="   59.511">  2  5  1 -1</clus>
<clus scale="  136.982">  2  6  1 -1</clus>
<clus scale="  219.377">  2  3  1 -1</clus>
<clus scale="  219.377">  1  3  2 -1</clus>
</clustering>
</event>
<event>
 6    0  0.3800129E+002  0.4931865E+03  0.7546771E-02  0.1015573E+00
         21   -1    0    0  501  502  0.00000000000E+00  0.00000000000E+00  0.16112983841E+03  0.16112983841E+03  0.00000000000E+00 0. -1.
          2   -1    0    0  504    0 -0.00000000000E+00 -0.00000000000E+00 -0.15383095911E+04  0.15383095911E+04  0.00000000000E+00 0. -1.
         21    1    1    2  503  505 -0.31642909102E+02 -0.13272788459E+03 -0.11994963214E+03  0.18167520275E+03  0.00000000000E+00 0. -1.
         21    1    1    2  504  503 -0.17285405502E+03 -0.15899032373E+03 -0.30532529935E+03  0.38520122767E+03  0.00000000000E+00 0. -1.
         21    1    1    2  505  502 -0.69268853016E+02 -0.69053507139E+02 -0.25028190927E+02  0.10096024558E+03  0.00000000000E+00 0. -1.
          2    1    1    2  501    0  0.27376581713E+03  0.36077171546E+03 -0.92687663026E+03  0.10316027535E+04  0.00000000000E+00 0. -1.
<scales pt_clust_3="149.74712" pt_clust_4="149.74712" pt_clust_5="75.56268" pt_clust_6="452.88404"></scales>
<clustering>
<clus scale="   75.563">  3  5 -1 -1</clus>
<clus scale="  149.747">  3  4 -1 -1</clus>
<clus scale="  452.884">  2  6  1 -1</clus>
<clus scale="  493.186">  1  3  2 -1</clus>
</clustering>
</event>
<event>
 6    0  0.3800129E+002  0.1853622E+03  0.7546771E-02  0.1162712E+00
         21   -1    0    0  504  502  0.00000000000E+00  0.00000000000E+00  0.71586532959E+02  0.71586532959E+02  0.00000000000E+00 0. -1.
          2   -1    0    0  503    0 -0.00000000000E+00 -0.00000000000E+00 -0.23492027063E+04  0.23492027063E+04  0.00000000000E+00 0.  1.
         21    1    1    2  503  505  0.30627628926E+02  0.42210572666E+02 -0.15881084139E+03  0.16715462136E+03  0.00000000000E+00 0.  1.
         21    1    1    2  504  501 -0.32931708296E+02  0.38983702906E+02 -0.52089309121E+02  0.72921345491E+02  0.00000000000E+00 0. -1.
         21    1    1    2  505  502 -0.67701428752E+02 -0.19921793729E+03 -0.14835349212E+03  0.25744907966E+03  0.00000000000E+00 0. -1.
          2    1    1    2  501    0  0.70005508122E+02  0.11802366172E+03 -0.19183625308E+04  0.19232641928E+04  0.00000000000E+00 0.  1.
<scales pt_clust_3="53.09211" pt_clust_4="51.03162" pt_clust_5="185.36223" pt_clust_6="14000.00000"></scales>
<clustering>
<clus scale="   51.032">  1  4  2 -1</clus>
<clus scale="   53.092">  2  3  1 -1</clus>
<clus scale="  185.362">  1  5  2 -1</clus>
<clus scale="   51.032">  1  3  2 -1</clus>
</clustering>
</event>
<event>
 6    0  0.3800129E+002  0.1596431E+03  0.7546771E-02  0.1189100E+00
         21   -1    0    0  501  502  0.00000000000E+00  0.00000000000E+00  0.14780856106E+02  0.14780856106E+02  0.00000000000E+00 0. -1.
          2   -1    0    0  504    0 -0.00000000000E+00 -0.00000000000E+00 -0.24311933594E+04  0.24311933594E+04  0.00000000000E+00 0. -1.
         21    1    1    2  503  505  0.66727037924E+02 -0.25276132072E+02 -0.42723069757E+03  0.43314829953E+03  0.00000000000E+00 0. -1.
         21    1    1    2  504  503  0.10114139970E+02  0.29894139126E+02 -0.36409083104E+03  0.36545600095E+03  0.00000000000E+00 0. -1.
         21    1    1    2  505  502  0.64172391382E+02 -0.37162037069E+02 -0.17484142817E+03  0.18991745002E+03  0.00000000000E+00 0. -1.
          2    1    1    2  501    0 -0.14101356928E+03  0.32544030014E+02 -0.14502495465E+04  0.14574524650E+04  0.00000000000E+00 0. -1.
<scales pt_clust_3="67.41374" pt_clust_4="31.55876" pt_clust_5="67.41374" pt_clust_6="144.21862"></scales>
<clustering>
<clus scale="   31.559">  2  4  1 -1</clus>
<clus scale="   67.414">  3  5 -1 -1</clus>
<clus scale="  144.219">  2  6  1 -1</clus>
<clus scale="  159.643">  1  3  2 -1</clus>
</clustering>
</event>
<event>
 6    0  0.3800129E+002  0.1122510E+03  0.7546771E-02  0.1256457E+00
         21   -1    0    0  503  502  0.00000000000E+00  0.00000000000E+00  0.50275707682E+02  0.50275707682E+02  0.00000000000E+00 0.  1.
         -2   -1    0    0    0  501 -0.00000000000E+00 -0.00000000000E+00 -0.14905611818E+04  0.14905611818E+04  0.00000000000E+00 0.  1.
         21    1    1    2  503  504 -0.30475242741E+02 -0.18226637337E+02 -0.71494425932E+01  0.36222441360E+02  0.00000000000E+00 0. -1.
         21    1    1    2  504  501 -0.29140879216E+02 -0.26731715694E+02 -0.45258481278E+03  0.45430913288E+03  0.00000000000E+00 0.  1.
         21    1    1    2  505  502  0.12343066157E+03 -0.43658466096E+02 -0.10461241756E+03  0.16758564313E+03  0.00000000000E+00 0.  1.
         -2    1    1    2    0  505 -0.63814539609E+02  0.88616819127E+02 -0.87593880118E+03  0.88271967210E+03  0.00000000000E+00 0.  1.
<scales pt_clust_3="35.50987" pt_clust_4="40.38396" pt_clust_5="14000.00000" pt_clust_6="112.25100"></scales>
<clustering>
<clus scale="   35.510">  1  3  2 -1</clus>
<clus scale="   40.384">  2  4  1 -1</clus>
<clus scale="  112.251">  2  6  1 -1</clus>
<clus scale="   35.510">  1  3  2 -1</clus>
</clustering>
</event>
<event>
 6    0  0.3800129E+002  0.1579310E+03  0.7546771E-02  0.1191053E+00
         21   -1    0    0  504  502  0.00000000000E+00  0.00000000000E+00  0.65289315127E+03  0.65289315127E+03  0.00000000000E+00 0. -1.
          2   -1    0    0  503    0 -0.00000000000E+00 -0.00000000000E+00 -0.14656765675E+04  0.14656765675E+04  0.00000000000E+00 0.  1.
         21    1    1    2  503  505  0.18226906869E+02 -0.24354705639E+02 -0.45291020456E+03  0.45393063921E+03  0.00000000000E+00 0. -1.
         21    1    1    2  504  501 -0.13639792584E+03 -0.90171482492E+02  0.54998795998E+03  0.57377874355E+03  0.00000000000E+00 0. -1.
         21    1    1    2  505  502  0.30116963210E+02 -0.26508208484E+02  0.78741409631E+02  0.88373786728E+02  0.00000000000E+00 0. -1.
          2    1    1    2  501    0  0.88054055760E+02  0.14103439662E+03 -0.98860258128E+03  0.10024865493E+04  0.00000000000E+00 0.  1.
<scales pt_clust_3="30.41992" pt_clust_4="157.93105" pt_clust_5="40.26294" pt_clust_6="14000.00000"></scales>
<clustering>
<clus scale="   30.420">  2  3  1 -1</clus>
<clus scale="   40.263">  1  5  2 -1</clus>
<clus scale="  157.931">  1  4  2 -1</clus>
<clus scale="   40.263">  1  3  2 -1</clus>
</clustering>
</event>
<event>
 6    0  0.3800129E+002  0.1572478E+03  0.7546771E-02  0.1191839E+00
         21   -1    0    0  504  502  0.00000000000E+00  0.00000000000E+00  0.36861403594E+03  0.36861403594E+03  0.00000000000E+00 0. -1.
          1   -1    0    0  503    0 -0.00000000000E+00 -0.00000000000E+00 -0.52319634585E+03  0.52319634585E+03  0.00000000000E+00 0. -1.
         21    1    1    2  503  502  0.36136979342E+02 -0.11414557657E+02 -0.92643358826E+02  0.10009478177E+03  0.00000000000E+00 0. -1.
         21    1    1    2  504  505 -0.71126974206E+02 -0.30255118315E+02  0.25785516788E+03  0.26919083611E+03  0.00000000000E+00 0. -1.
         21    1    1    2  505  501 -0.64938778722E+02 -0.79019761671E+02  0.55118423864E+02  0.11618609368E+03  0.00000000000E+00 0. -1.
          1    1    1    2  501    0  0.99928773586E+02  0.12068943764E+03 -0.37491254283E+03  0.40633867022E+03  0.00000000000E+00 0. -1.
<scales pt_clust_3="37.89688" pt_clust_4="76.91282" pt_clust_5="14000.00000" pt_clust_6="157.24784"></scales>
<clustering>
<clus scale="   37.897">  2  3  1 -1</clus>
<clus scale="   76.913">  1  4  2 -1</clus>
<clus scale="  157.248">  2  6  1 -1</clus>
<clus scale="   76.913">  1  3  2 -1</clus>
</clustering>
</event>
<event>
 6    0  0.3800129E+002  0.2439077E+03  0.7546771E-02  0.1117217E+00
         21   -1    0    0  501  502  0.00000000000E+00  0.00000000000E+00  0.33279951443E+03  0.33279951443E+03  0.00000000000E+00 0. -1.
          2   -1    0    0  503    0 -0.00000000000E+00 -0.00000000000E+00 -0.89173419924E+03  0.89173419924E+03  0.00000000000E+00 0. -1.
         21    1    1    2  503  505 -0.21583208007E+02  0.22004452082E+02 -0.25569529370E+03  0.25754633369E+03  0.00000000000E+00 0. -1.
         21    1    1    2  504  502 -0.16629436011E+03 -0.10368421079E+03  0.22846515412E+03  0.30099926315E+03  0.00000000000E+00 0. -1.
         21    1    1    2  505  504 -0.15734462864E+02 -0.42537936503E+02  0.30922530608E+02  0.54893098498E+02  0.00000000000E+00 0.  1.
          2    1    1    2  501    0  0.20361203098E+03  0.12421769521E+03 -0.56262707584E+03  0.61109501833E+03  0.00000000000E+00 0. -1.
<scales pt_clust_3="30.82257" pt_clust_4="33.42080" pt_clust_5="33.42080" pt_clust_6="233.72839"></scales>
<clustering>
<clus scale="   30.823">  2  3  1 -1</clus>
<clus scale="   33.421">  4  5 -1 -1</clus>
<clus scale="  233.728">  2  6  1 -1</clus>
<clus scale="  243.908">  1  3  2 -1</clus>
</clustering>
</event>
<event>
 6    0  0.3800129E+002  0.1150354E+03  0.7546771E-02  0.1251519E+00
          2   -1    0    0  505    0 -0.00000000000E+00  0.00000000000E+00  0.61090430031E+03  0.61090430031E+03  0.00000000000E+00 0.  1.
         21   -1    0    0  503  502  0.00000000000E+00 -0.00000000000E+00 -0.24482204804E+03  0.24482204804E+03  0.00000000000E+00 0.  1.
         21    1    1    2  503  501  0.20009030164E+02 -0.62580398058E+02 -0.69457638141E+02  0.95608739169E+02  0.00000000000E+00 0. -1.
         21    1    1    2  504  502  0.78059335439E+02 -0.14409177241E+02 -0.13599682330E+03  0.15746752105E+03  0.00000000000E+00 0.  1.
         21    1    1    2  505  504 -0.65712004761E+02  0.15173318459E+02  0.73510577402E+02  0.99760223299E+02  0.00000000000E+00 0. -1.
          2    1    1    2  501    0 -0.32356360842E+02  0.61816256840E+02  0.49802613631E+03  0.50288986482E+03  0.00000000000E+00 0.  1.
<scales pt_clust_3="65.70135" pt_clust_4="14000.00000" pt_clust_5="64.88662" pt_clust_6="115.03541"></scales>
<clustering>
<clus scale="   65.701">  2  3  1 -1</clus>
<clus scale="   64.887">  1  5  2 -1</clus>
<clus scale="  115.035">  1  6  2 -1</clus>
<clus scale="   65.701">  2  3  1 -1</clus>
</clustering>
</event>
<event>
 6    0  0.3800129E+002  0.1109001E+03  0.7546771E-02  0.1258912E+00
         21   -1    0    0  504  502  0.00000000000E+00  0.00000000000E+00  0.30573575084E+03  0.30573575084E+03  0.00000000000E+00 0.  1.
          1   -1    0    0  505    0 -0.00000000000E+00 -0.00000000000E+00 -0.17513860933E+03  0.17513860933E+03  0.00000000000E+00 0.  1.
         21    1    1    2  503  502 -0.62083171925E+01 -0.58280534403E+02  0.59931095698E+02  0.83826607496E+02  0.00000000000E+00 0.  1.
         21    1    1    2  504  501 -0.62913441714E+02 -0.42207167764E+02  0.19483216856E+03  0.20904334495E+03  0.00000000000E+00 0.  1.
         21    1    1    2  505  503 -0.88071752459E+01  0.29689909581E+02 -0.51438010621E+02  0.60041035995E+02  0.00000000000E+00 0. -1.
          1    1    1    2  501    0  0.77928934153E+02  0.70797792586E+02 -0.72728112129E+02  0.12796337174E+03  0.00000000000E+00 0.  1.
<scales pt_clust_3="55.76212" pt_clust_4="110.90005" pt_clust_5="30.96865" pt_clust_6="14000.00000"></scales>
<clustering>
<clus scale="   30.969">  2  5  1 -1</clus>
<clus scale="   55.762">  1  3  2 -1</clus>
<clus scale="  110.900">  1  4  2 -1</clus>
<clus scale="   55.762">  1  3  2 -1</clus>
</clustering>
</event>
<event>
 6    0  0.3800129E+002  0.8054102E+02  0.7546771E-02  0.1327523E+00
         21   -1    0    0  504  502  0.00000000000E+00  0.00000000000E+00  0.57626766867E+02  0.57626766867E+02  0.00000000000E+00 0. -1.
         -1   -1    0    0    0  501 -0.00000000000E+00 -0.00000000000E+00 -0.11059658461E+04  0.11059658461E+04  0.00000000000E+00 0. -1.
         21    1    1    2  503  505 -0.27357983591E+02  0.82295167858E+02 -0.45726076857E+02  0.98039930761E+02  0.00000000000E+00 0. -1.
         21    1    1    2  504  503 -0.30276006995E+02 -0.30677637487E+02  0.28630146908E+01  0.43196653742E+02  0.00000000000E+00 0. -1.
         21    1    1    2  505  501  0.30598166822E+02  0.43009974960E+02 -0.68690873727E+03  0.68893375523E+03  0.00000000000E+00 0. -1.
         -1    1    1    2    0  502  0.27035823764E+02 -0.94627505330E+02 -0.31856727984E+03  0.33342227328E+03  0.00000000000E+00 0. -1.
<scales pt_clust_3="80.54102" pt_clust_4="43.10167" pt_clust_5="51.53877" pt_clust_6="14000.00000"></scales>
<clustering>
<clus scale="   43.102">  1  4  2 -1</clus>
<clus scale="   51.539">  2  5  1 -1</clus>
<clus scale="   80.541">  1  3  2 -1</clus>
<clus scale="   43.102">  1  3  2 -1</clus>
</clustering>
</event>
<event>
 6    0  0.3800129E+002  0.1280910E+03  0.7546771E-02  0.1230316E+00
         21   -1    0    0  505  502  0.00000000000E+00  0.00000000000E+00  0.46934230921E+02  0.46934230921E+02  0.00000000000E+00 0.  1.
          2   -1    0    0  504    0 -0.00000000000E+00 -0.00000000000E+00 -0.83863246327E+03  0.83863246327E+03  0.00000000000E+00 0.  1.
         21    1    1    2  503  502  0.22336446230E+02 -0.62836925749E+02 -0.76266592726E+02  0.10131134800E+03  0.00000000000E+00 0.  1.
         21    1    1    2  504  503 -0.24683965552E+02 -0.28651844649E+02 -0.91817263988E+02  0.99300736772E+02  0.00000000000E+00 0.  1.
         21    1    1    2  505  501  0.11092445771E+03 -0.53351440020E+01 -0.13321913194E+03  0.17343597145E+03  0.00000000000E+00 0.  1.
          2    1    1    2  501    0 -0.10857693838E+03  0.96823914400E+02 -0.49039524369E+03  0.51151863796E+03  0.00000000000E+00 0.  1.
<scales pt_clust_3="69.03846" pt_clust_4="37.81833" pt_clust_5="14000.00000" pt_clust_6="128.09103"></scales>
<clustering>
<clus scale="   37.818">  2  4  1 -1</clus>
<clus scale="   69.038">  1  3  2 -1</clus>
<clus scale="  128.091">  2  6  1 -1</clus>
<clus scale="   69.038">  1  3  2 -1</clus>
</clustering>
</event>
<event>
 6    0  0.3800129E+002  0.1369951E+03  0.7546771E-02  0.1217430E+00
          2   -1    0    0  503    0 -0.00000000000E+00  0.00000000000E+00  0.32935428546E+03  0.32935428546E+03  0.00000000000E+00 0.  1.
         21   -1    0    0  501  502  0.00000000000E+00 -0.00000000000E+00 -0.19532652460E+03  0.19532652460E+03  0.00000000000E+00 0. -1.
         21    1    1    2  503  505  0.15405009160E+02 -0.37059004726E+02  0.16715159791E+02  0.43475058428E+02  0.00000000000E+00 0. -1.
         21    1    1    2  504  502  0.60383628399E+02  0.32552343189E+02 -0.93245453676E+02  0.11576075439E+03  0.00000000000E+00 0. -1.
         21    1    1    2  505  504  0.56807417618E+02  0.31059036067E+02 -0.43249252686E+02  0.77860415332E+02  0.00000000000E+00 0. -1.
          2    1    1    2  501    0 -0.13259605518E+03 -0.26552374530E+02  0.25380730743E+03  0.28758458190E+03  0.00000000000E+00 0.  1.
<scales pt_clust_3="40.13333" pt_clust_4="31.89994" pt_clust_5="31.89994" pt_clust_6="133.00166"></scales>
<clustering>
<clus scale="   31.900">  4  5 -1 -1</clus>
<clus scale="   40.133">  1  3  2 -1</clus>
<clus scale="  133.002">  1  6  2 -1</clus>
<clus scale="  136.995">  2  3  1 -1</clus>
</clustering>
</event>
<event>
 6    0  0.3800129E+002  0.2480135E+03  0.7546771E-02  0.1114567E+00
          2   -1    0    0  503    0 -0.00000000000E+00  0.00000000000E+00  0.14996045844E+04  0.14996045844E+04  0.00000000000E+00 0.  1.
         21   -1    0    0  501  502  0.00000000000E+00 -0.00000000000E+00 -0.40030066876E+03  0.40030066876E+03  0.00000000000E+00 0. -1.
         21    1    1    2  503  505 -0.44375985953E+02 -0.19217572655E+02  0.38435213213E+02  0.61772233591E+02  0.00000000000E+00 0. -1.
         21    1    1    2  504  502  0.13915545063E+03  0.20921576918E+03 -0.33578632498E+03  0.41938995405E+03  0.00000000000E+00 0. -1.
         21    1    1    2  505  504 -0.65987473624E+02 -0.18545752006E+02  0.26065575161E+03  0.26951755498E+03  0.00000000000E+00 0. -1.
          2    1    1    2  501    0 -0.28791991049E+02 -0.17145244452E+03  0.11359992758E+04  0.11492255106E+04  0.00000000000E+00 0.  1.
<scales pt_clust_3="48.35849" pt_clust_4="14000.00000" pt_clust_5="77.31696" pt_clust_6="248.01351"></scales>
<clustering>
<clus scale="   48.358">  1  3  2 -1</clus>
<clus scale="   77.317">  1  5  2 -1</clus>
<clus scale="  248.014">  1  6  2 -1</clus>
<clus scale="  248.014">  2  3  1 -1</clus>
</clustering>
</event>
<event>
 6    0  0.3800129E+002  0.2033487E+03  0.7546771E-02  0.1146944E+00
         21   -1    0    0  505  502  0.00000000000E+00  0.00000000000E+00  0.23762107455E+03  0.23762107455E+03  0.00000000000E+00 0.  1.
          2   -1    0    0  503    0 -0.00000000000E+00 -0.00000000000E+00 -0.19799560491E+04  0.19799560491E+04  0.00000000000E+00 0.  1.
         21    1    1    2  503  502 -0.50967347630E+02  0.68907393222E+01 -0.71181734148E+03  0.71367295062E+03  0.00000000000E+00 0.  1.
         21    1    1    2  504  501  0.65309602004E+02  0.20621003265E+02  0.29730612829E+02  0.74662435191E+02  0.00000000000E+00 0. -1.
         21    1    1    2  505  504  0.10351903569E+03  0.75000337702E+02  0.15674609931E+03  0.20226364244E+03  0.00000000000E+00 0.  1.
          2    1    1    2  501    0 -0.11786129006E+03 -0.10251208029E+03 -0.12169943453E+04  0.12269780954E+04  0.00000000000E+00 0.  1.
<scales pt_clust_3="51.43105" pt_clust_4="47.81831" pt_clust_5="47.81831" pt_clust_6="192.56887"></scales>
<clustering>
<clus scale="   47.818">  4  5 -1 -1</clus>
<clus scale="   51.431">  2  3  1 -1</clus>
<clus scale="  192.569">  2  6  1 -1</clus>
<clus scale="  203.349">  1  3  2 -1</clus>
</clustering>
</event>
<event>
 6    0  0.3800129E+002  0.1009677E+03  0.7546771E-02  0.1278274E+00
         21   -1    0    0  505  502  0.00000000000E+00  0.00000000000E+00  0.18062966210E+03  0.18062966210E+03  0.00000000000E+00 0. -1.
          2   -1    0    0  503    0 -0.00000000000E+00 -0.00000000000E+00 -0.58582369691E+03  0.58582369691E+03  0.00000000000E+00 0. -1.
         21    1    1    2  503  504 -0.15338386550E+02 -0.99698917915E+02 -0.31141992789E+03  0.32734921998E+03  0.00000000000E+00 0. -1.
         21    1    1    2  504  502 -0.59706114975E+02 -0.14912827368E+02  0.23845214961E+02  0.65998536818E+02  0.00000000000E+00 0. -1.
         21    1    1    2  505  501  0.17451715448E+01  0.30512105953E+02  0.11292523508E+03  0.11698778976E+03  0.00000000000E+00 0. -1.
          2    1    1    2  501    0  0.73299329981E+02  0.84099639329E+02 -0.23054455697E+03  0.25611781246E+03  0.00000000000E+00 0. -1.
<scales pt_clust_3="100.96775" pt_clust_4="58.81495" pt_clust_5="30.56197" pt_clust_6="14000.00000"></scales>
<clustering>
<clus scale="   30.562">  1  5  2 -1</clus>
<clus scale="   58.815">  1  4  2 -1</clus>
<clus scale="  100.968">  2  3  1 -1</clus>
<clus scale="   30.562">  1  3  2 -1</clus>
</clustering>
</event>
<event>
 6    0  0.3800129E+002  0.1666283E+03  0.7546771E-02  0.1181410E+00
         21   -1    0    0  505  502  0.00000000000E+00  0.00000000000E+00  0.76999122896E+03  0.76999122896E+03  0.00000000000E+00 0.  1.
          2   -1    0    0  504    0 -0.00000000000E+00 -0.00000000000E+00 -0.86089051530E+03  0.86089051530E+03  0.00000000000E+00 0. -1.
         21    1    1    2  503  502  0.95747746360E+01  0.19140432298E+03  0.41274272484E+03  0.45506466361E+03  0.00000000000E+00 0.  1.
         21    1    1    2  504  503 -0.68392631793E+02 -0.30223037625E+02 -0.37478934266E+03  0.38217539881E+03  0.00000000000E+00 0.  1.
         21    1    1    2  505  501 -0.70869088538E+01 -0.14704047400E+03  0.31341557881E+03  0.34626644411E+03  0.00000000000E+00 0.  1.
          2    1    1    2  501    0  0.65904766011E+02 -0.14140811356E+02 -0.44226824734E+03  0.44737523773E+03  0.00000000000E+00 0. -1.
<scales pt_clust_3="166.62830" pt_clust_4="43.90556" pt_clust_5="14000.00000" pt_clust_6="67.40475"></scales>
<clustering>
<clus scale="   67.405">  2  6  1 -1</clus>
<clus scale="   43.906">  2  4  1 -1</clus>
<clus scale="  166.628">  2  3  1 -1</clus>
<clus scale="  166.628">  1  3  2 -1</clus>
</clustering>
</event>
<event>
 6    0  0.3800129E+002  0.1140459E+03  0.7546771E-02  0.1253256E+00
         21   -1    0    0  505  502  0.00000000000E+00  0.00000000000E+00  0.73893731870E+03  0.73893731870E+03  0.00000000000E+00 0. -1.
         -1   -1    0    0    0  501 -0.00000000000E+00 -0.00000000000E+00 -0.65476610114E+02  0.65476610114E+02  0.00000000000E+00 0. -1.
         21    1    1    2  503  504  0.43350628419E+02 -0.22928151517E+02  0.18871845436E+03  0.19498623576E+03  0.00000000000E+00 0. -1.
         21    1    1    2  504  501  0.28969402964E+02  0.20944593428E+02  0.49810102670E+02  0.61310265290E+02  0.00000000000E+00 0. -1.
         21    1    1    2  505  503  0.41753696637E+02 -0.41986958105E+02  0.42091737566E+03  0.42506201073E+03  0.00000000000E+00 0. -1.
         -1    1    1    2    0  502 -0.11407372802E+03  0.43970516195E+02  0.14014775890E+02  0.12305541704E+03  0.00000000000E+00 0. -1.
<scales pt_clust_3="33.40356" pt_clust_4="35.74776" pt_clust_5="33.40356" pt_clust_6="107.97781"></scales>
<clustering>
<clus scale="   33.404">  3  5 -1 -1</clus>
<clus scale="   35.748">  2  4  1 -1</clus>
<clus scale="  107.978">  2  6  1 -1</clus>
<clus scale="  114.046">  1  3  2 -1</clus>
</clustering>
</event>
<event>
 6    0  0.3800129E+002  0.1189978E+03  0.7546771E-02  0.1244760E+00
          2   -1    0    0  505    0 -0.00000000000E+00  0.00000000000E+00  0.87094527744E+03  0.87094527744E+03  0.00000000000E+00 0. -1.
         21   -1    0    0  501  502  0.00000000000E+00 -0.00000000000E+00 -0.35435962485E+03  0.35435962485E+03  0.00000000000E+00 0. -1.
         21    1    1    2  503  502  0.11865306489E+03  0.64114300123E+02 -0.27243683811E+03  0.30399181576E+03  0.00000000000E+00 0. -1.
         21    1    1    2  504  503 -0.51519378845E+02 -0.77480438986E+02 -0.29382430364E+02  0.97574546046E+02  0.00000000000E+00 0. -1.
         21    1    1    2  505  504 -0.25995254466E+02  0.19866093405E+02  0.12926139832E+03  0.13333763166E+03  0.00000000000E+00 0. -1.
          2    1    1    2  501    0 -0.41138431580E+02 -0.64999545419E+01  0.68914352275E+03  0.69040090883E+03  0.00000000000E+00 0. -1.
<scales pt_clust_3="14000.00000" pt_clust_4="118.99777" pt_clust_5="32.71720" pt_clust_6="66.47778"></scales>
<clustering>
<clus scale="   32.717">  1  5  2 -1</clus>
<clus scale="   66.478">  1  6  2 -1</clus>
<clus scale="  118.998">  1  4  2 -1</clus>
<clus scale="  118.998">  2  3  1 -1</clus>
</clustering>
</event>
<event>
 6    0  0.3800129E+002  0.1270575E+03  0.7546771E-02  0.1231888E+00
          2   -1    0    0  502    0 -0.00000000000E+00  0.00000000000E+00  0.15820400467E+04  0.15820400467E+04  0.00000000000E+00 0. -1.
         21   -1    0    0  503  502  0.00000000000E+00 -0.00000000000E+00 -0.29612179283E+02  0.29612179283E+02  0.00000000000E+00 0. -1.
         21    1    1    2  503  504  0.39498025484E+02 -0.38596376151E+02  0.28194365068E+02  0.62005616606E+02  0.00000000000E+00 0. -1.
         21    1    1    2  504  505  0.27319692762E+02 -0.32168097599E+02  0.92402793977E+02  0.10158458766E+03  0.00000000000E+00 0. -1.
         21    1    1    2  505  501 -0.52582386044E+01 -0.50459339780E+02  0.13662696749E+03  0.14574197161E+03  0.00000000000E+00 0. -1.
          2    1    1    2  501    0 -0.61559479641E+02  0.12122381353E+03  0.12952037409E+04  0.13023200501E+04  0.00000000000E+00 0. -1.
<scales pt_clust_3="55.22476" pt_clust_4="34.14868" pt_clust_5="34.14868" pt_clust_6="121.41587"></scales>
<clustering>
<clus scale="   34.149">  4  5 -1 -1</clus>
<clus scale="   55.225">  2  3  1 -1</clus>
<clus scale="  121.416">  1  6  2 -1</clus>
<clus scale="   55.225">  2  3  1 -1</clus>
</clustering>
</event>
<event>
 6    0  0.3800129E+002  0.1195484E+03  0.7546771E-02  0.1243844E+00
         21   -1    0    0  501  502  0.00000000000E+00  0.00000000000E+00  0.11942409716E+03  0.11942409716E+03  0.00000000000E+00 0. -1.
          1   -1    0    0  505    0 -0.00000000000E+00 -0.00000000000E+00 -0.34179730164E+03  0.34179730164E+03  0.00000000000E+00 0.  1.
         21    1    1    2  503  502  0.35796764829E+02 -0.35407057893E+02  0.67400298387E+02  0.84130068011E+02  0.00000000000E+00 0. -1.
         21    1    1    2  504  503  0.28762696004E+02  0.31525335853E+02 -0.19409412762E+02  0.46881390613E+02  0.00000000000E+00 0. -1.
         21    1    1    2  505  504  0.59441884562E+02 -0.38317365958E+00 -0.51623421261E+02  0.78730312364E+02  0.00000000000E+00 0.  1.
          1    1    1    2  501    0 -0.12400134540E+03  0.42648957001E+01 -0.21874066885E+03  0.25147962781E+03  0.00000000000E+00 0.  1.
<scales pt_clust_3="50.34946" pt_clust_4="37.72849" pt_clust_5="37.72849" pt_clust_6="110.94621"></scales>
<clustering>
<clus scale="   37.728">  4  5 -1 -1</clus>
<clus scale="   50.349">  1  3  2 -1</clus>
<clus scale="  110.946">  2  6  1 -1</clus>
<clus scale="   50.349">  1  3  2 -1</clus>
</clustering>
</event>
<event>
 6    0  0.3800129E+002  0.1605694E+03  0.7546771E-02  0.1188055E+00
         21   -1    0    0  505  502  0.00000000000E+00  0.00000000000E+00  0.67058737960E+02  0.67058737960E+02  0.00000000000E+00 0. -1.
         -3   -1    0    0    0  501 -0.00000000000E+00 -0.00000000000E+00 -0.63452352961E+03  0.63452352961E+03  0.00000000000E+00 0. -1.
         21    1    1    2  503  502 -0.61592858893E+02 -0.79762578938E+02 -0.11146766288E+03  0.15026905581E+03  0.00000000000E+00 0. -1.
         21    1    1    2  504  503 -0.73484485706E+01 -0.71773474274E+02 -0.29849557964E+02  0.78079622286E+02  0.00000000000E+00 0.  1.
         21    1    1    2  505  501 -0.27116849759E+02  0.47409561627E+02 -0.62700744740E+02  0.83152711714E+02  0.00000000000E+00 0. -1.
         -3    1    1    2    0  504  0.96058157223E+02  0.10412649158E+03 -0.36344682606E+03  0.39008087776E+03  0.00000000000E+00 0. -1.
<scales pt_clust_3="50.73807" pt_clust_4="50.73807" pt_clust_5="54.61676" pt_clust_6="146.03441"></scales>
<clustering>
<clus scale="   54.617">  1  5  2 -1</clus>
<clus scale="   50.738">  3  4 -1 -1</clus>
<clus scale="  146.034">  2  6  1 -1</clus>
<clus scale="   54.617">  1  3  2 -1</clus>
</clustering>
</event>
<event>
 6    0  0.3800129E+002  0.1946502E+03  0.7546771E-02  0.1154333E+00
          2   -1    0    0  505    0 -0.00000000000E+00  0.00000000000E+00  0.13551338636E+03  0.13551338636E+03  0.00000000000E+00 0. -1.
         21   -1    0    0  501  502  0.00000000000E+00 -0.00000000000E+00 -0.77783832625E+03  0.77783832625E+03  0.00000000000E+00 0. -1.
         21    1    1    2  503  504  0.95914004871E+02 -0.70099600385E+02 -0.47760752188E+03  0.49216094447E+03  0.00000000000E+00 0. -1.
         21    1    1    2  504  502  0.34112903136E+02 -0.65119983211E+02 -0.19417213888E+03  0.20762254669E+03  0.00000000000E+00 0. -1.
         21    1    1    2  505  503  0.11985431383E+02  0.28884088671E+02 -0.79278407834E+01  0.32261305046E+02  0.00000000000E+00 0. -1.
          2    1    1    2  501    0 -0.14201233939E+03  0.10633549492E+03  0.37382561663E+02  0.18130691641E+03  0.00000000000E+00 0. -1.
<scales pt_clust_3="44.37169" pt_clust_4="44.37169" pt_clust_5="31.27205" pt_clust_6="186.20157"></scales>
<clustering>
<clus scale="   31.272">  1  5  2 -1</clus>
<clus scale="   44.372">  3  4 -1 -1</clus>
<clus scale="  186.202">  1  6  2 -1</clus>
<clus scale="  194.650">  2  3  1 -1</clus>
</clustering>
</event>
<event>
 6    0  0.3800129E+002  0.1081904E+03  0.7546771E-02  0.1263958E+00
          2   -1    0    0  504    0 -0.00000000000E+00  0.00000000000E+00  0.12009372757E+04  0.12009372757E+04  0.00000000000E+00 0. -1.
         21   -1    0    0  503  502  0.00000000000E+00 -0.00000000000E+00 -0.16553392488E+03  0.16553392488E+03  0.00000000000E+00 0.  1.
         21    1    1    2  503  501 -0.18014492526E+02  0.24100280505E+02 -0.15510251225E+01  0.30128908714E+02  0.00000000000E+00 0.  1.
         21    1    1    2  504  505  0.56762207497E+02  0.32421164650E+01  0.52544345524E+03  0.52851043904E+03  0.00000000000E+00 0. -1.
         21    1    1    2  505  502 -0.75302037551E+01  0.82754001458E+02 -0.13104234752E+03  0.15516773366E+03  0.00000000000E+00 0.  1.
          2    1    1    2  501    0 -0.31217511216E+02 -0.11009639843E+03  0.64255326826E+03  0.65266411922E+03  0.00000000000E+00 0. -1.
<scales pt_clust_3="30.08896" pt_clust_4="56.68514" pt_clust_5="108.19045" pt_clust_6="14000.00000"></scales>
<clustering>
<clus scale="   30.089">  2  3  1 -1</clus>
<clus scale="   56.685">  1  4  2 -1</clus>
<clus scale="  108.190">  2  5  1 -1</clus>
<clus scale="   30.089">  2  3  1 -1</clus>
</clustering>
</event>
<event>
 6    0  0.3800129E+002  0.1473514E+03  0.7546771E-02  0.1203766E+00
         -1   -1    0    0    0  501 -0.00000000000E+00  0.00000000000E+00  0.95491849045E+03  0.95491849045E+03  0.00000000000E+00 0. -1.
         21   -1    0    0  503  502  0.00000000000E+00 -0.00000000000E+00 -0.15632031823E+03  0.15632031823E+03  0.00000000000E+00 0. -1.
         21    1    1    2  503  505  0.31739632749E+02  0.11489227513E+02 -0.83141900499E+02  0.89732838216E+02  0.00000000000E+00 0. -1.
         21    1    1    2  504  502  0.67136664421E+02 -0.89321819433E+01  0.72896495391E+02  0.99503842258E+02  0.00000000000E+00 0. -1.
         21    1    1    2  505  501  0.61677601428E+02  0.40637018606E+01 -0.29434259251E+02  0.68461783561E+02  0.00000000000E+00 0. -1.
         -1    1    1    2    0  504 -0.16055389860E+03 -0.66207474300E+01  0.83827783657E+03  0.85354034465E+03  0.00000000000E+00 0. -1.
<scales pt_clust_3="33.75510" pt_clust_4="73.48915" pt_clust_5="14000.00000" pt_clust_6="147.35145"></scales>
<clustering>
<clus scale="   33.755">  2  3  1 -1</clus>
<clus scale="   73.489">  2  4  1 -1</clus>
<clus scale="  147.351">  1  6  2 -1</clus>
<clus scale="   33.755">  2  3  1 -1</clus>
</clustering>
</event>
<event>
 6    0  0.3800129E+002  0.1172275E+03  0.7546771E-02  0.1247742E+00
         21   -1    0    0  503  502  0.00000000000E+00  0.00000000000E+00  0.10410283909E+03  0.10410283909E+03  0.00000000000E+00 0. -1.
         -4   -1    0    0    0  501 -0.00000000000E+00 -0.00000000000E+00 -0.81261721299E+03  0.81261721299E+03  0.00000000000E+00 0.  1.
         21    1    1    2  503  505  0.94825541913E+02  0.10033639506E+02  0.44253472066E+02  0.10512338993E+03  0.00000000000E+00 0. -1.
         21    1    1    2  504  502  0.19861304677E+02  0.45799107475E+02 -0.12633150436E+02  0.51493942934E+02  0.00000000000E+00 0. -1.
         21    1    1    2  505  501 -0.55266152327E+02 -0.93784655463E+01 -0.93002247993E+02  0.10858969261E+03  0.00000000000E+00 0. -1.
         -4    1    1    2    0  504 -0.59420694262E+02 -0.46454281435E+02 -0.64713244755E+03  0.65151302661E+03  0.00000000000E+00 0.  1.
<scales pt_clust_3="14000.00000" pt_clust_4="49.92023" pt_clust_5="53.68683" pt_clust_6="117.22755"></scales>
<clustering>
<clus scale="   49.920">  1  4  2 -1</clus>
<clus scale="   53.687">  2  5  1 -1</clus>
<clus scale="  117.228">  2  6  1 -1</clus>
<clus scale="   49.920">  1  3  2 -1</clus>
</clustering>
</event>
<event>
 6    0  0.3800129E+002  0.1289192E+03  0.7546771E-02  0.1229068E+00
          1   -1    0    0  503    0 -0.00000000000E+00  0.00000000000E+00  0.74384783229E+03  0.74384783229E+03  0.00000000000E+00 0. -1.
         21   -1    0    0  501  502  0.00000000000E+00 -0.00000000000E+00 -0.79005839665E+02  0.79005839665E+02  0.00000000000E+00 0. -1.
         21    1    1    2  503  504 -0.60352433278E+01 -0.32390611930E+02  0.51028690648E+03  0.51134949186E+03  0.00000000000E+00 0. -1.
         21    1    1    2  504  505 -0.26271494295E+02  0.30896294554E+02  0.24401086040E+02  0.47330597182E+02  0.00000000000E+00 0. -1.
         21    1    1    2  505  502 -0.82510706666E+02  0.16059176977E+02 -0.74260164039E+01  0.84386370934E+02  0.00000000000E+00 0. -1.
          1    1    1    2  501    0  0.11481744429E+03 -0.14564859601E+02  0.13758001651E+03  0.17978721198E+03  0.00000000000E+00 0. -1.
<scales pt_clust_3="32.94808" pt_clust_4="36.72594" pt_clust_5="36.72594" pt_clust_6="116.60759"></scales>
<clustering>
<clus scale="   32.948">  1  3  2 -1</clus>
<clus scale="   36.726">  4  5 -1 -1</clus>
<clus scale="  116.608">  1  6  2 -1</clus>
<clus scale="  128.919">  2  3  1 -1</clus>
</clustering>
</event>
<event>
 6    0  0.3800129E+002  0.2006542E+03  0.7546771E-02  0.1149188E+00
         21   -1    0    0  505  502  0.00000000000E+00  0.00000000000E+00  0.15080696942E+03  0.15080696942E+03  0.00000000000E+00 0.  1.
          2   -1    0    0  503    0 -0.00000000000E+00 -0.00000000000E+00 -0.54705341554E+03  0.54705341554E+03  0.00000000000E+00 0. -1.
         21    1    1    2  503  502  0.86620876279E+02 -0.85721179490E+02 -0.58646969078E+02  0.13524335031E+03  0.00000000000E+00 0.  1.
         21    1    1    2  504  501 -0.75505458338E+02 -0.39047578965E+02 -0.13138228105E+02  0.86013956423E+02  0.00000000000E+00 0.  1.
         21    1    1    2  505  504 -0.19302634808E+02 -0.81621100083E+02  0.89988518361E+01  0.84353867864E+02  0.00000000000E+00 0.  1.
          2    1    1    2  501    0  0.81872168670E+01  0.20638985854E+03 -0.33346010077E+03  0.39224921036E+03  0.00000000000E+00 0. -1.
<scales pt_clust_3="121.86590" pt_clust_4="73.38840" pt_clust_5="73.38840" pt_clust_6="186.55706"></scales>
<clustering>
<clus scale="   73.388">  4  5 -1 -1</clus>
<clus scale="  121.866">  1  3  2 -1</clus>
<clus scale="  186.557">  2  6  1 -1</clus>
<clus scale="  121.866">  1  3  2 -1</clus>
</clustering>
</event>
<event>
 6    0  0.3800129E+002  0.1044111E+03  0.7546771E-02  0.1271284E+00
         21   -1    0    0  503  502  0.00000000000E+00  0.00000000000E+00  0.35807209107E+03  0.35807209107E+03  0.00000000000E+00 0.  1.
          1   -1    0    0  504    0 -0.00000000000E+00 -0.00000000000E+00 -0.85887288574E+03  0.85887288574E+03  0.00000000000E+00 0.  1.
         21    1    1    2  503  501 -0.10206112582E+02  0.39851445150E+02  0.13631939128E+02  0.43337422384E+02  0.00000000000E+00 0. -1.
         21    1    1    2  504  505 -0.31730537851E+02  0.38997138352E+02 -0.62579618393E+03  0.62781244624E+03  0.00000000000E+00 0.  1.
         21    1    1    2  505  502  0.25380601345E+02  0.62750476964E+02  0.30101714216E+03  0.30853381850E+03  0.00000000000E+00 0.  1.
          1    1    1    2  501    0  0.16556049089E+02 -0.14159906046E+03 -0.18965369203E+03  0.23726128970E+03  0.00000000000E+00 0.  1.
<scales pt_clust_3="41.13760" pt_clust_4="50.38956" pt_clust_5="104.41113" pt_clust_6="14000.00000"></scales>
<clustering>
<clus scale="   41.138">  1  3  2 -1</clus>
<clus scale="   50.390">  2  4  1 -1</clus>
<clus scale="  104.411">  1  5  2 -1</clus>
<clus scale="   41.138">  1  3  2 -1</clus>
</clustering>
</event>
<event>
 6    0  0.3800129E+002  0.1134376E+03  0.7546771E-02  0.1254333E+00
          2   -1    0    0  504    0 -0.00000000000E+00  0.00000000000E+00  0.15235943950E+04  0.15235943950E+04  0.00000000000E+00 0. -1.
         21   -1    0    0  503  502  0.00000000000E+00 -0.00000000000E+00 -0.46445352904E+02  0.46445352904E+02  0.00000000000E+00 0. -1.
         21    1    1    2  503  505 -0.34728454444E+02  0.57223025940E+02  0.52144494821E+02  0.84850389427E+02  0.00000000000E+00 0. -1.
         21    1    1    2  504  502 -0.31976672545E+02 -0.74341065791E+00  0.36250473497E+03  0.36391309831E+03  0.00000000000E+00 0. -1.
         21    1    1    2  505  501  0.63487455728E+02  0.60528207335E+02  0.47893943840E+02  0.99940736312E+02  0.00000000000E+00 0. -1.
          2    1    1    2  501    0  0.32176712608E+01 -0.11700782262E+03  0.10146058685E+04  0.10213355239E+04  0.00000000000E+00 0. -1.
<scales pt_clust_3="67.89837" pt_clust_4="31.98531" pt_clust_5="14000.00000" pt_clust_6="113.43764"></scales>
<clustering>
<clus scale="   31.985">  1  4  2 -1</clus>
<clus scale="   67.898">  2  3  1 -1</clus>
<clus scale="  113.438">  1  6  2 -1</clus>
<clus scale="   67.898">  2  3  1 -1</clus>
</clustering>
</event>
<event>
 6    0  0.3800129E+002  0.1087653E+03  0.7546771E-02  0.1262874E+00
         21   -1    0    0  505  502  0.00000000000E+00  0.00000000000E+00  0.17245047253E+03  0.17245047253E+03  0.00000000000E+00 0.  1.
          1   -1    0    0  504    0 -0.00000000000E+00 -0.00000000000E+00 -0.57018669962E+03  0.57018669962E+03  0.00000000000E+00 0. -1.
         21    1    1    2  503  502 -0.37938927063E+02 -0.37812176985E+02  0.11616901117E+03  0.12792326634E+03  0.00000000000E+00 0.  1.
         21    1    1    2  504  503 -0.10604534881E+03 -0.18542980805E+02 -0.11465669400E+03  0.15727560402E+03  0.00000000000E+00 0. -1.
         21    1    1    2  505  501  0.52239629926E+02 -0.78584442878E+01 -0.11797726245E+02  0.54128739371E+02  0.00000000000E+00 0.  1.
          1    1    1    2  501    0  0.91744645949E+02  0.64213602078E+02 -0.38745081801E+03  0.40330956241E+03  0.00000000000E+00 0. -1.
<scales pt_clust_3="44.35155" pt_clust_4="14000.00000" pt_clust_5="52.82740" pt_clust_6="108.76527"></scales>
<clustering>
<clus scale="   52.827">  1  5  2 -1</clus>
<clus scale="   44.352">  1  3  2 -1</clus>
<clus scale="  108.765">  2  6  1 -1</clus>
<clus scale="   52.827">  1  3  2 -1</clus>
</clustering>
</event>
<event>
 6    0  0.3800129E+002  0.1185180E+03  0.7546771E-02  0.1245562E+00
          2   -1    0    0  505    0 -0.00000000000E+00  0.00000000000E+00  0.54724555142E+02  0.54724555142E+02  0.00000000000E+00 0. -1.
         21   -1    0    0  504  502  0.00000000000E+00 -0.00000000000E+00 -0.91228805500E+03  0.91228805500E+03  0.00000000000E+00 0. -1.
         21    1    1    2  503  501 -0.31901093409E+02  0.26521709261E+02 -0.18280625566E+03  0.18745454897E+03  0.00000000000E+00 0.  1.
         21    1    1    2  504  503 -0.12035673771E+02  0.69888367579E+02 -0.61566209267E+03  0.61973305037E+03  0.00000000000E+00 0. -1.
         21    1    1    2  505  502  0.31190869643E+02  0.16017851168E+02 -0.18264297183E+02  0.39535129400E+02  0.00000000000E+00 0. -1.
          2    1    1    2  501    0  0.12745897537E+02 -0.11242792801E+03 -0.40830854341E+02  0.12028988140E+03  0.00000000000E+00 0. -1.
<scales pt_clust_3="39.81278" pt_clust_4="39.81278" pt_clust_5="35.06340" pt_clust_6="106.16848"></scales>
<clustering>
<clus scale="   35.063">  1  5  2 -1</clus>
<clus scale="   39.813">  3  4 -1 -1</clus>
<clus scale="  106.168">  1  6  2 -1</clus>
<clus scale="  118.518">  2  3  1 -1</clus>
</clustering>
</event>
<event>
 6    0  0.3800129E+002  0.8836033E+02  0.7546771E-02  0.1306872E+00
          2   -1    0    0  504    0 -0.00000000000E+00  0.00000000000E+00  0.47723003068E+04  0.47723003068E+04  0.00000000000E+00 0.  1.
         21   -1    0    0  505  502  0.00000000000E+00 -0.00000000000E+00 -0.50769523620E+02  0.50769523620E+02  0.00000000000E+00 0.  1.
         21    1    1    2  503  502  0.33147014254E+02  0.56049559835E+02 -0.23970320502E+02  0.69389148839E+02  0.00000000000E+00 0.  1.
         21    1    1    2  504  503 -0.57814901541E+01  0.43458728892E+02  0.20502370608E+04  0.20507057546E+04  0.00000000000E+00 0.  1.
         21    1    1    2  505  501 -0.24955732444E+02  0.29614363285E+02  0.16769487584E+03  0.17210860082E+03  0.00000000000E+00 0. -1.
          2    1    1    2  501    0 -0.24097916559E+01 -0.12912265201E+03  0.25275691671E+04  0.25308663262E+04  0.00000000000E+00 0.  1.
<scales pt_clust_3="88.36033" pt_clust_4="43.99927" pt_clust_5="38.72724" pt_clust_6="14000.00000"></scales>
<clustering>
<clus scale="   38.727">  2  5  1 -1</clus>
<clus scale="   43.999">  1  4  2 -1</clus>
<clus scale="   88.360">  2  3  1 -1</clus>
<clus scale="   38.727">  2  3  1 -1</clus>
</clustering>
</event>
<event>
 6    0  0.3800129E+002  0.1303378E+03  0.7546771E-02  0.1226955E+00
          1   -1    0    0  504    0 -0.00000000000E+00  0.00000000000E+00  0.47495079471E+03  0.47495079471E+03  0.00000000000E+00 0. -1.
         21   -1    0    0  503  502  0.00000000000E+00 -0.00000000000E+00 -0.56144618570E+03  0.56144618570E+03  0.00000000000E+00 0.  1.
         21    1    1    2  503  505  0.77420698794E+02  0.29827420128E+02 -0.40551563504E+03  0.41391613868E+03  0.00000000000E+00 0.  1.
         21    1    1    2  504  502 -0.55217778445E+02  0.11783293374E+01  0.10567159411E+02  0.56232164945E+02  0.00000000000E+00 0.  1.
         21    1    1    2  505  501 -0.11494209845E+02  0.98579546957E+02 -0.98015775094E+02  0.13948883864E+03  0.00000000000E+00 0.  1.
          1    1    1    2  501    0 -0.10708710504E+02 -0.12958529642E+03  0.40646885973E+03  0.42675983815E+03  0.00000000000E+00 0. -1.
<scales pt_clust_3="82.48183" pt_clust_4="55.23035" pt_clust_5="130.33781" pt_clust_6="14000.00000"></scales>
<clustering>
<clus scale="   55.230">  1  4  2 -1</clus>
<clus scale="   82.482">  2  3  1 -1</clus>
<clus scale="  130.338">  2  5  1 -1</clus>
<clus scale="   82.482">  2  3  1 -1</clus>
</clustering>
</event>
<event>
 6    0  0.3800129E+002  0.1153998E+03  0.7546771E-02  0.1250885E+00
          2   -1    0    0  503    0 -0.00000000000E+00  0.00000000000E+00  0.11226441646E+04  0.11226441646E+04  0.00000000000E+00 0. -1.
         21   -1    0    0  501  502  0.00000000000E+00 -0.00000000000E+00 -0.11563946971E+03  0.11563946971E+03  0.00000000000E+00 0. -1.
         21    1    1    2  503  505  0.77521673245E+01 -0.97718093662E+02  0.57929820782E+03  0.58753326333E+03  0.00000000000E+00 0. -1.
         21    1    1    2  504  502 -0.49996037843E+02 -0.33648936088E+02 -0.53299950837E+02  0.80453337153E+02  0.00000000000E+00 0. -1.
         21    1    1    2  505  504 -0.46733484399E+02 -0.13082483289E+02 -0.11086135460E+02  0.49780240382E+02  0.00000000000E+00 0. -1.
          2    1    1    2  501    0  0.88977354917E+02  0.14444951304E+03  0.49209257332E+03  0.52051679341E+03  0.00000000000E+00 0. -1.
<scales pt_clust_3="98.02511" pt_clust_4="32.04003" pt_clust_5="32.04003" pt_clust_6="109.73748"></scales>
<clustering>
<clus scale="   32.040">  4  5 -1 -1</clus>
<clus scale="   98.025">  1  3  2 -1</clus>
<clus scale="  109.737">  1  6  2 -1</clus>
<clus scale="  115.400">  2  3  1 -1</clus>
</clustering>
</event>
<event>
 6    0  0.3800129E+002  0.1750247E+03  0.7546771E-02  0.1172707E+00
         21   -1    0    0  503  502  0.00000000000E+00  0.00000000000E+00  0.72191592632E+02  0.72191592632E+02  0.00000000000E+00 0. -1.
          2   -1    0    0  504    0 -0.00000000000E+00 -0.00000000000E+00 -0.32217374019E+04  0.32217374019E+04  0.00000000000E+00 0.  1.
         21    1    1    2  503  505 -0.52386333922E+02  0.10476066583E+03  0.39662018161E+01  0.11719580131E+03  0.00000000000E+00 0. -1.
         21    1    1    2  504  502 -0.16527064574E+02 -0.34636807386E+02 -0.36367210142E+03  0.36569146783E+03  0.00000000000E+00 0. -1.
         21    1    1    2  505  501 -0.21086343613E+02  0.38509145478E+02 -0.46041825101E+02  0.63619476822E+02  0.00000000000E+00 0. -1.
          2    1    1    2  501    0  0.89999742109E+02 -0.10863300392E+03 -0.27437980845E+04  0.27474222486E+04  0.00000000000E+00 0.  1.
<scales pt_clust_3="43.16415" pt_clust_4="38.37776" pt_clust_5="43.16415" pt_clust_6="160.10718"></scales>
<clustering>
<clus scale="   38.378">  2  4  1 -1</clus>
<clus scale="   43.164">  3  5 -1 -1</clus>
<clus scale="  160.107">  2  6  1 -1</clus>
<clus scale="  175.025">  1  3  2 -1</clus>
</clustering>
</event>
<event>
 6    0  0.3800129E+002  0.1125023E+03  0.7546771E-02  0.1256005E+00
         21   -1    0    0  504  502  0.00000000000E+00  0.00000000000E+00  0.38493605444E+02  0.38493605444E+02  0.00000000000E+00 0. -1.
          2   -1    0    0  503    0 -0.00000000000E+00 -0.00000000000E+00 -0.21190523894E+04  0.21190523894E+04  0.00000000000E+00 0.  1.
         21    1    1    2  503  502  0.49589878612E+02  0.16912782231E+01 -0.41554118949E+03  0.41849312616E+03  0.00000000000E+00 0.  1.
         21    1    1    2  504  505  0.10603361906E+02  0.61397282665E+02 -0.21167520721E+02  0.65803658985E+02  0.00000000000E+00 0. -1.
         21    1    1    2  505  501 -0.97326703738E+02  0.30084129878E+02 -0.18697261637E+03  0.21292322889E+03  0.00000000000E+00 0. -1.
          2    1    1    2  501    0  0.37133463220E+02 -0.93172690766E+02 -0.14568774574E+04  0.14603259808E+04  0.00000000000E+00 0.  1.
<scales pt_clust_3="49.61871" pt_clust_4="62.57667" pt_clust_5="112.50226" pt_clust_6="14000.00000"></scales>
<clustering>
<clus scale="   49.619">  2  3  1 -1</clus>
<clus scale="   62.577">  1  4  2 -1</clus>
<clus scale="  112.502">  1  5  2 -1</clus>
<clus scale="   62.577">  1  3  2 -1</clus>
</clustering>
</event>
<event>
 6    0  0.3800129E+002  0.8216056E+02  0.7546771E-02  0.1323030E+00
         21   -1    0    0  505  502  0.00000000000E+00  0.00000000000E+00  0.21149581149E+03  0.21149581149E+03  0.00000000000E+00 0.  1.
         -1   -1    0    0    0  501 -0.00000000000E+00 -0.00000000000E+00 -0.28567861816E+03  0.28567861816E+03  0.00000000000E+00 0.  1.
         21    1    1    2  503  504  0.69736695683E+02 -0.41546635702E+02  0.85356255236E+02  0.11779227467E+03  0.00000000000E+00 0.  1.
         21    1    1    2  504  501 -0.40149963792E+02 -0.37497409958E+02 -0.19123252256E+03  0.19896721597E+03  0.00000000000E+00 0.  1.
         21    1    1    2  505  503  0.36560035705E+02  0.71490717632E+02  0.67429441647E+02  0.10485365287E+03  0.00000000000E+00 0.  1.
         -1    1    1    2    0  502 -0.66146767596E+02  0.75533280271E+01 -0.35735980998E+02  0.75561286156E+02  0.00000000000E+00 0.  1.
<scales pt_clust_3="82.16056" pt_clust_4="54.93701" pt_clust_5="69.73015" pt_clust_6="14000.00000"></scales>
<clustering>
<clus scale="   54.937">  2  4  1 -1</clus>
<clus scale="   69.730">  1  5  2 -1</clus>
<clus scale="   82.161">  1  3  2 -1</clus>
<clus scale="   69.730">  1  3  2 -1</clus>
</clustering>
</event>
<event>
 6    0  0.3800129E+002  0.1538069E+03  0.7546771E-02  0.1195872E+00
         21   -1    0    0  505  502  0.00000000000E+00  0.00000000000E+00  0.81121962368E+03  0.81121962368E+03  0.00000000000E+00 0. -1.
         -3   -1    0    0    0  501 -0.00000000000E+00 -0.00000000000E+00 -0.48044458576E+02  0.48044458576E+02  0.00000000000E+00 0. -1.
         21    1    1    2  503  502 -0.82421180070E+02  0.15465154473E+02  0.80617775533E+02  0.11632561050E+03  0.00000000000E+00 0.  1.
         21    1    1    2  504  501  0.61318072725E+02 -0.67738808584E+02  0.35021596386E+03  0.36193877048E+03  0.00000000000E+00 0. -1.
         21    1    1    2  505  504  0.56749371903E+02 -0.39645943178E+01  0.30290262719E+03  0.30819833026E+03  0.00000000000E+00 0. -1.
         -3    1    1    2    0  503 -0.35646264559E+02  0.56238248429E+02  0.29438798526E+02  0.72801371018E+02  0.00000000000E+00 0. -1.
<scales pt_clust_3="60.27207" pt_clust_4="150.06612" pt_clust_5="46.26949" pt_clust_6="60.27207"></scales>
<clustering>
<clus scale="   46.269">  4  5 -1 -1</clus>
<clus scale="   60.272">  3  6 -1 -1</clus>
<clus scale="  150.066">  1  4  2 -1</clus>
<clus scale="  150.066">  1  3  2 -1</clus>
</clustering>
</event>
<event>
 6    0  0.3800129E+002  0.1428856E+03  0.7546771E-02  0.1209498E+00
         -1   -1    0    0    0  501 -0.00000000000E+00  0.00000000000E+00  0.49578960753E+03  0.49578960753E+03  0.00000000000E+00 0. -1.
         21   -1    0    0  504  502  0.00000000000E+00 -0.00000000000E+00 -0.17283108100E+03  0.17283108100E+03  0.00000000000E+00 0. -1.
         21    1    1    2  503  505 -0.34350200253E+01 -0.45562023026E+02 -0.23238002031E+02  0.51261116290E+02  0.00000000000E+00 0.  1.
         21    1    1    2  504  501 -0.16676190570E+02  0.26731934494E+02  0.26686635088E+03  0.26871981856E+03  0.00000000000E+00 0. -1.
         21    1    1    2  505  502  0.54889790185E+02 -0.82576478552E+02 -0.99287348035E+02  0.14032013881E+03  0.00000000000E+00 0. -1.
         -1    1    1    2    0  503 -0.34778579590E+02  0.10140656708E+03  0.17861752572E+03  0.20831961487E+03  0.00000000000E+00 0. -1.
<scales pt_clust_3="34.67761" pt_clust_4="31.50701" pt_clust_5="34.67761" pt_clust_6="133.38836"></scales>
<clustering>
<clus scale="   31.507">  1  4  2 -1</clus>
<clus scale="   34.678">  3  5 -1 -1</clus>
<clus scale="  133.388">  1  6  2 -1</clus>
<clus scale="  142.886">  2  3  1 -1</clus>
</clustering>
</event>
<event>
 6    0  0.3800129E+002  0.9358441E+02  0.7546771E-02  0.1294397E+00
         21   -1    0    0  505  502  0.00000000000E+00  0.00000000000E+00  0.14400067448E+04  0.14400067448E+04  0.00000000000E+00 0.  1.
         -2   -1    0    0    0  501 -0.00000000000E+00 -0.00000000000E+00 -0.34731067049E+03  0.34731067049E+03  0.00000000000E+00 0.  1.
         21    1    1    2  503  502  0.58466651235E+01  0.12983957506E+03  0.13142902210E+04  0.13207010577E+04  0.00000000000E+00 0.  1.
         21    1    1    2  504  501  0.63417220725E+02 -0.64470535291E+01 -0.87596297893E+02  0.10833475799E+03  0.00000000000E+00 0.  1.
         21    1    1    2  505  504 -0.54373385202E+02 -0.47501095048E+02  0.93422792989E+02  0.11807047598E+03  0.00000000000E+00 0. -1.
         -2    1    1    2    0  503 -0.14890500647E+02 -0.75891426481E+02 -0.22742064177E+03  0.24021112365E+03  0.00000000000E+00 0.  1.
<scales pt_clust_3="14000.00000" pt_clust_4="63.74409" pt_clust_5="70.08682" pt_clust_6="93.58441"></scales>
<clustering>
<clus scale="   63.744">  2  4  1 -1</clus>
<clus scale="   70.087">  1  5  2 -1</clus>
<clus scale="   93.584">  2  6  1 -1</clus>
<clus scale="   70.087">  1  3  2 -1</clus>
</clustering>
</event>
<event>
 6    0  0.3903876E+002  0.1148214E+03  0.7546771E-02  0.1251893E+00
         21   -1    0    0  503  502  0.00000000000E+00  0.00000000000E+00  0.11717764471E+04  0.11717764471E+04  0.00000000000E+00 0.  1.
          2   -1    0    0  505    0 -0.00000000000E+00 -0.00000000000E+00 -0.22717436029E+04  0.22717436029E+04  0.00000000000E+00 0.  1.
         21    1    1    2  503  501 -0.54655230940E+02 -0.19452218334E+02  0.10819853572E+04  0.10835395222E+04  0.00000000000E+00 0.  1.
         21    1    1    2  504  502 -0.11923885929E+02 -0.76048066321E+02  0.69737099725E+02  0.10386891029E+03  0.00000000000E+00 0. -1.
         21    1    1    2  505  504  0.33387930438E+02 -0.12774092237E+01 -0.32645643206E+03  0.32816183158E+03  0.00000000000E+00 0.  1.
          2    1    1    2  501    0  0.33191186431E+02  0.96777693878E+02 -0.19252331807E+04  0.19279497859E+04  0.00000000000E+00 0.  1.
<scales pt_clust_3="58.00125" pt_clust_4="14000.00000" pt_clust_5="33.41236" pt_clust_6="114.82139"></scales>
<clustering>
<clus scale="   33.412">  2  5  1 -1</clus>
<clus scale="   58.001">  1  3  2 -1</clus>
<clus scale="  114.821">  2  6  1 -1</clus>
<clus scale="   58.001">  1  3  2 -1</clus>
</clustering>
</event>
<event>
 6    0  0.3800129E+002  0.5945192E+02  0.7546771E-02  0.1400146E+00
         21   -1    0    0  505  502  0.00000000000E+00  0.00000000000E+00  0.17703062599E+04  0.17703062599E+04  0.00000000000E+00 0.  1.
         -2   -1    0    0    0  501 -0.00000000000E+00 -0.00000000000E+00 -0.80558587184E+02  0.80558587184E+02  0.00000000000E+00 0. -1.
         21    1    1    2  503  501 -0.15101588325E+02  0.42853548856E+02  0.51556550334E+02  0.68720902947E+02  0.00000000000E+00 0.  1.
         21    1    1    2  504  502  0.37216585436E+02  0.22976571891E+02  0.21644876813E+03  0.22082360904E+03  0.00000000000E+00 0. -1.
         21    1    1    2  505  503 -0.91237194494E+02 -0.42110724760E+02  0.14702034996E+04  0.14736335600E+04  0.00000000000E+00 0.  1.
         -2    1    1    2    0  504  0.69122197384E+02 -0.23719395987E+02 -0.48461145375E+02  0.87686775105E+02  0.00000000000E+00 0. -1.
<scales pt_clust_3="45.82702" pt_clust_4="43.73782" pt_clust_5="59.45192" pt_clust_6="14000.00000"></scales>
<clustering>
<clus scale="   43.738">  1  4  2 -1</clus>
<clus scale="   45.827">  2  3  1 -1</clus>
<clus scale="   59.452">  1  5  2 -1</clus>
<clus scale="   43.738">  1  3  2 -1</clus>
</clustering>
</event>
<event>
 6    0  0.3800129E+002  0.3673984E+03  0.7546771E-02  0.1055692E+00
          1   -1    0    0  502    0 -0.00000000000E+00  0.00000000000E+00  0.17884729383E+04  0.17884729383E+04  0.00000000000E+00 0. -1.
         21   -1    0    0  503  502  0.00000000000E+00 -0.00000000000E+00 -0.45090126467E+03  0.45090126467E+03  0.00000000000E+00 0. -1.
         21    1    1    2  503  505  0.58313872091E+02 -0.16865148774E+01  0.40343646653E+02  0.70929273476E+02  0.00000000000E+00 0.  1.
         21    1    1    2  504  501  0.22016152565E+03  0.13767973989E+03 -0.34418756023E+03  0.43115181174E+03  0.00000000000E+00 0. -1.
         21    1    1    2  505  504  0.46692313961E+02  0.47333231377E+02  0.14431493045E+02  0.68035835904E+02  0.00000000000E+00 0.  1.
          1    1    1    2  501    0 -0.32516771170E+03 -0.18332645639E+03  0.16269840941E+04  0.16692572818E+04  0.00000000000E+00 0. -1.
<scales pt_clust_3="52.99726" pt_clust_4="367.39838" pt_clust_5="127.71447" pt_clust_6="14000.00000"></scales>
<clustering>
<clus scale="   52.997">  3  5 -1 -1</clus>
<clus scale="  127.714">  2  3  1 -1</clus>
<clus scale="  367.398">  2  4  1 -1</clus>
<clus scale="  127.714">  2  3  1 -1</clus>
</clustering>
</event>
<event>
 6    0  0.3800129E+002  0.1026941E+03  0.7546771E-02  0.1274730E+00
         21   -1    0    0  504  502  0.00000000000E+00  0.00000000000E+00  0.80250257386E+02  0.80250257386E+02  0.00000000000E+00 0.  1.
          2   -1    0    0  505    0 -0.00000000000E+00 -0.00000000000E+00 -0.32236198024E+04  0.32236198024E+04  0.00000000000E+00 0.  1.
         21    1    1    2  503  502 -0.10399873106E+03  0.48978623542E+02 -0.72862381471E+02  0.13610131616E+03  0.00000000000E+00 0. -1.
         21    1    1    2  504  501  0.29203342013E+02 -0.10723915277E+03 -0.22598385430E+02  0.11341850861E+03  0.00000000000E+00 0.  1.
         21    1    1    2  505  503  0.41456422481E+02 -0.41039872832E+02 -0.38616350427E+03  0.39054469419E+03  0.00000000000E+00 0. -1.
          2    1    1    2  501    0  0.33338966569E+02  0.99300402057E+02 -0.26617452739E+04  0.26638055409E+04  0.00000000000E+00 0.  1.
<scales pt_clust_3="102.69411" pt_clust_4="14000.00000" pt_clust_5="58.33443" pt_clust_6="94.41862"></scales>
<clustering>
<clus scale="   58.334">  2  5  1 -1</clus>
<clus scale="   94.419">  2  6  1 -1</clus>
<clus scale="  102.694">  2  3  1 -1</clus>
<clus scale="  102.694">  1  3  2 -1</clus>
</clustering>
</event>
<event>
 6    0  0.3800129E+002  0.6358524E+02  0.7546771E-02  0.1383374E+00
          2   -1    0    0  505    0 -0.00000000000E+00  0.00000000000E+00  0.70291509819E+03  0.70291509819E+03  0.00000000000E+00 0. -1.
         21   -1    0    0  504  502  0.00000000000E+00 -0.00000000000E+00 -0.25917805458E+04  0.25917805458E+04  0.00000000000E+00 0. -1.
         21    1    1    2  503  502  0.89534295863E+02 -0.41534330922E+01 -0.63823129501E+03  0.64449424130E+03  0.00000000000E+00 0. -1.
         21    1    1    2  504  501 -0.28264328760E+02  0.17355334340E+02 -0.19265145427E+04  0.19268000319E+04  0.00000000000E+00 0. -1.
         21    1    1    2  505  503  0.24969841880E+02 -0.43773436520E+02  0.10142292890E+02  0.51404988604E+02  0.00000000000E+00 0. -1.
          2    1    1    2  501    0 -0.86239808983E+02  0.30571535272E+02  0.66573809725E+03  0.67199638210E+03  0.00000000000E+00 0. -1.
<scales pt_clust_3="63.58524" pt_clust_4="33.16745" pt_clust_5="49.49497" pt_clust_6="14000.00000"></scales>
<clustering>
<clus scale="   33.167">  2  4  1 -1</clus>
<clus scale="   49.495">  1  5  2 -1</clus>
<clus scale="   63.585">  2  3  1 -1</clus>
<clus scale="   33.167">  2  3  1 -1</clus>
</clustering>
</event>
<event>
 6    0  0.3800129E+002  0.1113280E+03  0.7546771E-02  0.1258130E+00
          2   -1    0    0  503    0 -0.00000000000E+00  0.00000000000E+00  0.15461301083E+04  0.15461301083E+04  0.00000000000E+00 0. -1.
         21   -1    0    0  504  502  0.00000000000E+00 -0.00000000000E+00 -0.29943565261E+03  0.29943565261E+03  0.00000000000E+00 0.  1.
         21    1    1    2  503  505 -0.28171720735E+02 -0.15021210840E+02  0.22266065329E+03  0.22493787842E+03  0.00000000000E+00 0.  1.
         21    1    1    2  504  501  0.52947970168E+02  0.12057010408E+03 -0.24743089967E+03  0.28029036311E+03  0.00000000000E+00 0.  1.
         21    1    1    2  505  502 -0.83073218073E+01 -0.69178648209E+02  0.14452276084E+01  0.69690642460E+02  0.00000000000E+00 0.  1.
          2    1    1    2  501    0 -0.16468927626E+02 -0.36370245034E+02  0.12700194745E+04  0.12706468769E+04  0.00000000000E+00 0. -1.
<scales pt_clust_3="31.92621" pt_clust_4="111.32796" pt_clust_5="14000.00000" pt_clust_6="66.90164"></scales>
<clustering>
<clus scale="   31.926">  1  3  2 -1</clus>
<clus scale="   66.902">  1  6  2 -1</clus>
<clus scale="  111.328">  2  4  1 -1</clus>
<clus scale="  111.328">  2  3  1 -1</clus>
</clustering>
</event>
<event>
 6    0  0.3800129E+002  0.1202244E+03  0.7546771E-02  0.1242727E+00
          2   -1    0    0  505    0 -0.00000000000E+00  0.00000000000E+00  0.17173349954E+03  0.17173349954E+03  0.00000000000E+00 0. -1.
         21   -1    0    0  501  502  0.00000000000E+00 -0.00000000000E+00 -0.36006832016E+03  0.36006832016E+03  0.00000000000E+00 0.  1.
         21    1    1    2  503  504  0.89465311372E+02 -0.76041291787E+00 -0.12080283844E+03  0.15032613193E+03  0.00000000000E+00 0.  1.
         21    1    1    2  504  502  0.34863890650E+02  0.25090031446E+01 -0.15059669811E+03  0.15459997235E+03  0.00000000000E+00 0.  1.
         21    1    1    2  505  503  0.40576712745E+02  0.15984313780E+02  0.61160700038E+01  0.44038326677E+02  0.00000000000E+00 0.  1.
          2    1    1    2  501    0 -0.16490591477E+03 -0.17732904006E+02  0.76948645930E+02  0.18283738874E+03  0.00000000000E+00 0. -1.
<scales pt_clust_3="120.22444" pt_clust_4="34.95406" pt_clust_5="46.66992" pt_clust_6="14000.00000"></scales>
<clustering>
<clus scale="   34.954">  2  4  1 -1</clus>
<clus scale="   46.670">  1  5  2 -1</clus>
<clus scale="  120.224">  2  3  1 -1</clus>
<clus scale="   34.954">  2  3  1 -1</clus>
</clustering>
</event>
<event>
 6    0  0.3800129E+002  0.1145426E+03  0.7546771E-02  0.1252382E+00
         21   -1    0    0  504  502  0.00000000000E+00  0.00000000000E+00  0.45553219346E+03  0.45553219346E+03  0.00000000000E+00 0. -1.
          2   -1    0    0  503    0 -0.00000000000E+00 -0.00000000000E+00 -0.51890100890E+03  0.51890100890E+03  0.00000000000E+00 0. -1.
         21    1    1    2  503  502 -0.47704326836E+02 -0.59357639919E+02 -0.40488384143E+02  0.86245819992E+02  0.00000000000E+00 0. -1.
         21    1    1    2  504  505 -0.29442378996E+02  0.47164039720E+02  0.30199567027E+03  0.30707114027E+03  0.00000000000E+00 0. -1.
         21    1    1    2  505  501 -0.77796865957E+01  0.50075829506E+02  0.11808477772E+03  0.12849952122E+03  0.00000000000E+00 0.  1.
          2    1    1    2  501    0  0.84926392428E+02 -0.37882229308E+02 -0.44296087930E+03  0.45261672088E+03  0.00000000000E+00 0. -1.
<scales pt_clust_3="76.15138" pt_clust_4="46.89859" pt_clust_5="46.89859" pt_clust_6="103.47395"></scales>
<clustering>
<clus scale="   46.899">  4  5 -1 -1</clus>
<clus scale="   76.151">  2  3  1 -1</clus>
<clus scale="  103.474">  2  6  1 -1</clus>
<clus scale="  114.543">  1  3  2 -1</clus>
</clustering>
</event>
<event>
 6    0  0.3800129E+002  0.1326198E+03  0.7546771E-02  0.1223619E+00
          2   -1    0    0  503    0 -0.00000000000E+00  0.00000000000E+00  0.84658769798E+03  0.84658769798E+03  0.00000000000E+00 0. -1.
         21   -1    0    0  504  502  0.00000000000E+00 -0.00000000000E+00 -0.12766401227E+03  0.12766401227E+03  0.00000000000E+00 0.  1.
         21    1    1    2  503  505  0.21815251017E+02 -0.30492356293E+02  0.52926788422E+03  0.53059417848E+03  0.00000000000E+00 0. -1.
         21    1    1    2  504  501  0.93052144140E+00  0.87117034610E+02 -0.31341829312E+02  0.92588086998E+02  0.00000000000E+00 0.  1.
         21    1    1    2  505  502 -0.63004789089E+02  0.88973260708E+02  0.41961920254E+02  0.11681886543E+03  0.00000000000E+00 0.  1.
          2    1    1    2  501    0  0.40259016631E+02 -0.14559793902E+03  0.17903571056E+03  0.23425057934E+03  0.00000000000E+00 0. -1.
<scales pt_clust_3="37.49252" pt_clust_4="84.22308" pt_clust_5="132.61982" pt_clust_6="14000.00000"></scales>
<clustering>
<clus scale="   37.493">  1  3  2 -1</clus>
<clus scale="   84.223">  2  4  1 -1</clus>
<clus scale="  132.620">  1  5  2 -1</clus>
<clus scale="   84.223">  2  3  1 -1</clus>
</clustering>
</event>
<event>
 6    0  0.3800129E+002  0.6599781E+02  0.7546771E-02  0.1374257E+00
         21   -1    0    0  503  502  0.00000000000E+00  0.00000000000E+00  0.55792330882E+03  0.55792330882E+03  0.00000000000E+00 0. -1.
          2   -1    0    0  504    0 -0.00000000000E+00 -0.00000000000E+00 -0.15676761785E+04  0.15676761785E+04  0.00000000000E+00 0. -1.
         21    1    1    2  503  501  0.72622532752E+02 -0.27075625851E+02  0.17945233120E+03  0.19547445089E+03  0.00000000000E+00 0. -1.
         21    1    1    2  504  505  0.30623330026E-01  0.35247688707E+02 -0.21119704226E+02  0.41090660783E+02  0.00000000000E+00 0.  1.
         21    1    1    2  505  502 -0.25952725323E+02  0.63421807629E+02  0.35600927953E+03  0.36254444796E+03  0.00000000000E+00 0. -1.
          2    1    1    2  501    0 -0.46700430759E+02 -0.71593870485E+02 -0.15240947761E+04  0.15264899276E+04  0.00000000000E+00 0. -1.
<scales pt_clust_3="14000.00000" pt_clust_4="35.24770" pt_clust_5="65.99781" pt_clust_6="59.31282"></scales>
<clustering>
<clus scale="   35.248">  2  4  1 -1</clus>
<clus scale="   59.313">  2  6  1 -1</clus>
<clus scale="   65.998">  1  5  2 -1</clus>
<clus scale="   65.998">  1  3  2 -1</clus>
</clustering>
</event>
<event>
 6    0  0.3800129E+002  0.9208854E+02  0.7546771E-02  0.1297871E+00
         21   -1    0    0  501  502  0.00000000000E+00  0.00000000000E+00  0.23460624640E+03  0.23460624640E+03  0.00000000000E+00 0. -1.
          2   -1    0    0  503    0 -0.00000000000E+00 -0.00000000000E+00 -0.17180437757E+04  0.17180437757E+04  0.00000000000E+00 0. -1.
         21    1    1    2  503  504  0.30954387007E+02  0.21738881986E+01 -0.12616494966E+03  0.12992495676E+03  0.00000000000E+00 0.  1.
         21    1    1    2  504  505  0.43521257712E+02  0.12290339622E+03  0.11752428939E+03  0.17553148798E+03  0.00000000000E+00 0. -1.
         21    1    1    2  505  502 -0.23728532594E+02 -0.34039370310E+02  0.79356177627E+02  0.89549566821E+02  0.00000000000E+00 0.  1.
          2    1    1    2  501    0 -0.50747112125E+02 -0.91037914110E+02 -0.15541530466E+04  0.15576440105E+04  0.00000000000E+00 0. -1.
<scales pt_clust_3="31.03063" pt_clust_4="14000.00000" pt_clust_5="41.43125" pt_clust_6="92.08854"></scales>
<clustering>
<clus scale="   31.031">  2  3  1 -1</clus>
<clus scale="   41.431">  1  5  2 -1</clus>
<clus scale="   92.089">  2  6  1 -1</clus>
<clus scale="   41.431">  1  3  2 -1</clus>
</clustering>
</event>
<event>
 6    0  0.3800129E+002  0.2547090E+03  0.7546771E-02  0.1110364E+00
          3   -1    0    0  504    0 -0.00000000000E+00  0.00000000000E+00  0.18169290619E+03  0.18169290619E+03  0.00000000000E+00 0.  1.
         21   -1    0    0  503  502  0.00000000000E+00 -0.00000000000E+00 -0.12799375909E+04  0.12799375909E+04  0.00000000000E+00 0.  1.
         21    1    1    2  503  505  0.14167641588E+02  0.57078749338E+02 -0.40364827628E+03  0.40791008401E+03  0.00000000000E+00 0.  1.
         21    1    1    2  504  502 -0.56175023217E+01  0.35859085334E+02 -0.24282649865E+02  0.43670097525E+02  0.00000000000E+00 0. -1.
         21    1    1    2  505  501  0.67429368762E+02  0.17312101063E+03 -0.70693617094E+03  0.73094210022E+03  0.00000000000E+00 0.  1.
          3    1    1    2  501    0 -0.75979508029E+02 -0.26605884530E+03  0.36622412325E+02  0.27910821537E+03  0.00000000000E+00 0.  1.
<scales pt_clust_3="35.29981" pt_clust_4="36.29642" pt_clust_5="35.29981" pt_clust_6="246.86073"></scales>
<clustering>
<clus scale="   35.300">  3  5 -1 -1</clus>
<clus scale="   36.296">  1  4  2 -1</clus>
<clus scale="  246.861">  1  6  2 -1</clus>
<clus scale="  254.709">  2  3  1 -1</clus>
</clustering>
</event>
<event>
 6    0  0.3800129E+002  0.1312738E+03  0.7546771E-02  0.1225578E+00
         21   -1    0    0  504  502  0.00000000000E+00  0.00000000000E+00  0.35504918541E+03  0.35504918541E+03  0.00000000000E+00 0.  1.
         -2   -1    0    0    0  501 -0.00000000000E+00 -0.00000000000E+00 -0.39455193009E+04  0.39455193009E+04  0.00000000000E+00 0.  1.
         21    1    1    2  503  501  0.14079647166E+03  0.35638248507E+02 -0.84966984884E+03  0.86199337771E+03  0.00000000000E+00 0.  1.
         21    1    1    2  504  503 -0.30409034630E+02  0.28286933522E+02  0.34217010613E+03  0.34468136231E+03  0.00000000000E+00 0.  1.
         21    1    1    2  505  502  0.15799081716E+02 -0.41283843357E+02 -0.11572195843E+03  0.12387710994E+03  0.00000000000E+00 0.  1.
         -2    1    1    2    0  505 -0.12618651875E+03 -0.22641338672E+02 -0.29672484143E+04  0.29700166363E+04  0.00000000000E+00 0.  1.
<scales pt_clust_3="14000.00000" pt_clust_4="41.53143" pt_clust_5="31.77766" pt_clust_6="131.27379"></scales>
<clustering>
<clus scale="   41.531">  1  4  2 -1</clus>
<clus scale="   31.778">  1  5  2 -1</clus>
<clus scale="  131.274">  2  6  1 -1</clus>
<clus scale="   41.531">  1  3  2 -1</clus>
</clustering>
</event>
<event>
 6    0  0.3800129E+002  0.1216678E+03  0.7546771E-02  0.1240371E+00
         21   -1    0    0  505  502  0.00000000000E+00  0.00000000000E+00  0.11520521317E+03  0.11520521317E+03  0.00000000000E+00 0. -1.
          4   -1    0    0  503    0 -0.00000000000E+00 -0.00000000000E+00 -0.84208626441E+03  0.84208626441E+03  0.00000000000E+00 0.  1.
         21    1    1    2  503  502 -0.43469204330E+02 -0.43688484988E+02 -0.12884651992E+02  0.62962446764E+02  0.00000000000E+00 0.  1.
         21    1    1    2  504  501 -0.82380111425E+02 -0.83358311812E+01 -0.22137359634E+03  0.23635193673E+03  0.00000000000E+00 0. -1.
         21    1    1    2  505  504  0.17323488544E+03  0.21074852213E+02 -0.12966440444E+02  0.17499315274E+03  0.00000000000E+00 0. -1.
          4    1    1    2  501    0 -0.47385569686E+02  0.30949463956E+02 -0.47965636246E+03  0.48298394133E+03  0.00000000000E+00 0.  1.
<scales pt_clust_3="63.10652" pt_clust_4="121.66783" pt_clust_5="14000.00000" pt_clust_6="56.59736"></scales>
<clustering>
<clus scale="   56.597">  2  6  1 -1</clus>
<clus scale="   63.107">  1  3  2 -1</clus>
<clus scale="  121.668">  2  4  1 -1</clus>
<clus scale="   63.107">  1  3  2 -1</clus>
</clustering>
</event>
<event>
 6    0  0.3800129E+002  0.2439138E+03  0.7546771E-02  0.1117213E+00
          2   -1    0    0  505    0 -0.00000000000E+00  0.00000000000E+00  0.15814013363E+04  0.15814013363E+04  0.00000000000E+00 0.  1.
         21   -1    0    0  501  502  0.00000000000E+00 -0.00000000000E+00 -0.56671342881E+03  0.56671342881E+03  0.00000000000E+00 0.  1.
         21    1    1    2  503  504  0.75782708816E+02  0.15700584902E+03 -0.32475661072E+03  0.36859288082E+03  0.00000000000E+00 0.  1.
         21    1    1    2  504  502 -0.22056418426E+01  0.67691551610E+02 -0.17955382710E+03  0.19190254777E+03  0.00000000000E+00 0. -1.
         21    1    1    2  505  503  0.88856538008E+02 -0.68000269548E+02  0.97789459231E+02  0.14860114179E+03  0.00000000000E+00 0. -1.
          2    1    1    2  501    0 -0.16243360498E+03 -0.15669713108E+03  0.14212088860E+04  0.14390181947E+04  0.00000000000E+00 0.  1.
<scales pt_clust_3="39.04167" pt_clust_4="39.04167" pt_clust_5="111.89067" pt_clust_6="235.73361"></scales>
<clustering>
<clus scale="   39.042">  3  4 -1 -1</clus>
<clus scale="  111.891">  1  5  2 -1</clus>
<clus scale="  235.734">  1  6  2 -1</clus>
<clus scale="  243.914">  2  3  1 -1</clus>
</clustering>
</event>
<event>
 6    0  0.3800129E+002  0.1571554E+03  0.7546771E-02  0.1191946E+00
          1   -1    0    0  504    0 -0.00000000000E+00  0.00000000000E+00  0.53153481866E+03  0.53153481866E+03  0.00000000000E+00 0. -1.
         21   -1    0    0  501  502  0.00000000000E+00 -0.00000000000E+00 -0.13760644155E+03  0.13760644155E+03  0.00000000000E+00 0. -1.
         21    1    1    2  503  505  0.56577805363E+02  0.11090111852E+02  0.35771228478E+01  0.57765339508E+02  0.00000000000E+00 0.  1.
         21    1    1    2  504  503  0.52076053556E+02  0.19883031655E+02  0.54516482668E+02  0.77969847917E+02  0.00000000000E+00 0. -1.
         21    1    1    2  505  502  0.30046949038E+02  0.62690931428E+02 -0.67393595073E+02  0.96823905553E+02  0.00000000000E+00 0. -1.
          1    1    1    2  501    0 -0.13870080796E+03 -0.93664074934E+02  0.40322836667E+03  0.43658216723E+03  0.00000000000E+00 0. -1.
<scales pt_clust_3="46.99401" pt_clust_4="46.99401" pt_clust_5="69.51958" pt_clust_6="149.71188"></scales>
<clustering>
<clus scale="   46.994">  3  4 -1 -1</clus>
<clus scale="   69.520">  2  5  1 -1</clus>
<clus scale="  149.712">  1  6  2 -1</clus>
<clus scale="   69.520">  2  3  1 -1</clus>
</clustering>
</event>
<event>
 6    0  0.3800129E+002  0.8724782E+02  0.7546771E-02  0.1309657E+00
          2   -1    0    0  504    0 -0.00000000000E+00  0.00000000000E+00  0.39998647231E+02  0.39998647231E+02  0.00000000000E+00 0.  1.
         21   -1    0    0  505  502  0.00000000000E+00 -0.00000000000E+00 -0.85040801575E+03  0.85040801575E+03  0.00000000000E+00 0.  1.
         21    1    1    2  503  502 -0.49230979215E+02  0.12426350359E+02 -0.18944656101E+03  0.19613287072E+03  0.00000000000E+00 0.  1.
         21    1    1    2  504  503 -0.32553755076E+02 -0.72041775440E+00  0.77097737721E+01  0.33462017018E+02  0.00000000000E+00 0.  1.
         21    1    1    2  505  501 -0.16391371386E+02  0.58596032674E+02 -0.37454223504E+03  0.37945231312E+03  0.00000000000E+00 0.  1.
          2    1    1    2  501    0  0.98176105677E+02 -0.70301965278E+02 -0.25413034624E+03  0.28135946213E+03  0.00000000000E+00 0.  1.
<scales pt_clust_3="56.20022" pt_clust_4="32.56173" pt_clust_5="14000.00000" pt_clust_6="87.24782"></scales>
<clustering>
<clus scale="   32.562">  1  4  2 -1</clus>
<clus scale="   56.200">  2  3  1 -1</clus>
<clus scale="   87.248">  1  6  2 -1</clus>
<clus scale="   56.200">  2  3  1 -1</clus>
</clustering>
</event>
<event>
 6    0  0.3800129E+002  0.1241929E+03  0.7546771E-02  0.1236336E+00
         21   -1    0    0  504  502  0.00000000000E+00  0.00000000000E+00  0.59325659176E+03  0.59325659176E+03  0.00000000000E+00 0. -1.
          3   -1    0    0  505    0 -0.00000000000E+00 -0.00000000000E+00 -0.40130921163E+03  0.40130921163E+03  0.00000000000E+00 0. -1.
         21    1    1    2  503  502  0.35456453076E+02  0.25570375061E+02  0.24877023698E+03  0.25258193710E+03  0.00000000000E+00 0. -1.
         21    1    1    2  504  501  0.11998789978E+02 -0.34169782975E+02  0.26212858991E+03  0.26461848514E+03  0.00000000000E+00 0. -1.
         21    1    1    2  505  503 -0.46979064835E+02 -0.11668022426E+03  0.91937644087E+01  0.12611832765E+03  0.00000000000E+00 0. -1.
          3    1    1    2  501    0 -0.47617821881E+00  0.12527963217E+03 -0.32814521116E+03  0.35124705349E+03  0.00000000000E+00 0. -1.
<scales pt_clust_3="44.57601" pt_clust_4="36.21526" pt_clust_5="124.19287" pt_clust_6="14000.00000"></scales>
<clustering>
<clus scale="   36.215">  1  4  2 -1</clus>
<clus scale="   44.576">  1  3  2 -1</clus>
<clus scale="  124.193">  1  5  2 -1</clus>
<clus scale="   36.215">  1  3  2 -1</clus>
</clustering>
</event>
<event>
 6    0  0.3800129E+002  0.7849208E+02  0.7546771E-02  0.1333386E+00
          2   -1    0    0  504    0 -0.00000000000E+00  0.00000000000E+00  0.28117562336E+04  0.28117562336E+04  0.00000000000E+00 0. -1.
         21   -1    0    0  505  502  0.00000000000E+00 -0.00000000000E+00 -0.12398252142E+03  0.12398252142E+03  0.00000000000E+00 0.  1.
         21    1    1    2  503  502  0.68306804679E+02 -0.71144142425E+02 -0.88740125338E+02  0.13267297544E+03  0.00000000000E+00 0.  1.
         21    1    1    2  504  503 -0.30010746393E+02 -0.57696773466E+01  0.15216884143E+03  0.15520724976E+03  0.00000000000E+00 0. -1.
         21    1    1    2  505  501 -0.45413407447E+02 -0.38290433601E+01  0.35563300922E+02  0.57808195972E+02  0.00000000000E+00 0.  1.
          2    1    1    2  501    0  0.71173491614E+01  0.80742863132E+02  0.25887816951E+04  0.25900503338E+04  0.00000000000E+00 0. -1.
<scales pt_clust_3="14000.00000" pt_clust_4="30.56034" pt_clust_5="46.10833" pt_clust_6="78.49208"></scales>
<clustering>
<clus scale="   30.560">  1  4  2 -1</clus>
<clus scale="   46.108">  2  5  1 -1</clus>
<clus scale="   78.492">  1  6  2 -1</clus>
<clus scale="   46.108">  2  3  1 -1</clus>
</clustering>
</event>
<event>
 6    0  0.3800129E+002  0.1450983E+03  0.7546771E-02  0.1206629E+00
         21   -1    0    0  504  502  0.00000000000E+00  0.00000000000E+00  0.74203387731E+02  0.74203387731E+02  0.00000000000E+00 0.  1.
          1   -1    0    0  505    0 -0.00000000000E+00 -0.00000000000E+00 -0.13617521170E+04  0.13617521170E+04  0.00000000000E+00 0.  1.
         21    1    1    2  503  501 -0.43430559775E+02  0.39143804511E+02 -0.36909586851E+03  0.37369802128E+03  0.00000000000E+00 0.  1.
         21    1    1    2  504  503  0.59298367565E+01 -0.64359513327E+02 -0.33252542407E+02  0.72684534092E+02  0.00000000000E+00 0.  1.
         21    1    1    2  505  502  0.11620842130E+03 -0.87046386675E+01 -0.17725225539E+02  0.11787430396E+03  0.00000000000E+00 0.  1.
          1    1    1    2  501    0 -0.78707698277E+02  0.33920347484E+02 -0.86747509284E+03  0.87169864543E+03  0.00000000000E+00 0.  1.
<scales pt_clust_3="33.53986" pt_clust_4="64.63211" pt_clust_5="139.30016" pt_clust_6="33.53986"></scales>
<clustering>
<clus scale="   33.540">  3  6 -1 -1</clus>
<clus scale="   64.632">  1  4  2 -1</clus>
<clus scale="  139.300">  1  5  2 -1</clus>
<clus scale="   64.632">  1  3  2 -1</clus>
</clustering>
</event>
<event>
 6    0  0.3800129E+002  0.8420611E+02  0.7546771E-02  0.1317522E+00
          2   -1    0    0  504    0 -0.00000000000E+00  0.00000000000E+00  0.22096876590E+03  0.22096876590E+03  0.00000000000E+00 0. -1.
         21   -1    0    0  505  502  0.00000000000E+00 -0.00000000000E+00 -0.61586357661E+03  0.61586357661E+03  0.00000000000E+00 0.  1.
         21    1    1    2  503  502 -0.71758230770E+02 -0.15437178195E+02 -0.52353417343E+03  0.52865450051E+03  0.00000000000E+00 0.  1.
         21    1    1    2  504  503  0.42814857641E+02  0.38260547372E+02 -0.97832866283E+01  0.58246838689E+02  0.00000000000E+00 0.  1.
         21    1    1    2  505  501 -0.10369053230E+02  0.47760047263E+02 -0.33987886106E+02  0.59529117089E+02  0.00000000000E+00 0.  1.
          2    1    1    2  501    0  0.39312426358E+02 -0.70583416441E+02  0.17241053546E+03  0.19040188623E+03  0.00000000000E+00 0. -1.
<scales pt_clust_3="84.20611" pt_clust_4="58.91419" pt_clust_5="48.87269" pt_clust_6="14000.00000"></scales>
<clustering>
<clus scale="   48.873">  2  5  1 -1</clus>
<clus scale="   58.914">  1  4  2 -1</clus>
<clus scale="   84.206">  2  3  1 -1</clus>
<clus scale="   48.873">  2  3  1 -1</clus>
</clustering>
</event>
<event>
 6    0  0.3800129E+002  0.1531024E+03  0.7546771E-02  0.1196712E+00
         21   -1    0    0  503  502  0.00000000000E+00  0.00000000000E+00  0.10798303396E+03  0.10798303396E+03  0.00000000000E+00 0. -1.
          2   -1    0    0  504    0 -0.00000000000E+00 -0.00000000000E+00 -0.12223959004E+04  0.12223959004E+04  0.00000000000E+00 0. -1.
         21    1    1    2  503  501 -0.10190379969E+03  0.82700933291E+02  0.14622271211E+02  0.13205165494E+03  0.00000000000E+00 0. -1.
         21    1    1    2  504  505 -0.25202901626E+02  0.12593088494E+03 -0.38485136003E+03  0.40571460826E+03  0.00000000000E+00 0. -1.
         21    1    1    2  505  502  0.44499538479E+02 -0.42350115111E+02 -0.69085567293E+02  0.92447589384E+02  0.00000000000E+00 0. -1.
          2    1    1    2  501    0  0.82607162834E+02 -0.16628170313E+03 -0.67509821033E+03  0.70016508178E+03  0.00000000000E+00 0. -1.
<scales pt_clust_3="84.68402" pt_clust_4="153.10238" pt_clust_5="61.43078" pt_clust_6="14000.00000"></scales>
<clustering>
<clus scale="   61.431">  1  5  2 -1</clus>
<clus scale="   84.684">  1  3  2 -1</clus>
<clus scale="  153.102">  2  4  1 -1</clus>
<clus scale="   61.431">  1  3  2 -1</clus>
</clustering>
</event>
<event>
 6    0  0.3800129E+002  0.6998327E+02  0.7546771E-02  0.1360150E+00
         21   -1    0    0  504  502  0.00000000000E+00  0.00000000000E+00  0.74884897762E+02  0.74884897762E+02  0.00000000000E+00 0. -1.
          2   -1    0    0  505    0 -0.00000000000E+00 -0.00000000000E+00 -0.89583110183E+03  0.89583110183E+03  0.00000000000E+00 0. -1.
         21    1    1    2  503  502  0.31205758817E+02  0.98659030797E+02 -0.10062184036E+00  0.10347663440E+03  0.00000000000E+00 0. -1.
         21    1    1    2  504  501 -0.53065501155E+02 -0.28562550595E+02 -0.36083948148E+02  0.70241141956E+02  0.00000000000E+00 0. -1.
         21    1    1    2  505  503 -0.45907720277E+02 -0.50928785123E+02 -0.40447266592E+03  0.41024309551E+03  0.00000000000E+00 0. -1.
          2    1    1    2  501    0  0.67767462614E+02 -0.19167695079E+02 -0.38028896815E+03  0.38675512773E+03  0.00000000000E+00 0. -1.
<scales pt_clust_3="14000.00000" pt_clust_4="60.26414" pt_clust_5="69.98327" pt_clust_6="68.04537"></scales>
<clustering>
<clus scale="   60.264">  1  4  2 -1</clus>
<clus scale="   68.045">  2  6  1 -1</clus>
<clus scale="   69.983">  2  5  1 -1</clus>
<clus scale="   60.264">  1  3  2 -1</clus>
</clustering>
</event>
<event>
 6    0  0.3800129E+002  0.2199399E+03  0.7546771E-02  0.1133928E+00
         21   -1    0    0  504  502  0.00000000000E+00  0.00000000000E+00  0.14040225333E+04  0.14040225333E+04  0.00000000000E+00 0.  1.
         -3   -1    0    0    0  501 -0.00000000000E+00 -0.00000000000E+00 -0.47068223291E+02  0.47068223291E+02  0.00000000000E+00 0.  1.
         21    1    1    2  503  501 -0.35800874731E+02  0.40299451875E+02  0.12315621682E+03  0.13443661032E+03  0.00000000000E+00 0.  1.
         21    1    1    2  504  505 -0.86324933891E+02 -0.26698319069E+02  0.41423642674E+03  0.42397713581E+03  0.00000000000E+00 0.  1.
         21    1    1    2  505  503 -0.11137264736E+03 -0.32252599372E+02  0.33430672217E+03  0.35384330040E+03  0.00000000000E+00 0.  1.
         -3    1    1    2    0  502  0.23349845599E+03  0.18651466567E+02  0.48525494428E+03  0.53883371006E+03  0.00000000000E+00 0.  1.
<scales pt_clust_3="53.90499" pt_clust_4="40.72525" pt_clust_5="40.72525" pt_clust_6="215.04721"></scales>
<clustering>
<clus scale="   40.725">  4  5 -1 -1</clus>
<clus scale="   53.905">  2  3  1 -1</clus>
<clus scale="  215.047">  2  6  1 -1</clus>
<clus scale="  219.940">  1  3  2 -1</clus>
</clustering>
</event>
<event>
 6    0  0.3800129E+002  0.1367962E+03  0.7546771E-02  0.1217706E+00
         21   -1    0    0  503  502  0.00000000000E+00  0.00000000000E+00  0.40407720443E+03  0.40407720443E+03  0.00000000000E+00 0.  1.
         -3   -1    0    0    0  501 -0.00000000000E+00 -0.00000000000E+00 -0.37356923862E+03  0.37356923862E+03  0.00000000000E+00 0. -1.
         21    1    1    2  503  501  0.82580341767E+01 -0.37102001765E+02 -0.13486509940E+02  0.40331620520E+02  0.00000000000E+00 0. -1.
         21    1    1    2  504  505  0.48205104018E+02  0.41990485422E+02  0.14661307500E+03  0.15994476134E+03  0.00000000000E+00 0.  1.
         21    1    1    2  505  502  0.71048203670E+02  0.11147464456E+02  0.21927619203E+03  0.23076863219E+03  0.00000000000E+00 0.  1.
         -3    1    1    2    0  504 -0.12751134186E+03 -0.16035948114E+02 -0.32189479128E+03  0.34660142901E+03  0.00000000000E+00 0. -1.
<scales pt_clust_3="38.00992" pt_clust_4="39.17665" pt_clust_5="39.17665" pt_clust_6="130.29269"></scales>
<clustering>
<clus scale="   38.010">  2  3  1 -1</clus>
<clus scale="   39.177">  4  5 -1 -1</clus>
<clus scale="  130.293">  2  6  1 -1</clus>
<clus scale="  136.796">  1  3  2 -1</clus>
</clustering>
</event>
<event>
 6    0  0.3800129E+002  0.9875795E+02  0.7546771E-02  0.1282930E+00
          1   -1    0    0  505    0 -0.00000000000E+00  0.00000000000E+00  0.42107946288E+03  0.42107946288E+03  0.00000000000E+00 0.  1.
         21   -1    0    0  501  502  0.00000000000E+00 -0.00000000000E+00 -0.11307717670E+03  0.11307717670E+03  0.00000000000E+00 0.  1.
         21    1    1    2  503  504 -0.52001741561E+02  0.70255710685E+02 -0.36930553567E+02  0.94888944541E+02  0.00000000000E+00 0.  1.
         21    1    1    2  504  502  0.18859407396E+02  0.27260536518E+02 -0.20987077912E+02  0.39233551176E+02  0.00000000000E+00 0. -1.
         21    1    1    2  505  503  0.47002768899E+02  0.12963446149E+02  0.87367583796E+02  0.10005201606E+03  0.00000000000E+00 0.  1.
          1    1    1    2  501    0 -0.13860434734E+02 -0.11047969335E+03  0.27855233386E+03  0.29998212779E+03  0.00000000000E+00 0.  1.
<scales pt_clust_3="98.75795" pt_clust_4="33.14836" pt_clust_5="50.72756" pt_clust_6="14000.00000"></scales>
<clustering>
<clus scale="   33.148">  2  4  1 -1</clus>
<clus scale="   50.728">  1  5  2 -1</clus>
<clus scale="   98.758">  2  3  1 -1</clus>
<clus scale="   33.148">  2  3  1 -1</clus>
</clustering>
</event>
<event>
 6    0  0.3800129E+002  0.7635401E+02  0.7546771E-02  0.1339729E+00
         21   -1    0    0  505  502  0.00000000000E+00  0.00000000000E+00  0.14153623716E+03  0.14153623716E+03  0.00000000000E+00 0.  1.
          2   -1    0    0  503    0 -0.00000000000E+00 -0.00000000000E+00 -0.18219117963E+04  0.18219117963E+04  0.00000000000E+00 0. -1.
         21    1    1    2  503  502 -0.19628372571E+02  0.74576794806E+02 -0.16609182988E+03  0.18312145501E+03  0.00000000000E+00 0. -1.
         21    1    1    2  504  501  0.42384381892E+02 -0.39540767661E+02  0.39766041284E+02  0.70293998143E+02  0.00000000000E+00 0.  1.
         21    1    1    2  505  504  0.39839189121E+02  0.86389853635E+01  0.71707349640E+02  0.82484768596E+02  0.00000000000E+00 0.  1.
          2    1    1    2  501    0 -0.62595198442E+02 -0.43675012508E+02 -0.16257571202E+04  0.16275478117E+04  0.00000000000E+00 0. -1.
<scales pt_clust_3="14000.00000" pt_clust_4="76.35401" pt_clust_5="40.76510" pt_clust_6="75.80372"></scales>
<clustering>
<clus scale="   40.765">  1  5  2 -1</clus>
<clus scale="   75.804">  2  6  1 -1</clus>
<clus scale="   76.354">  1  4  2 -1</clus>
<clus scale="   40.765">  1  3  2 -1</clus>
</clustering>
</event>
<event>
 6    0  0.4626967E+002  0.1033541E+03  0.7546771E-02  0.1273397E+00
         21   -1    0    0  504  502  0.00000000000E+00  0.00000000000E+00  0.31003532338E+03  0.31003532338E+03  0.00000000000E+00 0. -1.
          1   -1    0    0  505    0 -0.00000000000E+00 -0.00000000000E+00 -0.14297609563E+04  0.14297609563E+04  0.00000000000E+00 0. -1.
         21    1    1    2  503  502 -0.18786245400E+02 -0.82572720132E+02  0.28933781837E+03  0.30147562135E+03  0.00000000000E+00 0. -1.
         21    1    1    2  504  501 -0.31917441109E+02 -0.80599717732E+01 -0.15839578662E+02  0.36531882570E+02  0.00000000000E+00 0. -1.
         21    1    1    2  505  503  0.33566087288E+02 -0.11068418389E+02 -0.14241832103E+03  0.14673844168E+03  0.00000000000E+00 0. -1.
          1    1    1    2  501    0  0.17137599221E+02  0.10170111029E+03 -0.12508055516E+04  0.12550503341E+04  0.00000000000E+00 0. -1.
<scales pt_clust_3="103.35414" pt_clust_4="32.91939" pt_clust_5="35.14386" pt_clust_6="14000.00000"></scales>
<clustering>
<clus scale="   32.919">  1  4  2 -1</clus>
<clus scale="   35.144">  2  5  1 -1</clus>
<clus scale="  103.354">  1  3  2 -1</clus>
<clus scale="   32.919">  1  3  2 -1</clus>
</clustering>
</event>
<event>
 6    0  0.3800129E+002  0.1217237E+03  0.7546771E-02  0.1240280E+00
         21   -1    0    0  504  502  0.00000000000E+00  0.00000000000E+00  0.13143138347E+03  0.13143138347E+03  0.00000000000E+00 0.  1.
         -2   -1    0    0    0  501 -0.00000000000E+00 -0.00000000000E+00 -0.42076967201E+03  0.42076967201E+03  0.00000000000E+00 0.  1.
         21    1    1    2  503  501  0.12670324961E+02  0.27516494884E+02 -0.95414785744E+02  0.10010832115E+03  0.00000000000E+00 0. -1.
         21    1    1    2  504  503  0.35021757510E+01 -0.33535963788E+02 -0.33356297666E+02  0.47429618343E+02  0.00000000000E+00 0.  1.
         21    1    1    2  505  502 -0.98071697330E+02  0.75463225387E+02  0.75754013957E+02  0.14509109840E+03  0.00000000000E+00 0.  1.
         -2    1    1    2    0  505  0.81899196618E+02 -0.69443756483E+02 -0.23632121909E+03  0.25957201759E+03  0.00000000000E+00 0.  1.
<scales pt_clust_3="30.29347" pt_clust_4="30.52180" pt_clust_5="121.72372" pt_clust_6="14000.00000"></scales>
<clustering>
<clus scale="   30.293">  2  3  1 -1</clus>
<clus scale="   30.522">  2  4  1 -1</clus>
<clus scale="  121.724">  1  5  2 -1</clus>
<clus scale="  121.724">  1  3  2 -1</clus>
</clustering>
</event>
<event>
 6    0  0.3800129E+002  0.1517829E+03  0.7546771E-02  0.1198299E+00
          2   -1    0    0  504    0 -0.00000000000E+00  0.00000000000E+00  0.58241296115E+03  0.58241296115E+03  0.00000000000E+00 0.  1.
         21   -1    0    0  501  502  0.00000000000E+00 -0.00000000000E+00 -0.16929404936E+03  0.16929404936E+03  0.00000000000E+00 0. -1.
         21    1    1    2  503  502  0.86045769843E+02  0.15352364232E+03 -0.63526099318E+02  0.18710678383E+03  0.00000000000E+00 0. -1.
         21    1    1    2  504  505 -0.21841377381E+01  0.31716315629E+02  0.28422799821E+02  0.42644468392E+02  0.00000000000E+00 0. -1.
         21    1    1    2  505  503 -0.60479007940E+02 -0.73409753032E+02  0.37354974145E+03  0.38546869079E+03  0.00000000000E+00 0.  1.
          2    1    1    2  501    0 -0.23382624164E+02 -0.11183020492E+03  0.74672469830E+02  0.13648706750E+03  0.00000000000E+00 0.  1.
<scales pt_clust_3="151.78295" pt_clust_4="31.79143" pt_clust_5="80.53143" pt_clust_6="14000.00000"></scales>
<clustering>
<clus scale="   31.791">  1  4  2 -1</clus>
<clus scale="   80.531">  1  5  2 -1</clus>
<clus scale="  151.783">  2  3  1 -1</clus>
<clus scale="  151.783">  2  3  1 -1</clus>
</clustering>
</event>
<event>
 6    0  0.3800129E+002  0.1366237E+03  0.7546771E-02  0.1217946E+00
          2   -1    0    0  503    0 -0.00000000000E+00  0.00000000000E+00  0.16707149122E+04  0.16707149122E+04  0.00000000000E+00 0.  1.
         21   -1    0    0  501  502  0.00000000000E+00 -0.00000000000E+00 -0.70906158819E+02  0.70906158819E+02  0.00000000000E+00 0. -1.
         21    1    1    2  503  504 -0.42199803495E+02 -0.65571584900E+02 -0.18940906598E+02  0.80244713870E+02  0.00000000000E+00 0. -1.
         21    1    1    2  504  505 -0.43716079799E+02 -0.44815675221E+02  0.11850414256E+03  0.13402526696E+03  0.00000000000E+00 0.  1.
         21    1    1    2  505  502 -0.29554423679E+02  0.29470121227E+02  0.32630254441E+02  0.52978160680E+02  0.00000000000E+00 0. -1.
          2    1    1    2  501    0  0.11547030697E+03  0.80917138894E+02  0.14676152629E+04  0.14743729295E+04  0.00000000000E+00 0.  1.
<scales pt_clust_3="136.62372" pt_clust_4="62.77455" pt_clust_5="41.73670" pt_clust_6="14000.00000"></scales>
<clustering>
<clus scale="   41.737">  2  5  1 -1</clus>
<clus scale="   62.775">  2  4  1 -1</clus>
<clus scale="  136.624">  2  3  1 -1</clus>
<clus scale="   41.737">  2  3  1 -1</clus>
</clustering>
</event>
<event>
 6    0  0.3800129E+002  0.1698143E+03  0.7546771E-02  0.1178042E+00
         -1   -1    0    0    0  501 -0.00000000000E+00  0.00000000000E+00  0.67896332449E+03  0.67896332449E+03  0.00000000000E+00 0. -1.
         21   -1    0    0  504  502  0.00000000000E+00 -0.00000000000E+00 -0.21403309218E+03  0.21403309218E+03  0.00000000000E+00 0. -1.
         21    1    1    2  503  505 -0.46076400504E+02 -0.25165035851E+02 -0.21339666979E+02  0.56671819271E+02  0.00000000000E+00 0. -1.
         21    1    1    2  504  501  0.36926888803E+02 -0.13886321081E+02  0.11802131850E+03  0.12444057477E+03  0.00000000000E+00 0.  1.
         21    1    1    2  505  502 -0.95987866389E+02 -0.54752913396E+02 -0.14348532613E+03  0.18110657314E+03  0.00000000000E+00 0. -1.
         -1    1    1    2    0  503  0.10513737809E+03  0.93804270328E+02  0.51173390692E+03  0.53077744950E+03  0.00000000000E+00 0. -1.
<scales pt_clust_3="36.48675" pt_clust_4="39.45155" pt_clust_5="36.48675" pt_clust_6="161.35290"></scales>
<clustering>
<clus scale="   36.487">  3  5 -1 -1</clus>
<clus scale="   39.452">  1  4  2 -1</clus>
<clus scale="  161.353">  1  6  2 -1</clus>
<clus scale="  169.814">  2  3  1 -1</clus>
</clustering>
</event>
<event>
 6    0  0.3800129E+002  0.1661840E+03  0.7546771E-02  0.1181887E+00
          3   -1    0    0  504    0 -0.00000000000E+00  0.00000000000E+00  0.22942926619E+03  0.22942926619E+03  0.00000000000E+00 0. -1.
         21   -1    0    0  501  502  0.00000000000E+00 -0.00000000000E+00 -0.22974983424E+03  0.22974983424E+03  0.00000000000E+00 0. -1.
         21    1    1    2  503  505 -0.98689599994E+02 -0.55315779742E+02 -0.84400871907E+02  0.14114878609E+03  0.00000000000E+00 0. -1.
         21    1    1    2  504  503  0.12652623340E+02  0.29993292581E+02  0.18228752965E+01  0.32603824187E+02  0.00000000000E+00 0. -1.
         21    1    1    2  505  502 -0.11396109885E+02 -0.54460146010E+02 -0.68980684207E+02  0.88623437180E+02  0.00000000000E+00 0. -1.
          3    1    1    2  501    0  0.97433086539E+02  0.79782633170E+02  0.15123811277E+03  0.19680305298E+03  0.00000000000E+00 0. -1.
<scales pt_clust_3="50.17152" pt_clust_4="32.55283" pt_clust_5="50.17152" pt_clust_6="150.05783"></scales>
<clustering>
<clus scale="   32.553">  1  4  2 -1</clus>
<clus scale="   50.172">  3  5 -1 -1</clus>
<clus scale="  150.058">  1  6  2 -1</clus>
<clus scale="  166.184">  2  3  1 -1</clus>
</clustering>
</event>
<event>
 6    0  0.3800129E+002  0.1001931E+03  0.7546771E-02  0.1279890E+00
         21   -1    0    0  504  502  0.00000000000E+00  0.00000000000E+00  0.10545301989E+04  0.10545301989E+04  0.00000000000E+00 0.  1.
         -3   -1    0    0    0  501 -0.00000000000E+00 -0.00000000000E+00 -0.87059776271E+02  0.87059776271E+02  0.00000000000E+00 0.  1.
         21    1    1    2  503  502  0.22759019159E+01 -0.50206396277E+02  0.25681704018E+03  0.26168846761E+03  0.00000000000E+00 0. -1.
         21    1    1    2  504  501  0.83900465853E+01  0.46004955756E+02  0.81052860529E+02  0.93575718195E+02  0.00000000000E+00 0.  1.
         21    1    1    2  505  503 -0.40854251208E+02 -0.79604366448E+02  0.67872737137E+03  0.68459971490E+03  0.00000000000E+00 0.  1.
         -3    1    1    2    0  505  0.30188302707E+02  0.83805806969E+02 -0.49126849401E+02  0.10172607450E+03  0.00000000000E+00 0.  1.
<scales pt_clust_3="32.48600" pt_clust_4="46.76376" pt_clust_5="32.48600" pt_clust_6="90.33165"></scales>
<clustering>
<clus scale="   32.486">  3  5 -1 -1</clus>
<clus scale="   46.764">  1  4  2 -1</clus>
<clus scale="   90.332">  2  6  1 -1</clus>
<clus scale="   46.764">  1  3  2 -1</clus>
</clustering>
</event>
<event>
 6    0  0.3800129E+002  0.4144476E+03  0.7546771E-02  0.1038889E+00
         21   -1    0    0  504  502  0.00000000000E+00  0.00000000000E+00  0.37451811106E+03  0.37451811106E+03  0.00000000000E+00 0.  1.
          1   -1    0    0  503    0 -0.00000000000E+00 -0.00000000000E+00 -0.11845943974E+04  0.11845943974E+04  0.00000000000E+00 0.  1.
         21    1    1    2  503  502 -0.33201538303E+02  0.81207546333E+01 -0.59925314065E+03  0.60022713649E+03  0.00000000000E+00 0.  1.
         21    1    1    2  504  505  0.23191168254E+03 -0.14129866929E+02  0.17083798946E+03  0.28838914730E+03  0.00000000000E+00 0.  1.
         21    1    1    2  505  501  0.15010427997E+03 -0.57010139205E+02 -0.16210591947E+02  0.16138226089E+03  0.00000000000E+00 0.  1.
          1    1    1    2  501    0 -0.34881442421E+03  0.63019251501E+02 -0.36545054323E+03  0.50911396381E+03  0.00000000000E+00 0.  1.
<scales pt_clust_3="34.18024" pt_clust_4="136.34657" pt_clust_5="136.34657" pt_clust_6="379.97271"></scales>
<clustering>
<clus scale="   34.180">  2  3  1 -1</clus>
<clus scale="  136.347">  4  5 -1 -1</clus>
<clus scale="  379.973">  2  6  1 -1</clus>
<clus scale="  414.448">  1  3  2 -1</clus>
</clustering>
</event>
<event>
 6    0  0.3800129E+002  0.1140159E+03  0.7546771E-02  0.1253309E+00
         21   -1    0    0  503  502  0.00000000000E+00  0.00000000000E+00  0.52512385597E+03  0.52512385597E+03  0.00000000000E+00 0.  1.
          4   -1    0    0  505    0 -0.00000000000E+00 -0.00000000000E+00 -0.36510471299E+03  0.36510471299E+03  0.00000000000E+00 0.  1.
         21    1    1    2  503  501  0.69577963823E+02  0.77064536392E+02  0.90425443553E+02  0.13768368335E+03  0.00000000000E+00 0. -1.
         21    1    1    2  504  502 -0.55174515355E+02 -0.10508043315E+03  0.39516951533E+03  0.41260764707E+03  0.00000000000E+00 0.  1.
         21    1    1    2  505  504 -0.24491079710E+02 -0.20276747647E+02 -0.45253886269E+02  0.55307085468E+02  0.00000000000E+00 0. -1.
          4    1    1    2  501    0  0.10087631242E+02  0.48292644408E+02 -0.28032192963E+03  0.28463015307E+03  0.00000000000E+00 0.  1.
<scales pt_clust_3="114.01591" pt_clust_4="14000.00000" pt_clust_5="31.79559" pt_clust_6="32.36156"></scales>
<clustering>
<clus scale="   31.796">  2  5  1 -1</clus>
<clus scale="   32.362">  2  6  1 -1</clus>
<clus scale="  114.016">  2  3  1 -1</clus>
<clus scale="  114.016">  1  3  2 -1</clus>
</clustering>
</event>
<event>
 6    0  0.3800129E+002  0.6945381E+02  0.7546771E-02  0.1361960E+00
         21   -1    0    0  504  502  0.00000000000E+00  0.00000000000E+00  0.11071499332E+04  0.11071499332E+04  0.00000000000E+00 0. -1.
         -2   -1    0    0    0  501 -0.00000000000E+00 -0.00000000000E+00 -0.12812176852E+03  0.12812176852E+03  0.00000000000E+00 0. -1.
         21    1    1    2  503  501 -0.17066462061E+02  0.25816354651E+02  0.27050350419E+02  0.41103159885E+02  0.00000000000E+00 0.  1.
         21    1    1    2  504  503  0.52343978131E+02  0.57245528853E+02  0.87381613566E+03  0.87725229071E+03  0.00000000000E+00 0. -1.
         21    1    1    2  505  502 -0.60937877135E+02 -0.72790612545E+00  0.17614315782E+03  0.18638767868E+03  0.00000000000E+00 0. -1.
         -2    1    1    2    0  505  0.25660361065E+02 -0.82333977379E+02 -0.97981479203E+02  0.13052857246E+03  0.00000000000E+00 0. -1.
<scales pt_clust_3="30.94751" pt_clust_4="14000.00000" pt_clust_5="69.45381" pt_clust_6="58.75850"></scales>
<clustering>
<clus scale="   30.948">  2  3  1 -1</clus>
<clus scale="   58.758">  2  6  1 -1</clus>
<clus scale="   69.454">  2  5  1 -1</clus>
<clus scale="   69.454">  1  3  2 -1</clus>
</clustering>
</event>
<event>
 6    0  0.3800129E+002  0.1419694E+03  0.7546771E-02  0.1210703E+00
         21   -1    0    0  503  502  0.00000000000E+00  0.00000000000E+00  0.12572862631E+03  0.12572862631E+03  0.00000000000E+00 0.  1.
          1   -1    0    0  504    0 -0.00000000000E+00 -0.00000000000E+00 -0.62942342605E+03  0.62942342605E+03  0.00000000000E+00 0.  1.
         21    1    1    2  503  501 -0.82579539580E+02 -0.28533953627E+02 -0.36929510081E+02  0.94854391473E+02  0.00000000000E+00 0.  1.
         21    1    1    2  504  505  0.73455684986E+01 -0.32723112484E+02 -0.10422768134E+03  0.10949049742E+03  0.00000000000E+00 0.  1.
         21    1    1    2  505  502  0.16525103053E+02 -0.10307792958E+03  0.40216367937E+02  0.11187267248E+03  0.00000000000E+00 0.  1.
          1    1    1    2  501    0  0.58708868029E+02  0.16433499569E+03 -0.40275397625E+03  0.43893449099E+03  0.00000000000E+00 0.  1.
<scales pt_clust_3="87.94286" pt_clust_4="33.53743" pt_clust_5="141.96943" pt_clust_6="14000.00000"></scales>
<clustering>
<clus scale="   33.537">  2  4  1 -1</clus>
<clus scale="   87.943">  1  3  2 -1</clus>
<clus scale="  141.969">  1  5  2 -1</clus>
<clus scale="   87.943">  1  3  2 -1</clus>
</clustering>
</event>
<event>
 6    0  0.3800129E+002  0.2286444E+03  0.7546771E-02  0.1127598E+00
          1   -1    0    0  504    0 -0.00000000000E+00  0.00000000000E+00  0.90500000518E+03  0.90500000518E+03  0.00000000000E+00 0.  1.
         21   -1    0    0  503  502  0.00000000000E+00 -0.00000000000E+00 -0.75718681861E+02  0.75718681861E+02  0.00000000000E+00 0.  1.
         21    1    1    2  503  505 -0.19884270280E+02 -0.11007530319E+03  0.12706743897E+03  0.16928700666E+03  0.00000000000E+00 0.  1.
         21    1    1    2  504  502  0.33712684814E+02 -0.77098907720E+01  0.21919259216E+03  0.22190398823E+03  0.00000000000E+00 0.  1.
         21    1    1    2  505  501  0.59359474639E+02 -0.93577575872E+02  0.12186128834E+03  0.16471333744E+03  0.00000000000E+00 0.  1.
          1    1    1    2  501    0 -0.73187889173E+02  0.21136276983E+03  0.36116000385E+03  0.42481435471E+03  0.00000000000E+00 0.  1.
<scales pt_clust_3="79.70794" pt_clust_4="34.58305" pt_clust_5="79.70794" pt_clust_6="213.82313"></scales>
<clustering>
<clus scale="   34.583">  1  4  2 -1</clus>
<clus scale="   79.708">  3  5 -1 -1</clus>
<clus scale="  213.823">  1  6  2 -1</clus>
<clus scale="  228.644">  2  3  1 -1</clus>
</clustering>
</event>
<event>
 6    0  0.3800129E+002  0.1035582E+03  0.7546771E-02  0.1272987E+00
         21   -1    0    0  504  502  0.00000000000E+00  0.00000000000E+00  0.28889569583E+03  0.28889569583E+03  0.00000000000E+00 0.  1.
          2   -1    0    0  503    0 -0.00000000000E+00 -0.00000000000E+00 -0.54528158586E+03  0.54528158586E+03  0.00000000000E+00 0. -1.
         21    1    1    2  503  505 -0.10836129398E+02 -0.40263778286E+02 -0.20409957811E+02  0.46423699982E+02  0.00000000000E+00 0.  1.
         21    1    1    2  504  501 -0.31880242791E+02 -0.49704436862E+01  0.37945208198E+02  0.49808573720E+02  0.00000000000E+00 0. -1.
         21    1    1    2  505  502  0.87717294291E+02 -0.79648760966E+02  0.20728915902E+03  0.23876147991E+03  0.00000000000E+00 0.  1.
          2    1    1    2  501    0 -0.45000922103E+02  0.12488298294E+03 -0.48121029944E+03  0.49918352808E+03  0.00000000000E+00 0. -1.
<scales pt_clust_3="42.41995" pt_clust_4="32.26539" pt_clust_5="14000.00000" pt_clust_6="103.55819"></scales>
<clustering>
<clus scale="   32.265">  1  4  2 -1</clus>
<clus scale="   42.420">  2  3  1 -1</clus>
<clus scale="  103.558">  2  6  1 -1</clus>
<clus scale="   32.265">  1  3  2 -1</clus>
</clustering>
</event>
<event>
 6    0  0.3800129E+002  0.5970614E+02  0.7546771E-02  0.1399069E+00
         21   -1    0    0  504  502  0.00000000000E+00  0.00000000000E+00  0.19348158496E+03  0.19348158496E+03  0.00000000000E+00 0.  1.
          2   -1    0    0  503    0 -0.00000000000E+00 -0.00000000000E+00 -0.93645192029E+03  0.93645192029E+03  0.00000000000E+00 0.  1.
         21    1    1    2  503  505  0.36572450168E+02  0.51987409815E+02 -0.36053929145E+03  0.36609946131E+03  0.00000000000E+00 0.  1.
         21    1    1    2  504  501 -0.10176909852E+03  0.15481093519E+01 -0.13082257899E+02  0.10261818323E+03  0.00000000000E+00 0.  1.
         21    1    1    2  505  502  0.58355093368E+02  0.98580081943E+01  0.13785412217E+03  0.15002085271E+03  0.00000000000E+00 0.  1.
          2    1    1    2  501    0  0.68415549889E+01 -0.63393527361E+02 -0.50720290814E+03  0.51119500801E+03  0.00000000000E+00 0.  1.
<scales pt_clust_3="59.70614" pt_clust_4="50.14179" pt_clust_5="59.18190" pt_clust_6="14000.00000"></scales>
<clustering>
<clus scale="   59.182">  1  5  2 -1</clus>
<clus scale="   50.142">  1  4  2 -1</clus>
<clus scale="   59.706">  1  3  2 -1</clus>
<clus scale="   59.182">  1  3  2 -1</clus>
</clustering>
</event>
<event>
 6    0  0.3800129E+002  0.1195143E+03  0.7546771E-02  0.1243900E+00
          1   -1    0    0  503    0 -0.00000000000E+00  0.00000000000E+00  0.48517006689E+03  0.48517006689E+03  0.00000000000E+00 0. -1.
         21   -1    0    0  504  502  0.00000000000E+00 -0.00000000000E+00 -0.17364340419E+03  0.17364340419E+03  0.00000000000E+00 0. -1.
         21    1    1    2  503  505 -0.10236073556E+03  0.23754116466E+02  0.21492998754E+03  0.23924229930E+03  0.00000000000E+00 0. -1.
         21    1    1    2  504  501  0.39591098803E+02 -0.28987771536E+02 -0.20620655689E+02  0.53225533761E+02  0.00000000000E+00 0. -1.
         21    1    1    2  505  502 -0.82157802207E+02  0.43310423965E+02 -0.77278526683E+02  0.12082080936E+03  0.00000000000E+00 0. -1.
          1    1    1    2  501    0  0.14492743896E+03 -0.38076768895E+02  0.19449585753E+03  0.24552482866E+03  0.00000000000E+00 0. -1.
<scales pt_clust_3="119.51431" pt_clust_4="49.06879" pt_clust_5="57.94243" pt_clust_6="14000.00000"></scales>
<clustering>
<clus scale="   49.069">  2  4  1 -1</clus>
<clus scale="   57.942">  2  5  1 -1</clus>
<clus scale="  119.514">  1  3  2 -1</clus>
<clus scale="   49.069">  2  3  1 -1</clus>
</clustering>
</event>
<event>
 6    0  0.3800129E+002  0.9932864E+02  0.7546771E-02  0.1281714E+00
          3   -1    0    0  503    0 -0.00000000000E+00  0.00000000000E+00  0.18384192829E+03  0.18384192829E+03  0.00000000000E+00 0. -1.
         21   -1    0    0  505  502  0.00000000000E+00 -0.00000000000E+00 -0.36609257497E+03  0.36609257497E+03  0.00000000000E+00 0.  1.
         21    1    1    2  503  504 -0.25352044112E+02  0.19805816160E+02  0.22114027972E+02  0.39038784914E+02  0.00000000000E+00 0.  1.
         21    1    1    2  504  502  0.64082598074E+02  0.75452809307E+02 -0.97780625389E+02  0.13914293554E+03  0.00000000000E+00 0. -1.
         21    1    1    2  505  501 -0.11714472047E+01 -0.10869545901E+03 -0.22333026545E+03  0.24837971448E+03  0.00000000000E+00 0.  1.
          3    1    1    2  501    0 -0.37559106756E+02  0.13436833547E+02  0.11674621619E+03  0.12337306833E+03  0.00000000000E+00 0. -1.
<scales pt_clust_3="32.17136" pt_clust_4="99.32864" pt_clust_5="14000.00000" pt_clust_6="64.30457"></scales>
<clustering>
<clus scale="   32.171">  1  3  2 -1</clus>
<clus scale="   64.305">  1  6  2 -1</clus>
<clus scale="   99.329">  1  4  2 -1</clus>
<clus scale="   99.329">  2  3  1 -1</clus>
</clustering>
</event>
<event>
 6    0  0.3800129E+002  0.2322544E+03  0.7546771E-02  0.1125063E+00
          1   -1    0    0  503    0 -0.00000000000E+00  0.00000000000E+00  0.34420609310E+04  0.34420609310E+04  0.00000000000E+00 0.  1.
         21   -1    0    0  501  502  0.00000000000E+00 -0.00000000000E+00 -0.24256781799E+03  0.24256781799E+03  0.00000000000E+00 0. -1.
         21    1    1    2  503  504 -0.36224373868E+02 -0.41709664135E+02  0.11683832701E+03  0.12924045807E+03  0.00000000000E+00 0. -1.
         21    1    1    2  504  505  0.58427434527E+02 -0.10027454017E+03 -0.75609041849E+02  0.13851164472E+03  0.00000000000E+00 0. -1.
         21    1    1    2  505  502  0.94497852518E+02 -0.66141824108E+02 -0.98319818103E+02  0.15156309465E+03  0.00000000000E+00 0. -1.
          1    1    1    2  501    0 -0.11670091318E+03  0.20812602842E+03  0.32565836460E+04  0.32653135516E+04  0.00000000000E+00 0.  1.
<scales pt_clust_3="55.24402" pt_clust_4="52.86180" pt_clust_5="52.86180" pt_clust_6="226.12061"></scales>
<clustering>
<clus scale="   52.862">  4  5 -1 -1</clus>
<clus scale="   55.244">  1  3  2 -1</clus>
<clus scale="  226.121">  1  6  2 -1</clus>
<clus scale="  232.254">  2  3  1 -1</clus>
</clustering>
</event>
<event>
 6    0  0.3800129E+002  0.9759125E+02  0.7546771E-02  0.1285444E+00
          1   -1    0    0  503    0 -0.00000000000E+00  0.00000000000E+00  0.19307311839E+04  0.19307311839E+04  0.00000000000E+00 0. -1.
         21   -1    0    0  504  502  0.00000000000E+00 -0.00000000000E+00 -0.20039053458E+03  0.20039053458E+03  0.00000000000E+00 0. -1.
         21    1    1    2  503  505 -0.56527525390E+02  0.62854626705E+02  0.10025457719E+03  0.13113750597E+03  0.00000000000E+00 0. -1.
         21    1    1    2  504  501  0.15587709394E+02  0.74892801291E+02 -0.87542217890E+02  0.11625639029E+03  0.00000000000E+00 0. -1.
         21    1    1    2  505  502 -0.31071908297E+01 -0.49084296403E+02 -0.74280019227E+02  0.89086722044E+02  0.00000000000E+00 0. -1.
          1    1    1    2  501    0  0.44047006825E+02 -0.88663131593E+02  0.17919083093E+04  0.17946411002E+04  0.00000000000E+00 0. -1.
<scales pt_clust_3="97.59125" pt_clust_4="35.21436" pt_clust_5="49.18255" pt_clust_6="14000.00000"></scales>
<clustering>
<clus scale="   49.183">  2  5  1 -1</clus>
<clus scale="   35.214">  2  4  1 -1</clus>
<clus scale="   97.591">  2  3  1 -1</clus>
<clus scale="   49.183">  2  3  1 -1</clus>
</clustering>
</event>
<event>
 6    0  0.3800129E+002  0.1119755E+03  0.7546771E-02  0.1256955E+00
          1   -1    0    0  505    0 -0.00000000000E+00  0.00000000000E+00  0.11063505576E+04  0.11063505576E+04  0.00000000000E+00 0. -1.
         21   -1    0    0  501  502  0.00000000000E+00 -0.00000000000E+00 -0.40949538430E+02  0.40949538430E+02  0.00000000000E+00 0.  1.
         21    1    1    2  503  504 -0.83689602586E+01 -0.82442035832E+02  0.81364401314E+02  0.11613308990E+03  0.00000000000E+00 0.  1.
         21    1    1    2  504  502  0.48294303469E+02 -0.34913344422E+02  0.34838412393E+02  0.69028952942E+02  0.00000000000E+00 0.  1.
         21    1    1    2  505  503 -0.29542778573E+02 -0.62828107082E+01  0.12181155292E+03  0.12550021475E+03  0.00000000000E+00 0. -1.
          1    1    1    2  501    0 -0.10382564637E+02  0.12363819096E+03  0.82738665258E+03  0.83663783848E+03  0.00000000000E+00 0. -1.
<scales pt_clust_3="14000.00000" pt_clust_4="58.53385" pt_clust_5="30.20347" pt_clust_6="111.97554"></scales>
<clustering>
<clus scale="   30.203">  1  5  2 -1</clus>
<clus scale="   58.534">  2  4  1 -1</clus>
<clus scale="  111.976">  1  6  2 -1</clus>
<clus scale="   58.534">  2  3  1 -1</clus>
</clustering>
</event>
<event>
 6    0  0.3800129E+002  0.4534945E+03  0.7546771E-02  0.1026685E+00
          2   -1    0    0  504    0 -0.00000000000E+00  0.00000000000E+00  0.39494548323E+04  0.39494548323E+04  0.00000000000E+00 0.  1.
         21   -1    0    0  505  502  0.00000000000E+00 -0.00000000000E+00 -0.78470793019E+03  0.78470793019E+03  0.00000000000E+00 0. -1.
         21    1    1    2  503  501  0.16012121257E+03 -0.31803991154E+03  0.21851932728E+03  0.41777851122E+03  0.00000000000E+00 0.  1.
         21    1    1    2  504  502  0.88484160518E+02  0.20781505701E+03 -0.49886499069E+03  0.54761558006E+03  0.00000000000E+00 0. -1.
         21    1    1    2  505  503  0.21582982412E+03 -0.34444327437E+02 -0.62724349549E+02  0.22738352776E+03  0.00000000000E+00 0.  1.
          2    1    1    2  501    0 -0.46443519720E+03  0.14466918196E+03  0.35078169150E+04  0.35413851434E+04  0.00000000000E+00 0.  1.
<scales pt_clust_3="453.49446" pt_clust_4="320.17711" pt_clust_5="218.56103" pt_clust_6="14000.00000"></scales>
<clustering>
<clus scale="  218.561">  2  5  1 -1</clus>
<clus scale="  320.177">  2  4  1 -1</clus>
<clus scale="  453.494">  2  3  1 -1</clus>
<clus scale="  218.561">  2  3  1 -1</clus>
</clustering>
</event>
<event>
 6    0  0.3800129E+002  0.9640745E+02  0.7546771E-02  0.1288037E+00
          2   -1    0    0  504    0 -0.00000000000E+00  0.00000000000E+00  0.18182912594E+04  0.18182912594E+04  0.00000000000E+00 0.  1.
         21   -1    0    0  503  502  0.00000000000E+00 -0.00000000000E+00 -0.18658882390E+02  0.18658882390E+02  0.00000000000E+00 0. -1.
         21    1    1    2  503  501 -0.74214126690E+02 -0.42310298150E+00  0.17903926921E+03  0.19381170123E+03  0.00000000000E+00 0. -1.
         21    1    1    2  504  505  0.48383696014E+01  0.10956714357E+03  0.47006391938E+03  0.48268877869E+03  0.00000000000E+00 0.  1.
         21    1    1    2  505  502 -0.29587171278E+00 -0.36258637226E+02  0.13033027605E+03  0.13528029113E+03  0.00000000000E+00 0. -1.
          2    1    1    2  501    0  0.69671628801E+02 -0.72885403366E+02  0.10201989124E+04  0.10251693708E+04  0.00000000000E+00 0.  1.
<scales pt_clust_3="76.26154" pt_clust_4="96.40745" pt_clust_5="36.25984" pt_clust_6="14000.00000"></scales>
<clustering>
<clus scale="   36.260">  2  5  1 -1</clus>
<clus scale="   76.262">  2  3  1 -1</clus>
<clus scale="   96.407">  2  4  1 -1</clus>
<clus scale="   36.260">  2  3  1 -1</clus>
</clustering>
</event>
<event>
 6    0  0.3800129E+002  0.9426283E+02  0.7546771E-02  0.1292845E+00
          2   -1    0    0  505    0 -0.00000000000E+00  0.00000000000E+00  0.16222745065E+04  0.16222745065E+04  0.00000000000E+00 0. -1.
         21   -1    0    0  503  502  0.00000000000E+00 -0.00000000000E+00 -0.34048360199E+03  0.34048360199E+03  0.00000000000E+00 0.  1.
         21    1    1    2  503  501  0.36223820445E+02 -0.21217860192E+02 -0.18069707692E+02  0.45704234977E+02  0.00000000000E+00 0.  1.
         21    1    1    2  504  502 -0.96262051450E+02 -0.52078281155E+02 -0.29670310207E+03  0.31624557024E+03  0.00000000000E+00 0.  1.
         21    1    1    2  505  504  0.46141904409E+01  0.37477321984E+02  0.27282379773E+03  0.27542451783E+03  0.00000000000E+00 0.  1.
          2    1    1    2  501    0  0.55424040564E+02  0.35818819364E+02  0.13237399166E+04  0.13253837855E+04  0.00000000000E+00 0. -1.
<scales pt_clust_3="41.82868" pt_clust_4="94.26283" pt_clust_5="37.76030" pt_clust_6="14000.00000"></scales>
<clustering>
<clus scale="   37.760">  1  5  2 -1</clus>
<clus scale="   41.829">  2  3  1 -1</clus>
<clus scale="   94.263">  2  4  1 -1</clus>
<clus scale="   41.829">  2  3  1 -1</clus>
</clustering>
</event>
<event>
 6    0  0.3800129E+002  0.3176293E+03  0.7546771E-02  0.1076746E+00
         -3   -1    0    0    0  501 -0.00000000000E+00  0.00000000000E+00  0.80633124540E+03  0.80633124540E+03  0.00000000000E+00 0.  1.
         21   -1    0    0  505  502  0.00000000000E+00 -0.00000000000E+00 -0.15334383305E+04  0.15334383305E+04  0.00000000000E+00 0. -1.
         21    1    1    2  503  501 -0.25290159578E+01  0.50724060680E+02  0.17958734645E+02  0.53868751643E+02  0.00000000000E+00 0.  1.
         21    1    1    2  504  502  0.29793955119E+03  0.11305195827E+03 -0.14314519954E+04  0.14664936197E+04  0.00000000000E+00 0. -1.
         21    1    1    2  505  503 -0.62429143218E+02 -0.44437868258E+01 -0.14132796809E+02  0.64162926288E+02  0.00000000000E+00 0.  1.
         -3    1    1    2    0  504 -0.23298139201E+03 -0.15933223212E+03  0.70051897243E+03  0.75524427833E+03  0.00000000000E+00 0.  1.
<scales pt_clust_3="50.78707" pt_clust_4="14000.00000" pt_clust_5="62.57379" pt_clust_6="317.62931"></scales>
<clustering>
<clus scale="   50.787">  1  3  2 -1</clus>
<clus scale="   62.574">  1  5  2 -1</clus>
<clus scale="  317.629">  1  6  2 -1</clus>
<clus scale="  317.629">  2  3  1 -1</clus>
</clustering>
</event>
<event>
 6    0  0.3800129E+002  0.2826930E+03  0.7546771E-02  0.1094227E+00
          2   -1    0    0  505    0 -0.00000000000E+00  0.00000000000E+00  0.11941656111E+03  0.11941656111E+03  0.00000000000E+00 0. -1.
         21   -1    0    0  503  502  0.00000000000E+00 -0.00000000000E+00 -0.22639129479E+04  0.22639129479E+04  0.00000000000E+00 0. -1.
         21    1    1    2  503  501  0.25269210051E+03 -0.92962574047E+02 -0.15373520530E+04  0.15607519575E+04  0.00000000000E+00 0. -1.
         21    1    1    2  504  502 -0.21959442611E+02 -0.63465773711E+02 -0.32998202591E+03  0.33674657975E+03  0.00000000000E+00 0. -1.
         21    1    1    2  505  504  0.19740564284E+02 -0.39763639778E+02  0.21611364687E+02  0.49374973522E+02  0.00000000000E+00 0. -1.
          2    1    1    2  501    0 -0.25047322218E+03  0.19619198754E+03 -0.29877367254E+03  0.43645599825E+03  0.00000000000E+00 0. -1.
<scales pt_clust_3="282.69297" pt_clust_4="68.42365" pt_clust_5="44.39411" pt_clust_6="14000.00000"></scales>
<clustering>
<clus scale="   44.394">  1  5  2 -1</clus>
<clus scale="   68.424">  2  4  1 -1</clus>
<clus scale="  282.693">  2  3  1 -1</clus>
<clus scale="   68.424">  2  3  1 -1</clus>
</clustering>
</event>
<event>
 6    0  0.3800129E+002  0.1414070E+03  0.7546771E-02  0.1211448E+00
         21   -1    0    0  503  502  0.00000000000E+00  0.00000000000E+00  0.15739525799E+03  0.15739525799E+03  0.00000000000E+00 0. -1.
          1   -1    0    0  505    0 -0.00000000000E+00 -0.00000000000E+00 -0.82601515140E+03  0.82601515140E+03  0.00000000000E+00 0. -1.
         21    1    1    2  503  504 -0.10534800926E+00  0.66532473710E+02 -0.28046253601E+01  0.66591644218E+02  0.00000000000E+00 0. -1.
         21    1    1    2  504  501 -0.38848902308E+02 -0.39667013349E+02 -0.20195540922E+03  0.20944855328E+03  0.00000000000E+00 0.  1.
         21    1    1    2  505  502  0.11191094880E+03  0.91898043260E+01  0.92259311153E+02  0.14532822664E+03  0.00000000000E+00 0. -1.
          1    1    1    2  501    0 -0.72956698479E+02 -0.36055264687E+02 -0.55611916998E+03  0.56204198525E+03  0.00000000000E+00 0. -1.
<scales pt_clust_3="66.53256" pt_clust_4="39.49433" pt_clust_5="133.07782" pt_clust_6="39.49433"></scales>
<clustering>
<clus scale="   39.494">  4  6 -1 -1</clus>
<clus scale="   66.533">  1  3  2 -1</clus>
<clus scale="  133.078">  1  5  2 -1</clus>
<clus scale="   66.533">  1  3  2 -1</clus>
</clustering>
</event>
<event>
 6    0  0.3800129E+002  0.1008159E+03  0.7546771E-02  0.1278590E+00
         21   -1    0    0  501  502  0.00000000000E+00  0.00000000000E+00  0.21463549210E+02  0.21463549210E+02  0.00000000000E+00 0. -1.
          2   -1    0    0  504    0 -0.00000000000E+00 -0.00000000000E+00 -0.12026644997E+04  0.12026644997E+04  0.00000000000E+00 0.  1.
         21    1    1    2  503  502 -0.13052068517E+02  0.58263150186E+02 -0.61567241850E+02  0.85764074245E+02  0.00000000000E+00 0. -1.
         21    1    1    2  504  505  0.12825801119E+02  0.34043948545E+02 -0.20070133609E+03  0.20397185569E+03  0.00000000000E+00 0.  1.
         21    1    1    2  505  503 -0.18227590322E+02  0.33272599778E+02 -0.13414509560E+03  0.13940666274E+03  0.00000000000E+00 0.  1.
          2    1    1    2  501    0  0.18453857720E+02 -0.12557969851E+03 -0.78478727699E+03  0.79498545626E+03  0.00000000000E+00 0.  1.
<scales pt_clust_3="59.70721" pt_clust_4="34.28726" pt_clust_5="34.28726" pt_clust_6="94.54027"></scales>
<clustering>
<clus scale="   34.287">  4  5 -1 -1</clus>
<clus scale="   59.707">  1  3  2 -1</clus>
<clus scale="   94.540">  1  6  2 -1</clus>
<clus scale="   59.707">  1  3  2 -1</clus>
</clustering>
</event>
<event>
 6    0  0.3800129E+002  0.1289727E+03  0.7546771E-02  0.1228988E+00
          1   -1    0    0  504    0 -0.00000000000E+00  0.00000000000E+00  0.94942377520E+03  0.94942377520E+03  0.00000000000E+00 0. -1.
         21   -1    0    0  505  502  0.00000000000E+00 -0.00000000000E+00 -0.21523158411E+02  0.21523158411E+02  0.00000000000E+00 0. -1.
         21    1    1    2  503  501 -0.27019958121E+02  0.16175255069E+02  0.18401125826E+03  0.18668652918E+03  0.00000000000E+00 0.  1.
         21    1    1    2  504  502  0.45786503429E+01 -0.36322289945E+02  0.13093676461E+03  0.13595848304E+03  0.00000000000E+00 0. -1.
         21    1    1    2  505  503 -0.91438011412E+02  0.16926481921E+02  0.21243090637E+03  0.23189287549E+03  0.00000000000E+00 0. -1.
          1    1    1    2  501    0  0.11387931919E+03  0.32205529541E+01  0.40052168756E+03  0.41640904589E+03  0.00000000000E+00 0. -1.
<scales pt_clust_3="31.41546" pt_clust_4="36.60974" pt_clust_5="31.41546" pt_clust_6="117.13084"></scales>
<clustering>
<clus scale="   31.415">  3  5 -1 -1</clus>
<clus scale="   36.610">  1  4  2 -1</clus>
<clus scale="  117.131">  1  6  2 -1</clus>
<clus scale="  128.973">  2  3  1 -1</clus>
</clustering>
</event>
<event>
 6    0  0.3800129E+002  0.8900072E+02  0.7546771E-02  0.1305290E+00
         21   -1    0    0  501  502  0.00000000000E+00  0.00000000000E+00  0.49932461319E+03  0.49932461319E+03  0.00000000000E+00 0.  1.
          2   -1    0    0  505    0 -0.00000000000E+00 -0.00000000000E+00 -0.57653387272E+03  0.57653387272E+03  0.00000000000E+00 0. -1.
         21    1    1    2  503  502  0.46099463201E+02  0.64099583815E+01  0.55631221623E+02  0.72533308853E+02  0.00000000000E+00 0.  1.
         21    1    1    2  504  503  0.41164236683E+02 -0.31663280191E+02  0.40627629402E+03  0.40958208552E+03  0.00000000000E+00 0.  1.
         21    1    1    2  505  504  0.10566877923E+02 -0.62626793541E+02 -0.34510503041E+02  0.72282425238E+02  0.00000000000E+00 0. -1.
          2    1    1    2  501    0 -0.97830577808E+02  0.87880115350E+02 -0.50460627213E+03  0.52146066630E+03  0.00000000000E+00 0. -1.
<scales pt_clust_3="46.54297" pt_clust_4="89.00072" pt_clust_5="63.60259" pt_clust_6="14000.00000"></scales>
<clustering>
<clus scale="   46.543">  1  3  2 -1</clus>
<clus scale="   63.603">  2  5  1 -1</clus>
<clus scale="   89.001">  1  4  2 -1</clus>
<clus scale="   46.543">  1  3  2 -1</clus>
</clustering>
</event>
<event>
 6    0  0.3800129E+002  0.7334527E+02  0.7546771E-02  0.1349073E+00
         21   -1    0    0  505  502  0.00000000000E+00  0.00000000000E+00  0.45355138751E+03  0.45355138751E+03  0.00000000000E+00 0. -1.
          2   -1    0    0  503    0 -0.00000000000E+00 -0.00000000000E+00 -0.13215492110E+03  0.13215492110E+03  0.00000000000E+00 0. -1.
         21    1    1    2  503  504 -0.66965815793E+01 -0.31775120346E+02 -0.39886197578E+02  0.51433561369E+02  0.00000000000E+00 0.  1.
         21    1    1    2  504  502 -0.46451159544E+02  0.47666688161E+02  0.21271515963E+03  0.22288463949E+03  0.00000000000E+00 0. -1.
         21    1    1    2  505  501  0.18660902226E+02 -0.99448312159E+02  0.18742690569E+03  0.21299540145E+03  0.00000000000E+00 0. -1.
          2    1    1    2  501    0  0.34486838897E+02  0.83556744344E+02 -0.38859401330E+02  0.98392706306E+02  0.00000000000E+00 0. -1.
<scales pt_clust_3="32.47310" pt_clust_4="14000.00000" pt_clust_5="73.34527" pt_clust_6="65.23316"></scales>
<clustering>
<clus scale="   32.473">  2  3  1 -1</clus>
<clus scale="   65.233">  2  6  1 -1</clus>
<clus scale="   73.345">  2  5  1 -1</clus>
<clus scale="   73.345">  1  3  2 -1</clus>
</clustering>
</event>
<event>
 6    0  0.3800129E+002  0.7389156E+02  0.7546771E-02  0.1347338E+00
          1   -1    0    0  505    0 -0.00000000000E+00  0.00000000000E+00  0.35773585880E+03  0.35773585880E+03  0.00000000000E+00 0. -1.
         21   -1    0    0  503  502  0.00000000000E+00 -0.00000000000E+00 -0.28123517178E+03  0.28123517178E+03  0.00000000000E+00 0. -1.
         21    1    1    2  503  501 -0.25488967976E+02  0.41421987323E+02 -0.36860487733E+02  0.61025929557E+02  0.00000000000E+00 0.  1.
         21    1    1    2  504  502 -0.36658292506E+02  0.83694095704E+01 -0.20960591681E+03  0.21295191427E+03  0.00000000000E+00 0. -1.
         21    1    1    2  505  504  0.48105951854E-01  0.50283136162E+02  0.72662922638E+02  0.88364565425E+02  0.00000000000E+00 0.  1.
          1    1    1    2  501    0  0.62099154530E+02 -0.10007453306E+03  0.25030416893E+03  0.27662862134E+03  0.00000000000E+00 0. -1.
<scales pt_clust_3="14000.00000" pt_clust_4="37.60156" pt_clust_5="51.38350" pt_clust_6="73.89156"></scales>
<clustering>
<clus scale="   37.602">  2  4  1 -1</clus>
<clus scale="   51.384">  1  5  2 -1</clus>
<clus scale="   73.892">  1  6  2 -1</clus>
<clus scale="   37.602">  2  3  1 -1</clus>
</clustering>
</event>
<event>
 6    0  0.3800129E+002  0.9204515E+02  0.7546771E-02  0.1297973E+00
         21   -1    0    0  503  502  0.00000000000E+00  0.00000000000E+00  0.20098474141E+03  0.20098474141E+03  0.00000000000E+00 0. -1.
          2   -1    0    0  504    0 -0.00000000000E+00 -0.00000000000E+00 -0.22660422501E+04  0.22660422501E+04  0.00000000000E+00 0. -1.
         21    1    1    2  503  501 -0.95891279045E+02 -0.15757662163E+02  0.16121066619E+03  0.18823474761E+03  0.00000000000E+00 0. -1.
         21    1    1    2  504  505  0.15383858321E+02  0.25876934193E+02 -0.78566349161E+03  0.78624004024E+03  0.00000000000E+00 0. -1.
         21    1    1    2  505  502  0.58535712598E+02  0.53604302154E+02 -0.37421361953E+02  0.87750835832E+02  0.00000000000E+00 0. -1.
          2    1    1    2  501    0  0.21971708127E+02 -0.63723574184E+02 -0.14031833213E+04  0.14048013678E+04  0.00000000000E+00 0. -1.
<scales pt_clust_3="92.04515" pt_clust_4="30.10447" pt_clust_5="14000.00000" pt_clust_6="53.58932"></scales>
<clustering>
<clus scale="   30.104">  2  4  1 -1</clus>
<clus scale="   53.589">  2  6  1 -1</clus>
<clus scale="   92.045">  1  3  2 -1</clus>
<clus scale="   92.045">  1  3  2 -1</clus>
</clustering>
</event>
<event>
 6    0  0.3800129E+002  0.2302067E+03  0.7546771E-02  0.1126494E+00
         21   -1    0    0  505  502  0.00000000000E+00  0.00000000000E+00  0.30034653536E+03  0.30034653536E+03  0.00000000000E+00 0.  1.
          2   -1    0    0  503    0 -0.00000000000E+00 -0.00000000000E+00 -0.19912363834E+04  0.19912363834E+04  0.00000000000E+00 0. -1.
         21    1    1    2  503  502  0.31004933434E+02  0.19588749053E+02 -0.82424921075E+02  0.90215811258E+02  0.00000000000E+00 0.  1.
         21    1    1    2  504  501 -0.19670925909E+03 -0.36995161430E+00  0.88574668917E+02  0.21573164221E+03  0.00000000000E+00 0.  1.
         21    1    1    2  505  504 -0.31467787422E+02  0.52680489549E+02  0.13148863405E+03  0.14510243454E+03  0.00000000000E+00 0.  1.
          2    1    1    2  501    0  0.19717211308E+03 -0.71899286988E+02 -0.18285282300E+04  0.18405330308E+04  0.00000000000E+00 0. -1.
<scales pt_clust_3="36.67458" pt_clust_4="14000.00000" pt_clust_5="61.36673" pt_clust_6="230.20672"></scales>
<clustering>
<clus scale="   36.675">  2  3  1 -1</clus>
<clus scale="   61.367">  1  5  2 -1</clus>
<clus scale="  230.207">  2  6  1 -1</clus>
<clus scale="   61.367">  1  3  2 -1</clus>
</clustering>
</event>
<event>
 6    0  0.3800129E+002  0.1558061E+03  0.7546771E-02  0.1193515E+00
          2   -1    0    0  505    0 -0.00000000000E+00  0.00000000000E+00  0.10971924705E+03  0.10971924705E+03  0.00000000000E+00 0.  1.
         21   -1    0    0  504  502  0.00000000000E+00 -0.00000000000E+00 -0.28027695775E+03  0.28027695775E+03  0.00000000000E+00 0.  1.
         21    1    1    2  503  502  0.14741255765E+03 -0.39823082036E+02 -0.10544641587E+03  0.18556747192E+03  0.00000000000E+00 0.  1.
         21    1    1    2  504  501 -0.80751868706E+02  0.74393088133E+01 -0.51626409071E+02  0.96132688138E+02  0.00000000000E+00 0.  1.
         21    1    1    2  505  503 -0.30390183372E+02 -0.21221334320E+02  0.11665035259E+02  0.38858478139E+02  0.00000000000E+00 0. -1.
          2    1    1    2  501    0 -0.36270505569E+02  0.53605107543E+02 -0.25149921015E+02  0.69437566604E+02  0.00000000000E+00 0.  1.
<scales pt_clust_3="142.04676" pt_clust_4="54.90665" pt_clust_5="37.06627" pt_clust_6="54.90665"></scales>
<clustering>
<clus scale="   37.066">  1  5  2 -1</clus>
<clus scale="   54.907">  4  6 -1 -1</clus>
<clus scale="  142.047">  2  3  1 -1</clus>
<clus scale="  142.047">  2  3  1 -1</clus>
</clustering>
</event>
<event>
 6    0  0.3800129E+002  0.2223511E+03  0.7546771E-02  0.1132142E+00
         21   -1    0    0  505  502  0.00000000000E+00  0.00000000000E+00  0.30728832704E+03  0.30728832704E+03  0.00000000000E+00 0. -1.
          1   -1    0    0  504    0 -0.00000000000E+00 -0.00000000000E+00 -0.80572335542E+03  0.80572335542E+03  0.00000000000E+00 0. -1.
         21    1    1    2  503  501  0.18184276054E+02  0.17141973936E+03  0.16229738677E+03  0.23676113847E+03  0.00000000000E+00 0. -1.
         21    1    1    2  504  502  0.46541592924E+02  0.13329568242E+02 -0.39532226767E+02  0.62502753656E+02  0.00000000000E+00 0.  1.
         21    1    1    2  505  503 -0.67616092907E+02  0.53691799047E+02  0.51155983052E+02  0.10035775958E+03  0.00000000000E+00 0. -1.
          1    1    1    2  501    0  0.28902239292E+01 -0.23844110665E+03 -0.67235617143E+03  0.71339003077E+03  0.00000000000E+00 0. -1.
<scales pt_clust_3="222.35108" pt_clust_4="48.41278" pt_clust_5="85.43262" pt_clust_6="14000.00000"></scales>
<clustering>
<clus scale="   48.413">  2  4  1 -1</clus>
<clus scale="   85.433">  1  5  2 -1</clus>
<clus scale="  222.351">  1  3  2 -1</clus>
<clus scale="   85.433">  1  3  2 -1</clus>
</clustering>
</event>
<event>
 6    0  0.3800129E+002  0.9480252E+02  0.7546771E-02  0.1291621E+00
         21   -1    0    0  501  502  0.00000000000E+00  0.00000000000E+00  0.64059170543E+01  0.64059170543E+01  0.00000000000E+00 0. -1.
          1   -1    0    0  503    0 -0.00000000000E+00 -0.00000000000E+00 -0.36000815997E+04  0.36000815997E+04  0.00000000000E+00 0.  1.
         21    1    1    2  503  504  0.59886674152E+02  0.44763425661E+01 -0.13573708517E+04  0.13586986717E+04  0.00000000000E+00 0. -1.
         21    1    1    2  504  505 -0.16559042985E+02  0.40291521694E+02 -0.27168445975E+03  0.27515460071E+03  0.00000000000E+00 0. -1.
         21    1    1    2  505  502  0.19083270059E+02  0.44596514171E+02 -0.25695040386E+03  0.26148906347E+03  0.00000000000E+00 0. -1.
          1    1    1    2  501    0 -0.62410901227E+02 -0.89364378431E+02 -0.17076699673E+04  0.17111451809E+04  0.00000000000E+00 0.  1.
<scales pt_clust_3="60.05374" pt_clust_4="34.41987" pt_clust_5="34.41987" pt_clust_6="87.56863"></scales>
<clustering>
<clus scale="   34.420">  4  5 -1 -1</clus>
<clus scale="   60.054">  2  3  1 -1</clus>
<clus scale="   87.569">  2  6  1 -1</clus>
<clus scale="   94.803">  1  3  2 -1</clus>
</clustering>
</event>
<event>
 6    0  0.3800129E+002  0.9687807E+02  0.7546771E-02  0.1287001E+00
          2   -1    0    0  505    0 -0.00000000000E+00  0.00000000000E+00  0.85572286421E+03  0.85572286421E+03  0.00000000000E+00 0. -1.
         21   -1    0    0  504  502  0.00000000000E+00 -0.00000000000E+00 -0.33088688633E+03  0.33088688633E+03  0.00000000000E+00 0. -1.
         21    1    1    2  503  501 -0.67198302910E+02 -0.26588735559E+02  0.10965694069E+03  0.13132866182E+03  0.00000000000E+00 0.  1.
         21    1    1    2  504  503  0.25493382840E+02 -0.16227204244E+02 -0.53248913958E+02  0.61226477638E+02  0.00000000000E+00 0. -1.
         21    1    1    2  505  502 -0.57255662248E+02  0.60326807797E+01 -0.25578626945E+03  0.26218546820E+03  0.00000000000E+00 0. -1.
          2    1    1    2  501    0  0.98960582318E+02  0.36783259023E+02  0.72421422059E+03  0.73186914289E+03  0.00000000000E+00 0. -1.
<scales pt_clust_3="14000.00000" pt_clust_4="30.21977" pt_clust_5="34.41572" pt_clust_6="96.87807"></scales>
<clustering>
<clus scale="   30.220">  2  4  1 -1</clus>
<clus scale="   34.416">  2  5  1 -1</clus>
<clus scale="   96.878">  1  6  2 -1</clus>
<clus scale="   30.220">  2  3  1 -1</clus>
</clustering>
</event>
<event>
 6    0  0.3800129E+002  0.1545660E+03  0.7546771E-02  0.1194972E+00
          2   -1    0    0  503    0 -0.00000000000E+00  0.00000000000E+00  0.32961601721E+04  0.32961601721E+04  0.00000000000E+00 0.  1.
         21   -1    0    0  505  502  0.00000000000E+00 -0.00000000000E+00 -0.16681832691E+03  0.16681832691E+03  0.00000000000E+00 0. -1.
         21    1    1    2  503  502 -0.27692830326E+02  0.26538741194E+02  0.26670353262E+03  0.26944753098E+03  0.00000000000E+00 0.  1.
         21    1    1    2  504  501 -0.12130132105E+03 -0.36615634282E+02  0.30932451114E+03  0.33426990345E+03  0.00000000000E+00 0. -1.
         21    1    1    2  505  504  0.11904357689E+03  0.10629689793E+03 -0.11013436966E+03  0.19390715069E+03  0.00000000000E+00 0. -1.
          2    1    1    2  501    0  0.29950574485E+02 -0.96220004845E+02  0.26634481711E+04  0.26653539139E+04  0.00000000000E+00 0.  1.
<scales pt_clust_3="38.35619" pt_clust_4="154.56598" pt_clust_5="14000.00000" pt_clust_6="73.08228"></scales>
<clustering>
<clus scale="   38.356">  1  3  2 -1</clus>
<clus scale="   73.082">  1  6  2 -1</clus>
<clus scale="  154.566">  1  4  2 -1</clus>
<clus scale="  154.566">  2  3  1 -1</clus>
</clustering>
</event>
<event>
 6    0  0.3800129E+002  0.9470387E+02  0.7546771E-02  0.1291844E+00
         21   -1    0    0  501  502  0.00000000000E+00  0.00000000000E+00  0.14601356720E+03  0.14601356720E+03  0.00000000000E+00 0. -1.
          2   -1    0    0  505    0 -0.00000000000E+00 -0.00000000000E+00 -0.20759005889E+04  0.20759005889E+04  0.00000000000E+00 0.  1.
         21    1    1    2  503  504 -0.57419516538E+01 -0.46267336690E+02  0.93223377434E+02  0.10423163893E+03  0.00000000000E+00 0. -1.
         21    1    1    2  504  502 -0.26651398034E+02 -0.31723358031E+02  0.30923148224E+02  0.51700189149E+02  0.00000000000E+00 0. -1.
         21    1    1    2  505  503  0.17867755763E+02 -0.56145464425E+02 -0.24746234199E+03  0.25437999248E+03  0.00000000000E+00 0.  1.
          2    1    1    2  501    0  0.14525593925E+02  0.13413615915E+03 -0.18065712054E+04  0.18116023356E+04  0.00000000000E+00 0.  1.
<scales pt_clust_3="39.66638" pt_clust_4="39.66638" pt_clust_5="58.92003" pt_clust_6="84.84294"></scales>
<clustering>
<clus scale="   39.666">  3  4 -1 -1</clus>
<clus scale="   58.920">  2  5  1 -1</clus>
<clus scale="   84.843">  2  6  1 -1</clus>
<clus scale="   94.704">  1  3  2 -1</clus>
</clustering>
</event>
<event>
 6    0  0.3800129E+002  0.1139493E+03  0.7546771E-02  0.1253426E+00
         21   -1    0    0  504  502  0.00000000000E+00  0.00000000000E+00  0.19904651895E+04  0.19904651895E+04  0.00000000000E+00 0. -1.
          1   -1    0    0  505    0 -0.00000000000E+00 -0.00000000000E+00 -0.52376250325E+03  0.52376250325E+03  0.00000000000E+00 0. -1.
         21    1    1    2  503  502 -0.29096555236E+02 -0.31501452221E+02  0.22032507071E+03  0.22445954603E+03  0.00000000000E+00 0.  1.
         21    1    1    2  504  501 -0.12484070150E+01  0.47558263792E+02  0.38125366994E+02  0.60966306952E+02  0.00000000000E+00 0.  1.
         21    1    1    2  505  503 -0.15720129517E+02 -0.12027003163E+03  0.17099914760E+04  0.17142878553E+04  0.00000000000E+00 0. -1.
          1    1    1    2  501    0  0.46065091768E+02  0.10421322006E+03 -0.50173922740E+03  0.51451398448E+03  0.00000000000E+00 0. -1.
<scales pt_clust_3="42.88299" pt_clust_4="46.72112" pt_clust_5="113.94934" pt_clust_6="14000.00000"></scales>
<clustering>
<clus scale="   42.883">  1  3  2 -1</clus>
<clus scale="   46.721">  1  4  2 -1</clus>
<clus scale="  113.949">  1  5  2 -1</clus>
<clus scale="   42.883">  1  3  2 -1</clus>
</clustering>
</event>
<event>
 6    0  0.3800129E+002  0.7914689E+02  0.7546771E-02  0.1331490E+00
          2   -1    0    0  505    0 -0.00000000000E+00  0.00000000000E+00  0.16637266578E+04  0.16637266578E+04  0.00000000000E+00 0.  1.
         21   -1    0    0  501  502  0.00000000000E+00 -0.00000000000E+00 -0.60570792543E+02  0.60570792543E+02  0.00000000000E+00 0.  1.
         21    1    1    2  503  502 -0.36833174360E+02 -0.81496781387E+01  0.61266421668E+02  0.71949109871E+02  0.00000000000E+00 0.  1.
         21    1    1    2  504  503 -0.51636696169E+02  0.34919674320E+02  0.24886338927E+02  0.67119757979E+02  0.00000000000E+00 0.  1.
         21    1    1    2  505  504 -0.24727157399E+02 -0.36318799700E+02  0.14552817972E+04  0.14559449154E+04  0.00000000000E+00 0.  1.
          2    1    1    2  501    0  0.11319702793E+03  0.95488035184E+01  0.61721307520E+02  0.12928366711E+03  0.00000000000E+00 0.  1.
<scales pt_clust_3="37.72400" pt_clust_4="79.14689" pt_clust_5="44.10247" pt_clust_6="14000.00000"></scales>
<clustering>
<clus scale="   37.724">  2  3  1 -1</clus>
<clus scale="   44.102">  1  5  2 -1</clus>
<clus scale="   79.147">  1  4  2 -1</clus>
<clus scale="   37.724">  2  3  1 -1</clus>
</clustering>
</event>
<event>
 6    0  0.3800129E+002  0.1391184E+03  0.7546771E-02  0.1214520E+00
         21   -1    0    0  504  502  0.00000000000E+00  0.00000000000E+00  0.85382580904E+03  0.85382580904E+03  0.00000000000E+00 0. -1.
          2   -1    0    0  503    0 -0.00000000000E+00 -0.00000000000E+00 -0.44870770915E+03  0.44870770915E+03  0.00000000000E+00 0.  1.
         21    1    1    2  503  502 -0.40348742061E+02 -0.22846015772E+02 -0.48131767982E+02  0.66832840069E+02  0.00000000000E+00 0. -1.
         21    1    1    2  504  505  0.18490045003E+01  0.46193028196E+02  0.26226332902E+03  0.26630671869E+03  0.00000000000E+00 0. -1.
         21    1    1    2  505  501  0.12173450790E+03  0.21831333598E+02  0.56767062123E+03  0.58098694628E+03  0.00000000000E+00 0. -1.
          2    1    1    2  501    0 -0.83234770335E+02 -0.45178346021E+02 -0.37668408238E+03  0.38840701315E+03  0.00000000000E+00 0.  1.
<scales pt_clust_3="45.98539" pt_clust_4="46.23002" pt_clust_5="14000.00000" pt_clust_6="139.11843"></scales>
<clustering>
<clus scale="   46.230">  1  4  2 -1</clus>
<clus scale="   45.985">  2  3  1 -1</clus>
<clus scale="  139.118">  2  6  1 -1</clus>
<clus scale="   46.230">  1  3  2 -1</clus>
</clustering>
</event>
<event>
 6    0  0.3800129E+002  0.1278772E+03  0.7546771E-02  0.1230640E+00
         -2   -1    0    0    0  501 -0.00000000000E+00  0.00000000000E+00  0.18814303796E+03  0.18814303796E+03  0.00000000000E+00 0. -1.
         21   -1    0    0  504  502  0.00000000000E+00 -0.00000000000E+00 -0.12744666134E+04  0.12744666134E+04  0.00000000000E+00 0. -1.
         21    1    1    2  503  505  0.51261645799E+02  0.34174964688E+02 -0.43837489476E+03  0.44268299369E+03  0.00000000000E+00 0. -1.
         21    1    1    2  504  501  0.56551833434E+02 -0.25711524279E+02 -0.37187092909E+02  0.72402156215E+02  0.00000000000E+00 0.  1.
         21    1    1    2  505  502  0.45762521338E+02  0.41097479946E+02 -0.73890459171E+03  0.74146018562E+03  0.00000000000E+00 0. -1.
         -2    1    1    2    0  503 -0.15357600057E+03 -0.49560920354E+02  0.12814300397E+03  0.20606431580E+03  0.00000000000E+00 0. -1.
<scales pt_clust_3="33.56478" pt_clust_4="62.12240" pt_clust_5="33.56478" pt_clust_6="123.38612"></scales>
<clustering>
<clus scale="   33.565">  3  5 -1 -1</clus>
<clus scale="   62.122">  1  4  2 -1</clus>
<clus scale="  123.386">  1  6  2 -1</clus>
<clus scale="  127.877">  2  3  1 -1</clus>
</clustering>
</event>
<event>
 6    0  0.3800129E+002  0.9881144E+02  0.7546771E-02  0.1282815E+00
         21   -1    0    0  501  502  0.00000000000E+00  0.00000000000E+00  0.24686821086E+03  0.24686821086E+03  0.00000000000E+00 0.  1.
          2   -1    0    0  504    0 -0.00000000000E+00 -0.00000000000E+00 -0.16710639022E+04  0.16710639022E+04  0.00000000000E+00 0. -1.
         21    1    1    2  503  505  0.55063618800E+02 -0.64342839258E+02 -0.22071710667E+00  0.84687967239E+02  0.00000000000E+00 0. -1.
         21    1    1    2  504  503  0.35435975474E+02 -0.16410166156E+02 -0.84644635127E+03  0.84734669852E+03  0.00000000000E+00 0. -1.
         21    1    1    2  505  502 -0.53115741621E+02 -0.36275253679E+02  0.19413622722E+03  0.20451418228E+03  0.00000000000E+00 0.  1.
          2    1    1    2  501    0 -0.37383852653E+02  0.11702825909E+03 -0.77166485018E+03  0.78138326503E+03  0.00000000000E+00 0. -1.
<scales pt_clust_3="98.81144" pt_clust_4="39.05127" pt_clust_5="64.19526" pt_clust_6="14000.00000"></scales>
<clustering>
<clus scale="   39.051">  2  4  1 -1</clus>
<clus scale="   64.195">  1  5  2 -1</clus>
<clus scale="   98.811">  1  3  2 -1</clus>
<clus scale="   64.195">  1  3  2 -1</clus>
</clustering>
</event>
<event>
 6    0  0.3800129E+002  0.1561219E+03  0.7546771E-02  0.1193146E+00
         21   -1    0    0  504  502  0.00000000000E+00  0.00000000000E+00  0.85105473202E+03  0.85105473202E+03  0.00000000000E+00 0.  1.
          2   -1    0    0  505    0 -0.00000000000E+00 -0.00000000000E+00 -0.63236299410E+03  0.63236299410E+03  0.00000000000E+00 0.  1.
         21    1    1    2  503  502  0.91317274454E+02  0.88367299640E+02  0.75162104713E+03  0.76228723113E+03  0.00000000000E+00 0.  1.
         21    1    1    2  504  501  0.35927249259E+02  0.19295328375E+01  0.66780657159E+02  0.75856090770E+02  0.00000000000E+00 0. -1.
         21    1    1    2  505  503  0.22807441684E+02  0.35529201159E+02 -0.11467917551E+03  0.12220399677E+03  0.00000000000E+00 0. -1.
          2    1    1    2  501    0 -0.15005196540E+03 -0.12582603364E+03 -0.48503079086E+03  0.52307040745E+03  0.00000000000E+00 0.  1.
<scales pt_clust_3="14000.00000" pt_clust_4="35.97903" pt_clust_5="42.32142" pt_clust_6="156.12185"></scales>
<clustering>
<clus scale="   35.979">  1  4  2 -1</clus>
<clus scale="   42.321">  2  5  1 -1</clus>
<clus scale="  156.122">  2  6  1 -1</clus>
<clus scale="   35.979">  1  3  2 -1</clus>
</clustering>
</event>
<event>
 6    0  0.3800129E+002  0.1375484E+03  0.7546771E-02  0.1216666E+00
         21   -1    0    0  505  502  0.00000000000E+00  0.00000000000E+00  0.20896448799E+03  0.20896448799E+03  0.00000000000E+00 0.  1.
          1   -1    0    0  504    0 -0.00000000000E+00 -0.00000000000E+00 -0.11590189142E+04  0.11590189142E+04  0.00000000000E+00 0.  1.
         21    1    1    2  503  502  0.31367867480E+02  0.14335872240E+03  0.54798491395E+00  0.14675137712E+03  0.00000000000E+00 0.  1.
         21    1    1    2  504  503 -0.27846489143E+02  0.27940916060E+02 -0.35406560090E+03  0.35625632835E+03  0.00000000000E+00 0.  1.
         21    1    1    2  505  501  0.99425317714E+02 -0.83309625947E+02  0.94695226365E+02  0.16060222126E+03  0.00000000000E+00 0.  1.
          1    1    1    2  501    0 -0.10294669605E+03 -0.87990012514E+02 -0.69123203658E+03  0.70437347545E+03  0.00000000000E+00 0.  1.
<scales pt_clust_3="14000.00000" pt_clust_4="39.44771" pt_clust_5="128.10409" pt_clust_6="137.54844"></scales>
<clustering>
<clus scale="   39.448">  2  4  1 -1</clus>
<clus scale="  128.104">  1  5  2 -1</clus>
<clus scale="  137.548">  2  6  1 -1</clus>
<clus scale="  128.104">  1  3  2 -1</clus>
</clustering>
</event>
<event>
 6    0  0.3800129E+002  0.1091119E+03  0.7546771E-02  0.1262223E+00
          1   -1    0    0  505    0 -0.00000000000E+00  0.00000000000E+00  0.42147673577E+03  0.42147673577E+03  0.00000000000E+00 0.  1.
         21   -1    0    0  504  502  0.00000000000E+00 -0.00000000000E+00 -0.13059227129E+04  0.13059227129E+04  0.00000000000E+00 0. -1.
         21    1    1    2  503  502 -0.27125300999E+00  0.96504731081E+02 -0.56667432022E+03  0.57483303828E+03  0.00000000000E+00 0. -1.
         21    1    1    2  504  501  0.88804747944E+02 -0.29062812692E+02 -0.68298637939E+03  0.68934847847E+03  0.00000000000E+00 0. -1.
         21    1    1    2  505  503  0.37707384889E+02 -0.20762930065E+02  0.31751719507E+03  0.32042177720E+03  0.00000000000E+00 0.  1.
          1    1    1    2  501    0 -0.12624087982E+03 -0.46678988324E+02  0.47697527391E+02  0.14279615474E+03  0.00000000000E+00 0.  1.
<scales pt_clust_3="14000.00000" pt_clust_4="94.75229" pt_clust_5="43.04586" pt_clust_6="109.11191"></scales>
<clustering>
<clus scale="   43.046">  1  5  2 -1</clus>
<clus scale="   94.752">  2  4  1 -1</clus>
<clus scale="  109.112">  1  6  2 -1</clus>
<clus scale="   94.752">  2  3  1 -1</clus>
</clustering>
</event>
<event>
 6    0  0.3800129E+002  0.1477662E+03  0.7546771E-02  0.1203245E+00
          2   -1    0    0  504    0 -0.00000000000E+00  0.00000000000E+00  0.23492880460E+04  0.23492880460E+04  0.00000000000E+00 0. -1.
         21   -1    0    0  503  502  0.00000000000E+00 -0.00000000000E+00 -0.47143649576E+03  0.47143649576E+03  0.00000000000E+00 0.  1.
         21    1    1    2  503  501 -0.17538264099E+02  0.11485857559E+03  0.96329349408E+03  0.97027544483E+03  0.00000000000E+00 0. -1.
         21    1    1    2  504  505  0.48513542583E+02 -0.71580268147E+02 -0.37380638435E+03  0.38367761413E+03  0.00000000000E+00 0.  1.
         21    1    1    2  505  502  0.40136679004E+02 -0.28186347895E+02 -0.81424667644E+02  0.95054719557E+02  0.00000000000E+00 0. -1.
          2    1    1    2  501    0 -0.71111957489E+02 -0.15091959545E+02  0.13697891081E+04  0.13717167632E+04  0.00000000000E+00 0. -1.
<scales pt_clust_3="133.03292" pt_clust_4="48.44060" pt_clust_5="48.44060" pt_clust_6="72.69579"></scales>
<clustering>
<clus scale="   48.441">  4  5 -1 -1</clus>
<clus scale="   72.696">  1  6  2 -1</clus>
<clus scale="  133.033">  1  3  2 -1</clus>
<clus scale="  147.766">  2  3  1 -1</clus>
</clustering>
</event>
<event>
 6    0  0.3800129E+002  0.1036928E+03  0.7546771E-02  0.1272717E+00
         21   -1    0    0  503  502  0.00000000000E+00  0.00000000000E+00  0.21459785982E+03  0.21459785982E+03  0.00000000000E+00 0.  1.
          1   -1    0    0  505    0 -0.00000000000E+00 -0.00000000000E+00 -0.11926614260E+04  0.11926614260E+04  0.00000000000E+00 0.  1.
         21    1    1    2  503  504 -0.39456383307E+02  0.15006756150E+02  0.41245370559E+02  0.59018552222E+02  0.00000000000E+00 0.  1.
         21    1    1    2  504  501 -0.65111738554E+02 -0.10022091243E+02 -0.18604712955E+03  0.19736644909E+03  0.00000000000E+00 0. -1.
         21    1    1    2  505  502 -0.28995874794E+02 -0.16996183914E+02  0.15243535530E+03  0.15609666418E+03  0.00000000000E+00 0.  1.
          1    1    1    2  501    0  0.13356399666E+03  0.12011519007E+02 -0.98569716244E+03  0.99477762029E+03  0.00000000000E+00 0.  1.
<scales pt_clust_3="63.55627" pt_clust_4="103.69278" pt_clust_5="33.60998" pt_clust_6="14000.00000"></scales>
<clustering>
<clus scale="   33.610">  1  5  2 -1</clus>
<clus scale="   63.556">  1  3  2 -1</clus>
<clus scale="  103.693">  1  4  2 -1</clus>
<clus scale="   33.610">  1  3  2 -1</clus>
</clustering>
</event>
<event>
 6    0  0.3800129E+002  0.1442831E+03  0.7546771E-02  0.1207679E+00
         21   -1    0    0  503  502  0.00000000000E+00  0.00000000000E+00  0.12176602793E+03  0.12176602793E+03  0.00000000000E+00 0. -1.
          2   -1    0    0  505    0 -0.00000000000E+00 -0.00000000000E+00 -0.16957364828E+04  0.16957364828E+04  0.00000000000E+00 0. -1.
         21    1    1    2  503  501  0.10919828491E+02 -0.46576559434E+02  0.88355563491E+02  0.10047549026E+03  0.00000000000E+00 0. -1.
         21    1    1    2  504  502  0.18800089374E+02 -0.39253978302E+02 -0.62479778220E+02  0.76144867584E+02  0.00000000000E+00 0. -1.
         21    1    1    2  505  504 -0.44109831737E+02 -0.61489415866E+02 -0.67503781032E+02  0.10140703118E+03  0.00000000000E+00 0. -1.
          2    1    1    2  501    0  0.14389913872E+02  0.14731995360E+03 -0.15323424591E+04  0.15394751217E+04  0.00000000000E+00 0. -1.
<scales pt_clust_3="14000.00000" pt_clust_4="43.52377" pt_clust_5="78.96336" pt_clust_6="144.28313"></scales>
<clustering>
<clus scale="   43.524">  1  4  2 -1</clus>
<clus scale="   78.963">  1  5  2 -1</clus>
<clus scale="  144.283">  2  6  1 -1</clus>
<clus scale="   43.524">  1  3  2 -1</clus>
</clustering>
</event>
<event>
 6    0  0.3800129E+002  0.1120744E+03  0.7546771E-02  0.1256776E+00
         21   -1    0    0  501  502  0.00000000000E+00  0.00000000000E+00  0.36141811533E+02  0.36141811533E+02  0.00000000000E+00 0. -1.
          2   -1    0    0  505    0 -0.00000000000E+00 -0.00000000000E+00 -0.34614099271E+04  0.34614099271E+04  0.00000000000E+00 0. -1.
         21    1    1    2  503  502 -0.28279934735E+02  0.56671507383E+02 -0.13333172139E+02  0.64723936352E+02  0.00000000000E+00 0. -1.
         21    1    1    2  504  503 -0.24452416651E+02  0.30884003752E+02 -0.48966829746E+02  0.62844990120E+02  0.00000000000E+00 0.  1.
         21    1    1    2  505  504  0.11565540253E+03 -0.64362929999E+02 -0.15062948233E+04  0.15120988240E+04  0.00000000000E+00 0.  1.
          2    1    1    2  501    0 -0.62923051146E+02 -0.23192581136E+02 -0.18566732904E+04  0.18578839882E+04  0.00000000000E+00 0. -1.
<scales pt_clust_3="34.78866" pt_clust_4="34.78866" pt_clust_5="103.02817" pt_clust_6="67.06121"></scales>
<clustering>
<clus scale="   34.789">  3  4 -1 -1</clus>
<clus scale="   67.061">  2  6  1 -1</clus>
<clus scale="  103.028">  2  5  1 -1</clus>
<clus scale="  112.074">  1  3  2 -1</clus>
</clustering>
</event>
<event>
 6    0  0.3800129E+002  0.2435783E+03  0.7546771E-02  0.1117432E+00
         21   -1    0    0  505  502  0.00000000000E+00  0.00000000000E+00  0.66748775201E+03  0.66748775201E+03  0.00000000000E+00 0. -1.
         -2   -1    0    0    0  501 -0.00000000000E+00 -0.00000000000E+00 -0.41161490254E+03  0.41161490254E+03  0.00000000000E+00 0. -1.
         21    1    1    2  503  502 -0.67083750181E+02 -0.23656689397E+02  0.70116806576E+02  0.99881104599E+02  0.00000000000E+00 0. -1.
         21    1    1    2  504  501 -0.44044380964E+02  0.11907968909E+03 -0.28080857297E+01  0.12699513846E+03  0.00000000000E+00 0. -1.
         21    1    1    2  505  504 -0.29091067402E+02  0.23060337005E+03  0.38265805476E+03  0.44771798194E+03  0.00000000000E+00 0. -1.
         -2    1    1    2    0  503  0.14021919855E+03 -0.32602636974E+03 -0.19409392613E+03  0.40450842954E+03  0.00000000000E+00 0. -1.
<scales pt_clust_3="71.13275" pt_clust_4="127.30562" pt_clust_5="243.57828" pt_clust_6="14000.00000"></scales>
<clustering>
<clus scale="   71.133">  1  3  2 -1</clus>
<clus scale="  127.306">  2  4  1 -1</clus>
<clus scale="  243.578">  1  5  2 -1</clus>
<clus scale="   71.133">  1  3  2 -1</clus>
</clustering>
</event>
<event>
 6    0  0.3800129E+002  0.1705417E+03  0.7546771E-02  0.1177284E+00
          1   -1    0    0  504    0 -0.00000000000E+00  0.00000000000E+00  0.58860053818E+03  0.58860053818E+03  0.00000000000E+00 0. -1.
         21   -1    0    0  503  502  0.00000000000E+00 -0.00000000000E+00 -0.11866169440E+04  0.11866169440E+04  0.00000000000E+00 0. -1.
         21    1    1    2  503  501 -0.26686372641E+01 -0.53688259334E+02 -0.12853604294E+03  0.13932359869E+03  0.00000000000E+00 0. -1.
         21    1    1    2  504  505 -0.65876781015E+02 -0.26528575913E+02 -0.21920596200E+01  0.71051535819E+02  0.00000000000E+00 0. -1.
         21    1    1    2  505  502 -0.49442714303E+01 -0.11886734065E+03 -0.99186060806E+03  0.99897014786E+03  0.00000000000E+00 0. -1.
          1    1    1    2  501    0  0.73489689710E+02  0.19908417590E+03  0.52457230479E+03  0.56587219983E+03  0.00000000000E+00 0. -1.
<scales pt_clust_3="53.75454" pt_clust_4="71.82160" pt_clust_5="170.54169" pt_clust_6="14000.00000"></scales>
<clustering>
<clus scale="   53.755">  2  3  1 -1</clus>
<clus scale="   71.822">  1  4  2 -1</clus>
<clus scale="  170.542">  2  5  1 -1</clus>
<clus scale="   53.755">  2  3  1 -1</clus>
</clustering>
</event>
<event>
 6    0  0.3800129E+002  0.1223115E+03  0.7546771E-02  0.1239332E+00
          2   -1    0    0  505    0 -0.00000000000E+00  0.00000000000E+00  0.11935173680E+04  0.11935173680E+04  0.00000000000E+00 0. -1.
         21   -1    0    0  503  502  0.00000000000E+00 -0.00000000000E+00 -0.20537288543E+03  0.20537288543E+03  0.00000000000E+00 0. -1.
         21    1    1    2  503  501  0.66561739537E+02 -0.28280802570E+02 -0.15075689865E+03  0.16720619443E+03  0.00000000000E+00 0. -1.
         21    1    1    2  504  502  0.58467700756E+02  0.27192309316E+02 -0.10836458457E+02  0.65385950705E+02  0.00000000000E+00 0. -1.
         21    1    1    2  505  504  0.20029629538E+01  0.30288605887E+02  0.47438362769E+02  0.56318822514E+02  0.00000000000E+00 0.  1.
          2    1    1    2  501    0 -0.12703240325E+03 -0.29200112632E+02  0.11022994769E+04  0.11099792858E+04  0.00000000000E+00 0. -1.
<scales pt_clust_3="14000.00000" pt_clust_4="64.83340" pt_clust_5="30.35476" pt_clust_6="122.31146"></scales>
<clustering>
<clus scale="   30.355">  1  5  2 -1</clus>
<clus scale="   64.833">  2  4  1 -1</clus>
<clus scale="  122.311">  1  6  2 -1</clus>
<clus scale="   64.833">  2  3  1 -1</clus>
</clustering>
</event>
<event>
 6    0  0.3800129E+002  0.7234764E+02  0.7546771E-02  0.1352287E+00
         21   -1    0    0  505  502  0.00000000000E+00  0.00000000000E+00  0.23138156086E+04  0.23138156086E+04  0.00000000000E+00 0.  1.
         -3   -1    0    0    0  501 -0.00000000000E+00 -0.00000000000E+00 -0.40811642741E+02  0.40811642741E+02  0.00000000000E+00 0.  1.
         21    1    1    2  503  501  0.39364059909E+02 -0.23230101200E+02  0.11503043398E+02  0.47132651333E+02  0.00000000000E+00 0.  1.
         21    1    1    2  504  503 -0.45272058961E+02 -0.54071881283E+02  0.27398743219E+03  0.28291772773E+03  0.00000000000E+00 0.  1.
         21    1    1    2  505  504  0.66354647883E+02  0.31637441498E+02  0.19248750629E+04  0.19262782444E+04  0.00000000000E+00 0.  1.
         -3    1    1    2    0  502 -0.60446648832E+02  0.45664540985E+02  0.62638427321E+02  0.98298627842E+02  0.00000000000E+00 0.  1.
<scales pt_clust_3="45.70740" pt_clust_4="14000.00000" pt_clust_5="72.34764" pt_clust_6="40.74704"></scales>
<clustering>
<clus scale="   45.707">  2  3  1 -1</clus>
<clus scale="   40.747">  2  6  1 -1</clus>
<clus scale="   72.348">  1  5  2 -1</clus>
<clus scale="   72.348">  1  3  2 -1</clus>
</clustering>
</event>
<event>
 6    0  0.3800129E+002  0.4173107E+03  0.7546771E-02  0.1037945E+00
         21   -1    0    0  505  502  0.00000000000E+00  0.00000000000E+00  0.66729955237E+03  0.66729955237E+03  0.00000000000E+00 0.  1.
          3   -1    0    0  504    0 -0.00000000000E+00 -0.00000000000E+00 -0.73663742126E+03  0.73663742126E+03  0.00000000000E+00 0. -1.
         21    1    1    2  503  501  0.58887525482E+02  0.23690284613E+02 -0.11957915297E+03  0.13538147609E+03  0.00000000000E+00 0. -1.
         21    1    1    2  504  502 -0.29652983611E+02 -0.21390186784E+02  0.53754187737E+01  0.36955847368E+02  0.00000000000E+00 0. -1.
         21    1    1    2  505  503 -0.25161262322E+03 -0.27923136676E+03  0.51799393963E+03  0.63999749206E+03  0.00000000000E+00 0.  1.
          3    1    1    2  501    0  0.22237808135E+03  0.27693126893E+03 -0.47312807432E+03  0.59160215812E+03  0.00000000000E+00 0. -1.
<scales pt_clust_3="37.18578" pt_clust_4="36.56282" pt_clust_5="407.95651" pt_clust_6="37.18578"></scales>
<clustering>
<clus scale="   36.563">  1  4  2 -1</clus>
<clus scale="   37.186">  3  6 -1 -1</clus>
<clus scale="  407.957">  1  5  2 -1</clus>
<clus scale="   36.563">  1  3  2 -1</clus>
</clustering>
</event>
<event>
 6    0  0.3800129E+002  0.2190555E+03  0.7546771E-02  0.1134589E+00
          2   -1    0    0  503    0 -0.00000000000E+00  0.00000000000E+00  0.13561042527E+04  0.13561042527E+04  0.00000000000E+00 0.  1.
         21   -1    0    0  501  502  0.00000000000E+00 -0.00000000000E+00 -0.69762669394E+02  0.69762669394E+02  0.00000000000E+00 0. -1.
         21    1    1    2  503  504  0.31276939417E+02  0.17158537511E+02  0.61881313795E+03  0.61984059406E+03  0.00000000000E+00 0.  1.
         21    1    1    2  504  505  0.36148409161E+02 -0.78299518507E+02  0.19503239495E+03  0.21324904962E+03  0.00000000000E+00 0.  1.
         21    1    1    2  505  502  0.92267805658E+02 -0.88399982282E+02  0.24985503280E+03  0.28063400052E+03  0.00000000000E+00 0. -1.
          2    1    1    2  501    0 -0.15969315424E+03  0.14954096328E+03  0.22264101755E+03  0.31214327785E+03  0.00000000000E+00 0.  1.
<scales pt_clust_3="35.67439" pt_clust_4="34.03360" pt_clust_5="34.03360" pt_clust_6="215.10252"></scales>
<clustering>
<clus scale="   34.034">  4  5 -1 -1</clus>
<clus scale="   35.674">  1  3  2 -1</clus>
<clus scale="  215.103">  2  6  1 -1</clus>
<clus scale="  215.103">  2  3  1 -1</clus>
</clustering>
</event>
<event>
 6    0  0.3800129E+002  0.7695971E+02  0.7546771E-02  0.1337908E+00
          2   -1    0    0  503    0 -0.00000000000E+00  0.00000000000E+00  0.17599782502E+04  0.17599782502E+04  0.00000000000E+00 0. -1.
         21   -1    0    0  501  502  0.00000000000E+00 -0.00000000000E+00 -0.80774468616E+02  0.80774468616E+02  0.00000000000E+00 0.  1.
         21    1    1    2  503  504 -0.84550451355E+02 -0.16178951210E+02  0.12952141939E+04  0.12980717797E+04  0.00000000000E+00 0. -1.
         21    1    1    2  504  505  0.15272117301E+02 -0.59230550524E+02  0.12378611534E+03  0.13807424826E+03  0.00000000000E+00 0. -1.
         21    1    1    2  505  502  0.36893534911E+02  0.88128592251E+01 -0.62721638366E+02  0.73299408765E+02  0.00000000000E+00 0.  1.
          2    1    1    2  501    0  0.32384799143E+02  0.66596642509E+02  0.32292511075E+03  0.33130728209E+03  0.00000000000E+00 0. -1.
<scales pt_clust_3="14000.00000" pt_clust_4="65.10478" pt_clust_5="37.93151" pt_clust_6="76.95971"></scales>
<clustering>
<clus scale="   37.932">  2  5  1 -1</clus>
<clus scale="   65.105">  2  4  1 -1</clus>
<clus scale="   76.960">  2  6  1 -1</clus>
<clus scale="   37.932">  2  3  1 -1</clus>
</clustering>
</event>
<event>
 6    0  0.3800129E+002  0.1841690E+03  0.7546771E-02  0.1163828E+00
          2   -1    0    0  503    0 -0.00000000000E+00  0.00000000000E+00  0.23398467648E+04  0.23398467648E+04  0.00000000000E+00 0.  1.
         21   -1    0    0  504  502  0.00000000000E+00 -0.00000000000E+00 -0.18042669265E+03  0.18042669265E+03  0.00000000000E+00 0.  1.
         21    1    1    2  503  505 -0.25303874644E+02  0.17560416627E+03 -0.23808251748E+02  0.17900821807E+03  0.00000000000E+00 0.  1.
         21    1    1    2  504  501 -0.45998905771E+02 -0.12441833934E+03  0.27562417275E+03  0.30588315923E+03  0.00000000000E+00 0.  1.
         21    1    1    2  505  502  0.42637450845E+02  0.44696922313E+02 -0.47372592080E+02  0.77845549386E+02  0.00000000000E+00 0.  1.
          2    1    1    2  501    0  0.28665329570E+02 -0.95882749246E+02  0.19549767432E+04  0.19575365307E+04  0.00000000000E+00 0.  1.
<scales pt_clust_3="184.16900" pt_clust_4="14000.00000" pt_clust_5="61.77190" pt_clust_6="99.74515"></scales>
<clustering>
<clus scale="   61.772">  2  5  1 -1</clus>
<clus scale="   99.745">  1  6  2 -1</clus>
<clus scale="  184.169">  2  3  1 -1</clus>
<clus scale="   61.772">  2  3  1 -1</clus>
</clustering>
</event>
<event>
 6    0  0.3800129E+002  0.1226915E+03  0.7546771E-02  0.1238722E+00
         21   -1    0    0  504  502  0.00000000000E+00  0.00000000000E+00  0.93156349529E+03  0.93156349529E+03  0.00000000000E+00 0.  1.
          2   -1    0    0  505    0 -0.00000000000E+00 -0.00000000000E+00 -0.20116901200E+03  0.20116901200E+03  0.00000000000E+00 0. -1.
         21    1    1    2  503  502  0.57615998166E+02 -0.72474983850E+02  0.56308308626E+03  0.57064418735E+03  0.00000000000E+00 0.  1.
         21    1    1    2  504  501  0.77774508147E+02  0.94205483302E+02  0.32122171910E+03  0.34366690272E+03  0.00000000000E+00 0.  1.
         21    1    1    2  505  503 -0.48462847581E+02  0.10608167394E+01 -0.10605465520E+03  0.11660773052E+03  0.00000000000E+00 0. -1.
          2    1    1    2  501    0 -0.86927658732E+02 -0.22791316191E+02 -0.47855666880E+02  0.10181368670E+03  0.00000000000E+00 0. -1.
<scales pt_clust_3="91.29574" pt_clust_4="122.69146" pt_clust_5="48.47446" pt_clust_6="14000.00000"></scales>
<clustering>
<clus scale="   48.474">  2  5  1 -1</clus>
<clus scale="   91.296">  1  3  2 -1</clus>
<clus scale="  122.691">  1  4  2 -1</clus>
<clus scale="   91.296">  1  3  2 -1</clus>
</clustering>
</event>
<event>
 6    0  0.3800129E+002  0.7880406E+02  0.7546771E-02  0.1332480E+00
         -2   -1    0    0    0  501 -0.00000000000E+00  0.00000000000E+00  0.27417818682E+03  0.27417818682E+03  0.00000000000E+00 0.  1.
         21   -1    0    0  504  502  0.00000000000E+00 -0.00000000000E+00 -0.15534117586E+03  0.15534117586E+03  0.00000000000E+00 0.  1.
         21    1    1    2  503  501 -0.64020055962E+02 -0.37891091585E+02  0.12940223826E+03  0.14926232496E+03  0.00000000000E+00 0.  1.
         21    1    1    2  504  503 -0.30263674739E+02  0.97452785731E+01 -0.38302702038E+02  0.49779086438E+02  0.00000000000E+00 0.  1.
         21    1    1    2  505  502 -0.10592375925E+02  0.49202985877E+02 -0.69572848021E+02  0.85869164597E+02  0.00000000000E+00 0.  1.
         -2    1    1    2    0  505  0.10487610663E+03 -0.21057172865E+02  0.97310322761E+02  0.14460878668E+03  0.00000000000E+00 0.  1.
<scales pt_clust_3="14000.00000" pt_clust_4="31.79403" pt_clust_5="64.36938" pt_clust_6="78.80406"></scales>
<clustering>
<clus scale="   31.794">  2  4  1 -1</clus>
<clus scale="   64.369">  2  5  1 -1</clus>
<clus scale="   78.804">  2  6  1 -1</clus>
<clus scale="   31.794">  2  3  1 -1</clus>
</clustering>
</event>
<event>
 6    0  0.3800129E+002  0.1506225E+03  0.7546771E-02  0.1199710E+00
         21   -1    0    0  505  502  0.00000000000E+00  0.00000000000E+00  0.40897122843E+02  0.40897122843E+02  0.00000000000E+00 0.  1.
         -2   -1    0    0    0  501 -0.00000000000E+00 -0.00000000000E+00 -0.10417855009E+04  0.10417855009E+04  0.00000000000E+00 0. -1.
         21    1    1    2  503  502  0.18855093431E+02 -0.85099428382E+02 -0.11783111166E+03  0.14656601971E+03  0.00000000000E+00 0.  1.
         21    1    1    2  504  503  0.13438006342E+01 -0.55186967738E+02 -0.34465777507E+02  0.65079159701E+02  0.00000000000E+00 0.  1.
         21    1    1    2  505  501  0.27309410269E+02 -0.15501856454E+02 -0.95328043607E+02  0.10036706303E+03  0.00000000000E+00 0. -1.
         -2    1    1    2    0  504 -0.47508304333E+02  0.15578825257E+03 -0.75326344532E+03  0.77067038134E+03  0.00000000000E+00 0. -1.
<scales pt_clust_3="30.93559" pt_clust_4="30.93559" pt_clust_5="31.40241" pt_clust_6="145.51999"></scales>
<clustering>
<clus scale="   30.936">  3  4 -1 -1</clus>
<clus scale="   31.402">  2  5  1 -1</clus>
<clus scale="  145.520">  2  6  1 -1</clus>
<clus scale="  150.623">  1  3  2 -1</clus>
</clustering>
</event>
<event>
 6    0  0.3800129E+002  0.1725974E+03  0.7546771E-02  0.1175166E+00
         21   -1    0    0  501  502  0.00000000000E+00  0.00000000000E+00  0.37374007173E+02  0.37374007173E+02  0.00000000000E+00 0. -1.
          2   -1    0    0  505    0 -0.00000000000E+00 -0.00000000000E+00 -0.17448056012E+04  0.17448056012E+04  0.00000000000E+00 0. -1.
         21    1    1    2  503  502 -0.63858069847E+02 -0.88616589663E+02 -0.11352574274E+03  0.15753998639E+03  0.00000000000E+00 0. -1.
         21    1    1    2  504  503 -0.57424007024E+02 -0.29871895356E+02 -0.11289903330E+03  0.13013853555E+03  0.00000000000E+00 0. -1.
         21    1    1    2  505  504  0.42338857182E+02  0.25251835173E+01 -0.14292078876E+03  0.14908154560E+03  0.00000000000E+00 0.  1.
          2    1    1    2  501    0  0.78943219690E+02  0.11596330150E+03 -0.13380860292E+04  0.13454195408E+04  0.00000000000E+00 0. -1.
<scales pt_clust_3="40.30951" pt_clust_4="40.30951" pt_clust_5="42.41409" pt_clust_6="164.46273"></scales>
<clustering>
<clus scale="   40.310">  3  4 -1 -1</clus>
<clus scale="   42.414">  2  5  1 -1</clus>
<clus scale="  164.463">  2  6  1 -1</clus>
<clus scale="  172.597">  1  3  2 -1</clus>
</clustering>
</event>
<event>
 6    0  0.3800129E+002  0.1219265E+03  0.7546771E-02  0.1239952E+00
          2   -1    0    0  505    0 -0.00000000000E+00  0.00000000000E+00  0.12626860043E+04  0.12626860043E+04  0.00000000000E+00 0. -1.
         21   -1    0    0  504  502  0.00000000000E+00 -0.00000000000E+00 -0.40157832481E+03  0.40157832481E+03  0.00000000000E+00 0.  1.
         21    1    1    2  503  501  0.38790602421E+02  0.67820527923E+02  0.42724502244E+02  0.89048963699E+02  0.00000000000E+00 0.  1.
         21    1    1    2  504  503  0.48977620454E+02  0.19883851416E+02 -0.18062698822E+03  0.18820277289E+03  0.00000000000E+00 0.  1.
         21    1    1    2  505  502 -0.47861116353E+02  0.34698277497E+02 -0.18592864427E+03  0.19510027596E+03  0.00000000000E+00 0.  1.
          2    1    1    2  501    0 -0.39907106523E+02 -0.12240265684E+03  0.11849388097E+04  0.11919123166E+04  0.00000000000E+00 0. -1.
<scales pt_clust_3="14000.00000" pt_clust_4="52.85996" pt_clust_5="52.37125" pt_clust_6="121.92648"></scales>
<clustering>
<clus scale="   52.860">  2  4  1 -1</clus>
<clus scale="   52.371">  2  5  1 -1</clus>
<clus scale="  121.926">  1  6  2 -1</clus>
<clus scale="   52.860">  2  3  1 -1</clus>
</clustering>
</event>
<event>
 6    0  0.3800129E+002  0.1497510E+03  0.7546771E-02  0.1200779E+00
         21   -1    0    0  504  502  0.00000000000E+00  0.00000000000E+00  0.10045734545E+03  0.10045734545E+03  0.00000000000E+00 0.  1.
          2   -1    0    0  503    0 -0.00000000000E+00 -0.00000000000E+00 -0.14803222548E+04  0.14803222548E+04  0.00000000000E+00 0.  1.
         21    1    1    2  503  502 -0.12422525288E+02  0.33246556124E+02 -0.60373708061E+03  0.60477939377E+03  0.00000000000E+00 0.  1.
         21    1    1    2  504  505 -0.21921903742E+02 -0.17659937665E+03 -0.17384982334E+02  0.17880197791E+03  0.00000000000E+00 0.  1.
         21    1    1    2  505  501 -0.45141874942E+02  0.98548110358E+02 -0.17132261210E+03  0.20273370797E+03  0.00000000000E+00 0.  1.
          2    1    1    2  501    0  0.79486303972E+02  0.44804710164E+02 -0.58742023427E+03  0.59446452056E+03  0.00000000000E+00 0.  1.
<scales pt_clust_3="35.49159" pt_clust_4="149.75098" pt_clust_5="14000.00000" pt_clust_6="97.85792"></scales>
<clustering>
<clus scale="   35.492">  2  3  1 -1</clus>
<clus scale="   97.858">  2  6  1 -1</clus>
<clus scale="  149.751">  1  4  2 -1</clus>
<clus scale="  149.751">  1  3  2 -1</clus>
</clustering>
</event>
<event>
 6    0  0.3800129E+002  0.1809295E+03  0.7546771E-02  0.1166907E+00
         21   -1    0    0  505  502  0.00000000000E+00  0.00000000000E+00  0.39262511901E+02  0.39262511901E+02  0.00000000000E+00 0. -1.
          2   -1    0    0  504    0 -0.00000000000E+00 -0.00000000000E+00 -0.83894245517E+03  0.83894245517E+03  0.00000000000E+00 0.  1.
         21    1    1    2  503  502  0.13630187868E+03 -0.49159610269E+02 -0.29625337066E+03  0.32978921911E+03  0.00000000000E+00 0. -1.
         21    1    1    2  504  503  0.10242351619E+02 -0.31699715169E+02 -0.40042088475E+02  0.52087873425E+02  0.00000000000E+00 0. -1.
         21    1    1    2  505  501 -0.46571744950E+02  0.59212715375E+02 -0.20785562393E+03  0.22108603188E+03  0.00000000000E+00 0.  1.
          2    1    1    2  501    0 -0.99972485353E+02  0.21646610063E+02 -0.25552886020E+03  0.27524184266E+03  0.00000000000E+00 0.  1.
<scales pt_clust_3="32.94924" pt_clust_4="32.94924" pt_clust_5="51.51033" pt_clust_6="177.80939"></scales>
<clustering>
<clus scale="   32.949">  3  4 -1 -1</clus>
<clus scale="   51.510">  5  6 -1 -1</clus>
<clus scale="  177.809">  2  5  1 -1</clus>
<clus scale="  180.929">  1  3  2 -1</clus>
</clustering>
</event>
<event>
 6    0  0.3800129E+002  0.2080253E+03  0.7546771E-02  0.1143139E+00
         -3   -1    0    0    0  501 -0.00000000000E+00  0.00000000000E+00  0.11486322872E+03  0.11486322872E+03  0.00000000000E+00 0. -1.
         21   -1    0    0  505  502  0.00000000000E+00 -0.00000000000E+00 -0.54493197554E+03  0.54493197554E+03  0.00000000000E+00 0. -1.
         21    1    1    2  503  501  0.49744138494E+02 -0.14134347007E+02 -0.19011951310E+02  0.55097308214E+02  0.00000000000E+00 0.  1.
         21    1    1    2  504  502  0.75351996871E+02  0.27781722291E+02 -0.11859528665E+03  0.14322915046E+03  0.00000000000E+00 0. -1.
         21    1    1    2  505  503  0.73074965195E+02 -0.11221853043E+03 -0.13247769804E+03  0.18837008677E+03  0.00000000000E+00 0. -1.
         -3    1    1    2    0  504 -0.19817110056E+03  0.98571155147E+02 -0.15998381081E+03  0.27309865881E+03  0.00000000000E+00 0. -1.
<scales pt_clust_3="45.14497" pt_clust_4="80.31032" pt_clust_5="45.14497" pt_clust_6="194.92776"></scales>
<clustering>
<clus scale="   45.145">  3  5 -1 -1</clus>
<clus scale="   80.310">  2  4  1 -1</clus>
<clus scale="  194.928">  2  6  1 -1</clus>
<clus scale="   80.310">  2  3  1 -1</clus>
</clustering>
</event>
<event>
 6    0  0.3800129E+002  0.2610957E+03  0.7546771E-02  0.1106487E+00
          1   -1    0    0  503    0 -0.00000000000E+00  0.00000000000E+00  0.83285427820E+03  0.83285427820E+03  0.00000000000E+00 0.  1.
         21   -1    0    0  504  502  0.00000000000E+00 -0.00000000000E+00 -0.13031126479E+04  0.13031126479E+04  0.00000000000E+00 0. -1.
         21    1    1    2  503  505 -0.21104198787E+02  0.32872828709E+02  0.13602845246E+03  0.14152649912E+03  0.00000000000E+00 0. -1.
         21    1    1    2  504  501 -0.45416298659E+02 -0.27847686781E+02 -0.15002693148E+03  0.15920494343E+03  0.00000000000E+00 0. -1.
         21    1    1    2  505  502 -0.13936843828E+03  0.21127591645E+03 -0.10983311868E+04  0.11271168840E+04  0.00000000000E+00 0. -1.
          1    1    1    2  501    0  0.20588893573E+03 -0.21630105838E+03  0.64207129610E+03  0.70811859951E+03  0.00000000000E+00 0.  1.
<scales pt_clust_3="39.06418" pt_clust_4="53.28011" pt_clust_5="14000.00000" pt_clust_6="261.09565"></scales>
<clustering>
<clus scale="   39.064">  1  3  2 -1</clus>
<clus scale="   53.280">  2  4  1 -1</clus>
<clus scale="  261.096">  1  6  2 -1</clus>
<clus scale="   53.280">  2  3  1 -1</clus>
</clustering>
</event>
<event>
 6    0  0.3800129E+002  0.9615500E+02  0.7546771E-02  0.1288596E+00
          2   -1    0    0  504    0 -0.00000000000E+00  0.00000000000E+00  0.42452154590E+03  0.42452154590E+03  0.00000000000E+00 0.  1.
         21   -1    0    0  505  502  0.00000000000E+00 -0.00000000000E+00 -0.39569973483E+03  0.39569973483E+03  0.00000000000E+00 0.  1.
         21    1    1    2  503  502  0.59250793277E+02 -0.43560421537E+02 -0.88055708178E+02  0.11472564914E+03  0.00000000000E+00 0.  1.
         21    1    1    2  504  503 -0.56027262244E+02 -0.23586992002E+02  0.90377759474E+02  0.10891987750E+03  0.00000000000E+00 0. -1.
         21    1    1    2  505  501 -0.91742371581E+02  0.72672883338E+02 -0.26616852311E+03  0.29076398231E+03  0.00000000000E+00 0.  1.
          2    1    1    2  501    0  0.88518840548E+02 -0.55254697998E+01  0.29266828289E+03  0.30581177178E+03  0.00000000000E+00 0.  1.
<scales pt_clust_3="14000.00000" pt_clust_4="60.78980" pt_clust_5="96.15500" pt_clust_6="45.88190"></scales>
<clustering>
<clus scale="   60.790">  1  4  2 -1</clus>
<clus scale="   45.882">  1  6  2 -1</clus>
<clus scale="   96.155">  2  5  1 -1</clus>
<clus scale="   96.155">  2  3  1 -1</clus>
</clustering>
</event>
<event>
 6    0  0.3800129E+002  0.9750367E+02  0.7546771E-02  0.1285635E+00
         21   -1    0    0  505  502  0.00000000000E+00  0.00000000000E+00  0.74722825520E+02  0.74722825520E+02  0.00000000000E+00 0.  1.
          2   -1    0    0  504    0 -0.00000000000E+00 -0.00000000000E+00 -0.58917859280E+03  0.58917859280E+03  0.00000000000E+00 0.  1.
         21    1    1    2  503  502  0.67855050550E+02 -0.74795461606E+02 -0.46850397224E+02  0.11132667552E+03  0.00000000000E+00 0.  1.
         21    1    1    2  504  503  0.59532335937E+02 -0.63656623968E+00 -0.26406085362E+03  0.27068919197E+03  0.00000000000E+00 0.  1.
         21    1    1    2  505  501 -0.55209141656E+02  0.76916250383E+02 -0.39369107235E+02  0.10253821483E+03  0.00000000000E+00 0.  1.
          2    1    1    2  501    0 -0.72178244831E+02 -0.14842225367E+01 -0.16417540921E+03  0.17934733600E+03  0.00000000000E+00 0.  1.
<scales pt_clust_3="97.50367" pt_clust_4="59.53574" pt_clust_5="14000.00000" pt_clust_6="40.44425"></scales>
<clustering>
<clus scale="   59.536">  2  4  1 -1</clus>
<clus scale="   40.444">  2  6  1 -1</clus>
<clus scale="   97.504">  2  3  1 -1</clus>
<clus scale="   97.504">  1  3  2 -1</clus>
</clustering>
</event>
<event>
 6    0  0.3800129E+002  0.6665083E+02  0.7546771E-02  0.1371867E+00
          2   -1    0    0  505    0 -0.00000000000E+00  0.00000000000E+00  0.16019527125E+04  0.16019527125E+04  0.00000000000E+00 0.  1.
         21   -1    0    0  504  502  0.00000000000E+00 -0.00000000000E+00 -0.10500427211E+03  0.10500427211E+03  0.00000000000E+00 0.  1.
         21    1    1    2  503  501 -0.14937909599E+02  0.86757010692E+02  0.35303165865E+03  0.36384237254E+03  0.00000000000E+00 0. -1.
         21    1    1    2  504  503  0.95662686134E+02 -0.45931434691E+02  0.15246067921E+03  0.18575603601E+03  0.00000000000E+00 0.  1.
         21    1    1    2  505  502 -0.64058145539E+02  0.45789329623E+01 -0.69887174598E+02  0.94913802001E+02  0.00000000000E+00 0.  1.
          2    1    1    2  501    0 -0.16666630996E+02 -0.45404508963E+02  0.10613432771E+04  0.10624447740E+04  0.00000000000E+00 0.  1.
<scales pt_clust_3="62.30595" pt_clust_4="14000.00000" pt_clust_5="66.65083" pt_clust_6="48.36679"></scales>
<clustering>
<clus scale="   48.367">  1  6  2 -1</clus>
<clus scale="   62.306">  1  3  2 -1</clus>
<clus scale="   66.651">  2  5  1 -1</clus>
<clus scale="   66.651">  2  3  1 -1</clus>
</clustering>
</event>
<event>
 6    0  0.3800129E+002  0.2380116E+03  0.7546771E-02  0.1121125E+00
         21   -1    0    0  501  502  0.00000000000E+00  0.00000000000E+00  0.61936983270E+02  0.61936983270E+02  0.00000000000E+00 0. -1.
          2   -1    0    0  505    0 -0.00000000000E+00 -0.00000000000E+00 -0.17250856451E+04  0.17250856451E+04  0.00000000000E+00 0. -1.
         21    1    1    2  503  502 -0.11656532135E+03  0.12321787615E+03 -0.13908348355E+03  0.21934979950E+03  0.00000000000E+00 0. -1.
         21    1    1    2  504  503 -0.44751943988E+02  0.50641195012E+02 -0.14125431946E+03  0.15658879234E+03  0.00000000000E+00 0. -1.
         21    1    1    2  505  504  0.49108105175E+02 -0.13183520988E+02 -0.66683589168E+03  0.66877164836E+03  0.00000000000E+00 0.  1.
          2    1    1    2  501    0  0.11220916016E+03 -0.16067555018E+03 -0.71597496717E+03  0.74231238819E+03  0.00000000000E+00 0. -1.
<scales pt_clust_3="49.68158" pt_clust_4="49.68158" pt_clust_5="50.84694" pt_clust_6="223.96249"></scales>
<clustering>
<clus scale="   50.847">  2  5  1 -1</clus>
<clus scale="   49.682">  3  4 -1 -1</clus>
<clus scale="  223.962">  2  6  1 -1</clus>
<clus scale="  238.012">  1  3  2 -1</clus>
</clustering>
</event>
<event>
 6    0  0.3800129E+002  0.1466999E+03  0.7546771E-02  0.1204588E+00
          2   -1    0    0  505    0 -0.00000000000E+00  0.00000000000E+00  0.72675773247E+03  0.72675773247E+03  0.00000000000E+00 0. -1.
         21   -1    0    0  501  502  0.00000000000E+00 -0.00000000000E+00 -0.21075781942E+03  0.21075781942E+03  0.00000000000E+00 0. -1.
         21    1    1    2  503  502  0.83779593020E+02  0.47558360444E+01 -0.11067151759E+03  0.13888780720E+03  0.00000000000E+00 0. -1.
         21    1    1    2  504  503  0.41211902545E+02  0.43016314535E+02 -0.54276763680E+02  0.80590268042E+02  0.00000000000E+00 0. -1.
         21    1    1    2  505  504  0.48524205593E+02 -0.10220852598E+02  0.17250315291E+03  0.17948928135E+03  0.00000000000E+00 0. -1.
          2    1    1    2  501    0 -0.17351570116E+03 -0.37551297981E+02  0.50844504141E+03  0.53854819530E+03  0.00000000000E+00 0. -1.
<scales pt_clust_3="46.59032" pt_clust_4="46.59032" pt_clust_5="49.58895" pt_clust_6="135.87947"></scales>
<clustering>
<clus scale="   46.590">  3  4 -1 -1</clus>
<clus scale="   49.589">  1  5  2 -1</clus>
<clus scale="  135.879">  1  6  2 -1</clus>
<clus scale="  146.700">  2  3  1 -1</clus>
</clustering>
</event>
<event>
 6    0  0.3800129E+002  0.1193787E+03  0.7546771E-02  0.1244126E+00
          1   -1    0    0  505    0 -0.00000000000E+00  0.00000000000E+00  0.21841938578E+03  0.21841938578E+03  0.00000000000E+00 0. -1.
         21   -1    0    0  501  502  0.00000000000E+00 -0.00000000000E+00 -0.25870781032E+03  0.25870781032E+03  0.00000000000E+00 0. -1.
         21    1    1    2  503  504 -0.82312119968E+02 -0.11947269255E+02 -0.13943596049E+03  0.16235889077E+03  0.00000000000E+00 0. -1.
         21    1    1    2  504  502 -0.30919604228E+02 -0.31882670195E+02 -0.24624795122E+02  0.50782941222E+02  0.00000000000E+00 0. -1.
         21    1    1    2  505  503 -0.41610694081E+02 -0.39443919788E+02  0.28889909226E+02  0.64202021193E+02  0.00000000000E+00 0. -1.
          1    1    1    2  501    0  0.15484241828E+03  0.83273859238E+02  0.94882421840E+02  0.19978334291E+03  0.00000000000E+00 0. -1.
<scales pt_clust_3="119.37870" pt_clust_4="44.41314" pt_clust_5="60.87996" pt_clust_6="14000.00000"></scales>
<clustering>
<clus scale="   44.413">  2  4  1 -1</clus>
<clus scale="   60.880">  1  5  2 -1</clus>
<clus scale="  119.379">  2  3  1 -1</clus>
<clus scale="   44.413">  2  3  1 -1</clus>
</clustering>
</event>
<event>
 6    0  0.3800129E+002  0.1414237E+03  0.7546771E-02  0.1211426E+00
         21   -1    0    0  505  502  0.00000000000E+00  0.00000000000E+00  0.72797374473E+02  0.72797374473E+02  0.00000000000E+00 0. -1.
          1   -1    0    0  504    0 -0.00000000000E+00 -0.00000000000E+00 -0.10080499879E+04  0.10080499879E+04  0.00000000000E+00 0.  1.
         21    1    1    2  503  502 -0.64229761022E+02 -0.51158475833E+02 -0.13496724152E+02  0.83215463787E+02  0.00000000000E+00 0. -1.
         21    1    1    2  504  503 -0.75905140024E+02 -0.10187455648E+02 -0.31846119440E+02  0.82943051897E+02  0.00000000000E+00 0. -1.
         21    1    1    2  505  501  0.80500094880E+02  0.52856543617E+02 -0.19815852722E+03  0.22031995231E+03  0.00000000000E+00 0.  1.
          1    1    1    2  501    0  0.59634806166E+02  0.84893878652E+01 -0.69175124260E+03  0.69436889436E+03  0.00000000000E+00 0.  1.
<scales pt_clust_3="44.79644" pt_clust_4="44.79644" pt_clust_5="133.60054" pt_clust_6="60.23603"></scales>
<clustering>
<clus scale="   44.796">  3  4 -1 -1</clus>
<clus scale="   60.236">  2  6  1 -1</clus>
<clus scale="  133.601">  2  5  1 -1</clus>
<clus scale="  141.424">  1  3  2 -1</clus>
</clustering>
</event>
<event>
 6    0  0.3800129E+002  0.8400405E+02  0.7546771E-02  0.1318058E+00
          1   -1    0    0  503    0 -0.00000000000E+00  0.00000000000E+00  0.67206185401E+03  0.67206185401E+03  0.00000000000E+00 0. -1.
         21   -1    0    0  505  502  0.00000000000E+00 -0.00000000000E+00 -0.21073936821E+04  0.21073936821E+04  0.00000000000E+00 0. -1.
         21    1    1    2  503  504 -0.39837377923E+02 -0.79036499443E+02  0.37534045959E+03  0.38563486036E+03  0.00000000000E+00 0. -1.
         21    1    1    2  504  502 -0.23889941347E+02 -0.24740353113E+02 -0.62604261676E+03  0.62698658069E+03  0.00000000000E+00 0. -1.
         21    1    1    2  505  501  0.99383288283E+02  0.13650670148E+02 -0.14659021751E+04  0.14693306523E+04  0.00000000000E+00 0. -1.
          1    1    1    2  501    0 -0.35655969012E+02  0.90126182408E+02  0.28127250415E+03  0.29750344280E+03  0.00000000000E+00 0. -1.
<scales pt_clust_3="14000.00000" pt_clust_4="34.39207" pt_clust_5="76.48341" pt_clust_6="84.00405"></scales>
<clustering>
<clus scale="   34.392">  2  4  1 -1</clus>
<clus scale="   76.483">  2  5  1 -1</clus>
<clus scale="   84.004">  2  6  1 -1</clus>
<clus scale="   34.392">  2  3  1 -1</clus>
</clustering>
</event>
<event>
 6    0  0.3800129E+002  0.1131248E+03  0.7546771E-02  0.1254890E+00
         21   -1    0    0  503  502  0.00000000000E+00  0.00000000000E+00  0.16602801798E+03  0.16602801798E+03  0.00000000000E+00 0. -1.
          3   -1    0    0  504    0 -0.00000000000E+00 -0.00000000000E+00 -0.45666193845E+03  0.45666193845E+03  0.00000000000E+00 0. -1.
         21    1    1    2  503  505 -0.31055023190E+02  0.22083190555E+02  0.77576474492E+02  0.86430267644E+02  0.00000000000E+00 0. -1.
         21    1    1    2  504  502  0.20643479938E+02  0.29417207286E+02 -0.97711395540E+02  0.10411072071E+03  0.00000000000E+00 0. -1.
         21    1    1    2  505  501 -0.89052789742E+02 -0.29224721485E+02  0.42544222226E+02  0.10292956112E+03  0.00000000000E+00 0. -1.
          3    1    1    2  501    0  0.99464332994E+02 -0.22275676356E+02 -0.31304322165E+03  0.32921940695E+03  0.00000000000E+00 0. -1.
<scales pt_clust_3="38.11160" pt_clust_4="35.93780" pt_clust_5="14000.00000" pt_clust_6="113.12484"></scales>
<clustering>
<clus scale="   35.938">  2  4  1 -1</clus>
<clus scale="   38.112">  1  3  2 -1</clus>
<clus scale="  113.125">  2  6  1 -1</clus>
<clus scale="   38.112">  1  3  2 -1</clus>
</clustering>
</event>
<event>
 6    0  0.3800129E+002  0.2384623E+03  0.7546771E-02  0.1120821E+00
          2   -1    0    0  505    0 -0.00000000000E+00  0.00000000000E+00  0.34902634115E+04  0.34902634115E+04  0.00000000000E+00 0. -1.
         21   -1    0    0  504  502  0.00000000000E+00 -0.00000000000E+00 -0.16608253648E+03  0.16608253648E+03  0.00000000000E+00 0. -1.
         21    1    1    2  503  501 -0.91779193300E+01 -0.10260947518E+03  0.10020073230E+04  0.10072892405E+04  0.00000000000E+00 0. -1.
         21    1    1    2  504  503  0.11259853745E+02  0.15851257539E+03 -0.10294445481E+03  0.18934249824E+03  0.00000000000E+00 0. -1.
         21    1    1    2  505  502  0.30462299918E+01  0.68642638239E+02  0.59725938111E+02  0.91039985637E+02  0.00000000000E+00 0. -1.
          2    1    1    2  501    0 -0.51281644068E+01 -0.12454573845E+03  0.23653920687E+04  0.23686742236E+04  0.00000000000E+00 0. -1.
<scales pt_clust_3="69.90298" pt_clust_4="225.64969" pt_clust_5="68.71020" pt_clust_6="69.90298"></scales>
<clustering>
<clus scale="   68.710">  2  5  1 -1</clus>
<clus scale="   69.903">  3  6 -1 -1</clus>
<clus scale="  225.650">  2  4  1 -1</clus>
<clus scale="   68.710">  2  3  1 -1</clus>
</clustering>
</event>
<event>
 6    0  0.3800129E+002  0.2150564E+03  0.7546771E-02  0.1137623E+00
         21   -1    0    0  504  502  0.00000000000E+00  0.00000000000E+00  0.33404952411E+03  0.33404952411E+03  0.00000000000E+00 0.  1.
         -3   -1    0    0    0  501 -0.00000000000E+00 -0.00000000000E+00 -0.34612247609E+03  0.34612247609E+03  0.00000000000E+00 0.  1.
         21    1    1    2  503  502  0.20639479260E+02 -0.41883649005E+02  0.10227797853E+03  0.11243225983E+03  0.00000000000E+00 0.  1.
         21    1    1    2  504  501  0.22610622760E+02  0.23254362573E+02 -0.19450168206E+02  0.37819501365E+02  0.00000000000E+00 0.  1.
         21    1    1    2  505  503 -0.56442361807E+01 -0.16199702686E+03  0.15165363248E+03  0.22197684195E+03  0.00000000000E+00 0.  1.
         -3    1    1    2    0  505 -0.37605865839E+02  0.18062631330E+03 -0.24655439479E+03  0.30794339706E+03  0.00000000000E+00 0.  1.
<scales pt_clust_3="40.26180" pt_clust_4="32.43464" pt_clust_5="40.26180" pt_clust_6="201.72566"></scales>
<clustering>
<clus scale="   32.435">  2  4  1 -1</clus>
<clus scale="   40.262">  3  5 -1 -1</clus>
<clus scale="  201.726">  2  6  1 -1</clus>
<clus scale="  215.056">  1  3  2 -1</clus>
</clustering>
</event>
<event>
 6    0  0.3800129E+002  0.1189683E+03  0.7546771E-02  0.1244809E+00
          1   -1    0    0  504    0 -0.00000000000E+00  0.00000000000E+00  0.99677644783E+02  0.99677644783E+02  0.00000000000E+00 0.  1.
         21   -1    0    0  503  502  0.00000000000E+00 -0.00000000000E+00 -0.69761284670E+03  0.69761284670E+03  0.00000000000E+00 0. -1.
         21    1    1    2  503  501  0.87834173549E+01  0.50365047079E+02 -0.31969919589E+03  0.32376127354E+03  0.00000000000E+00 0. -1.
         21    1    1    2  504  505 -0.38815681089E+02  0.75622480172E+01 -0.19781311135E+02  0.44217021199E+02  0.00000000000E+00 0. -1.
         21    1    1    2  505  502 -0.65068691188E+02  0.61315899062E+02 -0.26191078172E+03  0.27675048623E+03  0.00000000000E+00 0. -1.
          1    1    1    2  501    0  0.95100954923E+02 -0.11924319416E+03  0.34560868227E+01  0.15256171052E+03  0.00000000000E+00 0.  1.
<scales pt_clust_3="51.15159" pt_clust_4="39.54548" pt_clust_5="118.96829" pt_clust_6="14000.00000"></scales>
<clustering>
<clus scale="   39.545">  1  4  2 -1</clus>
<clus scale="   51.152">  2  3  1 -1</clus>
<clus scale="  118.968">  2  5  1 -1</clus>
<clus scale="   51.152">  2  3  1 -1</clus>
</clustering>
</event>
<event>
 6    0  0.3800129E+002  0.1419601E+03  0.7546771E-02  0.1210716E+00
         21   -1    0    0  505  502  0.00000000000E+00  0.00000000000E+00  0.30634550261E+04  0.30634550261E+04  0.00000000000E+00 0.  1.
          2   -1    0    0  503    0 -0.00000000000E+00 -0.00000000000E+00 -0.25135475993E+03  0.25135475993E+03  0.00000000000E+00 0.  1.
         21    1    1    2  503  502 -0.23140812770E+02  0.36344346346E+02  0.49901223939E+03  0.50086886885E+03  0.00000000000E+00 0.  1.
         21    1    1    2  504  501  0.29549161246E+02 -0.25500644811E+02 -0.24966842705E+02  0.46333347071E+02  0.00000000000E+00 0. -1.
         21    1    1    2  505  504 -0.71072812812E+02  0.52571662233E+02  0.25424804157E+04  0.25440168609E+04  0.00000000000E+00 0.  1.
          2    1    1    2  501    0  0.64664464336E+02 -0.63415363767E+02 -0.20442554619E+03  0.22359070921E+03  0.00000000000E+00 0.  1.
<scales pt_clust_3="43.08606" pt_clust_4="38.59146" pt_clust_5="129.21615" pt_clust_6="38.59146"></scales>
<clustering>
<clus scale="   38.591">  4  6 -1 -1</clus>
<clus scale="   43.086">  1  3  2 -1</clus>
<clus scale="  129.216">  1  5  2 -1</clus>
<clus scale="   43.086">  1  3  2 -1</clus>
</clustering>
</event>
<event>
 6    0  0.3800129E+002  0.1886182E+03  0.7546771E-02  0.1159714E+00
         21   -1    0    0  505  502  0.00000000000E+00  0.00000000000E+00  0.63676418040E+03  0.63676418040E+03  0.00000000000E+00 0.  1.
         -1   -1    0    0    0  501 -0.00000000000E+00 -0.00000000000E+00 -0.83867481581E+03  0.83867481581E+03  0.00000000000E+00 0.  1.
         21    1    1    2  503  501 -0.15482220703E+02  0.43032231583E+02 -0.62073511634E+02  0.77101186499E+02  0.00000000000E+00 0.  1.
         21    1    1    2  504  503 -0.75788594060E+00 -0.74776393089E+02 -0.15153434219E+02  0.76300130557E+02  0.00000000000E+00 0.  1.
         21    1    1    2  505  504 -0.10177949863E+03  0.15924840415E+03  0.57283457232E+03  0.60320690298E+03  0.00000000000E+00 0.  1.
         -1    1    1    2    0  502  0.11801960528E+03 -0.12750424264E+03 -0.69751826187E+03  0.71883077617E+03  0.00000000000E+00 0.  1.
<scales pt_clust_3="45.73262" pt_clust_4="72.23737" pt_clust_5="188.61820" pt_clust_6="14000.00000"></scales>
<clustering>
<clus scale="   45.733">  2  3  1 -1</clus>
<clus scale="   72.237">  2  4  1 -1</clus>
<clus scale="  188.618">  1  5  2 -1</clus>
<clus scale="  188.618">  1  3  2 -1</clus>
</clustering>
</event>
<event>
 6    0  0.3800129E+002  0.1258299E+03  0.7546771E-02  0.1233778E+00
          2   -1    0    0  505    0 -0.00000000000E+00  0.00000000000E+00  0.16550552196E+04  0.16550552196E+04  0.00000000000E+00 0. -1.
         21   -1    0    0  503  502  0.00000000000E+00 -0.00000000000E+00 -0.53156590022E+02  0.53156590022E+02  0.00000000000E+00 0.  1.
         21    1    1    2  503  501 -0.20013544872E+02  0.27616654550E+02 -0.22333024618E+02  0.40767457310E+02  0.00000000000E+00 0.  1.
         21    1    1    2  504  502 -0.22993847970E+01  0.63632126573E+02  0.93884337399E+02  0.11343986738E+03  0.00000000000E+00 0.  1.
         21    1    1    2  505  504  0.24525128941E+02  0.30741507353E+02  0.32007086190E+02  0.50704790605E+02  0.00000000000E+00 0.  1.
          2    1    1    2  501    0 -0.22121992714E+01 -0.12199028848E+03  0.14983402307E+04  0.15032996944E+04  0.00000000000E+00 0. -1.
<scales pt_clust_3="34.10603" pt_clust_4="32.34996" pt_clust_5="32.34996" pt_clust_6="118.90629"></scales>
<clustering>
<clus scale="   32.350">  4  5 -1 -1</clus>
<clus scale="   34.106">  2  3  1 -1</clus>
<clus scale="  118.906">  1  6  2 -1</clus>
<clus scale="   34.106">  2  3  1 -1</clus>
</clustering>
</event>
<event>
 6    0  0.3800129E+002  0.1218547E+03  0.7546771E-02  0.1240068E+00
          2   -1    0    0  504    0 -0.00000000000E+00  0.00000000000E+00  0.13770512526E+04  0.13770512526E+04  0.00000000000E+00 0.  1.
         21   -1    0    0  503  502  0.00000000000E+00 -0.00000000000E+00 -0.10153280377E+03  0.10153280377E+03  0.00000000000E+00 0. -1.
         21    1    1    2  503  501  0.60027339808E+02  0.50915247575E+02 -0.54243929166E+02  0.95593136842E+02  0.00000000000E+00 0. -1.
         21    1    1    2  504  505  0.39448902508E+02  0.60958705143E+01  0.89321474186E+02  0.97835071917E+02  0.00000000000E+00 0. -1.
         21    1    1    2  505  502  0.59078451418E+02 -0.15344327803E+02  0.38674989762E+02  0.72259716653E+02  0.00000000000E+00 0. -1.
          2    1    1    2  501    0 -0.15855469373E+03 -0.41666790286E+02  0.12017659141E+04  0.12128961310E+04  0.00000000000E+00 0.  1.
<scales pt_clust_3="121.85473" pt_clust_4="39.91711" pt_clust_5="62.62621" pt_clust_6="14000.00000"></scales>
<clustering>
<clus scale="   39.917">  1  4  2 -1</clus>
<clus scale="   62.626">  2  5  1 -1</clus>
<clus scale="  121.855">  2  3  1 -1</clus>
<clus scale="   62.626">  2  3  1 -1</clus>
</clustering>
</event>
<event>
 6    0  0.3800129E+002  0.1081552E+03  0.7546771E-02  0.1264025E+00
         21   -1    0    0  505  502  0.00000000000E+00  0.00000000000E+00  0.29404809745E+03  0.29404809745E+03  0.00000000000E+00 0.  1.
          1   -1    0    0  503    0 -0.00000000000E+00 -0.00000000000E+00 -0.43784067562E+03  0.43784067562E+03  0.00000000000E+00 0.  1.
         21    1    1    2  503  502  0.30855080863E+02  0.30596611460E+01 -0.47906314854E+01  0.31374315792E+02  0.00000000000E+00 0.  1.
         21    1    1    2  504  501  0.71253463947E+02 -0.27471862207E+02  0.19005418950E+03  0.20482273869E+03  0.00000000000E+00 0.  1.
         21    1    1    2  505  504 -0.95600551073E+01 -0.33899526695E+02  0.71909956078E+02  0.80072556766E+02  0.00000000000E+00 0.  1.
          1    1    1    2  501    0 -0.92548489702E+02  0.58311727756E+02 -0.40096609225E+03  0.41561916182E+03  0.00000000000E+00 0.  1.
<scales pt_clust_3="31.00641" pt_clust_4="14000.00000" pt_clust_5="33.09346" pt_clust_6="108.15524"></scales>
<clustering>
<clus scale="   31.006">  1  3  2 -1</clus>
<clus scale="   33.093">  1  5  2 -1</clus>
<clus scale="  108.155">  2  6  1 -1</clus>
<clus scale="   31.006">  1  3  2 -1</clus>
</clustering>
</event>
<event>
 6    0  0.3800129E+002  0.1697539E+03  0.7546771E-02  0.1178105E+00
         21   -1    0    0  501  502  0.00000000000E+00  0.00000000000E+00  0.13299991791E+03  0.13299991791E+03  0.00000000000E+00 0. -1.
          2   -1    0    0  504    0 -0.00000000000E+00 -0.00000000000E+00 -0.32401413527E+03  0.32401413527E+03  0.00000000000E+00 0. -1.
         21    1    1    2  503  502 -0.19230952019E+02  0.12438166964E+03  0.15865606393E+02  0.12685561369E+03  0.00000000000E+00 0. -1.
         21    1    1    2  504  505  0.29508699474E+02 -0.96068421842E+01 -0.10911542680E+03  0.11344263364E+03  0.00000000000E+00 0. -1.
         21    1    1    2  505  503 -0.36805351417E+02  0.28939207739E+02 -0.17504277665E+02  0.49985111523E+02  0.00000000000E+00 0.  1.
          2    1    1    2  501    0  0.26527603962E+02 -0.14371403519E+03 -0.80260119294E+02  0.16673069433E+03  0.00000000000E+00 0. -1.
<scales pt_clust_3="39.93379" pt_clust_4="31.03312" pt_clust_5="39.93379" pt_clust_6="155.54351"></scales>
<clustering>
<clus scale="   31.033">  2  4  1 -1</clus>
<clus scale="   39.934">  3  5 -1 -1</clus>
<clus scale="  155.544">  2  6  1 -1</clus>
<clus scale="  169.754">  1  3  2 -1</clus>
</clustering>
</event>
<event>
 6    0  0.3800129E+002  0.7934861E+02  0.7546771E-02  0.1330910E+00
         21   -1    0    0  504  502  0.00000000000E+00  0.00000000000E+00  0.16918278724E+03  0.16918278724E+03  0.00000000000E+00 0. -1.
         -2   -1    0    0    0  501 -0.00000000000E+00 -0.00000000000E+00 -0.70712260287E+03  0.70712260287E+03  0.00000000000E+00 0.  1.
         21    1    1    2  503  502  0.27031504822E+01  0.33910055600E+02  0.37715602353E+02  0.50790408092E+02  0.00000000000E+00 0. -1.
         21    1    1    2  504  505 -0.66551068472E+02 -0.91529930267E+02  0.76832414873E+02  0.13678447582E+03  0.00000000000E+00 0. -1.
         21    1    1    2  505  501  0.62779547191E+02 -0.44700146364E+01 -0.61057586031E+03  0.61381115481E+03  0.00000000000E+00 0.  1.
         -2    1    1    2    0  503  0.10683707986E+01  0.62089889303E+02 -0.41911972545E+02  0.74919351389E+02  0.00000000000E+00 0.  1.
<scales pt_clust_3="34.01763" pt_clust_4="79.34861" pt_clust_5="62.94375" pt_clust_6="14000.00000"></scales>
<clustering>
<clus scale="   34.018">  1  3  2 -1</clus>
<clus scale="   62.944">  2  5  1 -1</clus>
<clus scale="   79.349">  1  4  2 -1</clus>
<clus scale="   34.018">  1  3  2 -1</clus>
</clustering>
</event>
<event>
 6    0  0.3800129E+002  0.1734984E+03  0.7546771E-02  0.1174248E+00
          2   -1    0    0  505    0 -0.00000000000E+00  0.00000000000E+00  0.11074402326E+04  0.11074402326E+04  0.00000000000E+00 0.  1.
         21   -1    0    0  503  502  0.00000000000E+00 -0.00000000000E+00 -0.22320232700E+03  0.22320232700E+03  0.00000000000E+00 0.  1.
         21    1    1    2  503  504  0.78202843400E+02  0.13065912280E+03 -0.15179169423E+03  0.21500746388E+03  0.00000000000E+00 0.  1.
         21    1    1    2  504  501 -0.15141544524E+03 -0.62048391100E+02  0.33465630820E+03  0.37252044845E+03  0.00000000000E+00 0. -1.
         21    1    1    2  505  502  0.81280564095E+01  0.33577222476E+02  0.34107240264E+01  0.34714956555E+02  0.00000000000E+00 0.  1.
          2    1    1    2  501    0  0.65084545436E+02 -0.10218795417E+03  0.69796256764E+03  0.70839969075E+03  0.00000000000E+00 0.  1.
<scales pt_clust_3="173.49841" pt_clust_4="14000.00000" pt_clust_5="34.54700" pt_clust_6="120.55367"></scales>
<clustering>
<clus scale="   34.547">  2  5  1 -1</clus>
<clus scale="  120.554">  1  6  2 -1</clus>
<clus scale="  173.498">  2  3  1 -1</clus>
<clus scale="   34.547">  2  3  1 -1</clus>
</clustering>
</event>
<event>
 6    0  0.3800129E+002  0.1536539E+03  0.7546771E-02  0.1196054E+00
         21   -1    0    0  504  502  0.00000000000E+00  0.00000000000E+00  0.60886588831E+03  0.60886588831E+03  0.00000000000E+00 0. -1.
         -4   -1    0    0    0  501 -0.00000000000E+00 -0.00000000000E+00 -0.20247591783E+04  0.20247591783E+04  0.00000000000E+00 0. -1.
         21    1    1    2  503  502 -0.36272265690E+02  0.32929610910E+00  0.45247017771E+02  0.57992053864E+02  0.00000000000E+00 0. -1.
         21    1    1    2  504  505 -0.67179938415E+02  0.11385808781E+03  0.54578442295E+03  0.56156695471E+03  0.00000000000E+00 0. -1.
         21    1    1    2  505  501 -0.35024644327E+01 -0.34116657645E+02 -0.53100260997E+03  0.53210899765E+03  0.00000000000E+00 0. -1.
         -4    1    1    2    0  503  0.10695466854E+03 -0.80070726276E+02 -0.14759221208E+04  0.14819570604E+04  0.00000000000E+00 0. -1.
<scales pt_clust_3="36.28768" pt_clust_4="153.65392" pt_clust_5="34.29597" pt_clust_6="14000.00000"></scales>
<clustering>
<clus scale="   34.296">  2  5  1 -1</clus>
<clus scale="   36.288">  1  3  2 -1</clus>
<clus scale="  153.654">  1  4  2 -1</clus>
<clus scale="   36.288">  1  3  2 -1</clus>
</clustering>
</event>
<event>
 6    0  0.3800129E+002  0.1304052E+03  0.7546771E-02  0.1226856E+00
         21   -1    0    0  501  502  0.00000000000E+00  0.00000000000E+00  0.52321783296E+03  0.52321783296E+03  0.00000000000E+00 0.  1.
          4   -1    0    0  505    0 -0.00000000000E+00 -0.00000000000E+00 -0.16460820770E+03  0.16460820770E+03  0.00000000000E+00 0.  1.
         21    1    1    2  503  504 -0.14795240525E+02 -0.63476020931E+02  0.14898516881E+03  0.16261821823E+03  0.00000000000E+00 0.  1.
         21    1    1    2  504  502 -0.36079511666E+02 -0.46147637610E+02  0.30316936835E+03  0.30877662075E+03  0.00000000000E+00 0.  1.
         21    1    1    2  505  503 -0.27555681637E+02  0.64222037905E+02  0.18532224903E+02  0.72299578858E+02  0.00000000000E+00 0.  1.
          4    1    1    2  501    0  0.78430433828E+02  0.45401620635E+02 -0.11207713679E+03  0.14413162283E+03  0.00000000000E+00 0.  1.
<scales pt_clust_3="53.32370" pt_clust_4="53.32370" pt_clust_5="69.88409" pt_clust_6="117.65087"></scales>
<clustering>
<clus scale="   53.324">  3  4 -1 -1</clus>
<clus scale="   69.884">  2  5  1 -1</clus>
<clus scale="  117.651">  2  6  1 -1</clus>
<clus scale="  130.405">  1  3  2 -1</clus>
</clustering>
</event>
<event>
 6    0  0.3800129E+002  0.9723087E+02  0.7546771E-02  0.1286229E+00
         21   -1    0    0  505  502  0.00000000000E+00  0.00000000000E+00  0.26254222097E+03  0.26254222097E+03  0.00000000000E+00 0.  1.
         -3   -1    0    0    0  501 -0.00000000000E+00 -0.00000000000E+00 -0.92938858000E+02  0.92938858000E+02  0.00000000000E+00 0. -1.
         21    1    1    2  503  501  0.42361484156E+02 -0.13504986086E+02 -0.50395479455E+01  0.44746810306E+02  0.00000000000E+00 0. -1.
         21    1    1    2  504  502  0.99952528737E+01 -0.29262829839E+02  0.50555155168E+02  0.59262483953E+02  0.00000000000E+00 0.  1.
         21    1    1    2  505  503  0.66220267686E+02  0.65585516134E+02  0.80306906621E+02  0.12302757020E+03  0.00000000000E+00 0.  1.
         -3    1    1    2    0  504 -0.11857700472E+03 -0.22817700209E+02  0.43780849126E+02  0.12844421451E+03  0.00000000000E+00 0. -1.
<scales pt_clust_3="46.28359" pt_clust_4="30.92278" pt_clust_5="97.23087" pt_clust_6="14000.00000"></scales>
<clustering>
<clus scale="   30.923">  1  4  2 -1</clus>
<clus scale="   46.284">  2  3  1 -1</clus>
<clus scale="   97.231">  1  5  2 -1</clus>
<clus scale="   30.923">  1  3  2 -1</clus>
</clustering>
</event>
<event>
 6    0  0.3800129E+002  0.1347410E+03  0.7546771E-02  0.1220586E+00
         21   -1    0    0  501  502  0.00000000000E+00  0.00000000000E+00  0.68670254989E+02  0.68670254989E+02  0.00000000000E+00 0.  1.
          2   -1    0    0  503    0 -0.00000000000E+00 -0.00000000000E+00 -0.18035362574E+04  0.18035362574E+04  0.00000000000E+00 0.  1.
         21    1    1    2  503  505  0.59119967292E+02 -0.20038548934E+02 -0.50947198129E+02  0.80575002161E+02  0.00000000000E+00 0. -1.
         21    1    1    2  504  502  0.15819880484E+02 -0.30205438528E+02  0.36428259590E+02  0.49896445083E+02  0.00000000000E+00 0.  1.
         21    1    1    2  505  504  0.47707024504E+02  0.27767962200E+02 -0.83197822853E+02  0.99844367088E+02  0.00000000000E+00 0. -1.
          2    1    1    2  501    0 -0.12264687228E+03  0.22476025262E+02 -0.16371492410E+04  0.16418906980E+04  0.00000000000E+00 0.  1.
<scales pt_clust_3="46.99458" pt_clust_4="34.09747" pt_clust_5="46.99458" pt_clust_6="122.76244"></scales>
<clustering>
<clus scale="   34.097">  1  4  2 -1</clus>
<clus scale="   46.995">  3  5 -1 -1</clus>
<clus scale="  122.762">  2  6  1 -1</clus>
<clus scale="   34.097">  1  3  2 -1</clus>
</clustering>
</event>
<event>
 6    0  0.3800129E+002  0.1815777E+03  0.7546771E-02  0.1166285E+00
         21   -1    0    0  504  502  0.00000000000E+00  0.00000000000E+00  0.50803035307E+02  0.50803035307E+02  0.00000000000E+00 0.  1.
          2   -1    0    0  505    0 -0.00000000000E+00 -0.00000000000E+00 -0.28925429596E+04  0.28925429596E+04  0.00000000000E+00 0. -1.
         21    1    1    2  503  502 -0.90424945245E+02 -0.70045809500E+02 -0.75493084212E+02  0.13704850205E+03  0.00000000000E+00 0.  1.
         21    1    1    2  504  501 -0.13443245495E+02 -0.12749737711E+03 -0.28352057878E+03  0.31115947778E+03  0.00000000000E+00 0.  1.
         21    1    1    2  505  503 -0.78799912257E+01  0.51364846337E+02 -0.28314094239E+03  0.28787017031E+03  0.00000000000E+00 0.  1.
          2    1    1    2  501    0  0.11174818197E+03  0.14617834028E+03 -0.21995853189E+04  0.22072678447E+04  0.00000000000E+00 0. -1.
<scales pt_clust_3="113.36817" pt_clust_4="181.57772" pt_clust_5="51.96577" pt_clust_6="14000.00000"></scales>
<clustering>
<clus scale="   51.966">  2  5  1 -1</clus>
<clus scale="  113.368">  1  3  2 -1</clus>
<clus scale="  181.578">  1  4  2 -1</clus>
<clus scale="  113.368">  1  3  2 -1</clus>
</clustering>
</event>
<event>
 6    0  0.3800129E+002  0.7670580E+02  0.7546771E-02  0.1338669E+00
         21   -1    0    0  504  502  0.00000000000E+00  0.00000000000E+00  0.53233776918E+02  0.53233776918E+02  0.00000000000E+00 0.  1.
          2   -1    0    0  503    0 -0.00000000000E+00 -0.00000000000E+00 -0.92396414046E+03  0.92396414046E+03  0.00000000000E+00 0.  1.
         21    1    1    2  503  505  0.19296367549E+02  0.67066565503E+02 -0.41964590482E+03  0.42540916708E+03  0.00000000000E+00 0.  1.
         21    1    1    2  504  501 -0.29745220575E+02 -0.35452494413E+02  0.19773398158E+02  0.50325389038E+02  0.00000000000E+00 0.  1.
         21    1    1    2  505  502  0.24464696783E+02  0.56513076135E+02 -0.82290247335E+02  0.10278100004E+03  0.00000000000E+00 0.  1.
          2    1    1    2  501    0 -0.14015843757E+02 -0.88127147226E+02 -0.38856760955E+03  0.39868236122E+03  0.00000000000E+00 0.  1.
<scales pt_clust_3="76.70580" pt_clust_4="46.27805" pt_clust_5="37.34228" pt_clust_6="14000.00000"></scales>
<clustering>
<clus scale="   46.278">  1  4  2 -1</clus>
<clus scale="   37.342">  1  5  2 -1</clus>
<clus scale="   76.706">  2  3  1 -1</clus>
<clus scale="   46.278">  1  3  2 -1</clus>
</clustering>
</event>
<event>
 6    0  0.3800129E+002  0.2455673E+03  0.7546771E-02  0.1116139E+00
         21   -1    0    0  505  502  0.00000000000E+00  0.00000000000E+00  0.76466100501E+03  0.76466100501E+03  0.00000000000E+00 0.  1.
          1   -1    0    0  503    0 -0.00000000000E+00 -0.00000000000E+00 -0.17638649780E+04  0.17638649780E+04  0.00000000000E+00 0. -1.
         21    1    1    2  503  504  0.18464878283E+02  0.34919110804E+02 -0.62648691713E+02  0.74061829593E+02  0.00000000000E+00 0.  1.
         21    1    1    2  504  502 -0.20462039004E+03  0.10541516049E+03  0.60759650726E+03  0.64973485031E+03  0.00000000000E+00 0.  1.
         21    1    1    2  505  501  0.14985141972E+01  0.33197656447E+02  0.11840106835E+03  0.12297618845E+03  0.00000000000E+00 0.  1.
          1    1    1    2  501    0  0.18465699756E+03 -0.17353192774E+03 -0.16625528569E+04  0.16817531147E+04  0.00000000000E+00 0. -1.
<scales pt_clust_3="39.76705" pt_clust_4="245.56725" pt_clust_5="33.23146" pt_clust_6="14000.00000"></scales>
<clustering>
<clus scale="   33.231">  1  5  2 -1</clus>
<clus scale="   39.767">  2  3  1 -1</clus>
<clus scale="  245.567">  1  4  2 -1</clus>
<clus scale="   33.231">  1  3  2 -1</clus>
</clustering>
</event>
<event>
 6    0  0.3800129E+002  0.3572005E+03  0.7546771E-02  0.1059698E+00
          1   -1    0    0  505    0 -0.00000000000E+00  0.00000000000E+00  0.16257028174E+04  0.16257028174E+04  0.00000000000E+00 0. -1.
         21   -1    0    0  503  502  0.00000000000E+00 -0.00000000000E+00 -0.11652910561E+04  0.11652910561E+04  0.00000000000E+00 0.  1.
         21    1    1    2  503  501 -0.30171875752E+01  0.56115437076E+02 -0.68762352029E+02  0.88804880247E+02  0.00000000000E+00 0. -1.
         21    1    1    2  504  502  0.34415112814E+03  0.40405529483E+02 -0.91961480115E+03  0.98273291809E+03  0.00000000000E+00 0.  1.
         21    1    1    2  505  504  0.99072097007E+02  0.18993557397E+03  0.42638065331E+02  0.21842345863E+03  0.00000000000E+00 0.  1.
          1    1    1    2  501    0 -0.44020603757E+03 -0.28645654053E+03  0.14061508492E+04  0.15010326165E+04  0.00000000000E+00 0. -1.
<scales pt_clust_3="56.19649" pt_clust_4="14000.00000" pt_clust_5="218.14562" pt_clust_6="357.20053"></scales>
<clustering>
<clus scale="   56.196">  2  3  1 -1</clus>
<clus scale="  218.146">  1  5  2 -1</clus>
<clus scale="  357.201">  1  6  2 -1</clus>
<clus scale="   56.196">  2  3  1 -1</clus>
</clustering>
</event>
<event>
 6    0  0.3800129E+002  0.1508388E+03  0.7546771E-02  0.1199446E+00
          1   -1    0    0  503    0 -0.00000000000E+00  0.00000000000E+00  0.54323114787E+03  0.54323114787E+03  0.00000000000E+00 0.  1.
         21   -1    0    0  505  502  0.00000000000E+00 -0.00000000000E+00 -0.14845053508E+03  0.14845053508E+03  0.00000000000E+00 0. -1.
         21    1    1    2  503  502  0.15522741651E+02 -0.88086242028E+02 -0.75206611068E+02  0.11685964184E+03  0.00000000000E+00 0. -1.
         21    1    1    2  504  501 -0.61145025852E+02 -0.26973546236E+02  0.63457493703E+02  0.92158232893E+02  0.00000000000E+00 0.  1.
         21    1    1    2  505  504 -0.36231705096E+02 -0.23191043111E+02 -0.26215546316E+01  0.43097952195E+02  0.00000000000E+00 0. -1.
          1    1    1    2  501    0  0.81853989297E+02  0.13825083138E+03  0.40915128479E+03  0.43956585602E+03  0.00000000000E+00 0.  1.
<scales pt_clust_3="89.44351" pt_clust_4="40.86645" pt_clust_5="40.86645" pt_clust_6="141.97833"></scales>
<clustering>
<clus scale="   40.866">  4  5 -1 -1</clus>
<clus scale="   89.444">  2  3  1 -1</clus>
<clus scale="  141.978">  1  6  2 -1</clus>
<clus scale="   89.444">  2  3  1 -1</clus>
</clustering>
</event>
<event>
 6    0  0.3800129E+002  0.1008701E+03  0.7546771E-02  0.1278477E+00
         21   -1    0    0  504  502  0.00000000000E+00  0.00000000000E+00  0.28920195944E+03  0.28920195944E+03  0.00000000000E+00 0.  1.
          3   -1    0    0  503    0 -0.00000000000E+00 -0.00000000000E+00 -0.17619756105E+03  0.17619756105E+03  0.00000000000E+00 0.  1.
         21    1    1    2  503  505  0.22154305861E+02  0.22470058640E+02 -0.78891620793E+02  0.84968256630E+02  0.00000000000E+00 0.  1.
         21    1    1    2  504  501  0.48660832347E+02  0.43565424202E+02  0.36594315368E+02  0.74866325593E+02  0.00000000000E+00 0.  1.
         21    1    1    2  505  502  0.44235689500E+02  0.28810062385E+02  0.14704197529E+03  0.15623110580E+03  0.00000000000E+00 0.  1.
          3    1    1    2  501    0 -0.11505082771E+03 -0.94845545227E+02  0.82597285262E+01  0.14933383247E+03  0.00000000000E+00 0.  1.
<scales pt_clust_3="31.55498" pt_clust_4="14000.00000" pt_clust_5="54.29380" pt_clust_6="100.87006"></scales>
<clustering>
<clus scale="   31.555">  2  3  1 -1</clus>
<clus scale="   54.294">  1  5  2 -1</clus>
<clus scale="  100.870">  2  6  1 -1</clus>
<clus scale="   54.294">  1  3  2 -1</clus>
</clustering>
</event>
<event>
 6    0  0.3800129E+002  0.6511419E+02  0.7546771E-02  0.1377542E+00
          1   -1    0    0  504    0 -0.00000000000E+00  0.00000000000E+00  0.25646333423E+03  0.25646333423E+03  0.00000000000E+00 0. -1.
         21   -1    0    0  503  502  0.00000000000E+00 -0.00000000000E+00 -0.20334200693E+03  0.20334200693E+03  0.00000000000E+00 0. -1.
         21    1    1    2  503  501  0.27842983197E+02  0.18884049070E+02 -0.35982010982E+02  0.49259964848E+02  0.00000000000E+00 0.  1.
         21    1    1    2  504  505  0.65826203095E+01 -0.42442715496E+02  0.58884910949E+02  0.72884482067E+02  0.00000000000E+00 0. -1.
         21    1    1    2  505  502 -0.37660992258E+02 -0.76968017063E+02 -0.12569326065E+03  0.15212239073E+03  0.00000000000E+00 0. -1.
          1    1    1    2  501    0  0.32353887510E+01  0.10052668349E+03  0.15591168799E+03  0.18553850351E+03  0.00000000000E+00 0. -1.
<scales pt_clust_3="33.64282" pt_clust_4="42.34398" pt_clust_5="14000.00000" pt_clust_6="65.11419"></scales>
<clustering>
<clus scale="   33.643">  2  3  1 -1</clus>
<clus scale="   42.344">  1  4  2 -1</clus>
<clus scale="   65.114">  1  6  2 -1</clus>
<clus scale="   33.643">  2  3  1 -1</clus>
</clustering>
</event>
<event>
 6    0  0.3800129E+002  0.8544234E+02  0.7546771E-02  0.1314280E+00
         21   -1    0    0  505  502  0.00000000000E+00  0.00000000000E+00  0.34825395941E+03  0.34825395941E+03  0.00000000000E+00 0.  1.
          2   -1    0    0  503    0 -0.00000000000E+00 -0.00000000000E+00 -0.23434571681E+04  0.23434571681E+04  0.00000000000E+00 0. -1.
         21    1    1    2  503  504 -0.56088333954E+02 -0.23939210739E+02 -0.53862740449E+03  0.54206869296E+03  0.00000000000E+00 0. -1.
         21    1    1    2  504  502 -0.32441469125E+02  0.15129932885E+01  0.48596190728E+02  0.58449361168E+02  0.00000000000E+00 0.  1.
         21    1    1    2  505  501  0.46692152784E+00  0.77889213117E+02  0.28629710495E+03  0.29670352178E+03  0.00000000000E+00 0.  1.
          2    1    1    2  501    0  0.88062881551E+02 -0.55462995667E+02 -0.17914690998E+04  0.17944895516E+04  0.00000000000E+00 0. -1.
<scales pt_clust_3="61.15428" pt_clust_4="32.47673" pt_clust_5="14000.00000" pt_clust_6="85.44234"></scales>
<clustering>
<clus scale="   32.477">  1  4  2 -1</clus>
<clus scale="   61.154">  2  3  1 -1</clus>
<clus scale="   85.442">  2  6  1 -1</clus>
<clus scale="   32.477">  1  3  2 -1</clus>
</clustering>
</event>
<event>
 6    0  0.3800129E+002  0.1501663E+03  0.7546771E-02  0.1200269E+00
         -1   -1    0    0    0  501 -0.00000000000E+00  0.00000000000E+00  0.79813998413E+03  0.79813998413E+03  0.00000000000E+00 0. -1.
         21   -1    0    0  505  502  0.00000000000E+00 -0.00000000000E+00 -0.32348812057E+03  0.32348812057E+03  0.00000000000E+00 0.  1.
         21    1    1    2  503  502 -0.10052165422E+03  0.14628950107E+03 -0.14186240488E+03  0.22722271676E+03  0.00000000000E+00 0.  1.
         21    1    1    2  504  503  0.57951795116E+02  0.11270159631E+03  0.13246908624E+03  0.18332517334E+03  0.00000000000E+00 0. -1.
         21    1    1    2  505  501  0.11172308000E+02 -0.89975689409E+02 -0.80312012352E+02  0.12112169285E+03  0.00000000000E+00 0.  1.
         -1    1    1    2    0  504  0.31397551106E+02 -0.16901540797E+03  0.56435719456E+03  0.58995852176E+03  0.00000000000E+00 0. -1.
<scales pt_clust_3="116.09582" pt_clust_4="150.16634" pt_clust_5="90.66667" pt_clust_6="14000.00000"></scales>
<clustering>
<clus scale="   90.667">  2  5  1 -1</clus>
<clus scale="  116.096">  2  3  1 -1</clus>
<clus scale="  150.166">  2  4  1 -1</clus>
<clus scale="   90.667">  2  3  1 -1</clus>
</clustering>
</event>
<event>
 6    0  0.3800129E+002  0.1824635E+03  0.7546771E-02  0.1165440E+00
          1   -1    0    0  503    0 -0.00000000000E+00  0.00000000000E+00  0.90154563791E+03  0.90154563791E+03  0.00000000000E+00 0. -1.
         21   -1    0    0  505  502  0.00000000000E+00 -0.00000000000E+00 -0.21487742540E+03  0.21487742540E+03  0.00000000000E+00 0.  1.
         21    1    1    2  503  502  0.73215517713E+01 -0.76297816563E+02 -0.65628720748E+02  0.10090634727E+03  0.00000000000E+00 0.  1.
         21    1    1    2  504  501  0.42654086314E+02  0.11909770673E+02  0.17456312408E+03  0.18009302597E+03  0.00000000000E+00 0.  1.
         21    1    1    2  505  504 -0.11805532997E+03 -0.59829689189E+02 -0.85280566574E+02  0.15744658675E+03  0.00000000000E+00 0.  1.
          1    1    1    2  501    0  0.68079691886E+02  0.12421773508E+03  0.66301437576E+03  0.67797710331E+03  0.00000000000E+00 0. -1.
<scales pt_clust_3="76.64830" pt_clust_4="35.16647" pt_clust_5="171.28136" pt_clust_6="35.16647"></scales>
<clustering>
<clus scale="   35.166">  4  6 -1 -1</clus>
<clus scale="   76.648">  2  3  1 -1</clus>
<clus scale="  171.281">  2  5  1 -1</clus>
<clus scale="   76.648">  2  3  1 -1</clus>
</clustering>
</event>
<event>
 6    0  0.7465687E+002  0.1233133E+03  0.7546771E-02  0.1237729E+00
         21   -1    0    0  503  502  0.00000000000E+00  0.00000000000E+00  0.80215702166E+03  0.80215702166E+03  0.00000000000E+00 0.  1.
          1   -1    0    0  504    0 -0.00000000000E+00 -0.00000000000E+00 -0.65238552579E+03  0.65238552579E+03  0.00000000000E+00 0. -1.
         21    1    1    2  503  505  0.26850758839E+02 -0.14698526042E+02  0.27561824751E+02  0.41190582682E+02  0.00000000000E+00 0. -1.
         21    1    1    2  504  502  0.10713953640E+02  0.60760824022E+02  0.71939880745E+03  0.72203968776E+03  0.00000000000E+00 0.  1.
         21    1    1    2  505  501  0.55508968135E+02  0.47996332910E+02  0.61441309590E+01  0.73638603065E+02  0.00000000000E+00 0. -1.
          1    1    1    2  501    0 -0.93073680614E+02 -0.94058630889E+02 -0.60333326729E+03  0.61767367395E+03  0.00000000000E+00 0. -1.
<scales pt_clust_3="30.61062" pt_clust_4="59.12456" pt_clust_5="123.31331" pt_clust_6="14000.00000"></scales>
<clustering>
<clus scale="   30.611">  1  3  2 -1</clus>
<clus scale="   59.125">  1  4  2 -1</clus>
<clus scale="  123.313">  1  5  2 -1</clus>
<clus scale="   30.611">  1  3  2 -1</clus>
</clustering>
</event>
<event>
 6    0  0.3800129E+002  0.1921254E+03  0.7546771E-02  0.1156558E+00
         21   -1    0    0  505  502  0.00000000000E+00  0.00000000000E+00  0.44762519704E+03  0.44762519704E+03  0.00000000000E+00 0. -1.
          1   -1    0    0  503    0 -0.00000000000E+00 -0.00000000000E+00 -0.22187803121E+03  0.22187803121E+03  0.00000000000E+00 0. -1.
         21    1    1    2  503  504  0.30929847084E+02 -0.32509972866E+01 -0.14310946676E+02  0.34234888912E+02  0.00000000000E+00 0.  1.
         21    1    1    2  504  502 -0.85728795797E+02 -0.20553898193E+03  0.23746616999E+03  0.32555472875E+03  0.00000000000E+00 0. -1.
         21    1    1    2  505  501 -0.11051842885E+02  0.43518692783E+02  0.98030503687E+02  0.10782392826E+03  0.00000000000E+00 0. -1.
          1    1    1    2  501    0  0.65850791598E+02  0.16527128644E+03 -0.95438561162E+02  0.20188968233E+03  0.00000000000E+00 0. -1.
<scales pt_clust_3="31.10023" pt_clust_4="192.12543" pt_clust_5="44.63923" pt_clust_6="14000.00000"></scales>
<clustering>
<clus scale="   31.100">  2  3  1 -1</clus>
<clus scale="   44.639">  1  5  2 -1</clus>
<clus scale="  192.125">  1  4  2 -1</clus>
<clus scale="   44.639">  1  3  2 -1</clus>
</clustering>
</event>
<event>
 6    0  0.3800129E+002  0.1078896E+03  0.7546771E-02  0.1264529E+00
          1   -1    0    0  503    0 -0.00000000000E+00  0.00000000000E+00  0.11688134404E+04  0.11688134404E+04  0.00000000000E+00 0.  1.
         21   -1    0    0  504  502  0.00000000000E+00 -0.00000000000E+00 -0.27406702226E+03  0.27406702226E+03  0.00000000000E+00 0.  1.
         21    1    1    2  503  502  0.18516451163E+02 -0.45752629893E+02  0.40117861377E+02  0.63605069824E+02  0.00000000000E+00 0.  1.
         21    1    1    2  504  505 -0.93303178818E+01  0.74808199039E+02 -0.24465042928E+03  0.25600225394E+03  0.00000000000E+00 0.  1.
         21    1    1    2  505  501 -0.47756150621E+02  0.73195333371E+02  0.21227523646E+03  0.22956259007E+03  0.00000000000E+00 0. -1.
          1    1    1    2  501    0  0.38570017340E+02 -0.10225090252E+03  0.88700374959E+03  0.89371054883E+03  0.00000000000E+00 0.  1.
<scales pt_clust_3="49.35749" pt_clust_4="75.14548" pt_clust_5="14000.00000" pt_clust_6="107.88962"></scales>
<clustering>
<clus scale="   49.357">  1  3  2 -1</clus>
<clus scale="   75.145">  2  4  1 -1</clus>
<clus scale="  107.890">  1  6  2 -1</clus>
<clus scale="   75.145">  2  3  1 -1</clus>
</clustering>
</event>
<event>
 6    0  0.3800129E+002  0.1271077E+03  0.7546771E-02  0.1231812E+00
         -3   -1    0    0    0  501 -0.00000000000E+00  0.00000000000E+00  0.21472735164E+03  0.21472735164E+03  0.00000000000E+00 0.  1.
         21   -1    0    0  503  502  0.00000000000E+00 -0.00000000000E+00 -0.22620992923E+03  0.22620992923E+03  0.00000000000E+00 0.  1.
         21    1    1    2  503  501  0.32755542810E+02 -0.34708519017E+02  0.95466564212E+02  0.10673083790E+03  0.00000000000E+00 0.  1.
         21    1    1    2  504  505 -0.54759381196E+02 -0.31317578126E+02 -0.50511854166E+02  0.80813538099E+02  0.00000000000E+00 0.  1.
         21    1    1    2  505  502 -0.54506153100E+02 -0.26194448239E+02 -0.10733985729E+03  0.12320273863E+03  0.00000000000E+00 0.  1.
         -3    1    1    2    0  504  0.76509991486E+02  0.92220545383E+02  0.50902569651E+02  0.13019016624E+03  0.00000000000E+00 0.  1.
<scales pt_clust_3="47.72428" pt_clust_4="37.39732" pt_clust_5="37.39732" pt_clust_6="121.23318"></scales>
<clustering>
<clus scale="   37.397">  4  5 -1 -1</clus>
<clus scale="   47.724">  1  3  2 -1</clus>
<clus scale="  121.233">  1  6  2 -1</clus>
<clus scale="  127.108">  2  3  1 -1</clus>
</clustering>
</event>
<event>
 6    0  0.3800129E+002  0.1055590E+03  0.7546771E-02  0.1269022E+00
         -1   -1    0    0    0  501 -0.00000000000E+00  0.00000000000E+00  0.64265777059E+03  0.64265777059E+03  0.00000000000E+00 0. -1.
         21   -1    0    0  503  502  0.00000000000E+00 -0.00000000000E+00 -0.19448535010E+03  0.19448535010E+03  0.00000000000E+00 0.  1.
         21    1    1    2  503  504 -0.11960009884E+02 -0.42258830007E+02 -0.10898005112E+03  0.11749681737E+03  0.00000000000E+00 0.  1.
         21    1    1    2  504  505  0.95688930479E+02 -0.25719908702E+02 -0.39049722617E+02  0.10650242230E+03  0.00000000000E+00 0.  1.
         21    1    1    2  505  501  0.16183752340E+02  0.33436472220E+02  0.13889591121E+03  0.14377755620E+03  0.00000000000E+00 0. -1.
         -1    1    1    2    0  502 -0.99912672936E+02  0.34542266489E+02  0.45730628301E+03  0.46936632482E+03  0.00000000000E+00 0. -1.
<scales pt_clust_3="43.60799" pt_clust_4="105.55900" pt_clust_5="37.14716" pt_clust_6="14000.00000"></scales>
<clustering>
<clus scale="   37.147">  1  5  2 -1</clus>
<clus scale="   43.608">  2  3  1 -1</clus>
<clus scale="  105.559">  2  4  1 -1</clus>
<clus scale="   43.608">  2  3  1 -1</clus>
</clustering>
</event>
<event>
 6    0  0.3800129E+002  0.1527977E+03  0.7546771E-02  0.1197077E+00
         21   -1    0    0  505  502  0.00000000000E+00  0.00000000000E+00  0.43608225259E+03  0.43608225259E+03  0.00000000000E+00 0. -1.
          2   -1    0    0  504    0 -0.00000000000E+00 -0.00000000000E+00 -0.38940455960E+03  0.38940455960E+03  0.00000000000E+00 0.  1.
         21    1    1    2  503  501  0.42903410749E+02  0.10385127774E+03 -0.26865530237E+02  0.11553158554E+03  0.00000000000E+00 0. -1.
         21    1    1    2  504  502 -0.10419342636E+03  0.51896306918E+02  0.26196042329E+03  0.28665791484E+03  0.00000000000E+00 0. -1.
         21    1    1    2  505  503  0.71244606737E+02  0.25680933138E+02  0.72833841619E+02  0.10507175073E+03  0.00000000000E+00 0. -1.
          2    1    1    2  501    0 -0.99545911229E+01 -0.18142851780E+03 -0.26125104168E+03  0.31822556109E+03  0.00000000000E+00 0.  1.
<scales pt_clust_3="152.79766" pt_clust_4="86.63291" pt_clust_5="75.73179" pt_clust_6="14000.00000"></scales>
<clustering>
<clus scale="   75.732">  1  5  2 -1</clus>
<clus scale="   86.633">  1  4  2 -1</clus>
<clus scale="  152.798">  1  3  2 -1</clus>
<clus scale="   75.732">  1  3  2 -1</clus>
</clustering>
</event>
<event>
 6    0  0.3800129E+002  0.1072945E+03  0.7546771E-02  0.1265664E+00
          1   -1    0    0  504    0 -0.00000000000E+00  0.00000000000E+00  0.19213380917E+04  0.19213380917E+04  0.00000000000E+00 0. -1.
         21   -1    0    0  503  502  0.00000000000E+00 -0.00000000000E+00 -0.90262482405E+02  0.90262482405E+02  0.00000000000E+00 0.  1.
         21    1    1    2  503  501 -0.76677466477E+02 -0.54147747316E+02  0.11315748838E+02  0.94548710073E+02  0.00000000000E+00 0.  1.
         21    1    1    2  504  505  0.15303227097E+02 -0.31036368016E+02  0.10822986303E+03  0.11362723331E+03  0.00000000000E+00 0. -1.
         21    1    1    2  505  502  0.10180077572E+02 -0.31705641747E+02 -0.37267528582E+02  0.49977498783E+02  0.00000000000E+00 0.  1.
          1    1    1    2  501    0  0.51194161808E+02  0.11688975708E+03  0.17487975261E+04  0.17534471320E+04  0.00000000000E+00 0. -1.
<scales pt_clust_3="14000.00000" pt_clust_4="36.51112" pt_clust_5="33.29988" pt_clust_6="107.29446"></scales>
<clustering>
<clus scale="   33.300">  2  5  1 -1</clus>
<clus scale="   36.511">  1  4  2 -1</clus>
<clus scale="  107.294">  1  6  2 -1</clus>
<clus scale="   33.300">  2  3  1 -1</clus>
</clustering>
</event>
<event>
 6    0  0.3800129E+002  0.1282408E+03  0.7546771E-02  0.1230090E+00
         -1   -1    0    0    0  501 -0.00000000000E+00  0.00000000000E+00  0.78863529805E+03  0.78863529805E+03  0.00000000000E+00 0.  1.
         21   -1    0    0  505  502  0.00000000000E+00 -0.00000000000E+00 -0.91895053970E+02  0.91895053970E+02  0.00000000000E+00 0.  1.
         21    1    1    2  503  501  0.15828649186E+02 -0.26995130555E+02  0.29446194240E+03  0.29612010863E+03  0.00000000000E+00 0.  1.
         21    1    1    2  504  502 -0.62367043788E+02  0.43382305056E+02 -0.21080446386E+02  0.78841979698E+02  0.00000000000E+00 0.  1.
         21    1    1    2  505  503 -0.89583277834E+02 -0.86713488176E+01  0.39634793463E+02  0.98342629671E+02  0.00000000000E+00 0.  1.
         -1    1    1    2    0  504  0.13612167244E+03 -0.77158256828E+01  0.38372395460E+03  0.40722563402E+03  0.00000000000E+00 0.  1.
<scales pt_clust_3="31.29350" pt_clust_4="74.31239" pt_clust_5="14000.00000" pt_clust_6="128.24082"></scales>
<clustering>
<clus scale="   31.294">  1  3  2 -1</clus>
<clus scale="   74.312">  2  4  1 -1</clus>
<clus scale="  128.241">  1  6  2 -1</clus>
<clus scale="   74.312">  2  3  1 -1</clus>
</clustering>
</event>
<event>
 6    0  0.3800129E+002  0.1969447E+03  0.7546771E-02  0.1152343E+00
          1   -1    0    0  505    0 -0.00000000000E+00  0.00000000000E+00  0.15420549373E+04  0.15420549373E+04  0.00000000000E+00 0. -1.
         21   -1    0    0  504  502  0.00000000000E+00 -0.00000000000E+00 -0.13137346339E+03  0.13137346339E+03  0.00000000000E+00 0. -1.
         21    1    1    2  503  502 -0.10893503438E+03  0.11217867641E+03 -0.56224002561E+02  0.16616869627E+03  0.00000000000E+00 0. -1.
         21    1    1    2  504  501 -0.21994272501E+02  0.44719140223E+02  0.43243161296E+02  0.65981213417E+02  0.00000000000E+00 0. -1.
         21    1    1    2  505  503  0.48199328539E+02 -0.79414781176E+01  0.20373101308E+03  0.20950553223E+03  0.00000000000E+00 0. -1.
          1    1    1    2  501    0  0.82729978346E+02 -0.14895633851E+03  0.12199313021E+04  0.12317729588E+04  0.00000000000E+00 0. -1.
<scales pt_clust_3="14000.00000" pt_clust_4="48.70101" pt_clust_5="48.84918" pt_clust_6="196.94471"></scales>
<clustering>
<clus scale="   48.849">  1  5  2 -1</clus>
<clus scale="   48.701">  2  4  1 -1</clus>
<clus scale="  196.945">  1  6  2 -1</clus>
<clus scale="   48.701">  2  3  1 -1</clus>
</clustering>
</event>
<event>
 6    0  0.3800129E+002  0.1105254E+03  0.7546771E-02  0.1259600E+00
         21   -1    0    0  505  502  0.00000000000E+00  0.00000000000E+00  0.10658688683E+04  0.10658688683E+04  0.00000000000E+00 0. -1.
          2   -1    0    0  503    0 -0.00000000000E+00 -0.00000000000E+00 -0.35845931628E+03  0.35845931628E+03  0.00000000000E+00 0.  1.
         21    1    1    2  503  504 -0.29544983034E+02  0.10434586160E+02 -0.87514120787E+01  0.32532657810E+02  0.00000000000E+00 0. -1.
         21    1    1    2  504  502 -0.60748871367E+02  0.76908593965E+02  0.25291083873E+03  0.27123651956E+03  0.00000000000E+00 0. -1.
         21    1    1    2  505  501  0.12146721534E+03  0.16806638258E+02  0.77797848183E+03  0.78758318016E+03  0.00000000000E+00 0. -1.
          2    1    1    2  501    0 -0.31173360934E+02 -0.10414981838E+03 -0.31472835641E+03  0.33297582710E+03  0.00000000000E+00 0.  1.
<scales pt_clust_3="31.33347" pt_clust_4="98.72678" pt_clust_5="110.52539" pt_clust_6="14000.00000"></scales>
<clustering>
<clus scale="   31.333">  2  3  1 -1</clus>
<clus scale="   98.727">  1  4  2 -1</clus>
<clus scale="  110.525">  1  5  2 -1</clus>
<clus scale="   98.727">  1  3  2 -1</clus>
</clustering>
</event>
<event>
 6    0  0.3800129E+002  0.1270215E+03  0.7546771E-02  0.1231943E+00
         21   -1    0    0  501  502  0.00000000000E+00  0.00000000000E+00  0.10980579344E+03  0.10980579344E+03  0.00000000000E+00 0. -1.
          1   -1    0    0  505    0 -0.00000000000E+00 -0.00000000000E+00 -0.35373869704E+03  0.35373869704E+03  0.00000000000E+00 0. -1.
         21    1    1    2  503  504 -0.74454995676E+01 -0.38150706978E+02 -0.32642517306E+02  0.50758702139E+02  0.00000000000E+00 0. -1.
         21    1    1    2  504  502 -0.70355127189E+02  0.41303392008E+02 -0.15991067815E+02  0.83135602259E+02  0.00000000000E+00 0. -1.
         21    1    1    2  505  503 -0.17499007278E+02 -0.82820338748E+02 -0.18687339854E+03  0.20515138519E+03  0.00000000000E+00 0. -1.
          1    1    1    2  501    0  0.95299634034E+02  0.79667653718E+02 -0.84259199399E+01  0.12449880089E+03  0.00000000000E+00 0. -1.
<scales pt_clust_3="30.65537" pt_clust_4="81.58317" pt_clust_5="30.65537" pt_clust_6="118.69262"></scales>
<clustering>
<clus scale="   30.655">  3  5 -1 -1</clus>
<clus scale="   81.583">  1  4  2 -1</clus>
<clus scale="  118.693">  1  6  2 -1</clus>
<clus scale="   81.583">  1  3  2 -1</clus>
</clustering>
</event>
<event>
 6    0  0.3800129E+002  0.1813720E+03  0.7546771E-02  0.1166482E+00
          2   -1    0    0  505    0 -0.00000000000E+00  0.00000000000E+00  0.56777739447E+03  0.56777739447E+03  0.00000000000E+00 0.  1.
         21   -1    0    0  501  502  0.00000000000E+00 -0.00000000000E+00 -0.76101146846E+02  0.76101146846E+02  0.00000000000E+00 0.  1.
         21    1    1    2  503  504 -0.10022425278E+03  0.53514650891E+02  0.15048585208E+03  0.18855956720E+03  0.00000000000E+00 0.  1.
         21    1    1    2  504  502  0.35773030724E+01 -0.42350411120E+02  0.14930448317E+01  0.42527445282E+02  0.00000000000E+00 0.  1.
         21    1    1    2  505  503 -0.65349159796E+02 -0.28428161185E+02  0.93227444024E+02  0.11734576837E+03  0.00000000000E+00 0.  1.
          2    1    1    2  501    0  0.16199610950E+03  0.17263921414E+02  0.24646990669E+03  0.29544576047E+03  0.00000000000E+00 0.  1.
<scales pt_clust_3="65.65634" pt_clust_4="42.50123" pt_clust_5="65.65634" pt_clust_6="163.57806"></scales>
<clustering>
<clus scale="   42.501">  2  4  1 -1</clus>
<clus scale="   65.656">  3  5 -1 -1</clus>
<clus scale="  163.578">  1  6  2 -1</clus>
<clus scale="   42.501">  2  3  1 -1</clus>
</clustering>
</event>
<event>
 6    0  0.3800129E+002  0.8969036E+02  0.7546771E-02  0.1303603E+00
          2   -1    0    0  503    0 -0.00000000000E+00  0.00000000000E+00  0.10741920337E+04  0.10741920337E+04  0.00000000000E+00 0.  1.
         21   -1    0    0  504  502  0.00000000000E+00 -0.00000000000E+00 -0.35989716256E+02  0.35989716256E+02  0.00000000000E+00 0. -1.
         21    1    1    2  503  505 -0.10882409860E+02  0.55761558113E+02  0.26483935652E+03  0.27086465803E+03  0.00000000000E+00 0. -1.
         21    1    1    2  504  501  0.27069939004E+02 -0.43692655204E+02  0.99231651444E+02  0.11175307765E+03  0.00000000000E+00 0. -1.
         21    1    1    2  505  502  0.66563853875E+02  0.13029041491E+00  0.22022429854E+02  0.70112417124E+02  0.00000000000E+00 0. -1.
          2    1    1    2  501    0 -0.82751383019E+02 -0.12199193324E+02  0.65210887965E+03  0.65745159717E+03  0.00000000000E+00 0.  1.
<scales pt_clust_3="51.97512" pt_clust_4="51.39873" pt_clust_5="89.69036" pt_clust_6="14000.00000"></scales>
<clustering>
<clus scale="   51.399">  2  4  1 -1</clus>
<clus scale="   51.975">  1  3  2 -1</clus>
<clus scale="   89.690">  2  5  1 -1</clus>
<clus scale="   51.399">  2  3  1 -1</clus>
</clustering>
</event>
<event>
 6    0  0.3800129E+002  0.3517699E+03  0.7546771E-02  0.1061891E+00
         21   -1    0    0  501  502  0.00000000000E+00  0.00000000000E+00  0.81768832960E+02  0.81768832960E+02  0.00000000000E+00 0.  1.
          2   -1    0    0  505    0 -0.00000000000E+00 -0.00000000000E+00 -0.26635719547E+04  0.26635719547E+04  0.00000000000E+00 0.  1.
         21    1    1    2  503  504  0.99144326501E+02 -0.19031560404E+03 -0.27783795392E+03  0.35106061479E+03  0.00000000000E+00 0.  1.
         21    1    1    2  504  502  0.97462199158E+02 -0.76029531759E+02 -0.20201035186E+03  0.23682810691E+03  0.00000000000E+00 0. -1.
         21    1    1    2  505  503  0.20165901100E+01 -0.51161144508E+02 -0.82817401861E+03  0.82975522562E+03  0.00000000000E+00 0.  1.
          2    1    1    2  501    0 -0.19862311577E+03  0.31750628031E+03 -0.12737807974E+04  0.13276968404E+04  0.00000000000E+00 0.  1.
<scales pt_clust_3="57.50177" pt_clust_4="57.50177" pt_clust_5="51.20087" pt_clust_6="343.47809"></scales>
<clustering>
<clus scale="   51.201">  2  5  1 -1</clus>
<clus scale="   57.502">  3  4 -1 -1</clus>
<clus scale="  343.478">  2  6  1 -1</clus>
<clus scale="  351.770">  1  3  2 -1</clus>
</clustering>
</event>
<event>
 6    0  0.3800129E+002  0.1393883E+03  0.7546771E-02  0.1214154E+00
          2   -1    0    0  503    0 -0.00000000000E+00  0.00000000000E+00  0.22538318697E+03  0.22538318697E+03  0.00000000000E+00 0. -1.
         21   -1    0    0  504  502  0.00000000000E+00 -0.00000000000E+00 -0.13092020391E+04  0.13092020391E+04  0.00000000000E+00 0. -1.
         21    1    1    2  503  505 -0.85587428158E+00 -0.65833395784E+02 -0.53717712485E+02  0.84972708300E+02  0.00000000000E+00 0. -1.
         21    1    1    2  504  501 -0.14743427351E+03  0.69329174541E+02 -0.84173794202E+03  0.85735999585E+03  0.00000000000E+00 0. -1.
         21    1    1    2  505  502  0.24328857147E+02  0.58770065771E+02 -0.36339244775E+03  0.36891717906E+03  0.00000000000E+00 0. -1.
          2    1    1    2  501    0  0.12396129065E+03 -0.62265844528E+02  0.17502925013E+03  0.22333534287E+03  0.00000000000E+00 0. -1.
<scales pt_clust_3="61.51893" pt_clust_4="139.38827" pt_clust_5="63.60671" pt_clust_6="14000.00000"></scales>
<clustering>
<clus scale="   63.607">  2  5  1 -1</clus>
<clus scale="   61.519">  2  3  1 -1</clus>
<clus scale="  139.388">  2  4  1 -1</clus>
<clus scale="   63.607">  2  3  1 -1</clus>
</clustering>
</event>
<event>
 6    0  0.3800129E+002  0.1262104E+03  0.7546771E-02  0.1233190E+00
         21   -1    0    0  504  502  0.00000000000E+00  0.00000000000E+00  0.49498561657E+03  0.49498561657E+03  0.00000000000E+00 0.  1.
          1   -1    0    0  505    0 -0.00000000000E+00 -0.00000000000E+00 -0.15602368301E+04  0.15602368301E+04  0.00000000000E+00 0. -1.
         21    1    1    2  503  502 -0.92377588656E+02  0.99088696509E+02  0.41264920954E+03  0.43431734803E+03  0.00000000000E+00 0.  1.
         21    1    1    2  504  501  0.90397847371E+02 -0.44611202805E+02  0.34572940235E+02  0.10657025111E+03  0.00000000000E+00 0. -1.
         21    1    1    2  505  503  0.24544040531E+02 -0.32354778867E+02 -0.63835327026E+03  0.63964375968E+03  0.00000000000E+00 0. -1.
          1    1    1    2  501    0 -0.22564299246E+02 -0.22122714836E+02 -0.87412009309E+03  0.87469108790E+03  0.00000000000E+00 0. -1.
<scales pt_clust_3="126.21039" pt_clust_4="14000.00000" pt_clust_5="53.08369" pt_clust_6="31.60003"></scales>
<clustering>
<clus scale="   31.600">  2  6  1 -1</clus>
<clus scale="   53.084">  2  5  1 -1</clus>
<clus scale="  126.210">  1  3  2 -1</clus>
<clus scale="  126.210">  1  3  2 -1</clus>
</clustering>
</event>
<event>
 6    0  0.3800129E+002  0.8237782E+02  0.7546771E-02  0.1322436E+00
          2   -1    0    0  503    0 -0.00000000000E+00  0.00000000000E+00  0.16718874249E+04  0.16718874249E+04  0.00000000000E+00 0.  1.
         21   -1    0    0  501  502  0.00000000000E+00 -0.00000000000E+00 -0.15380236795E+02  0.15380236795E+02  0.00000000000E+00 0. -1.
         21    1    1    2  503  504  0.51280707642E+01 -0.34312608301E+02  0.20036867819E+03  0.20335009073E+03  0.00000000000E+00 0. -1.
         21    1    1    2  504  505 -0.59135963301E+02 -0.23907006292E+01  0.38121855401E+03  0.38578538532E+03  0.00000000000E+00 0. -1.
         21    1    1    2  505  502 -0.57472019087E+02  0.16727576143E+02  0.99189315456E+02  0.11585061537E+03  0.00000000000E+00 0. -1.
          2    1    1    2  501    0  0.11147991162E+03  0.19975732787E+02  0.97573064044E+03  0.98228157027E+03  0.00000000000E+00 0.  1.
<scales pt_clust_3="34.69369" pt_clust_4="14000.00000" pt_clust_5="58.84055" pt_clust_6="82.37782"></scales>
<clustering>
<clus scale="   34.694">  1  3  2 -1</clus>
<clus scale="   58.841">  2  5  1 -1</clus>
<clus scale="   82.378">  2  6  1 -1</clus>
<clus scale="   58.841">  2  3  1 -1</clus>
</clustering>
</event>
<event>
 6    0  0.3800129E+002  0.1271186E+03  0.7546771E-02  0.1231795E+00
          1   -1    0    0  503    0 -0.00000000000E+00  0.00000000000E+00  0.96534165873E+03  0.96534165873E+03  0.00000000000E+00 0. -1.
         21   -1    0    0  501  502  0.00000000000E+00 -0.00000000000E+00 -0.13078377090E+03  0.13078377090E+03  0.00000000000E+00 0. -1.
         21    1    1    2  503  505  0.41807964523E+02 -0.33535646272E+01  0.25653229049E+03  0.25993839338E+03  0.00000000000E+00 0.  1.
         21    1    1    2  504  502  0.13917407346E+02 -0.53360781537E+02 -0.74164869241E+02  0.92420209170E+02  0.00000000000E+00 0. -1.
         21    1    1    2  505  504 -0.16233371642E+01 -0.61061791639E+02 -0.15982479105E+02  0.63139664713E+02  0.00000000000E+00 0. -1.
          1    1    1    2  501    0 -0.54102034704E+02  0.11777613780E+03  0.66817294569E+03  0.68062716236E+03  0.00000000000E+00 0. -1.
<scales pt_clust_3="41.94225" pt_clust_4="50.57929" pt_clust_5="50.57929" pt_clust_6="115.45769"></scales>
<clustering>
<clus scale="   41.942">  1  3  2 -1</clus>
<clus scale="   50.579">  4  5 -1 -1</clus>
<clus scale="  115.458">  1  6  2 -1</clus>
<clus scale="  127.119">  2  3  1 -1</clus>
</clustering>
</event>
<event>
 6    0  0.3800129E+002  0.1032157E+03  0.7546771E-02  0.1273676E+00
         21   -1    0    0  504  502  0.00000000000E+00  0.00000000000E+00  0.13393169668E+04  0.13393169668E+04  0.00000000000E+00 0.  1.
          1   -1    0    0  505    0 -0.00000000000E+00 -0.00000000000E+00 -0.12145230967E+04  0.12145230967E+04  0.00000000000E+00 0. -1.
         21    1    1    2  503  502  0.22698157893E+02 -0.38118332015E+02  0.11970708023E+04  0.11978926160E+04  0.00000000000E+00 0.  1.
         21    1    1    2  504  501  0.10155355765E+02  0.37546957663E+02  0.12301789123E+03  0.12902056752E+03  0.00000000000E+00 0. -1.
         21    1    1    2  505  503 -0.27687696726E+01 -0.99790742265E+02 -0.17663958207E+03  0.20289751177E+03  0.00000000000E+00 0. -1.
          1    1    1    2  501    0 -0.30084743986E+02  0.10036211662E+03 -0.10186552413E+04  0.10240293682E+04  0.00000000000E+00 0. -1.
<scales pt_clust_3="32.73832" pt_clust_4="38.89608" pt_clust_5="14000.00000" pt_clust_6="103.21570"></scales>
<clustering>
<clus scale="   38.896">  1  4  2 -1</clus>
<clus scale="   32.738">  1  3  2 -1</clus>
<clus scale="  103.216">  2  6  1 -1</clus>
<clus scale="   38.896">  1  3  2 -1</clus>
</clustering>
</event>
<event>
 6    0  0.3800129E+002  0.1238358E+03  0.7546771E-02  0.1236900E+00
         21   -1    0    0  501  502  0.00000000000E+00  0.00000000000E+00  0.30706562700E+03  0.30706562700E+03  0.00000000000E+00 0. -1.
          4   -1    0    0  503    0 -0.00000000000E+00 -0.00000000000E+00 -0.10334768241E+03  0.10334768241E+03  0.00000000000E+00 0. -1.
         21    1    1    2  503  504  0.32881553962E+02  0.81290681583E+00 -0.19574155871E+02  0.38275383558E+02  0.00000000000E+00 0. -1.
         21    1    1    2  504  505  0.20828862276E+02 -0.66599646575E+02  0.10427116143E+03  0.12546644784E+03  0.00000000000E+00 0. -1.
         21    1    1    2  505  502  0.42978594411E+02 -0.23471226407E+02  0.10307920015E+03  0.11412002256E+03  0.00000000000E+00 0.  1.
          4    1    1    2  501    0 -0.96689010649E+02  0.89257966166E+02  0.15941738885E+02  0.13255145545E+03  0.00000000000E+00 0. -1.
<scales pt_clust_3="32.89160" pt_clust_4="39.94174" pt_clust_5="39.94174" pt_clust_6="114.50749"></scales>
<clustering>
<clus scale="   32.892">  2  3  1 -1</clus>
<clus scale="   39.942">  4  5 -1 -1</clus>
<clus scale="  114.507">  2  6  1 -1</clus>
<clus scale="  123.836">  1  3  2 -1</clus>
</clustering>
</event>
<event>
 6    0  0.3800129E+002  0.7978367E+02  0.7546771E-02  0.1329666E+00
          1   -1    0    0  505    0 -0.00000000000E+00  0.00000000000E+00  0.77959685209E+02  0.77959685209E+02  0.00000000000E+00 0.  1.
         21   -1    0    0  503  502  0.00000000000E+00 -0.00000000000E+00 -0.63396813328E+03  0.63396813328E+03  0.00000000000E+00 0.  1.
         21    1    1    2  503  501  0.32299280373E+02  0.76021886974E+02 -0.39472683398E+03  0.40327638695E+03  0.00000000000E+00 0.  1.
         21    1    1    2  504  502  0.23787658069E+02 -0.25208937928E+02 -0.15153329612E+03  0.15544672097E+03  0.00000000000E+00 0.  1.
         21    1    1    2  505  504  0.29451554440E+02  0.24002383393E+02  0.60469266411E+01  0.38471727142E+02  0.00000000000E+00 0.  1.
          1    1    1    2  501    0 -0.85538492882E+02 -0.74815332440E+02 -0.15795244616E+02  0.11473298342E+03  0.00000000000E+00 0.  1.
<scales pt_clust_3="79.78367" pt_clust_4="34.66040" pt_clust_5="38.09622" pt_clust_6="14000.00000"></scales>
<clustering>
<clus scale="   34.660">  2  4  1 -1</clus>
<clus scale="   38.096">  1  5  2 -1</clus>
<clus scale="   79.784">  2  3  1 -1</clus>
<clus scale="   34.660">  2  3  1 -1</clus>
</clustering>
</event>
<event>
 6    0  0.3800129E+002  0.1201711E+03  0.7546771E-02  0.1242815E+00
         21   -1    0    0  504  502  0.00000000000E+00  0.00000000000E+00  0.54594838241E+03  0.54594838241E+03  0.00000000000E+00 0. -1.
          2   -1    0    0  503    0 -0.00000000000E+00 -0.00000000000E+00 -0.15146336373E+04  0.15146336373E+04  0.00000000000E+00 0.  1.
         21    1    1    2  503  505 -0.76934412328E+02 -0.39321185719E+02 -0.18234672099E+03  0.20178053945E+03  0.00000000000E+00 0.  1.
         21    1    1    2  504  501 -0.27119199640E+02 -0.33881615160E+02  0.85026591790E+02  0.95461699893E+02  0.00000000000E+00 0.  1.
         21    1    1    2  505  502 -0.21336596598E+02  0.32104323443E+02  0.44184173634E+03  0.44352007610E+03  0.00000000000E+00 0. -1.
          2    1    1    2  501    0  0.12539020857E+03  0.41098477436E+02 -0.13132068620E+04  0.13198197042E+04  0.00000000000E+00 0.  1.
<scales pt_clust_3="120.17114" pt_clust_4="46.13433" pt_clust_5="38.54787" pt_clust_6="14000.00000"></scales>
<clustering>
<clus scale="   38.548">  1  5  2 -1</clus>
<clus scale="   46.134">  1  4  2 -1</clus>
<clus scale="  120.171">  1  3  2 -1</clus>
<clus scale="   38.548">  1  3  2 -1</clus>
</clustering>
</event>
<event>
 6    0  0.3800129E+002  0.1385458E+03  0.7546771E-02  0.1215299E+00
         21   -1    0    0  504  502  0.00000000000E+00  0.00000000000E+00  0.73031462943E+03  0.73031462943E+03  0.00000000000E+00 0. -1.
         -2   -1    0    0    0  501 -0.00000000000E+00 -0.00000000000E+00 -0.66925682798E+03  0.66925682798E+03  0.00000000000E+00 0. -1.
         21    1    1    2  503  505  0.30099571410E+02 -0.42991729301E+02  0.16899847872E+03  0.17695976604E+03  0.00000000000E+00 0. -1.
         21    1    1    2  504  501 -0.40382847995E+02  0.27165370099E+02 -0.61016356629E+02  0.78049519672E+02  0.00000000000E+00 0.  1.
         21    1    1    2  505  502  0.71460088885E+02 -0.29599836054E+02  0.54363369813E+03  0.54910863437E+03  0.00000000000E+00 0. -1.
         -2    1    1    2    0  503 -0.61176812300E+02  0.45426195257E+02 -0.59055801877E+03  0.59545353732E+03  0.00000000000E+00 0. -1.
<scales pt_clust_3="50.34656" pt_clust_4="48.66962" pt_clust_5="50.34656" pt_clust_6="124.29052"></scales>
<clustering>
<clus scale="   48.670">  2  4  1 -1</clus>
<clus scale="   50.347">  3  5 -1 -1</clus>
<clus scale="  124.291">  2  6  1 -1</clus>
<clus scale="  138.546">  1  3  2 -1</clus>
</clustering>
</event>
<event>
 6    0  0.3800129E+002  0.1456462E+03  0.7546771E-02  0.1205927E+00
          2   -1    0    0  504    0 -0.00000000000E+00  0.00000000000E+00  0.22949052169E+04  0.22949052169E+04  0.00000000000E+00 0.  1.
         21   -1    0    0  503  502  0.00000000000E+00 -0.00000000000E+00 -0.77597500571E+02  0.77597500571E+02  0.00000000000E+00 0. -1.
         21    1    1    2  503  505  0.13767418124E+02  0.34788413800E+02  0.58926025771E+01  0.37874771309E+02  0.00000000000E+00 0. -1.
         21    1    1    2  504  502  0.91803351706E+02 -0.10509035389E+03  0.14977296066E+04  0.15042160125E+04  0.00000000000E+00 0.  1.
         21    1    1    2  505  501  0.62846234008E+02  0.40667553269E+01 -0.26571926455E+02  0.68353894574E+02  0.00000000000E+00 0. -1.
          2    1    1    2  501    0 -0.16841700384E+03  0.66235184768E+02  0.74025743364E+03  0.76205803909E+03  0.00000000000E+00 0.  1.
<scales pt_clust_3="37.41357" pt_clust_4="145.64617" pt_clust_5="79.67559" pt_clust_6="14000.00000"></scales>
<clustering>
<clus scale="   37.414">  2  3  1 -1</clus>
<clus scale="   79.676">  2  5  1 -1</clus>
<clus scale="  145.646">  1  4  2 -1</clus>
<clus scale="   37.414">  2  3  1 -1</clus>
</clustering>
</event>
<event>
 6    0  0.3800129E+002  0.1010742E+03  0.7546771E-02  0.1278053E+00
         21   -1    0    0  505  502  0.00000000000E+00  0.00000000000E+00  0.18394135349E+03  0.18394135349E+03  0.00000000000E+00 0. -1.
         -1   -1    0    0    0  501 -0.00000000000E+00 -0.00000000000E+00 -0.14742250654E+04  0.14742250654E+04  0.00000000000E+00 0.  1.
         21    1    1    2  503  502 -0.37282217555E+02  0.38719373004E+02  0.11736994203E+03  0.12909243542E+03  0.00000000000E+00 0. -1.
         21    1    1    2  504  501 -0.30029836266E+02 -0.29293815765E+02 -0.78388227189E+01  0.42677463020E+02  0.00000000000E+00 0.  1.
         21    1    1    2  505  504  0.12255673304E+02 -0.74126231774E+02  0.84187097586E+01  0.75602740950E+02  0.00000000000E+00 0. -1.
         -1    1    1    2    0  503  0.55056380517E+02  0.64700674535E+02 -0.14082335410E+04  0.14107937795E+04  0.00000000000E+00 0.  1.
<scales pt_clust_3="53.75085" pt_clust_4="40.77924" pt_clust_5="40.77924" pt_clust_6="85.07498"></scales>
<clustering>
<clus scale="   40.779">  4  5 -1 -1</clus>
<clus scale="   53.751">  1  3  2 -1</clus>
<clus scale="   85.075">  2  6  1 -1</clus>
<clus scale="   53.751">  1  3  2 -1</clus>
</clustering>
</event>
<event>
 6    0  0.3800129E+002  0.1173856E+03  0.7546771E-02  0.1247473E+00
         21   -1    0    0  501  502  0.00000000000E+00  0.00000000000E+00  0.39177679161E+03  0.39177679161E+03  0.00000000000E+00 0. -1.
          2   -1    0    0  505    0 -0.00000000000E+00 -0.00000000000E+00 -0.34859764089E+03  0.34859764089E+03  0.00000000000E+00 0. -1.
         21    1    1    2  503  504  0.10967687674E+03  0.85356106516E+02  0.96794570035E+02  0.16936313353E+03  0.00000000000E+00 0. -1.
         21    1    1    2  504  502 -0.62105509178E+02  0.14331230153E+02  0.22715537660E+03  0.23592804740E+03  0.00000000000E+00 0. -1.
         21    1    1    2  505  503  0.22153533028E+02  0.29011493131E+02 -0.54392231967E+02  0.65505424643E+02  0.00000000000E+00 0.  1.
          2    1    1    2  501    0 -0.69724900587E+02 -0.12869882980E+03 -0.22637856396E+03  0.26957782693E+03  0.00000000000E+00 0. -1.
<scales pt_clust_3="14000.00000" pt_clust_4="63.51068" pt_clust_5="36.50268" pt_clust_6="117.38560"></scales>
<clustering>
<clus scale="   36.503">  2  5  1 -1</clus>
<clus scale="   63.511">  1  4  2 -1</clus>
<clus scale="  117.386">  2  6  1 -1</clus>
<clus scale="   63.511">  1  3  2 -1</clus>
</clustering>
</event>
<event>
 6    0  0.3800129E+002  0.3434779E+03  0.7546771E-02  0.1065324E+00
         21   -1    0    0  504  502  0.00000000000E+00  0.00000000000E+00  0.28325587469E+03  0.28325587469E+03  0.00000000000E+00 0. -1.
          2   -1    0    0  503    0 -0.00000000000E+00 -0.00000000000E+00 -0.40102587670E+04  0.40102587670E+04  0.00000000000E+00 0.  1.
         21    1    1    2  503  505 -0.79212227356E+02 -0.33218778358E+02 -0.22725408187E+04  0.22741635467E+04  0.00000000000E+00 0.  1.
         21    1    1    2  504  501  0.68986866590E+00 -0.33669766302E+03  0.13047837638E+03  0.36109610758E+03  0.00000000000E+00 0. -1.
         21    1    1    2  505  502 -0.72270324133E+02  0.66421307278E+01 -0.11010821308E+03  0.13187469901E+03  0.00000000000E+00 0. -1.
          2    1    1    2  501    0  0.15079268282E+03  0.36327431065E+03 -0.14748322369E+04  0.15263802885E+04  0.00000000000E+00 0.  1.
<scales pt_clust_3="86.08660" pt_clust_4="343.47787" pt_clust_5="72.57491" pt_clust_6="14000.00000"></scales>
<clustering>
<clus scale="   72.575">  1  5  2 -1</clus>
<clus scale="   86.087">  2  3  1 -1</clus>
<clus scale="  343.478">  1  4  2 -1</clus>
<clus scale="   72.575">  1  3  2 -1</clus>
</clustering>
</event>
<event>
 6    0  0.3800129E+002  0.1044125E+03  0.7546771E-02  0.1271282E+00
          2   -1    0    0  505    0 -0.00000000000E+00  0.00000000000E+00  0.25528460837E+03  0.25528460837E+03  0.00000000000E+00 0.  1.
         21   -1    0    0  504  502  0.00000000000E+00 -0.00000000000E+00 -0.43164878536E+03  0.43164878536E+03  0.00000000000E+00 0.  1.
         21    1    1    2  503  502  0.27949791304E+02 -0.15990788929E+02 -0.13441447837E+03  0.13821775631E+03  0.00000000000E+00 0.  1.
         21    1    1    2  504  501  0.12871818636E+02  0.80993760843E+02 -0.20552268855E+03  0.22128092669E+03  0.00000000000E+00 0.  1.
         21    1    1    2  505  503 -0.81612782111E+02 -0.14614257028E+03  0.36624335548E+02  0.17134654653E+03  0.00000000000E+00 0.  1.
          2    1    1    2  501    0  0.40791172171E+02  0.81139598369E+02  0.12694865439E+03  0.15608816420E+03  0.00000000000E+00 0.  1.
<scales pt_clust_3="32.20087" pt_clust_4="76.91080" pt_clust_5="14000.00000" pt_clust_6="104.41248"></scales>
<clustering>
<clus scale="   32.201">  2  3  1 -1</clus>
<clus scale="   76.911">  2  4  1 -1</clus>
<clus scale="  104.412">  1  6  2 -1</clus>
<clus scale="   32.201">  2  3  1 -1</clus>
</clustering>
</event>
<event>
 6    0  0.3800129E+002  0.1439494E+03  0.7546771E-02  0.1208111E+00
          3   -1    0    0  505    0 -0.00000000000E+00  0.00000000000E+00  0.14543115161E+03  0.14543115161E+03  0.00000000000E+00 0. -1.
         21   -1    0    0  504  502  0.00000000000E+00 -0.00000000000E+00 -0.26841115998E+03  0.26841115998E+03  0.00000000000E+00 0. -1.
         21    1    1    2  503  501 -0.60914844833E+02 -0.10765207366E+02 -0.32606037555E+02  0.69926115977E+02  0.00000000000E+00 0. -1.
         21    1    1    2  504  503 -0.58371329133E+02  0.27688280942E+02 -0.98378777288E+02  0.11769552577E+03  0.00000000000E+00 0. -1.
         21    1    1    2  505  502 -0.31295499378E+02  0.50035850839E+02  0.16260951920E+02  0.61216118857E+02  0.00000000000E+00 0. -1.
          3    1    1    2  501    0  0.15058167334E+03 -0.66958924416E+02 -0.82561454460E+01  0.16500455098E+03  0.00000000000E+00 0. -1.
<scales pt_clust_3="58.13119" pt_clust_4="58.13119" pt_clust_5="59.01690" pt_clust_6="131.11880"></scales>
<clustering>
<clus scale="   58.131">  3  4 -1 -1</clus>
<clus scale="   59.017">  1  5  2 -1</clus>
<clus scale="  131.119">  1  6  2 -1</clus>
<clus scale="  143.949">  2  3  1 -1</clus>
</clustering>
</event>
<event>
 6    0  0.3800129E+002  0.1951386E+03  0.7546771E-02  0.1153907E+00
          2   -1    0    0  505    0 -0.00000000000E+00  0.00000000000E+00  0.51598959284E+03  0.51598959284E+03  0.00000000000E+00 0.  1.
         21   -1    0    0  504  502  0.00000000000E+00 -0.00000000000E+00 -0.85104137197E+02  0.85104137197E+02  0.00000000000E+00 0.  1.
         21    1    1    2  503  502  0.15440233988E+02  0.37050397599E+02  0.62845360980E+02  0.74569914741E+02  0.00000000000E+00 0.  1.
         21    1    1    2  504  501  0.26224359303E+02  0.22203989255E+02  0.10802059257E+02  0.36019697998E+02  0.00000000000E+00 0.  1.
         21    1    1    2  505  503 -0.70018834158E+02  0.12805559169E+03  0.13958072507E+03  0.20194962369E+03  0.00000000000E+00 0.  1.
          2    1    1    2  501    0  0.28354240868E+02 -0.18730997854E+03  0.21765731034E+03  0.28855449361E+03  0.00000000000E+00 0.  1.
<scales pt_clust_3="38.66895" pt_clust_4="34.36181" pt_clust_5="38.66895" pt_clust_6="181.19365"></scales>
<clustering>
<clus scale="   34.362">  2  4  1 -1</clus>
<clus scale="   38.669">  3  5 -1 -1</clus>
<clus scale="  181.194">  2  6  1 -1</clus>
<clus scale="   34.362">  2  3  1 -1</clus>
</clustering>
</event>
<event>
 6    0  0.3800129E+002  0.3185877E+03  0.7546771E-02  0.1076301E+00
          1   -1    0    0  504    0 -0.00000000000E+00  0.00000000000E+00  0.13449275364E+04  0.13449275364E+04  0.00000000000E+00 0.  1.
         21   -1    0    0  501  502  0.00000000000E+00 -0.00000000000E+00 -0.42836835191E+03  0.42836835191E+03  0.00000000000E+00 0. -1.
         21    1    1    2  503  505 -0.22687472489E+03  0.72508610773E+02 -0.56858480813E+02  0.24487246940E+03  0.00000000000E+00 0. -1.
         21    1    1    2  504  503 -0.30970452177E+02 -0.18317135427E+02  0.48269308313E+03  0.48403233245E+03  0.00000000000E+00 0. -1.
         21    1    1    2  505  502 -0.59672683733E+02  0.10641039109E+03 -0.21887291340E+03  0.25057803722E+03  0.00000000000E+00 0. -1.
          1    1    1    2  501    0  0.31751786080E+03 -0.16060186644E+03  0.70959749558E+03  0.79381304925E+03  0.00000000000E+00 0.  1.
<scales pt_clust_3="318.58765" pt_clust_4="35.98175" pt_clust_5="121.98656" pt_clust_6="14000.00000"></scales>
<clustering>
<clus scale="   35.982">  1  4  2 -1</clus>
<clus scale="  121.987">  2  5  1 -1</clus>
<clus scale="  318.588">  2  3  1 -1</clus>
<clus scale="  121.987">  2  3  1 -1</clus>
</clustering>
</event>
<event>
 6    0  0.3800129E+002  0.1840983E+03  0.7546771E-02  0.1163895E+00
         21   -1    0    0  505  502  0.00000000000E+00  0.00000000000E+00  0.17902611854E+03  0.17902611854E+03  0.00000000000E+00 0.  1.
          2   -1    0    0  503    0 -0.00000000000E+00 -0.00000000000E+00 -0.33267090321E+03  0.33267090321E+03  0.00000000000E+00 0. -1.
         21    1    1    2  503  504 -0.76295331821E+02  0.12063234345E+02  0.58990407668E+02  0.97192425000E+02  0.00000000000E+00 0.  1.
         21    1    1    2  504  502 -0.97666861525E+02 -0.53758698552E+01  0.36782835720E+02  0.10450211874E+03  0.00000000000E+00 0.  1.
         21    1    1    2  505  501  0.77874048160E+02  0.37245329171E+01 -0.63846004660E+02  0.10076979624E+03  0.00000000000E+00 0. -1.
          2    1    1    2  501    0  0.96088145186E+02 -0.10411897407E+02 -0.18557202340E+03  0.20923268178E+03  0.00000000000E+00 0. -1.
<scales pt_clust_3="30.79135" pt_clust_4="177.50542" pt_clust_5="53.77292" pt_clust_6="53.77292"></scales>
<clustering>
<clus scale="   30.791">  3  4 -1 -1</clus>
<clus scale="   53.773">  5  6 -1 -1</clus>
<clus scale="  177.505">  1  3  2 -1</clus>
<clus scale="  177.505">  1  3  2 -1</clus>
</clustering>
</event>
<event>
 6    0  0.3800129E+002  0.1380837E+03  0.7546771E-02  0.1215931E+00
          1   -1    0    0  502    0 -0.00000000000E+00  0.00000000000E+00  0.12497324623E+04  0.12497324623E+04  0.00000000000E+00 0. -1.
         21   -1    0    0  504  502  0.00000000000E+00 -0.00000000000E+00 -0.45593155808E+02  0.45593155808E+02  0.00000000000E+00 0. -1.
         21    1    1    2  503  505  0.14331785727E+02 -0.12018874179E+03  0.81327221608E+02  0.14582472599E+03  0.00000000000E+00 0. -1.
         21    1    1    2  504  503 -0.31073112218E+02 -0.57938544149E+01  0.18836623662E+02  0.36795725878E+02  0.00000000000E+00 0.  1.
         21    1    1    2  505  501  0.28982122950E+02  0.27802896975E+02  0.32352187865E+03  0.32600516943E+03  0.00000000000E+00 0. -1.
          1    1    1    2  501    0 -0.12240796459E+02  0.98179699225E+02  0.78045358262E+03  0.78669999686E+03  0.00000000000E+00 0. -1.
<scales pt_clust_3="125.96833" pt_clust_4="31.60865" pt_clust_5="35.65596" pt_clust_6="35.65596"></scales>
<clustering>
<clus scale="   31.609">  2  4  1 -1</clus>
<clus scale="   35.656">  5  6 -1 -1</clus>
<clus scale="  125.968">  2  3  1 -1</clus>
<clus scale="   31.609">  2  3  1 -1</clus>
</clustering>
</event>
<event>
 6    0  0.3800129E+002  0.1387594E+03  0.7546771E-02  0.1215008E+00
         21   -1    0    0  503  502  0.00000000000E+00  0.00000000000E+00  0.34981113224E+03  0.34981113224E+03  0.00000000000E+00 0.  1.
          2   -1    0    0  504    0 -0.00000000000E+00 -0.00000000000E+00 -0.11150210438E+04  0.11150210438E+04  0.00000000000E+00 0.  1.
         21    1    1    2  503  501  0.10647810652E+02  0.42931090253E+02  0.22094489768E+02  0.49443107306E+02  0.00000000000E+00 0.  1.
         21    1    1    2  504  505  0.46283474919E+02 -0.48784632761E+02 -0.13694128815E+03  0.15256151823E+03  0.00000000000E+00 0.  1.
         21    1    1    2  505  502 -0.13727866372E+02  0.98770220804E+02  0.29527232324E+03  0.31165647066E+03  0.00000000000E+00 0.  1.
          2    1    1    2  501    0 -0.43203419199E+02 -0.92916678297E+02 -0.94563543638E+03  0.95117107981E+03  0.00000000000E+00 0.  1.
<scales pt_clust_3="44.23183" pt_clust_4="66.66071" pt_clust_5="138.75942" pt_clust_6="14000.00000"></scales>
<clustering>
<clus scale="   44.232">  1  3  2 -1</clus>
<clus scale="   66.661">  2  4  1 -1</clus>
<clus scale="  138.759">  1  5  2 -1</clus>
<clus scale="   44.232">  1  3  2 -1</clus>
</clustering>
</event>
<event>
 6    0  0.4002014E+002  0.1194232E+03  0.7546771E-02  0.1244052E+00
         -2   -1    0    0    0  501 -0.00000000000E+00  0.00000000000E+00  0.49723793963E+03  0.49723793963E+03  0.00000000000E+00 0.  1.
         21   -1    0    0  503  502  0.00000000000E+00 -0.00000000000E+00 -0.67113967180E+03  0.67113967180E+03  0.00000000000E+00 0. -1.
         21    1    1    2  503  505 -0.28138665445E+02  0.84009178216E+02 -0.60777620307E+03  0.61419967400E+03  0.00000000000E+00 0. -1.
         21    1    1    2  504  502  0.18968315862E+02  0.35809216731E+02 -0.30522380717E+02  0.50731772432E+02  0.00000000000E+00 0. -1.
         21    1    1    2  505  501  0.30713719803E+02  0.10923680030E+02  0.16849763786E+02  0.36695693333E+02  0.00000000000E+00 0. -1.
         -2    1    1    2    0  504 -0.21543370219E+02 -0.13074207498E+03  0.44754708784E+03  0.46675047167E+03  0.00000000000E+00 0.  1.
<scales pt_clust_3="119.42323" pt_clust_4="41.04164" pt_clust_5="32.59846" pt_clust_6="14000.00000"></scales>
<clustering>
<clus scale="   32.598">  1  5  2 -1</clus>
<clus scale="   41.042">  2  4  1 -1</clus>
<clus scale="  119.423">  2  3  1 -1</clus>
<clus scale="   41.042">  2  3  1 -1</clus>
</clustering>
</event>
<event>
 6    0  0.3800129E+002  0.1407801E+03  0.7546771E-02  0.1212283E+00
         21   -1    0    0  503  502  0.00000000000E+00  0.00000000000E+00  0.23961266621E+02  0.23961266621E+02  0.00000000000E+00 0. -1.
          2   -1    0    0  504    0 -0.00000000000E+00 -0.00000000000E+00 -0.35871678673E+04  0.35871678673E+04  0.00000000000E+00 0. -1.
         21    1    1    2  503  505 -0.31320442162E+02 -0.11630223287E+03 -0.21033788628E+03  0.24238235470E+03  0.00000000000E+00 0. -1.
         21    1    1    2  504  502  0.34451553821E+02 -0.19497273219E+02 -0.54794347744E+02  0.67597882869E+02  0.00000000000E+00 0.  1.
         21    1    1    2  505  501  0.17794426150E+02  0.60835010830E+02 -0.12681779792E+04  0.12697609724E+04  0.00000000000E+00 0. -1.
          2    1    1    2  501    0 -0.20925537808E+02  0.74964495260E+02 -0.20298963874E+04  0.20313879239E+04  0.00000000000E+00 0. -1.
<scales pt_clust_3="134.09265" pt_clust_4="39.58602" pt_clust_5="38.69117" pt_clust_6="38.69117"></scales>
<clustering>
<clus scale="   38.691">  5  6 -1 -1</clus>
<clus scale="   39.586">  1  4  2 -1</clus>
<clus scale="  134.093">  1  3  2 -1</clus>
<clus scale="   39.586">  1  3  2 -1</clus>
</clustering>
</event>
<event>
 6    0  0.3800129E+002  0.1384124E+03  0.7546771E-02  0.1215481E+00
         21   -1    0    0  504  502  0.00000000000E+00  0.00000000000E+00  0.10325398611E+03  0.10325398611E+03  0.00000000000E+00 0.  1.
          2   -1    0    0  503    0 -0.00000000000E+00 -0.00000000000E+00 -0.29624127843E+04  0.29624127843E+04  0.00000000000E+00 0. -1.
         21    1    1    2  503  502  0.83932972323E+01  0.54949849114E+02 -0.58800808692E+03  0.59062970095E+03  0.00000000000E+00 0. -1.
         21    1    1    2  504  505  0.21779409204E+02  0.37835490827E+02  0.44699734806E+02  0.62481463836E+02  0.00000000000E+00 0.  1.
         21    1    1    2  505  501  0.16170974775E+02  0.82115521188E+02  0.57735963438E+01  0.83891558931E+02  0.00000000000E+00 0.  1.
          2    1    1    2  501    0 -0.46343681211E+02 -0.17490086113E+03 -0.23216240424E+04  0.23286640467E+04  0.00000000000E+00 0. -1.
<scales pt_clust_3="55.58717" pt_clust_4="39.88046" pt_clust_5="39.88046" pt_clust_6="126.92113"></scales>
<clustering>
<clus scale="   39.880">  4  5 -1 -1</clus>
<clus scale="   55.587">  2  3  1 -1</clus>
<clus scale="  126.921">  2  6  1 -1</clus>
<clus scale="  138.412">  1  3  2 -1</clus>
</clustering>
</event>
<event>
 6    0  0.3800129E+002  0.8830701E+02  0.7546771E-02  0.1307004E+00
         21   -1    0    0  503  502  0.00000000000E+00  0.00000000000E+00  0.55921407912E+03  0.55921407912E+03  0.00000000000E+00 0. -1.
          2   -1    0    0  505    0 -0.00000000000E+00 -0.00000000000E+00 -0.72464510197E+02  0.72464510197E+02  0.00000000000E+00 0.  1.
         21    1    1    2  503  504 -0.49200897855E+02 -0.22086121251E+01  0.12126376062E+03  0.13088355878E+03  0.00000000000E+00 0. -1.
         21    1    1    2  504  501 -0.27405487179E+01 -0.71494469376E+02  0.33779195374E+03  0.34528593045E+03  0.00000000000E+00 0. -1.
         21    1    1    2  505  502  0.13024272459E+02 -0.33125540787E+02  0.21630365283E+02  0.41651000322E+02  0.00000000000E+00 0. -1.
          2    1    1    2  501    0  0.38917174114E+02  0.10682862229E+03  0.60634892827E+01  0.11385809977E+03  0.00000000000E+00 0.  1.
<scales pt_clust_3="48.43229" pt_clust_4="88.30701" pt_clust_5="35.59400" pt_clust_6="14000.00000"></scales>
<clustering>
<clus scale="   35.594">  2  5  1 -1</clus>
<clus scale="   48.432">  1  3  2 -1</clus>
<clus scale="   88.307">  1  4  2 -1</clus>
<clus scale="   48.432">  1  3  2 -1</clus>
</clustering>
</event>
<event>
 6    0  0.3800129E+002  0.8693744E+02  0.7546771E-02  0.1310442E+00
          2   -1    0    0  504    0 -0.00000000000E+00  0.00000000000E+00  0.24314326977E+03  0.24314326977E+03  0.00000000000E+00 0.  1.
         21   -1    0    0  501  502  0.00000000000E+00 -0.00000000000E+00 -0.36732471801E+03  0.36732471801E+03  0.00000000000E+00 0.  1.
         21    1    1    2  503  502 -0.31836496892E+02  0.40807729052E+01 -0.31354689293E+02  0.44870165840E+02  0.00000000000E+00 0.  1.
         21    1    1    2  504  505  0.72492847106E+01 -0.75309614106E+02  0.89661444306E+02  0.11731694123E+03  0.00000000000E+00 0.  1.
         21    1    1    2  505  503 -0.52953451112E+02 -0.30950155881E+02 -0.28032575437E+03  0.28695732905E+03  0.00000000000E+00 0.  1.
          2    1    1    2  501    0  0.77540663293E+02  0.10217899708E+03  0.97837551116E+02  0.16132355165E+03  0.00000000000E+00 0.  1.
<scales pt_clust_3="32.09697" pt_clust_4="75.37044" pt_clust_5="86.93744" pt_clust_6="14000.00000"></scales>
<clustering>
<clus scale="   32.097">  2  3  1 -1</clus>
<clus scale="   75.370">  1  4  2 -1</clus>
<clus scale="   86.937">  2  5  1 -1</clus>
<clus scale="   32.097">  2  3  1 -1</clus>
</clustering>
</event>
<event>
 6    0  0.3800129E+002  0.1168489E+03  0.7546771E-02  0.1248388E+00
         21   -1    0    0  501  502  0.00000000000E+00  0.00000000000E+00  0.86089702061E+03  0.86089702061E+03  0.00000000000E+00 0. -1.
          1   -1    0    0  503    0 -0.00000000000E+00 -0.00000000000E+00 -0.19220577368E+03  0.19220577368E+03  0.00000000000E+00 0.  1.
         21    1    1    2  503  505 -0.36769271388E+02  0.76118797261E+01 -0.56054577549E+02  0.67468775708E+02  0.00000000000E+00 0.  1.
         21    1    1    2  504  502 -0.23908061368E+02  0.20931902546E+02  0.10235703101E+03  0.10717603156E+03  0.00000000000E+00 0. -1.
         21    1    1    2  505  504  0.76547329781E+02  0.84374800710E+02  0.71963320814E+03  0.72859491828E+03  0.00000000000E+00 0. -1.
          1    1    1    2  501    0 -0.15869997024E+02 -0.11291858298E+03 -0.97244414671E+02  0.14986306874E+03  0.00000000000E+00 0.  1.
<scales pt_clust_3="37.75782" pt_clust_4="31.77641" pt_clust_5="14000.00000" pt_clust_6="116.84886"></scales>
<clustering>
<clus scale="   31.776">  1  4  2 -1</clus>
<clus scale="   37.758">  2  3  1 -1</clus>
<clus scale="  116.849">  2  6  1 -1</clus>
<clus scale="   31.776">  1  3  2 -1</clus>
</clustering>
</event>
<event>
 6    0  0.3800129E+002  0.3783025E+03  0.7546771E-02  0.1051563E+00
         21   -1    0    0  501  502  0.00000000000E+00  0.00000000000E+00  0.10500623066E+04  0.10500623066E+04  0.00000000000E+00 0. -1.
          2   -1    0    0  504    0 -0.00000000000E+00 -0.00000000000E+00 -0.11310862118E+04  0.11310862118E+04  0.00000000000E+00 0.  1.
         21    1    1    2  503  505 -0.23676420625E+02  0.14697933992E+03  0.23492070713E+03  0.27812090518E+03  0.00000000000E+00 0. -1.
         21    1    1    2  504  503  0.23398596205E+02 -0.25702030232E+02 -0.83808564286E+03  0.83880607618E+03  0.00000000000E+00 0.  1.
         21    1    1    2  505  502  0.80140961104E+02  0.19982910343E+03  0.66856914085E+03  0.70238090828E+03  0.00000000000E+00 0. -1.
          2    1    1    2  501    0 -0.79863136683E+02 -0.32110641312E+03 -0.14642811026E+03  0.36184062876E+03  0.00000000000E+00 0.  1.
<scales pt_clust_3="121.64718" pt_clust_4="34.75757" pt_clust_5="121.64718" pt_clust_6="348.55014"></scales>
<clustering>
<clus scale="   34.758">  2  4  1 -1</clus>
<clus scale="  121.647">  3  5 -1 -1</clus>
<clus scale="  348.550">  2  6  1 -1</clus>
<clus scale="  378.302">  1  3  2 -1</clus>
</clustering>
</event>
<event>
 6    0  0.3800129E+002  0.1050791E+03  0.7546771E-02  0.1269964E+00
          2   -1    0    0  503    0 -0.00000000000E+00  0.00000000000E+00  0.86821768210E+03  0.86821768210E+03  0.00000000000E+00 0. -1.
         21   -1    0    0  501  502  0.00000000000E+00 -0.00000000000E+00 -0.59736643555E+02  0.59736643555E+02  0.00000000000E+00 0. -1.
         21    1    1    2  503  504 -0.20681126787E+02  0.41701437633E+02  0.11631410679E+03  0.12528244228E+03  0.00000000000E+00 0.  1.
         21    1    1    2  504  505  0.76709859152E+02  0.12568831588E+02  0.17587764973E+03  0.19228969212E+03  0.00000000000E+00 0.  1.
         21    1    1    2  505  502  0.64630826964E+02  0.11879583207E+02 -0.99386935626E+01  0.66460860068E+02  0.00000000000E+00 0. -1.
          2    1    1    2  501    0 -0.12065955933E+03 -0.66149852429E+02  0.52622797558E+03  0.54392133119E+03  0.00000000000E+00 0. -1.
<scales pt_clust_3="46.54803" pt_clust_4="14000.00000" pt_clust_5="65.25143" pt_clust_6="105.07913"></scales>
<clustering>
<clus scale="   46.548">  1  3  2 -1</clus>
<clus scale="   65.251">  2  5  1 -1</clus>
<clus scale="  105.079">  1  6  2 -1</clus>
<clus scale="   65.251">  2  3  1 -1</clus>
</clustering>
</event>
<event>
 6    0  0.3800129E+002  0.1555838E+03  0.7546771E-02  0.1193775E+00
          2   -1    0    0  503    0 -0.00000000000E+00  0.00000000000E+00  0.24870629752E+04  0.24870629752E+04  0.00000000000E+00 0.  1.
         21   -1    0    0  505  502  0.00000000000E+00 -0.00000000000E+00 -0.93922665495E+03  0.93922665495E+03  0.00000000000E+00 0.  1.
         21    1    1    2  503  502 -0.10569818690E+01  0.37714909507E+02 -0.75836168372E+02  0.84703341393E+02  0.00000000000E+00 0.  1.
         21    1    1    2  504  501  0.11491967604E+03 -0.97383051741E+02  0.31376112483E+03  0.34804602305E+03  0.00000000000E+00 0. -1.
         21    1    1    2  505  504  0.43305313191E+02  0.32282065392E+02 -0.83798663776E+03  0.83972560218E+03  0.00000000000E+00 0.  1.
          2    1    1    2  501    0 -0.15716800736E+03  0.27386076841E+02  0.21478980016E+04  0.21538146635E+04  0.00000000000E+00 0.  1.
<scales pt_clust_3="37.72972" pt_clust_4="155.58378" pt_clust_5="81.01735" pt_clust_6="14000.00000"></scales>
<clustering>
<clus scale="   37.730">  2  3  1 -1</clus>
<clus scale="   81.017">  2  5  1 -1</clus>
<clus scale="  155.584">  2  4  1 -1</clus>
<clus scale="   37.730">  2  3  1 -1</clus>
</clustering>
</event>
<event>
 6    0  0.3800129E+002  0.1890423E+03  0.7546771E-02  0.1159328E+00
         21   -1    0    0  501  502  0.00000000000E+00  0.00000000000E+00  0.12686338232E+03  0.12686338232E+03  0.00000000000E+00 0.  1.
          2   -1    0    0  505    0 -0.00000000000E+00 -0.00000000000E+00 -0.66293291715E+03  0.66293291715E+03  0.00000000000E+00 0.  1.
         21    1    1    2  503  504 -0.32883649886E+02  0.66238422012E+02 -0.12058747649E+02  0.74928475063E+02  0.00000000000E+00 0.  1.
         21    1    1    2  504  502 -0.36302068821E+02  0.10361109749E+03  0.26401703775E+02  0.11291656072E+03  0.00000000000E+00 0.  1.
         21    1    1    2  505  503 -0.42990943999E+02 -0.53882720299E+01 -0.76379360221E+02  0.87812649483E+02  0.00000000000E+00 0. -1.
          2    1    1    2  501    0  0.11217666271E+03 -0.16446124747E+03 -0.47403313074E+03  0.51413861420E+03  0.00000000000E+00 0.  1.
<scales pt_clust_3="31.19324" pt_clust_4="31.19324" pt_clust_5="43.32730" pt_clust_6="185.18232"></scales>
<clustering>
<clus scale="   31.193">  3  4 -1 -1</clus>
<clus scale="   43.327">  2  5  1 -1</clus>
<clus scale="  185.182">  2  6  1 -1</clus>
<clus scale="  189.042">  1  3  2 -1</clus>
</clustering>
</event>
<event>
 6    0  0.3800129E+002  0.9645252E+02  0.7546771E-02  0.1287938E+00
         21   -1    0    0  505  502  0.00000000000E+00  0.00000000000E+00  0.37305543221E+03  0.37305543221E+03  0.00000000000E+00 0. -1.
         -2   -1    0    0    0  501 -0.00000000000E+00 -0.00000000000E+00 -0.64968273814E+03  0.64968273814E+03  0.00000000000E+00 0. -1.
         21    1    1    2  503  502  0.29509130061E+02  0.99755009084E+01  0.34529040102E+02  0.46503268548E+02  0.00000000000E+00 0. -1.
         21    1    1    2  504  501 -0.50172877947E+02  0.51467836039E+02 -0.13367739360E+03  0.15177582609E+03  0.00000000000E+00 0. -1.
         21    1    1    2  505  504 -0.24362604862E+02  0.47881613259E+02  0.31420213288E+03  0.31876192638E+03  0.00000000000E+00 0. -1.
         -2    1    1    2    0  503  0.45026352748E+02 -0.10932495021E+03 -0.49168108532E+03  0.50569714933E+03  0.00000000000E+00 0. -1.
<scales pt_clust_3="31.14963" pt_clust_4="96.45252" pt_clust_5="57.49600" pt_clust_6="14000.00000"></scales>
<clustering>
<clus scale="   31.150">  1  3  2 -1</clus>
<clus scale="   57.496">  1  5  2 -1</clus>
<clus scale="   96.453">  1  4  2 -1</clus>
<clus scale="   31.150">  1  3  2 -1</clus>
</clustering>
</event>
<event>
 6    0  0.3800129E+002  0.1393987E+03  0.7546771E-02  0.1214140E+00
         21   -1    0    0  504  502  0.00000000000E+00  0.00000000000E+00  0.33319822361E+03  0.33319822361E+03  0.00000000000E+00 0. -1.
         -1   -1    0    0    0  501 -0.00000000000E+00 -0.00000000000E+00 -0.12705405436E+04  0.12705405436E+04  0.00000000000E+00 0. -1.
         21    1    1    2  503  501 -0.35200794279E+01  0.54489525386E+02 -0.12644481013E+03  0.13773085836E+03  0.00000000000E+00 0. -1.
         21    1    1    2  504  505  0.44943535356E+02 -0.49622253736E+02  0.13346786904E+03  0.14931832273E+03  0.00000000000E+00 0. -1.
         21    1    1    2  505  503 -0.10860986046E+02 -0.71637893706E+02  0.17786614553E+03  0.19205810204E+03  0.00000000000E+00 0. -1.
         -1    1    1    2    0  502 -0.30562469882E+02  0.66770622055E+02 -0.11222315244E+04  0.11246314841E+04  0.00000000000E+00 0. -1.
<scales pt_clust_3="54.60311" pt_clust_4="58.81650" pt_clust_5="58.81650" pt_clust_6="125.25428"></scales>
<clustering>
<clus scale="   54.603">  2  3  1 -1</clus>
<clus scale="   58.816">  4  5 -1 -1</clus>
<clus scale="  125.254">  2  6  1 -1</clus>
<clus scale="  139.399">  1  3  2 -1</clus>
</clustering>
</event>
<event>
 6    0  0.3800129E+002  0.1399360E+03  0.7546771E-02  0.1213415E+00
         21   -1    0    0  501  502  0.00000000000E+00  0.00000000000E+00  0.15129252786E+03  0.15129252786E+03  0.00000000000E+00 0.  1.
          1   -1    0    0  503    0 -0.00000000000E+00 -0.00000000000E+00 -0.13401544223E+04  0.13401544223E+04  0.00000000000E+00 0. -1.
         21    1    1    2  503  505  0.43487627870E+02 -0.59662235021E+02 -0.30408081329E+03  0.31291515955E+03  0.00000000000E+00 0. -1.
         21    1    1    2  504  502  0.17157679677E+02  0.69098691528E+02  0.82554035177E+02  0.10901460392E+03  0.00000000000E+00 0.  1.
         21    1    1    2  505  504 -0.47667899016E+02  0.83892881488E+02  0.11128202002E+01  0.96496023388E+02  0.00000000000E+00 0.  1.
          1    1    1    2  501    0 -0.12977408531E+02 -0.93329337995E+02 -0.96844793653E+03  0.97302116331E+03  0.00000000000E+00 0. -1.
<scales pt_clust_3="70.32413" pt_clust_4="71.19702" pt_clust_5="139.93599" pt_clust_6="14000.00000"></scales>
<clustering>
<clus scale="   71.197">  1  4  2 -1</clus>
<clus scale="   70.324">  2  3  1 -1</clus>
<clus scale="  139.936">  1  5  2 -1</clus>
<clus scale="   71.197">  1  3  2 -1</clus>
</clustering>
</event>
<event>
 6    0  0.3800129E+002  0.1929096E+03  0.7546771E-02  0.1155863E+00
         21   -1    0    0  503  502  0.00000000000E+00  0.00000000000E+00  0.45627212586E+02  0.45627212586E+02  0.00000000000E+00 0.  1.
          1   -1    0    0  505    0 -0.00000000000E+00 -0.00000000000E+00 -0.33752633887E+04  0.33752633887E+04  0.00000000000E+00 0.  1.
         21    1    1    2  503  504 -0.46871202733E+02  0.83659291926E+02 -0.10553348236E+03  0.14259418877E+03  0.00000000000E+00 0.  1.
         21    1    1    2  504  501  0.25890905126E+02  0.82532645036E+02 -0.10860623149E+03  0.13884268069E+03  0.00000000000E+00 0.  1.
         21    1    1    2  505  502 -0.31799100725E+02  0.61618028017E+02 -0.19227706437E+04  0.19240205073E+04  0.00000000000E+00 0.  1.
          1    1    1    2  501    0  0.52779398332E+02 -0.22780996498E+03 -0.11927258185E+04  0.12154332245E+04  0.00000000000E+00 0.  1.
<scales pt_clust_3="69.08347" pt_clust_4="69.08347" pt_clust_5="69.33949" pt_clust_6="178.67048"></scales>
<clustering>
<clus scale="   69.083">  3  4 -1 -1</clus>
<clus scale="   69.339">  2  5  1 -1</clus>
<clus scale="  178.670">  2  6  1 -1</clus>
<clus scale="  192.910">  1  3  2 -1</clus>
</clustering>
</event>
<event>
 6    0  0.3800129E+002  0.1501966E+03  0.7546771E-02  0.1200232E+00
          2   -1    0    0  505    0 -0.00000000000E+00  0.00000000000E+00  0.35209895857E+04  0.35209895857E+04  0.00000000000E+00 0. -1.
         21   -1    0    0  504  502  0.00000000000E+00 -0.00000000000E+00 -0.32370890064E+02  0.32370890064E+02  0.00000000000E+00 0. -1.
         21    1    1    2  503  502 -0.87189465552E+02 -0.57349959563E+02  0.39185548163E+03  0.40551416652E+03  0.00000000000E+00 0. -1.
         21    1    1    2  504  501  0.55146154236E+02 -0.67746191020E+02  0.62272967316E+02  0.10727799021E+03  0.00000000000E+00 0. -1.
         21    1    1    2  505  503 -0.37958422906E+02  0.10547590927E+01  0.30347712309E+03  0.30584361792E+03  0.00000000000E+00 0.  1.
          2    1    1    2  501    0  0.70001734222E+02  0.12404139149E+03  0.27310131236E+04  0.27347247011E+04  0.00000000000E+00 0. -1.
<scales pt_clust_3="36.74812" pt_clust_4="87.35356" pt_clust_5="36.74812" pt_clust_6="137.28693"></scales>
<clustering>
<clus scale="   36.748">  3  5 -1 -1</clus>
<clus scale="   87.354">  2  4  1 -1</clus>
<clus scale="  137.287">  1  6  2 -1</clus>
<clus scale="   87.354">  2  3  1 -1</clus>
</clustering>
</event>
<event>
 6    0  0.3800129E+002  0.7392103E+02  0.7546771E-02  0.1347245E+00
          2   -1    0    0  503    0 -0.00000000000E+00  0.00000000000E+00  0.90753444639E+03  0.90753444639E+03  0.00000000000E+00 0. -1.
         21   -1    0    0  501  502  0.00000000000E+00 -0.00000000000E+00 -0.10599743134E+04  0.10599743134E+04  0.00000000000E+00 0.  1.
         21    1    1    2  503  504  0.48826287253E+02  0.85512516926E+02  0.11980453854E+02  0.99196411994E+02  0.00000000000E+00 0.  1.
         21    1    1    2  504  505 -0.28843726128E+02 -0.43245428255E+02 -0.37184385073E+03  0.37545968748E+03  0.00000000000E+00 0.  1.
         21    1    1    2  505  502  0.28099007654E+02  0.12798146965E+02 -0.64077062571E+03  0.64151410083E+03  0.00000000000E+00 0.  1.
          2    1    1    2  501    0 -0.48081568779E+02 -0.55065235636E+02  0.84819415553E+03  0.85133855951E+03  0.00000000000E+00 0. -1.
<scales pt_clust_3="73.92103" pt_clust_4="32.05103" pt_clust_5="30.87631" pt_clust_6="14000.00000"></scales>
<clustering>
<clus scale="   30.876">  2  5  1 -1</clus>
<clus scale="   32.051">  2  4  1 -1</clus>
<clus scale="   73.921">  2  3  1 -1</clus>
<clus scale="   30.876">  2  3  1 -1</clus>
</clustering>
</event>
<event>
 6    0  0.3800129E+002  0.7631129E+02  0.7546771E-02  0.1339858E+00
         21   -1    0    0  504  502  0.00000000000E+00  0.00000000000E+00  0.23552967993E+02  0.23552967993E+02  0.00000000000E+00 0.  1.
          2   -1    0    0  505    0 -0.00000000000E+00 -0.00000000000E+00 -0.10592819361E+04  0.10592819361E+04  0.00000000000E+00 0.  1.
         21    1    1    2  503  502 -0.46713120866E+02 -0.14344986538E+02 -0.17533446130E+03  0.18201666852E+03  0.00000000000E+00 0.  1.
         21    1    1    2  504  501 -0.17570256112E+01 -0.70577493333E+02 -0.81709386543E+02  0.10798469129E+03  0.00000000000E+00 0.  1.
         21    1    1    2  505  503  0.15428544793E+02 -0.27678397391E+02 -0.15545261061E+03  0.15864944949E+03  0.00000000000E+00 0. -1.
          2    1    1    2  501    0  0.33041601684E+02  0.11260087726E+03 -0.62323250966E+03  0.63418409480E+03  0.00000000000E+00 0.  1.
<scales pt_clust_3="47.94870" pt_clust_4="76.31129" pt_clust_5="31.68807" pt_clust_6="14000.00000"></scales>
<clustering>
<clus scale="   31.688">  2  5  1 -1</clus>
<clus scale="   47.949">  2  3  1 -1</clus>
<clus scale="   76.311">  1  4  2 -1</clus>
<clus scale="   76.311">  1  3  2 -1</clus>
</clustering>
</event>
<event>
 6    0  0.3800129E+002  0.7374788E+02  0.7546771E-02  0.1347793E+00
         21   -1    0    0  505  502  0.00000000000E+00  0.00000000000E+00  0.41358417698E+03  0.41358417698E+03  0.00000000000E+00 0. -1.
          2   -1    0    0  504    0 -0.00000000000E+00 -0.00000000000E+00 -0.19925329337E+03  0.19925329337E+03  0.00000000000E+00 0. -1.
         21    1    1    2  503  502  0.10253455881E+03  0.47614819988E+02  0.21078703809E+03  0.23918963660E+03  0.00000000000E+00 0. -1.
         21    1    1    2  504  503  0.49686200836E+02 -0.22506621419E+01 -0.66554893655E+02  0.83086328015E+02  0.00000000000E+00 0. -1.
         21    1    1    2  505  501 -0.42733868701E+02 -0.29131895159E+02  0.14696853733E+03  0.15580308667E+03  0.00000000000E+00 0. -1.
          2    1    1    2  501    0 -0.10948689094E+03 -0.16232262687E+02 -0.76869798154E+02  0.13475841907E+03  0.00000000000E+00 0. -1.
<scales pt_clust_3="73.74788" pt_clust_4="49.73715" pt_clust_5="50.31772" pt_clust_6="14000.00000"></scales>
<clustering>
<clus scale="   49.737">  2  4  1 -1</clus>
<clus scale="   50.318">  1  5  2 -1</clus>
<clus scale="   73.748">  1  3  2 -1</clus>
<clus scale="   50.318">  1  3  2 -1</clus>
</clustering>
</event>
<event>
 6    0  0.3800129E+002  0.1239228E+03  0.7546771E-02  0.1236762E+00
          2   -1    0    0  504    0 -0.00000000000E+00  0.00000000000E+00  0.76825765683E+03  0.76825765683E+03  0.00000000000E+00 0. -1.
         21   -1    0    0  501  502  0.00000000000E+00 -0.00000000000E+00 -0.58889766205E+03  0.58889766205E+03  0.00000000000E+00 0. -1.
         21    1    1    2  503  505  0.16316331472E+02 -0.86384906386E+02 -0.26805827358E+03  0.28210603106E+03  0.00000000000E+00 0. -1.
         21    1    1    2  504  503  0.11338534804E+02 -0.50579793229E+02  0.28586380584E+03  0.29052537470E+03  0.00000000000E+00 0.  1.
         21    1    1    2  505  502  0.37702482671E+02 -0.25925779015E+02 -0.29336975923E+03  0.29691655200E+03  0.00000000000E+00 0. -1.
          2    1    1    2  501    0 -0.65357348948E+02  0.16289047863E+03  0.45492422175E+03  0.48760736113E+03  0.00000000000E+00 0. -1.
<scales pt_clust_3="123.92282" pt_clust_4="52.10185" pt_clust_5="45.75613" pt_clust_6="14000.00000"></scales>
<clustering>
<clus scale="   45.756">  2  5  1 -1</clus>
<clus scale="   52.102">  1  4  2 -1</clus>
<clus scale="  123.923">  2  3  1 -1</clus>
<clus scale="   45.756">  2  3  1 -1</clus>
</clustering>
</event>
<event>
 6    0  0.3800129E+002  0.7682071E+03  0.7546771E-02  0.9607211E-01
         -2   -1    0    0    0  501 -0.00000000000E+00  0.00000000000E+00  0.66740076594E+03  0.66740076594E+03  0.00000000000E+00 0.  1.
         21   -1    0    0  504  502  0.00000000000E+00 -0.00000000000E+00 -0.24579374272E+04  0.24579374272E+04  0.00000000000E+00 0.  1.
         21    1    1    2  503  501  0.55090507286E+02  0.43512055408E+02  0.12368770438E+03  0.14222134571E+03  0.00000000000E+00 0.  1.
         21    1    1    2  504  505 -0.52099904842E+03  0.48365521044E+03 -0.18572553899E+04  0.19886578274E+04  0.00000000000E+00 0.  1.
         21    1    1    2  505  503 -0.22787615163E+02  0.49364796500E+02 -0.21547622327E+03  0.22222997398E+03  0.00000000000E+00 0.  1.
         -2    1    1    2    0  502  0.48869615629E+03 -0.57653206234E+03  0.15850724754E+03  0.77222904608E+03  0.00000000000E+00 0.  1.
<scales pt_clust_3="70.20159" pt_clust_4="30.28782" pt_clust_5="30.28782" pt_clust_6="760.36038"></scales>
<clustering>
<clus scale="   30.288">  4  5 -1 -1</clus>
<clus scale="   70.202">  1  3  2 -1</clus>
<clus scale="  760.360">  1  6  2 -1</clus>
<clus scale="  768.207">  2  3  1 -1</clus>
</clustering>
</event>
<event>
 6    0  0.3800129E+002  0.1253756E+03  0.7546771E-02  0.1234483E+00
         -1   -1    0    0    0  501 -0.00000000000E+00  0.00000000000E+00  0.18771232599E+04  0.18771232599E+04  0.00000000000E+00 0.  1.
         21   -1    0    0  503  502  0.00000000000E+00 -0.00000000000E+00 -0.45589878458E+03  0.45589878458E+03  0.00000000000E+00 0. -1.
         21    1    1    2  503  504  0.12064498748E+02  0.35882667251E+02 -0.65082147420E+02  0.75291459356E+02  0.00000000000E+00 0. -1.
         21    1    1    2  504  501 -0.41646587316E+02  0.97097467842E+00  0.16956781512E+03  0.17460992226E+03  0.00000000000E+00 0. -1.
         21    1    1    2  505  502 -0.11050523155E+03  0.41578582068E+02 -0.37019340393E+03  0.38856574862E+03  0.00000000000E+00 0. -1.
         -1    1    1    2    0  505  0.14008732011E+03 -0.78432223997E+02  0.16869322116E+04  0.16945549143E+04  0.00000000000E+00 0.  1.
<scales pt_clust_3="37.85654" pt_clust_4="41.58521" pt_clust_5="125.37559" pt_clust_6="14000.00000"></scales>
<clustering>
<clus scale="   37.857">  2  3  1 -1</clus>
<clus scale="   41.585">  1  4  2 -1</clus>
<clus scale="  125.376">  2  5  1 -1</clus>
<clus scale="   37.857">  2  3  1 -1</clus>
</clustering>
</event>
<event>
 6    0  0.3800129E+002  0.1990883E+03  0.7546771E-02  0.1150511E+00
          1   -1    0    0  505    0 -0.00000000000E+00  0.00000000000E+00  0.19968601291E+04  0.19968601291E+04  0.00000000000E+00 0. -1.
         21   -1    0    0  504  502  0.00000000000E+00 -0.00000000000E+00 -0.86597655457E+02  0.86597655457E+02  0.00000000000E+00 0. -1.
         21    1    1    2  503  501 -0.33337004634E+02  0.38842533262E+02  0.32878608253E+03  0.33274673001E+03  0.00000000000E+00 0.  1.
         21    1    1    2  504  503  0.82962076682E+02 -0.15868697431E+03  0.71186516653E+02  0.19269608750E+03  0.00000000000E+00 0. -1.
         21    1    1    2  505  502 -0.24132542105E+02 -0.22294758311E+02 -0.72290163198E+01  0.33640667555E+02  0.00000000000E+00 0. -1.
          1    1    1    2  501    0 -0.25492529942E+02  0.14213919936E+03  0.15175188908E+04  0.15243742995E+04  0.00000000000E+00 0. -1.
<scales pt_clust_3="37.00625" pt_clust_4="189.19562" pt_clust_5="32.85477" pt_clust_6="37.00625"></scales>
<clustering>
<clus scale="   32.855">  2  5  1 -1</clus>
<clus scale="   37.006">  3  6 -1 -1</clus>
<clus scale="  189.196">  2  4  1 -1</clus>
<clus scale="   32.855">  2  3  1 -1</clus>
</clustering>
</event>
<event>
 6    0  0.3800129E+002  0.8461691E+02  0.7546771E-02  0.1316437E+00
         21   -1    0    0  505  502  0.00000000000E+00  0.00000000000E+00  0.24860061495E+03  0.24860061495E+03  0.00000000000E+00 0.  1.
          3   -1    0    0  504    0 -0.00000000000E+00 -0.00000000000E+00 -0.45227102142E+03  0.45227102142E+03  0.00000000000E+00 0.  1.
         21    1    1    2  503  502 -0.52685605412E+02 -0.44380146447E+02  0.17214166626E+02  0.71004914964E+02  0.00000000000E+00 0. -1.
         21    1    1    2  504  503 -0.83778412172E+01 -0.37016550249E+02 -0.59137731961E+02  0.70268659851E+02  0.00000000000E+00 0.  1.
         21    1    1    2  505  501 -0.29263389898E+02  0.73366906955E+02  0.18501727342E+03  0.20117266338E+03  0.00000000000E+00 0.  1.
          3    1    1    2  501    0  0.90326836527E+02  0.80297897415E+01 -0.34676411455E+03  0.35842539818E+03  0.00000000000E+00 0.  1.
<scales pt_clust_3="71.00404" pt_clust_4="37.95278" pt_clust_5="84.61691" pt_clust_6="14000.00000"></scales>
<clustering>
<clus scale="   37.953">  2  4  1 -1</clus>
<clus scale="   71.004">  1  3  2 -1</clus>
<clus scale="   84.617">  1  5  2 -1</clus>
<clus scale="   71.004">  1  3  2 -1</clus>
</clustering>
</event>
<event>
 6    0  0.1878865E+003  0.1049142E+03  0.7546771E-02  0.1270289E+00
         -3   -1    0    0    0  501 -0.00000000000E+00  0.00000000000E+00  0.18379995718E+04  0.18379995718E+04  0.00000000000E+00 0.  1.
         21   -1    0    0  503  502  0.00000000000E+00 -0.00000000000E+00 -0.10185694454E+04  0.10185694454E+04  0.00000000000E+00 0. -1.
         21    1    1    2  503  504 -0.57638891829E+02  0.89010515465E+01 -0.53103238073E+02  0.78876006895E+02  0.00000000000E+00 0. -1.
         21    1    1    2  504  501 -0.23206574380E+02 -0.58282223367E+02  0.38186222694E+02  0.73440794241E+02  0.00000000000E+00 0.  1.
         21    1    1    2  505  502  0.84482443811E+01 -0.32490167414E+02 -0.93296264406E+03  0.93356642989E+03  0.00000000000E+00 0. -1.
         -3    1    1    2    0  505  0.72397221828E+02  0.81871339234E+02  0.17673097859E+04  0.17706857861E+04  0.00000000000E+00 0.  1.
<scales pt_clust_3="53.61965" pt_clust_4="14000.00000" pt_clust_5="33.57058" pt_clust_6="104.91424"></scales>
<clustering>
<clus scale="   33.571">  2  5  1 -1</clus>
<clus scale="   53.620">  2  3  1 -1</clus>
<clus scale="  104.914">  1  6  2 -1</clus>
<clus scale="   33.571">  2  3  1 -1</clus>
</clustering>
</event>
<event>
 6    0  0.3800129E+002  0.1458162E+03  0.7546771E-02  0.1205710E+00
          1   -1    0    0  504    0 -0.00000000000E+00  0.00000000000E+00  0.28041140961E+03  0.28041140961E+03  0.00000000000E+00 0.  1.
         21   -1    0    0  503  502  0.00000000000E+00 -0.00000000000E+00 -0.42016975282E+03  0.42016975282E+03  0.00000000000E+00 0. -1.
         21    1    1    2  503  505  0.73893679502E+02  0.58792495474E+02 -0.32072521747E+03  0.33433740220E+03  0.00000000000E+00 0. -1.
         21    1    1    2  504  502 -0.55760911417E+02  0.50025070691E+01  0.42566839712E+02  0.70329511317E+02  0.00000000000E+00 0. -1.
         21    1    1    2  505  501  0.41666945300E+02  0.13573114480E+02 -0.60250103630E+02  0.74501266799E+02  0.00000000000E+00 0.  1.
          1    1    1    2  501    0 -0.59799713385E+02 -0.77368117023E+02  0.19865013817E+03  0.22141298211E+03  0.00000000000E+00 0.  1.
<scales pt_clust_3="39.81446" pt_clust_4="55.98486" pt_clust_5="39.81446" pt_clust_6="133.59092"></scales>
<clustering>
<clus scale="   39.814">  3  5 -1 -1</clus>
<clus scale="   55.985">  1  4  2 -1</clus>
<clus scale="  133.591">  1  6  2 -1</clus>
<clus scale="  145.816">  2  3  1 -1</clus>
</clustering>
</event>
<event>
 6    0  0.3800129E+002  0.1477046E+03  0.7546771E-02  0.1203322E+00
          2   -1    0    0  503    0 -0.00000000000E+00  0.00000000000E+00  0.25031968657E+04  0.25031968657E+04  0.00000000000E+00 0.  1.
         21   -1    0    0  501  502  0.00000000000E+00 -0.00000000000E+00 -0.44859430637E+02  0.44859430637E+02  0.00000000000E+00 0.  1.
         21    1    1    2  503  504  0.61489546501E+02 -0.36228700284E+02  0.11737441665E+04  0.11759119233E+04  0.00000000000E+00 0.  1.
         21    1    1    2  504  505  0.44289979810E+02 -0.82256260588E+02  0.51784402461E+03  0.52620350488E+03  0.00000000000E+00 0.  1.
         21    1    1    2  505  502  0.49581451191E+02 -0.63770468358E+02  0.62643957744E+02  0.10222161405E+03  0.00000000000E+00 0.  1.
          2    1    1    2  501    0 -0.15536097750E+03  0.18225542923E+03  0.70410528618E+03  0.74371925405E+03  0.00000000000E+00 0.  1.
<scales pt_clust_3="71.36864" pt_clust_4="147.70459" pt_clust_5="84.91011" pt_clust_6="14000.00000"></scales>
<clustering>
<clus scale="   71.369">  1  3  2 -1</clus>
<clus scale="   84.910">  2  5  1 -1</clus>
<clus scale="  147.705">  1  4  2 -1</clus>
<clus scale="   84.910">  2  3  1 -1</clus>
</clustering>
</event>
<event>
 6    0  0.3800129E+002  0.1690734E+03  0.7546771E-02  0.1178818E+00
         -2   -1    0    0    0  501 -0.00000000000E+00  0.00000000000E+00  0.22364771705E+04  0.22364771705E+04  0.00000000000E+00 0.  1.
         21   -1    0    0  504  502  0.00000000000E+00 -0.00000000000E+00 -0.34111172226E+03  0.34111172226E+03  0.00000000000E+00 0.  1.
         21    1    1    2  503  501 -0.31969898698E+02 -0.40019035721E+01  0.41796821440E+02  0.52773704981E+02  0.00000000000E+00 0.  1.
         21    1    1    2  504  505  0.93062538115E+02  0.49797897394E+02 -0.23746872799E+03  0.25986893496E+03  0.00000000000E+00 0.  1.
         21    1    1    2  505  503  0.57671303321E+02  0.13114364735E+02 -0.74630572780E+02  0.95224409595E+02  0.00000000000E+00 0.  1.
         -2    1    1    2    0  502 -0.11876394274E+03 -0.58910358557E+02  0.21656679276E+04  0.21697218432E+04  0.00000000000E+00 0.  1.
<scales pt_clust_3="32.21940" pt_clust_4="33.51413" pt_clust_5="33.51413" pt_clust_6="163.03116"></scales>
<clustering>
<clus scale="   32.219">  1  3  2 -1</clus>
<clus scale="   33.514">  4  5 -1 -1</clus>
<clus scale="  163.031">  1  6  2 -1</clus>
<clus scale="  169.073">  2  3  1 -1</clus>
</clustering>
</event>
<event>
 6    0  0.3800129E+002  0.1382337E+03  0.7546771E-02  0.1215726E+00
          1   -1    0    0  503    0 -0.00000000000E+00  0.00000000000E+00  0.39110150240E+03  0.39110150240E+03  0.00000000000E+00 0. -1.
         21   -1    0    0  505  502  0.00000000000E+00 -0.00000000000E+00 -0.16180072328E+03  0.16180072328E+03  0.00000000000E+00 0. -1.
         21    1    1    2  503  502 -0.18925942561E+01 -0.36044703093E+02  0.85394962580E+02  0.92709773854E+02  0.00000000000E+00 0.  1.
         21    1    1    2  504  501 -0.11073409408E+02 -0.66476968071E+02 -0.67318842503E+02  0.95255625744E+02  0.00000000000E+00 0. -1.
         21    1    1    2  505  504 -0.58918644586E+02 -0.29350598577E+02 -0.36478655704E+02  0.75256605283E+02  0.00000000000E+00 0. -1.
          1    1    1    2  501    0  0.71884648251E+02  0.13187226974E+03  0.24770331476E+03  0.28968022080E+03  0.00000000000E+00 0. -1.
<scales pt_clust_3="36.09436" pt_clust_4="63.97693" pt_clust_5="63.97693" pt_clust_6="122.02407"></scales>
<clustering>
<clus scale="   36.094">  1  3  2 -1</clus>
<clus scale="   63.977">  4  5 -1 -1</clus>
<clus scale="  122.024">  1  6  2 -1</clus>
<clus scale="  138.234">  2  3  1 -1</clus>
</clustering>
</event>
<event>
 6    0  0.3800129E+002  0.7510166E+02  0.7546771E-02  0.1343557E+00
         21   -1    0    0  503  502  0.00000000000E+00  0.00000000000E+00  0.65355266052E+03  0.65355266052E+03  0.00000000000E+00 0. -1.
         -1   -1    0    0    0  501 -0.00000000000E+00 -0.00000000000E+00 -0.62100771442E+02  0.62100771442E+02  0.00000000000E+00 0.  1.
         21    1    1    2  503  501 -0.33150765509E+02  0.46671141158E+02  0.56109245366E+02  0.80158693143E+02  0.00000000000E+00 0. -1.
         21    1    1    2  504  505  0.10404377156E+03  0.11196248265E+02  0.41179447717E+03  0.42488251765E+03  0.00000000000E+00 0. -1.
         21    1    1    2  505  502 -0.31951663443E+02 -0.31049474204E+01  0.13816420976E+03  0.14184462752E+03  0.00000000000E+00 0. -1.
         -1    1    1    2    0  504 -0.38941342610E+02 -0.54762442002E+02 -0.14616043218E+02  0.68767593659E+02  0.00000000000E+00 0.  1.
<scales pt_clust_3="59.48039" pt_clust_4="14000.00000" pt_clust_5="32.10217" pt_clust_6="75.10166"></scales>
<clustering>
<clus scale="   32.102">  1  5  2 -1</clus>
<clus scale="   59.480">  2  3  1 -1</clus>
<clus scale="   75.102">  2  6  1 -1</clus>
<clus scale="   32.102">  1  3  2 -1</clus>
</clustering>
</event>
<event>
 6    0  0.3800129E+002  0.1473125E+03  0.7546771E-02  0.1203815E+00
          2   -1    0    0  504    0 -0.00000000000E+00  0.00000000000E+00  0.10829086694E+04  0.10829086694E+04  0.00000000000E+00 0.  1.
         21   -1    0    0  503  502  0.00000000000E+00 -0.00000000000E+00 -0.99000572932E+02  0.99000572932E+02  0.00000000000E+00 0. -1.
         21    1    1    2  503  501 -0.21884046665E+02  0.35832009838E+02 -0.62366162135E+02  0.75182329087E+02  0.00000000000E+00 0. -1.
         21    1    1    2  504  505 -0.28757823584E+02  0.47286282426E+02  0.10048143288E+03  0.11471496536E+03  0.00000000000E+00 0. -1.
         21    1    1    2  505  502  0.17043945815E+01  0.47139783844E+02  0.13043547319E+02  0.48940763259E+02  0.00000000000E+00 0.  1.
          2    1    1    2  501    0  0.48937475668E+02 -0.13025807611E+03  0.93274927840E+03  0.94307118462E+03  0.00000000000E+00 0.  1.
<scales pt_clust_3="41.98624" pt_clust_4="63.20782" pt_clust_5="63.20782" pt_clust_6="132.11306"></scales>
<clustering>
<clus scale="   41.986">  2  3  1 -1</clus>
<clus scale="   63.208">  4  5 -1 -1</clus>
<clus scale="  132.113">  1  6  2 -1</clus>
<clus scale="   41.986">  2  3  1 -1</clus>
</clustering>
</event>
<event>
 6    0  0.3800129E+002  0.8648162E+02  0.7546771E-02  0.1311603E+00
         21   -1    0    0  505  502  0.00000000000E+00  0.00000000000E+00  0.75247155805E+03  0.75247155805E+03  0.00000000000E+00 0.  1.
         -2   -1    0    0    0  501 -0.00000000000E+00 -0.00000000000E+00 -0.85309035256E+02  0.85309035256E+02  0.00000000000E+00 0.  1.
         21    1    1    2  503  502 -0.10247753440E+03 -0.16507491125E+02  0.56568333635E+03  0.57512762005E+03  0.00000000000E+00 0.  1.
         21    1    1    2  504  501 -0.23949332583E+02 -0.19275425782E+02  0.12722996433E+02  0.33271417290E+02  0.00000000000E+00 0.  1.
         21    1    1    2  505  504  0.20106155609E+02  0.27481616409E+02  0.11468253451E+03  0.11963101795E+03  0.00000000000E+00 0.  1.
         -2    1    1    2    0  503  0.10632071137E+03  0.83013004985E+01 -0.25926344497E+02  0.10975053802E+03  0.00000000000E+00 0.  1.
<scales pt_clust_3="14000.00000" pt_clust_4="30.74268" pt_clust_5="33.07315" pt_clust_6="86.48162"></scales>
<clustering>
<clus scale="   30.743">  2  4  1 -1</clus>
<clus scale="   33.073">  1  5  2 -1</clus>
<clus scale="   86.482">  2  6  1 -1</clus>
<clus scale="   33.073">  1  3  2 -1</clus>
</clustering>
</event>
<event>
 6    0  0.3800129E+002  0.3356521E+03  0.7546771E-02  0.1068663E+00
          2   -1    0    0  505    0 -0.00000000000E+00  0.00000000000E+00  0.82438523435E+03  0.82438523435E+03  0.00000000000E+00 0. -1.
         21   -1    0    0  501  502  0.00000000000E+00 -0.00000000000E+00 -0.12480668905E+04  0.12480668905E+04  0.00000000000E+00 0.  1.
         21    1    1    2  503  502 -0.31803526769E+02  0.24848993153E+03 -0.10138288191E+04  0.10443215907E+04  0.00000000000E+00 0.  1.
         21    1    1    2  504  503  0.64343245576E+01  0.76343833059E+02 -0.16401189633E+03  0.18102398602E+03  0.00000000000E+00 0. -1.
         21    1    1    2  505  504 -0.19793296366E+01 -0.45215214407E+02  0.36129870160E+03  0.36412234913E+03  0.00000000000E+00 0. -1.
          2    1    1    2  501    0  0.27348531848E+02 -0.27961855018E+03  0.39286035770E+03  0.48298419897E+03  0.00000000000E+00 0. -1.
<scales pt_clust_3="49.34631" pt_clust_4="49.34631" pt_clust_5="45.25852" pt_clust_6="323.51178"></scales>
<clustering>
<clus scale="   45.259">  1  5  2 -1</clus>
<clus scale="   49.346">  3  4 -1 -1</clus>
<clus scale="  323.512">  1  6  2 -1</clus>
<clus scale="  335.652">  2  3  1 -1</clus>
</clustering>
</event>
<event>
 6    0  0.3800129E+002  0.1315053E+03  0.7546771E-02  0.1225239E+00
          4   -1    0    0  502    0 -0.00000000000E+00  0.00000000000E+00  0.13037774709E+04  0.13037774709E+04  0.00000000000E+00 0. -1.
         21   -1    0    0  504  502  0.00000000000E+00 -0.00000000000E+00 -0.10791509850E+03  0.10791509850E+03  0.00000000000E+00 0.  1.
         21    1    1    2  503  505  0.10870671949E+03 -0.17379574043E+02  0.83203816666E+01  0.11040121923E+03  0.00000000000E+00 0.  1.
         21    1    1    2  504  503  0.32686354297E+01 -0.42096966454E+02 -0.44940658167E+02  0.61664425066E+02  0.00000000000E+00 0.  1.
         21    1    1    2  505  501 -0.40941690544E+02  0.33289886254E+02  0.35723934492E+03  0.36111547753E+03  0.00000000000E+00 0. -1.
          4    1    1    2  501    0 -0.71033664381E+02  0.26186654242E+02  0.87524330394E+03  0.87851144752E+03  0.00000000000E+00 0. -1.
<scales pt_clust_3="125.33215" pt_clust_4="42.22367" pt_clust_5="33.24293" pt_clust_6="33.24293"></scales>
<clustering>
<clus scale="   33.243">  5  6 -1 -1</clus>
<clus scale="   42.224">  2  4  1 -1</clus>
<clus scale="  125.332">  2  3  1 -1</clus>
<clus scale="   42.224">  2  3  1 -1</clus>
</clustering>
</event>
<event>
 6    0  0.3800129E+002  0.8219411E+02  0.7546771E-02  0.1322938E+00
         21   -1    0    0  505  502  0.00000000000E+00  0.00000000000E+00  0.57142155564E+03  0.57142155564E+03  0.00000000000E+00 0.  1.
          1   -1    0    0  504    0 -0.00000000000E+00 -0.00000000000E+00 -0.69406286314E+03  0.69406286314E+03  0.00000000000E+00 0.  1.
         21    1    1    2  503  502 -0.61935802449E+02 -0.95685946635E+02  0.33725446756E+03  0.35599497173E+03  0.00000000000E+00 0.  1.
         21    1    1    2  504  503 -0.49959616965E+02  0.11797636517E+01 -0.35120961183E+02  0.61080578615E+02  0.00000000000E+00 0. -1.
         21    1    1    2  505  501  0.15067439136E+02  0.30581822407E+02  0.20511159021E+03  0.20792556366E+03  0.00000000000E+00 0. -1.
          1    1    1    2  501    0  0.96827980278E+02  0.63924360576E+02 -0.62988640409E+03  0.64048330477E+03  0.00000000000E+00 0.  1.
<scales pt_clust_3="14000.00000" pt_clust_4="49.47565" pt_clust_5="34.09216" pt_clust_6="82.19411"></scales>
<clustering>
<clus scale="   34.092">  1  5  2 -1</clus>
<clus scale="   49.476">  2  4  1 -1</clus>
<clus scale="   82.194">  2  6  1 -1</clus>
<clus scale="   34.092">  1  3  2 -1</clus>
</clustering>
</event>
<event>
 6    0  0.3800129E+002  0.9948830E+02  0.7546771E-02  0.1281376E+00
         21   -1    0    0  501  502  0.00000000000E+00  0.00000000000E+00  0.15300864793E+03  0.15300864793E+03  0.00000000000E+00 0. -1.
          2   -1    0    0  503    0 -0.00000000000E+00 -0.00000000000E+00 -0.67381944068E+03  0.67381944068E+03  0.00000000000E+00 0. -1.
         21    1    1    2  503  505 -0.49721427888E+02  0.27260891263E+02 -0.52521340036E+03  0.52826555112E+03  0.00000000000E+00 0. -1.
         21    1    1    2  504  502  0.50594598909E+02 -0.88341529513E+02  0.72174562313E+02  0.12479265491E+03  0.00000000000E+00 0. -1.
         21    1    1    2  505  504  0.60762451704E+02 -0.89653850479E+01 -0.56529587902E+01  0.61679896314E+02  0.00000000000E+00 0. -1.
          2    1    1    2  501    0 -0.61635622725E+02  0.70046023298E+02 -0.62118995908E+02  0.11208998627E+03  0.00000000000E+00 0. -1.
<scales pt_clust_3="56.70429" pt_clust_4="14000.00000" pt_clust_5="49.45643" pt_clust_6="99.48830"></scales>
<clustering>
<clus scale="   56.704">  2  3  1 -1</clus>
<clus scale="   49.456">  2  5  1 -1</clus>
<clus scale="   99.488">  2  6  1 -1</clus>
<clus scale="   99.488">  1  3  2 -1</clus>
</clustering>
</event>
<event>
 6    0  0.3800129E+002  0.1082457E+03  0.7546771E-02  0.1263853E+00
          2   -1    0    0  503    0 -0.00000000000E+00  0.00000000000E+00  0.16780634525E+03  0.16780634525E+03  0.00000000000E+00 0. -1.
         21   -1    0    0  504  502  0.00000000000E+00 -0.00000000000E+00 -0.44979616945E+03  0.44979616945E+03  0.00000000000E+00 0.  1.
         21    1    1    2  503  502 -0.40291739267E+02 -0.17903063641E+02  0.41253554119E+02  0.60380457669E+02  0.00000000000E+00 0.  1.
         21    1    1    2  504  505  0.10613806909E+02 -0.46765183955E+02 -0.11264243219E+03  0.12242529501E+03  0.00000000000E+00 0.  1.
         21    1    1    2  505  501 -0.16764224220E+01 -0.50328540928E+02 -0.28820125763E+03  0.29256749191E+03  0.00000000000E+00 0.  1.
          2    1    1    2  501    0  0.31354354780E+02  0.11499678852E+03  0.77600311501E+02  0.14222927012E+03  0.00000000000E+00 0. -1.
<scales pt_clust_3="44.09018" pt_clust_4="44.03582" pt_clust_5="44.03582" pt_clust_6="98.39135"></scales>
<clustering>
<clus scale="   44.036">  4  5 -1 -1</clus>
<clus scale="   44.090">  1  3  2 -1</clus>
<clus scale="   98.391">  1  6  2 -1</clus>
<clus scale="  108.246">  2  3  1 -1</clus>
</clustering>
</event>
<event>
 6    0  0.3800129E+002  0.9812217E+02  0.7546771E-02  0.1284295E+00
          2   -1    0    0  504    0 -0.00000000000E+00  0.00000000000E+00  0.71603667764E+03  0.71603667764E+03  0.00000000000E+00 0. -1.
         21   -1    0    0  503  502  0.00000000000E+00 -0.00000000000E+00 -0.11670063507E+03  0.11670063507E+03  0.00000000000E+00 0. -1.
         21    1    1    2  503  501 -0.58998374598E+02 -0.48351146572E+02 -0.66814844042E+02  0.10140446225E+03  0.00000000000E+00 0. -1.
         21    1    1    2  504  505  0.32723440836E+02 -0.28761347323E+02  0.41030184638E+03  0.41260834192E+03  0.00000000000E+00 0. -1.
         21    1    1    2  505  502 -0.49720157293E+02  0.39936628345E+02  0.17981034899E+02  0.66259685638E+02  0.00000000000E+00 0. -1.
          2    1    1    2  501    0  0.75995091054E+02  0.37175865551E+02  0.23786800533E+03  0.25246482290E+03  0.00000000000E+00 0. -1.
<scales pt_clust_3="14000.00000" pt_clust_4="43.56649" pt_clust_5="57.75502" pt_clust_6="98.12217"></scales>
<clustering>
<clus scale="   43.566">  1  4  2 -1</clus>
<clus scale="   57.755">  2  5  1 -1</clus>
<clus scale="   98.122">  1  6  2 -1</clus>
<clus scale="   57.755">  2  3  1 -1</clus>
</clustering>
</event>
<event>
 6    0  0.3800129E+002  0.1075170E+03  0.7546771E-02  0.1265238E+00
          2   -1    0    0  505    0 -0.00000000000E+00  0.00000000000E+00  0.82612968706E+02  0.82612968706E+02  0.00000000000E+00 0.  1.
         21   -1    0    0  503  502  0.00000000000E+00 -0.00000000000E+00 -0.15697681652E+04  0.15697681652E+04  0.00000000000E+00 0.  1.
         21    1    1    2  503  501  0.13636877994E+03 -0.13974100955E+02 -0.11705467954E+04  0.11785463588E+04  0.00000000000E+00 0.  1.
         21    1    1    2  504  502 -0.31435855804E+02  0.25613068978E+02 -0.32151076708E+03  0.32405773510E+03  0.00000000000E+00 0.  1.
         21    1    1    2  505  504  0.11546350010E+01  0.33916553828E+02  0.51298797002E+01  0.34321734678E+02  0.00000000000E+00 0.  1.
          2    1    1    2  501    0 -0.10608755914E+03 -0.45555521851E+02 -0.22751376752E+00  0.11545530537E+03  0.00000000000E+00 0.  1.
<scales pt_clust_3="107.51704" pt_clust_4="40.96862" pt_clust_5="33.93620" pt_clust_6="14000.00000"></scales>
<clustering>
<clus scale="   33.936">  1  5  2 -1</clus>
<clus scale="   40.969">  2  4  1 -1</clus>
<clus scale="  107.517">  2  3  1 -1</clus>
<clus scale="   40.969">  2  3  1 -1</clus>
</clustering>
</event>
<event>
 6    0  0.3800129E+002  0.8180525E+02  0.7546771E-02  0.1324005E+00
         21   -1    0    0  504  502  0.00000000000E+00  0.00000000000E+00  0.16865073997E+02  0.16865073997E+02  0.00000000000E+00 0. -1.
          2   -1    0    0  503    0 -0.00000000000E+00 -0.00000000000E+00 -0.37073890871E+04  0.37073890871E+04  0.00000000000E+00 0.  1.
         21    1    1    2  503  502 -0.50780579590E+02 -0.39109983021E+02 -0.92606944297E+02  0.11262461617E+03  0.00000000000E+00 0. -1.
         21    1    1    2  504  505  0.33689117882E+02 -0.23796991046E+02 -0.14271514927E+03  0.14855593989E+03  0.00000000000E+00 0. -1.
         21    1    1    2  505  501 -0.59654550688E+02  0.31562863131E+02 -0.33295016797E+03  0.33972149490E+03  0.00000000000E+00 0. -1.
          2    1    1    2  501    0  0.76746012396E+02  0.31344110936E+02 -0.31222517515E+04  0.31233521101E+04  0.00000000000E+00 0.  1.
<scales pt_clust_3="14000.00000" pt_clust_4="41.24625" pt_clust_5="57.57219" pt_clust_6="81.80525"></scales>
<clustering>
<clus scale="   41.246">  1  4  2 -1</clus>
<clus scale="   57.572">  1  5  2 -1</clus>
<clus scale="   81.805">  2  6  1 -1</clus>
<clus scale="   41.246">  1  3  2 -1</clus>
</clustering>
</event>
<event>
 6    0  0.3800129E+002  0.8025726E+02  0.7546771E-02  0.1328323E+00
          1   -1    0    0  504    0 -0.00000000000E+00  0.00000000000E+00  0.56910788061E+03  0.56910788061E+03  0.00000000000E+00 0. -1.
         21   -1    0    0  503  502  0.00000000000E+00 -0.00000000000E+00 -0.41468409383E+03  0.41468409383E+03  0.00000000000E+00 0. -1.
         21    1    1    2  503  501 -0.32684264524E+02  0.73873897564E+01 -0.57161265837E+02  0.66258923829E+02  0.00000000000E+00 0. -1.
         21    1    1    2  504  505  0.50317802857E+02 -0.36940747188E+02  0.17945751209E+03  0.19000394399E+03  0.00000000000E+00 0. -1.
         21    1    1    2  505  502  0.95259551523E+02  0.40733626700E+02 -0.33113520595E+03  0.34696416979E+03  0.00000000000E+00 0. -1.
          1    1    1    2  501    0 -0.11289308986E+03 -0.11180269268E+02  0.36326274647E+03  0.38056493682E+03  0.00000000000E+00 0. -1.
<scales pt_clust_3="33.50873" pt_clust_4="61.96336" pt_clust_5="80.25726" pt_clust_6="14000.00000"></scales>
<clustering>
<clus scale="   33.509">  2  3  1 -1</clus>
<clus scale="   61.963">  1  4  2 -1</clus>
<clus scale="   80.257">  2  5  1 -1</clus>
<clus scale="   33.509">  2  3  1 -1</clus>
</clustering>
</event>
<event>
 6    0  0.3800129E+002  0.7462532E+02  0.7546771E-02  0.1345035E+00
         21   -1    0    0  503  502  0.00000000000E+00  0.00000000000E+00  0.37668888326E+02  0.37668888326E+02  0.00000000000E+00 0. -1.
          2   -1    0    0  502    0 -0.00000000000E+00 -0.00000000000E+00 -0.32924123436E+04  0.32924123436E+04  0.00000000000E+00 0.  1.
         21    1    1    2  503  504 -0.26634475831E+02 -0.16390708241E+02 -0.49303281214E+02  0.58385478999E+02  0.00000000000E+00 0. -1.
         21    1    1    2  504  505  0.13906159472E+02  0.76527700810E+02 -0.23909404828E+02  0.81372783544E+02  0.00000000000E+00 0. -1.
         21    1    1    2  505  501  0.81091637333E+02 -0.26728631823E+02 -0.46796222173E+03  0.47568783290E+03  0.00000000000E+00 0. -1.
          2    1    1    2  501    0 -0.68363320974E+02 -0.33408360746E+02 -0.27135685475E+04  0.27146351365E+04  0.00000000000E+00 0.  1.
<scales pt_clust_3="31.27380" pt_clust_4="62.98667" pt_clust_5="14000.00000" pt_clust_6="74.62532"></scales>
<clustering>
<clus scale="   31.274">  1  3  2 -1</clus>
<clus scale="   62.987">  1  4  2 -1</clus>
<clus scale="   74.625">  2  6  1 -1</clus>
<clus scale="   31.274">  1  3  2 -1</clus>
</clustering>
</event>
<event>
 6    0  0.3800129E+002  0.2013505E+03  0.7546771E-02  0.1148605E+00
         21   -1    0    0  505  502  0.00000000000E+00  0.00000000000E+00  0.15054379372E+03  0.15054379372E+03  0.00000000000E+00 0.  1.
          3   -1    0    0  503    0 -0.00000000000E+00 -0.00000000000E+00 -0.92857266981E+03  0.92857266981E+03  0.00000000000E+00 0. -1.
         21    1    1    2  503  502  0.27366337969E+01 -0.38355927422E+02  0.53105936092E+02  0.65566048998E+02  0.00000000000E+00 0.  1.
         21    1    1    2  504  501 -0.59701680401E+02 -0.15617922133E+02 -0.20597460394E+03  0.21502034230E+03  0.00000000000E+00 0.  1.
         21    1    1    2  505  504  0.16626865209E+03 -0.34001199010E+02 -0.12678575618E+02  0.17018252696E+03  0.00000000000E+00 0.  1.
          3    1    1    2  501    0 -0.10930360548E+03  0.87975048566E+02 -0.61248163263E+03  0.62834754527E+03  0.00000000000E+00 0. -1.
<scales pt_clust_3="38.45343" pt_clust_4="58.46577" pt_clust_5="181.49812" pt_clust_6="58.46577"></scales>
<clustering>
<clus scale="   38.453">  1  3  2 -1</clus>
<clus scale="   58.466">  4  6 -1 -1</clus>
<clus scale="  181.498">  1  5  2 -1</clus>
<clus scale="   38.453">  1  3  2 -1</clus>
</clustering>
</event>
<event>
 6    0  0.3800129E+002  0.1964865E+03  0.7546771E-02  0.1152738E+00
         21   -1    0    0  503  502  0.00000000000E+00  0.00000000000E+00  0.62588232357E+02  0.62588232357E+02  0.00000000000E+00 0. -1.
          2   -1    0    0  504    0 -0.00000000000E+00 -0.00000000000E+00 -0.21101205305E+04  0.21101205305E+04  0.00000000000E+00 0.  1.
         21    1    1    2  503  505  0.64572629432E+02  0.48948968662E+02 -0.92892110896E+02  0.12326625764E+03  0.00000000000E+00 0.  1.
         21    1    1    2  504  502  0.29529615794E+02  0.22769517220E+02 -0.98057087799E+03  0.98127962166E+03  0.00000000000E+00 0.  1.
         21    1    1    2  505  501  0.56832821507E+02  0.84430057806E+02 -0.40288334374E+02  0.10946028571E+03  0.00000000000E+00 0. -1.
          2    1    1    2  501    0 -0.15093506673E+03 -0.15614854369E+03 -0.93378097485E+03  0.95870259781E+03  0.00000000000E+00 0.  1.
<scales pt_clust_3="56.25682" pt_clust_4="37.28873" pt_clust_5="56.25682" pt_clust_6="186.31040"></scales>
<clustering>
<clus scale="   37.289">  2  4  1 -1</clus>
<clus scale="   56.257">  3  5 -1 -1</clus>
<clus scale="  186.310">  2  6  1 -1</clus>
<clus scale="  196.486">  1  3  2 -1</clus>
</clustering>
</event>
<event>
 6    0  0.3800129E+002  0.1056712E+03  0.7546771E-02  0.1268803E+00
         21   -1    0    0  503  502  0.00000000000E+00  0.00000000000E+00  0.38253181573E+03  0.38253181573E+03  0.00000000000E+00 0.  1.
         -1   -1    0    0    0  501 -0.00000000000E+00 -0.00000000000E+00 -0.25457439249E+03  0.25457439249E+03  0.00000000000E+00 0.  1.
         21    1    1    2  503  504 -0.45026539418E+01 -0.41370962217E+02  0.62896499308E+02  0.75417504814E+02  0.00000000000E+00 0. -1.
         21    1    1    2  504  501  0.20217735518E+02  0.46157067389E+02 -0.66801709449E+02  0.83676161986E+02  0.00000000000E+00 0.  1.
         21    1    1    2  505  502 -0.88839813512E+02 -0.18392126619E+02  0.28967532085E+03  0.30354995354E+03  0.00000000000E+00 0.  1.
         -1    1    1    2    0  505  0.73124731936E+02  0.13606021448E+02 -0.15781268747E+03  0.17446258787E+03  0.00000000000E+00 0.  1.
<scales pt_clust_3="41.61527" pt_clust_4="49.32302" pt_clust_5="105.67123" pt_clust_6="14000.00000"></scales>
<clustering>
<clus scale="   41.615">  1  3  2 -1</clus>
<clus scale="   49.323">  2  4  1 -1</clus>
<clus scale="  105.671">  1  5  2 -1</clus>
<clus scale="   41.615">  1  3  2 -1</clus>
</clustering>
</event>
<event>
 6    0  0.3800129E+002  0.1266911E+03  0.7546771E-02  0.1232450E+00
         21   -1    0    0  505  502  0.00000000000E+00  0.00000000000E+00  0.26170710875E+03  0.26170710875E+03  0.00000000000E+00 0. -1.
          2   -1    0    0  503    0 -0.00000000000E+00 -0.00000000000E+00 -0.61553956797E+03  0.61553956797E+03  0.00000000000E+00 0. -1.
         21    1    1    2  503  502 -0.62553667088E+02  0.66985644614E+02  0.87935710572E+02  0.12701467256E+03  0.00000000000E+00 0. -1.
         21    1    1    2  504  501 -0.62761181502E+02  0.16676583864E+02 -0.21806630044E+02  0.68502580001E+02  0.00000000000E+00 0.  1.
         21    1    1    2  505  504  0.32313378016E+02  0.59917460072E+01  0.12109005846E+03  0.12547054506E+03  0.00000000000E+00 0. -1.
          2    1    1    2  501    0  0.93001470574E+02 -0.89653974485E+02 -0.54105159821E+03  0.55625887911E+03  0.00000000000E+00 0. -1.
<scales pt_clust_3="14000.00000" pt_clust_4="59.97822" pt_clust_5="32.86420" pt_clust_6="126.69111"></scales>
<clustering>
<clus scale="   32.864">  1  5  2 -1</clus>
<clus scale="   59.978">  1  4  2 -1</clus>
<clus scale="  126.691">  2  6  1 -1</clus>
<clus scale="   32.864">  1  3  2 -1</clus>
</clustering>
</event>
<event>
 6    0  0.3800129E+002  0.1396795E+03  0.7546771E-02  0.1213761E+00
         -2   -1    0    0    0  501 -0.00000000000E+00  0.00000000000E+00  0.10268686295E+03  0.10268686295E+03  0.00000000000E+00 0.  1.
         21   -1    0    0  503  502  0.00000000000E+00 -0.00000000000E+00 -0.28981664099E+03  0.28981664099E+03  0.00000000000E+00 0.  1.
         21    1    1    2  503  504 -0.97621075378E+02  0.54663154656E+02 -0.35462901859E+02  0.11736929855E+03  0.00000000000E+00 0.  1.
         21    1    1    2  504  505 -0.44084904228E+02 -0.71004970134E+01 -0.45384670110E+02  0.63668391841E+02  0.00000000000E+00 0.  1.
         21    1    1    2  505  501  0.27210801715E+02 -0.39615151615E+02  0.88853220927E+01  0.48874706302E+02  0.00000000000E+00 0.  1.
         -2    1    1    2    0  502  0.11449517789E+03 -0.79475060280E+01 -0.11516752816E+03  0.16259110724E+03  0.00000000000E+00 0.  1.
<scales pt_clust_3="39.42988" pt_clust_4="39.42988" pt_clust_5="48.06025" pt_clust_6="124.95932"></scales>
<clustering>
<clus scale="   39.430">  3  4 -1 -1</clus>
<clus scale="   48.060">  1  5  2 -1</clus>
<clus scale="  124.959">  2  6  1 -1</clus>
<clus scale="  124.959">  2  3  1 -1</clus>
</clustering>
</event>
<event>
 6    0  0.3800129E+002  0.1143137E+03  0.7546771E-02  0.1252784E+00
         21   -1    0    0  501  502  0.00000000000E+00  0.00000000000E+00  0.62790119945E+02  0.62790119945E+02  0.00000000000E+00 0.  1.
          1   -1    0    0  504    0 -0.00000000000E+00 -0.00000000000E+00 -0.47050006037E+03  0.47050006037E+03  0.00000000000E+00 0.  1.
         21    1    1    2  503  502 -0.97251096530E+02  0.37485456216E+02 -0.53591725463E+02  0.11719645149E+03  0.00000000000E+00 0.  1.
         21    1    1    2  504  505  0.24494031472E+01  0.35176889488E+02 -0.44040080130E+02  0.56417566304E+02  0.00000000000E+00 0. -1.
         21    1    1    2  505  503 -0.35191932377E+02 -0.11241539601E+02 -0.83846308052E+02  0.91624492856E+02  0.00000000000E+00 0.  1.
          1    1    1    2  501    0  0.12999362576E+03 -0.61420806104E+02 -0.22623182678E+03  0.26805166966E+03  0.00000000000E+00 0.  1.
<scales pt_clust_3="114.31374" pt_clust_4="35.26206" pt_clust_5="34.89898" pt_clust_6="14000.00000"></scales>
<clustering>
<clus scale="   35.262">  2  4  1 -1</clus>
<clus scale="   34.899">  2  5  1 -1</clus>
<clus scale="  114.314">  1  3  2 -1</clus>
<clus scale="  114.314">  1  3  2 -1</clus>
</clustering>
</event>
<event>
 6    0  0.3800129E+002  0.9414875E+02  0.7546771E-02  0.1293105E+00
          2   -1    0    0  504    0 -0.00000000000E+00  0.00000000000E+00  0.16014070429E+03  0.16014070429E+03  0.00000000000E+00 0. -1.
         21   -1    0    0  503  502  0.00000000000E+00 -0.00000000000E+00 -0.24598932597E+03  0.24598932597E+03  0.00000000000E+00 0.  1.
         21    1    1    2  503  501  0.26177673944E+02 -0.16294052906E+02 -0.74517218175E+02  0.80644792626E+02  0.00000000000E+00 0.  1.
         21    1    1    2  504  505  0.84942646017E+02  0.22083022262E+02  0.43595275603E+02  0.97997250163E+02  0.00000000000E+00 0. -1.
         21    1    1    2  505  502 -0.37949284802E+01 -0.41671086573E+02 -0.97877403335E+02  0.10644654537E+03  0.00000000000E+00 0.  1.
          2    1    1    2  501    0 -0.10732539148E+03  0.35882117217E+02  0.42950724222E+02  0.12104144209E+03  0.00000000000E+00 0. -1.
<scales pt_clust_3="30.83451" pt_clust_4="94.14875" pt_clust_5="52.95312" pt_clust_6="14000.00000"></scales>
<clustering>
<clus scale="   30.835">  2  3  1 -1</clus>
<clus scale="   52.953">  2  5  1 -1</clus>
<clus scale="   94.149">  1  4  2 -1</clus>
<clus scale="   30.835">  2  3  1 -1</clus>
</clustering>
</event>
<event>
 6    0  0.3800129E+002  0.1689441E+03  0.7546771E-02  0.1178953E+00
         -4   -1    0    0    0  501 -0.00000000000E+00  0.00000000000E+00  0.16136185598E+03  0.16136185598E+03  0.00000000000E+00 0. -1.
         21   -1    0    0  503  502  0.00000000000E+00 -0.00000000000E+00 -0.35980018492E+03  0.35980018492E+03  0.00000000000E+00 0.  1.
         21    1    1    2  503  505  0.43219866774E+02  0.19168475839E+02 -0.52256165630E+02  0.70470520052E+02  0.00000000000E+00 0.  1.
         21    1    1    2  504  501  0.18339930404E+02  0.36399754075E+02  0.26183237001E+02  0.48444370610E+02  0.00000000000E+00 0.  1.
         21    1    1    2  505  504  0.11422490351E+03 -0.22497243486E+02 -0.18966395510E+03  0.22254408644E+03  0.00000000000E+00 0.  1.
         -4    1    1    2    0  502 -0.17578470069E+03 -0.33070986428E+02  0.17298554781E+02  0.17970306380E+03  0.00000000000E+00 0. -1.
<scales pt_clust_3="32.06871" pt_clust_4="40.75899" pt_clust_5="32.06871" pt_clust_6="161.27567"></scales>
<clustering>
<clus scale="   32.069">  3  5 -1 -1</clus>
<clus scale="   40.759">  1  4  2 -1</clus>
<clus scale="  161.276">  1  6  2 -1</clus>
<clus scale="  168.944">  2  3  1 -1</clus>
</clustering>
</event>
<event>
 6    0  0.3800129E+002  0.1098732E+03  0.7546771E-02  0.1260805E+00
         21   -1    0    0  503  502  0.00000000000E+00  0.00000000000E+00  0.17094681961E+03  0.17094681961E+03  0.00000000000E+00 0.  1.
          2   -1    0    0  504    0 -0.00000000000E+00 -0.00000000000E+00 -0.38070290269E+04  0.38070290269E+04  0.00000000000E+00 0. -1.
         21    1    1    2  503  505  0.41638799266E+00  0.45164197372E+02  0.14038153077E+03  0.14746847895E+03  0.00000000000E+00 0.  1.
         21    1    1    2  504  502  0.24119531033E+02  0.49902921847E+02 -0.49440928109E+03  0.49750637243E+03  0.00000000000E+00 0. -1.
         21    1    1    2  505  501  0.81979503893E+01  0.68117889002E+02 -0.27058035946E+02  0.73752223709E+02  0.00000000000E+00 0.  1.
          2    1    1    2  501    0 -0.32733869415E+02 -0.16318500822E+03 -0.32549964210E+04  0.32592487714E+04  0.00000000000E+00 0. -1.
<scales pt_clust_3="45.16612" pt_clust_4="57.77737" pt_clust_5="109.87321" pt_clust_6="14000.00000"></scales>
<clustering>
<clus scale="   45.166">  1  3  2 -1</clus>
<clus scale="   57.777">  2  4  1 -1</clus>
<clus scale="  109.873">  1  5  2 -1</clus>
<clus scale="   45.166">  1  3  2 -1</clus>
</clustering>
</event>
<event>
 6    0  0.3800129E+002  0.7878178E+02  0.7546771E-02  0.1332545E+00
          2   -1    0    0  504    0 -0.00000000000E+00  0.00000000000E+00  0.17366173856E+04  0.17366173856E+04  0.00000000000E+00 0. -1.
         21   -1    0    0  501  502  0.00000000000E+00 -0.00000000000E+00 -0.44485119414E+03  0.44485119414E+03  0.00000000000E+00 0.  1.
         21    1    1    2  503  502 -0.19215295246E+02  0.53779611257E+02 -0.29557325526E+03  0.30103990331E+03  0.00000000000E+00 0.  1.
         21    1    1    2  504  505 -0.40858868548E+02  0.16826491888E+02  0.35166792131E+02  0.56473721651E+02  0.00000000000E+00 0.  1.
         21    1    1    2  505  503 -0.60720899127E+02 -0.52241314028E+02 -0.12166385250E+03  0.14566494255E+03  0.00000000000E+00 0.  1.
          2    1    1    2  501    0  0.12079506292E+03 -0.18364789117E+02  0.16738365071E+04  0.16782900122E+04  0.00000000000E+00 0. -1.
<scales pt_clust_3="57.15718" pt_clust_4="44.18798" pt_clust_5="14000.00000" pt_clust_6="78.78178"></scales>
<clustering>
<clus scale="   44.188">  1  4  2 -1</clus>
<clus scale="   57.157">  2  3  1 -1</clus>
<clus scale="   78.782">  1  6  2 -1</clus>
<clus scale="   57.157">  2  3  1 -1</clus>
</clustering>
</event>
<event>
 6    0  0.3800129E+002  0.1225665E+03  0.7546771E-02  0.1238922E+00
         21   -1    0    0  505  502  0.00000000000E+00  0.00000000000E+00  0.41277661362E+03  0.41277661362E+03  0.00000000000E+00 0. -1.
         -1   -1    0    0    0  501 -0.00000000000E+00 -0.00000000000E+00 -0.61382558186E+03  0.61382558186E+03  0.00000000000E+00 0. -1.
         21    1    1    2  503  501  0.43350331205E+02  0.25409021926E+02 -0.11507857465E+03  0.12557048999E+03  0.00000000000E+00 0.  1.
         21    1    1    2  504  502 -0.81489181282E+01  0.32819438751E+02  0.22580610813E+02  0.40662075836E+02  0.00000000000E+00 0.  1.
         21    1    1    2  505  503 -0.99898116378E+02  0.28536575808E+02  0.36247435989E+03  0.37706979645E+03  0.00000000000E+00 0. -1.
         -1    1    1    2    0  504  0.64696703301E+02 -0.86765036485E+02 -0.47102536429E+03  0.48329983321E+03  0.00000000000E+00 0. -1.
<scales pt_clust_3="50.38171" pt_clust_4="33.81598" pt_clust_5="122.56649" pt_clust_6="14000.00000"></scales>
<clustering>
<clus scale="   33.816">  1  4  2 -1</clus>
<clus scale="   50.382">  2  3  1 -1</clus>
<clus scale="  122.566">  1  5  2 -1</clus>
<clus scale="   33.816">  1  3  2 -1</clus>
</clustering>
</event>
<event>
 6    0  0.3800129E+002  0.1378686E+03  0.7546771E-02  0.1216226E+00
         21   -1    0    0  503  502  0.00000000000E+00  0.00000000000E+00  0.17225572248E+02  0.17225572248E+02  0.00000000000E+00 0.  1.
          1   -1    0    0  504    0 -0.00000000000E+00 -0.00000000000E+00 -0.25997633700E+04  0.25997633700E+04  0.00000000000E+00 0.  1.
         21    1    1    2  503  505 -0.37887700181E+02  0.39399961933E+02 -0.10996718441E+03  0.12280316149E+03  0.00000000000E+00 0.  1.
         21    1    1    2  504  502  0.38990025378E+02  0.36397691858E+02 -0.98065624929E+03  0.98210574447E+03  0.00000000000E+00 0.  1.
         21    1    1    2  505  501 -0.29307057654E+02  0.70787256592E+02 -0.25700705974E+03  0.26818345974E+03  0.00000000000E+00 0.  1.
          1    1    1    2  501    0  0.28204732457E+02 -0.14658491038E+03 -0.12349073043E+04  0.12438965765E+04  0.00000000000E+00 0.  1.
<scales pt_clust_3="33.19096" pt_clust_4="53.33867" pt_clust_5="33.19096" pt_clust_6="132.15017"></scales>
<clustering>
<clus scale="   33.191">  3  5 -1 -1</clus>
<clus scale="   53.339">  2  4  1 -1</clus>
<clus scale="  132.150">  2  6  1 -1</clus>
<clus scale="  137.869">  1  3  2 -1</clus>
</clustering>
</event>
<event>
 6    0  0.3800129E+002  0.1824433E+03  0.7546771E-02  0.1165459E+00
         21   -1    0    0  503  502  0.00000000000E+00  0.00000000000E+00  0.97629255414E+03  0.97629255414E+03  0.00000000000E+00 0.  1.
         -2   -1    0    0    0  501 -0.00000000000E+00 -0.00000000000E+00 -0.87754557159E+03  0.87754557159E+03  0.00000000000E+00 0. -1.
         21    1    1    2  503  501 -0.40636266821E+02 -0.17145246789E+02 -0.65011816798E+02  0.78560817155E+02  0.00000000000E+00 0.  1.
         21    1    1    2  504  502 -0.33569129436E+02  0.41159737861E+02  0.66457473447E+03  0.66669377391E+03  0.00000000000E+00 0.  1.
         21    1    1    2  505  504 -0.14473509145E+03 -0.79947474599E+02  0.26376604631E+03  0.31130752091E+03  0.00000000000E+00 0.  1.
         -2    1    1    2    0  505  0.21894048771E+03  0.55932983527E+02 -0.76458198142E+03  0.79727601376E+03  0.00000000000E+00 0. -1.
<scales pt_clust_3="44.10517" pt_clust_4="53.12952" pt_clust_5="182.44327" pt_clust_6="14000.00000"></scales>
<clustering>
<clus scale="   44.105">  2  3  1 -1</clus>
<clus scale="   53.130">  1  4  2 -1</clus>
<clus scale="  182.443">  1  5  2 -1</clus>
<clus scale="   53.130">  1  3  2 -1</clus>
</clustering>
</event>
<event>
 6    0  0.3800129E+002  0.1247198E+03  0.7546771E-02  0.1235508E+00
         21   -1    0    0  505  502  0.00000000000E+00  0.00000000000E+00  0.60774430945E+02  0.60774430945E+02  0.00000000000E+00 0.  1.
          2   -1    0    0  503    0 -0.00000000000E+00 -0.00000000000E+00 -0.29604926246E+04  0.29604926246E+04  0.00000000000E+00 0.  1.
         21    1    1    2  503  502  0.56483912660E+02  0.18540888390E+01 -0.17688865902E+04  0.17697891510E+04  0.00000000000E+00 0. -1.
         21    1    1    2  504  501  0.74438387967E+02  0.51523328497E+02 -0.56413757079E+02  0.10666882848E+03  0.00000000000E+00 0.  1.
         21    1    1    2  505  504  0.33216238009E+00  0.52401408003E+02  0.46916967459E+01  0.52612070012E+02  0.00000000000E+00 0.  1.
          2    1    1    2  501    0 -0.13125446301E+03 -0.10577882534E+03 -0.10791095431E+04  0.10921970060E+04  0.00000000000E+00 0.  1.
<scales pt_clust_3="56.54794" pt_clust_4="124.71976" pt_clust_5="52.40246" pt_clust_6="14000.00000"></scales>
<clustering>
<clus scale="   52.402">  1  5  2 -1</clus>
<clus scale="   56.548">  2  3  1 -1</clus>
<clus scale="  124.720">  1  4  2 -1</clus>
<clus scale="   52.402">  1  3  2 -1</clus>
</clustering>
</event>
<event>
 6    0  0.3800129E+002  0.1637029E+03  0.7546771E-02  0.1184578E+00
          2   -1    0    0  504    0 -0.00000000000E+00  0.00000000000E+00  0.18274097638E+04  0.18274097638E+04  0.00000000000E+00 0. -1.
         21   -1    0    0  505  502  0.00000000000E+00 -0.00000000000E+00 -0.41815339318E+03  0.41815339318E+03  0.00000000000E+00 0.  1.
         21    1    1    2  503  502 -0.13698436348E+02 -0.30198822808E+02 -0.19952242768E+02  0.38700233188E+02  0.00000000000E+00 0.  1.
         21    1    1    2  504  503 -0.16330737427E+03  0.17164503281E+02 -0.35495135556E+03  0.39109382951E+03  0.00000000000E+00 0.  1.
         21    1    1    2  505  501  0.13884454058E+02  0.26764793718E+02  0.68290308684E+01  0.30915496274E+02  0.00000000000E+00 0. -1.
          2    1    1    2  501    0  0.16312135656E+03 -0.13730474191E+02  0.17773309380E+04  0.17848535980E+04  0.00000000000E+00 0. -1.
<scales pt_clust_3="30.98635" pt_clust_4="163.70294" pt_clust_5="30.15182" pt_clust_6="14000.00000"></scales>
<clustering>
<clus scale="   30.152">  2  5  1 -1</clus>
<clus scale="   30.986">  2  3  1 -1</clus>
<clus scale="  163.703">  2  4  1 -1</clus>
<clus scale="   30.152">  2  3  1 -1</clus>
</clustering>
</event>
<event>
 6    0  0.3800129E+002  0.6357626E+02  0.7546771E-02  0.1383408E+00
         21   -1    0    0  505  502  0.00000000000E+00  0.00000000000E+00  0.17004787563E+03  0.17004787563E+03  0.00000000000E+00 0.  1.
          1   -1    0    0  504    0 -0.00000000000E+00 -0.00000000000E+00 -0.20587943187E+04  0.20587943187E+04  0.00000000000E+00 0.  1.
         21    1    1    2  503  502  0.97016197699E+02 -0.21611361124E+02  0.80616649240E+02  0.12797748896E+03  0.00000000000E+00 0.  1.
         21    1    1    2  504  503  0.89350327110E+01  0.41962136589E+02 -0.38984538104E+03  0.39219902707E+03  0.00000000000E+00 0. -1.
         21    1    1    2  505  501 -0.56427793169E+02 -0.27731194721E+02  0.48792810297E+02  0.79585509606E+02  0.00000000000E+00 0. -1.
          1    1    1    2  501    0 -0.49523437240E+02  0.73804192550E+01 -0.16283105216E+04  0.16290801687E+04  0.00000000000E+00 0.  1.
<scales pt_clust_3="63.57626" pt_clust_4="42.90286" pt_clust_5="62.62969" pt_clust_6="14000.00000"></scales>
<clustering>
<clus scale="   42.903">  2  4  1 -1</clus>
<clus scale="   62.630">  1  5  2 -1</clus>
<clus scale="   63.576">  1  3  2 -1</clus>
<clus scale="   62.630">  1  3  2 -1</clus>
</clustering>
</event>
<event>
 6    0  0.3800129E+002  0.2566288E+03  0.7546771E-02  0.1109186E+00
         21   -1    0    0  505  502  0.00000000000E+00  0.00000000000E+00  0.41534387347E+02  0.41534387347E+02  0.00000000000E+00 0. -1.
          1   -1    0    0  502    0 -0.00000000000E+00 -0.00000000000E+00 -0.19399799090E+04  0.19399799090E+04  0.00000000000E+00 0. -1.
         21    1    1    2  503  501  0.12947918174E+03  0.49506632848E+02 -0.69225222353E+03  0.70599497603E+03  0.00000000000E+00 0. -1.
         21    1    1    2  504  503 -0.32496291233E+02 -0.69663618396E+02 -0.18412375454E+03  0.19952590223E+03  0.00000000000E+00 0. -1.
         21    1    1    2  505  504 -0.13693356163E+03 -0.88734750272E+02 -0.27338303212E+03  0.31837546773E+03  0.00000000000E+00 0. -1.
          1    1    1    2  501    0  0.39950671122E+02  0.10889173582E+03 -0.74868651148E+03  0.75761795037E+03  0.00000000000E+00 0. -1.
<scales pt_clust_3="100.46180" pt_clust_4="49.07831" pt_clust_5="242.71252" pt_clust_6="100.46180"></scales>
<clustering>
<clus scale="   49.078">  4  5 -1 -1</clus>
<clus scale="  100.462">  3  6 -1 -1</clus>
<clus scale="  242.713">  1  4  2 -1</clus>
<clus scale="  242.713">  1  3  2 -1</clus>
</clustering>
</event>
<event>
 6    0  0.3800129E+002  0.1494527E+03  0.7546771E-02  0.1201147E+00
         21   -1    0    0  504  502  0.00000000000E+00  0.00000000000E+00  0.20276699898E+04  0.20276699898E+04  0.00000000000E+00 0.  1.
          3   -1    0    0  505    0 -0.00000000000E+00 -0.00000000000E+00 -0.19820252516E+02  0.19820252516E+02  0.00000000000E+00 0. -1.
         21    1    1    2  503  501  0.47307690422E+02 -0.46397697379E+02  0.19441655894E+03  0.20539854499E+03  0.00000000000E+00 0. -1.
         21    1    1    2  504  503  0.68453133386E+02  0.36344320483E+02  0.63964054981E+03  0.64431884503E+03  0.00000000000E+00 0.  1.
         21    1    1    2  505  502 -0.10197400502E+03  0.95340643496E+02  0.89736745808E+03  0.90816126917E+03  0.00000000000E+00 0.  1.
          3    1    1    2  501    0 -0.13786818791E+02 -0.85287266599E+02  0.27642517044E+03  0.28961158311E+03  0.00000000000E+00 0. -1.
<scales pt_clust_3="61.16965" pt_clust_4="77.50317" pt_clust_5="132.12722" pt_clust_6="61.16965"></scales>
<clustering>
<clus scale="   61.170">  3  6 -1 -1</clus>
<clus scale="   77.503">  1  4  2 -1</clus>
<clus scale="  132.127">  1  5  2 -1</clus>
<clus scale="   77.503">  1  3  2 -1</clus>
</clustering>
</event>
<event>
 6    0  0.3800129E+002  0.3036641E+03  0.7546771E-02  0.1083423E+00
         21   -1    0    0  501  502  0.00000000000E+00  0.00000000000E+00  0.35366427135E+03  0.35366427135E+03  0.00000000000E+00 0.  1.
          3   -1    0    0  505    0 -0.00000000000E+00 -0.00000000000E+00 -0.34833125684E+03  0.34833125684E+03  0.00000000000E+00 0.  1.
         21    1    1    2  503  502 -0.10851004575E+03 -0.24929343286E+02  0.40109377121E+02  0.11834130436E+03  0.00000000000E+00 0.  1.
         21    1    1    2  504  503 -0.20246594373E+03  0.27451824991E+02 -0.14725195826E+02  0.20484846218E+03  0.00000000000E+00 0.  1.
         21    1    1    2  505  504  0.33440073997E+02  0.51315667202E+01 -0.86879969589E+02  0.93234653652E+02  0.00000000000E+00 0. -1.
          3    1    1    2  501    0  0.27753591548E+03 -0.76540484251E+01  0.66828802802E+02  0.28557110800E+03  0.00000000000E+00 0.  1.
<scales pt_clust_3="62.88737" pt_clust_4="62.88737" pt_clust_5="33.83152" pt_clust_6="291.74826"></scales>
<clustering>
<clus scale="   33.832">  2  5  1 -1</clus>
<clus scale="   62.887">  3  4 -1 -1</clus>
<clus scale="  291.748">  1  6  2 -1</clus>
<clus scale="  291.748">  1  3  2 -1</clus>
</clustering>
</event>
<event>
 6    0  0.3800129E+002  0.1021621E+03  0.7546771E-02  0.1275814E+00
         21   -1    0    0  503  502  0.00000000000E+00  0.00000000000E+00  0.26944013699E+03  0.26944013699E+03  0.00000000000E+00 0.  1.
          1   -1    0    0  504    0 -0.00000000000E+00 -0.00000000000E+00 -0.36449035001E+03  0.36449035001E+03  0.00000000000E+00 0. -1.
         21    1    1    2  503  505  0.37305339443E+02 -0.17288750532E+02  0.19444282699E+03  0.19874255260E+03  0.00000000000E+00 0.  1.
         21    1    1    2  504  502 -0.13111872962E+02  0.55839966014E+02 -0.23514734430E+02  0.61991658732E+02  0.00000000000E+00 0.  1.
         21    1    1    2  505  501  0.46054968793E+02  0.47349105692E+02  0.17870528694E+02  0.68427726516E+02  0.00000000000E+00 0. -1.
          1    1    1    2  501    0 -0.70248435274E+02 -0.85900321174E+02 -0.28384883428E+03  0.30476854916E+03  0.00000000000E+00 0. -1.
<scales pt_clust_3="41.11678" pt_clust_4="51.37766" pt_clust_5="14000.00000" pt_clust_6="102.16209"></scales>
<clustering>
<clus scale="   41.117">  1  3  2 -1</clus>
<clus scale="   51.378">  1  4  2 -1</clus>
<clus scale="  102.162">  2  6  1 -1</clus>
<clus scale="   41.117">  1  3  2 -1</clus>
</clustering>
</event>
<event>
 6    0  0.3800129E+002  0.1214274E+03  0.7546771E-02  0.1240761E+00
         -1   -1    0    0    0  501 -0.00000000000E+00  0.00000000000E+00  0.11936222272E+04  0.11936222272E+04  0.00000000000E+00 0.  1.
         21   -1    0    0  503  502  0.00000000000E+00 -0.00000000000E+00 -0.48715388950E+03  0.48715388950E+03  0.00000000000E+00 0. -1.
         21    1    1    2  503  504  0.37542215071E+02 -0.28086184414E+02 -0.70480427465E+02  0.84650707753E+02  0.00000000000E+00 0.  1.
         21    1    1    2  504  501 -0.29520111106E+02  0.19340315933E+02  0.38309818841E+02  0.52087685683E+02  0.00000000000E+00 0. -1.
         21    1    1    2  505  502  0.85119885479E+02  0.29349868782E+02 -0.39563931228E+03  0.40575519113E+03  0.00000000000E+00 0. -1.
         -1    1    1    2    0  505 -0.93141989444E+02 -0.20604000301E+02  0.11342782586E+04  0.11382825321E+04  0.00000000000E+00 0.  1.
<scales pt_clust_3="46.66821" pt_clust_4="35.29143" pt_clust_5="14000.00000" pt_clust_6="121.42742"></scales>
<clustering>
<clus scale="   35.291">  1  4  2 -1</clus>
<clus scale="   46.668">  2  3  1 -1</clus>
<clus scale="  121.427">  1  6  2 -1</clus>
<clus scale="   46.668">  2  3  1 -1</clus>
</clustering>
</event>
<event>
 6    0  0.3800129E+002  0.2835639E+03  0.7546771E-02  0.1093758E+00
          2   -1    0    0  505    0 -0.00000000000E+00  0.00000000000E+00  0.26702817865E+04  0.26702817865E+04  0.00000000000E+00 0. -1.
         21   -1    0    0  501  502  0.00000000000E+00 -0.00000000000E+00 -0.14063675908E+03  0.14063675908E+03  0.00000000000E+00 0. -1.
         21    1    1    2  503  504  0.80923436967E+02  0.58695259426E+02  0.23544593848E+01  0.99996397978E+02  0.00000000000E+00 0. -1.
         21    1    1    2  504  502  0.41889394073E+02  0.88102006673E+01 -0.42812216233E+02  0.60541116857E+02  0.00000000000E+00 0. -1.
         21    1    1    2  505  503  0.54338406225E+02  0.25049805506E+03  0.14538594951E+04  0.14762822797E+04  0.00000000000E+00 0. -1.
          2    1    1    2  501    0 -0.17715123727E+03 -0.31800351515E+03  0.11162432892E+04  0.11740987511E+04  0.00000000000E+00 0. -1.
<scales pt_clust_3="121.79424" pt_clust_4="42.80585" pt_clust_5="283.56394" pt_clust_6="14000.00000"></scales>
<clustering>
<clus scale="   42.806">  2  4  1 -1</clus>
<clus scale="  121.794">  2  3  1 -1</clus>
<clus scale="  283.564">  1  5  2 -1</clus>
<clus scale="   42.806">  2  3  1 -1</clus>
</clustering>
</event>
<event>
 6    0  0.3800129E+002  0.9419999E+02  0.7546771E-02  0.1292988E+00
         21   -1    0    0  503  502  0.00000000000E+00  0.00000000000E+00  0.21494990080E+03  0.21494990080E+03  0.00000000000E+00 0. -1.
          1   -1    0    0  505    0 -0.00000000000E+00 -0.00000000000E+00 -0.17369891041E+03  0.17369891041E+03  0.00000000000E+00 0. -1.
         21    1    1    2  503  501 -0.10240117802E+02  0.48850704969E+02  0.10378867572E+03  0.11516657760E+03  0.00000000000E+00 0. -1.
         21    1    1    2  504  502 -0.23313615224E+02  0.43758871720E+02  0.15469463976E+02  0.51939078012E+02  0.00000000000E+00 0.  1.
         21    1    1    2  505  504 -0.18422287869E+02  0.46703162131E+02 -0.48789412624E+02  0.70006948423E+02  0.00000000000E+00 0. -1.
          1    1    1    2  501    0  0.51976020894E+02 -0.13931273882E+03 -0.29217736686E+02  0.15153620717E+03  0.00000000000E+00 0. -1.
<scales pt_clust_3="94.19999" pt_clust_4="49.58189" pt_clust_5="53.08964" pt_clust_6="14000.00000"></scales>
<clustering>
<clus scale="   49.582">  1  4  2 -1</clus>
<clus scale="   53.090">  2  5  1 -1</clus>
<clus scale="   94.200">  1  3  2 -1</clus>
<clus scale="   49.582">  1  3  2 -1</clus>
</clustering>
</event>
<event>
 6    0  0.3800129E+002  0.2864721E+03  0.7546771E-02  0.1092206E+00
         21   -1    0    0  503  502  0.00000000000E+00  0.00000000000E+00  0.41551218016E+03  0.41551218016E+03  0.00000000000E+00 0.  1.
          2   -1    0    0  504    0 -0.00000000000E+00 -0.00000000000E+00 -0.11787151572E+04  0.11787151572E+04  0.00000000000E+00 0.  1.
         21    1    1    2  503  505 -0.24020404466E+02 -0.71701410394E+02 -0.16430151291E+01  0.75635782418E+02  0.00000000000E+00 0. -1.
         21    1    1    2  504  502  0.42208392284E+02  0.34773504974E+02 -0.13252044281E+03  0.14336112719E+03  0.00000000000E+00 0.  1.
         21    1    1    2  505  501 -0.95583094829E+02  0.32581203252E+03  0.26613814220E+03  0.43141525157E+03  0.00000000000E+00 0.  1.
          2    1    1    2  501    0  0.77395107012E+02 -0.28888412710E+03 -0.89517766130E+03  0.94381517617E+03  0.00000000000E+00 0.  1.
<scales pt_clust_3="73.90387" pt_clust_4="54.68770" pt_clust_5="14000.00000" pt_clust_6="286.47210"></scales>
<clustering>
<clus scale="   54.688">  2  4  1 -1</clus>
<clus scale="   73.904">  1  3  2 -1</clus>
<clus scale="  286.472">  2  6  1 -1</clus>
<clus scale="   73.904">  1  3  2 -1</clus>
</clustering>
</event>
<event>
 6    0  0.3800129E+002  0.1307824E+03  0.7546771E-02  0.1226299E+00
         -2   -1    0    0    0  501 -0.00000000000E+00  0.00000000000E+00  0.47133319628E+03  0.47133319628E+03  0.00000000000E+00 0.  1.
         21   -1    0    0  504  502  0.00000000000E+00 -0.00000000000E+00 -0.21397132945E+03  0.21397132945E+03  0.00000000000E+00 0.  1.
         21    1    1    2  503  505  0.52811206233E+02 -0.47660091617E+02 -0.10225061969E+03  0.12456202095E+03  0.00000000000E+00 0.  1.
         21    1    1    2  504  501  0.62238983107E+02 -0.14955130153E+02  0.12350642747E+03  0.13910853519E+03  0.00000000000E+00 0.  1.
         21    1    1    2  505  502  0.15404869063E+02 -0.53454333634E+02 -0.57513571373E+02  0.80015540160E+02  0.00000000000E+00 0.  1.
         -2    1    1    2    0  503 -0.13045505840E+03  0.11606955540E+03  0.29361963043E+03  0.34161842943E+03  0.00000000000E+00 0.  1.
<scales pt_clust_3="33.67151" pt_clust_4="64.01052" pt_clust_5="33.67151" pt_clust_6="125.11677"></scales>
<clustering>
<clus scale="   33.672">  3  5 -1 -1</clus>
<clus scale="   64.011">  1  4  2 -1</clus>
<clus scale="  125.117">  1  6  2 -1</clus>
<clus scale="  130.782">  2  3  1 -1</clus>
</clustering>
</event>
<event>
 6    0  0.3800129E+002  0.1541334E+03  0.7546771E-02  0.1195484E+00
         21   -1    0    0  503  502  0.00000000000E+00  0.00000000000E+00  0.45648234040E+02  0.45648234040E+02  0.00000000000E+00 0.  1.
          1   -1    0    0  504    0 -0.00000000000E+00 -0.00000000000E+00 -0.82238135266E+03  0.82238135266E+03  0.00000000000E+00 0.  1.
         21    1    1    2  503  505 -0.28261270083E+02 -0.51598184056E+02 -0.49916417877E+02  0.77153877143E+02  0.00000000000E+00 0.  1.
         21    1    1    2  504  502 -0.96495984304E+01 -0.35698713254E+02 -0.15568976600E+03  0.16002129894E+03  0.00000000000E+00 0.  1.
         21    1    1    2  505  501 -0.67884943300E+02 -0.50006510385E+02 -0.11267734978E+03  0.14073095523E+03  0.00000000000E+00 0.  1.
          1    1    1    2  501    0  0.10579581181E+03  0.13730340769E+03 -0.45844958496E+03  0.49012345538E+03  0.00000000000E+00 0.  1.
<scales pt_clust_3="32.02056" pt_clust_4="36.97990" pt_clust_5="32.02056" pt_clust_6="149.29045"></scales>
<clustering>
<clus scale="   32.021">  3  5 -1 -1</clus>
<clus scale="   36.980">  2  4  1 -1</clus>
<clus scale="  149.290">  2  6  1 -1</clus>
<clus scale="  154.133">  1  3  2 -1</clus>
</clustering>
</event>
<event>
 6    0  0.3800129E+002  0.9695520E+02  0.7546771E-02  0.1286832E+00
         21   -1    0    0  505  502  0.00000000000E+00  0.00000000000E+00  0.19046623539E+02  0.19046623539E+02  0.00000000000E+00 0. -1.
          2   -1    0    0  504    0 -0.00000000000E+00 -0.00000000000E+00 -0.25721840761E+04  0.25721840761E+04  0.00000000000E+00 0. -1.
         21    1    1    2  503  502  0.71995299664E+02  0.10333079270E+03 -0.46031457428E+03  0.47723168712E+03  0.00000000000E+00 0. -1.
         21    1    1    2  504  503 -0.44548013855E+01  0.33964207592E+02 -0.26875476149E+03  0.27092902110E+03  0.00000000000E+00 0. -1.
         21    1    1    2  505  501 -0.57153712509E+02 -0.22147426150E+02 -0.11693132488E+03  0.13202268773E+03  0.00000000000E+00 0. -1.
          2    1    1    2  501    0 -0.10386785769E+02 -0.11514757414E+03 -0.17071367919E+04  0.17110473037E+04  0.00000000000E+00 0. -1.
<scales pt_clust_3="96.95520" pt_clust_4="34.25511" pt_clust_5="60.88250" pt_clust_6="14000.00000"></scales>
<clustering>
<clus scale="   34.255">  2  4  1 -1</clus>
<clus scale="   60.882">  1  5  2 -1</clus>
<clus scale="   96.955">  1  3  2 -1</clus>
<clus scale="   60.882">  1  3  2 -1</clus>
</clustering>
</event>
<event>
 6    0  0.3800129E+002  0.3115440E+03  0.7546771E-02  0.1079608E+00
         -1   -1    0    0    0  501 -0.00000000000E+00  0.00000000000E+00  0.64270713337E+03  0.64270713337E+03  0.00000000000E+00 0. -1.
         21   -1    0    0  505  502  0.00000000000E+00 -0.00000000000E+00 -0.19863841319E+04  0.19863841319E+04  0.00000000000E+00 0. -1.
         21    1    1    2  503  502  0.31445707880E+02 -0.56403427650E+02 -0.32121577602E+03  0.32764272303E+03  0.00000000000E+00 0. -1.
         21    1    1    2  504  503 -0.66761440514E+02 -0.23453356411E+03 -0.15381152715E+04  0.15573251655E+04  0.00000000000E+00 0. -1.
         21    1    1    2  505  501  0.37715558943E+02 -0.89738571888E+02 -0.69244755412E+01  0.97588027095E+02  0.00000000000E+00 0. -1.
         -1    1    1    2    0  504 -0.23998263094E+01  0.38067556364E+03  0.52257852458E+03  0.64653534960E+03  0.00000000000E+00 0. -1.
<scales pt_clust_3="51.71868" pt_clust_4="51.71868" pt_clust_5="97.34205" pt_clust_6="294.88844"></scales>
<clustering>
<clus scale="   51.719">  3  4 -1 -1</clus>
<clus scale="   97.342">  1  5  2 -1</clus>
<clus scale="  294.888">  1  6  2 -1</clus>
<clus scale="  311.544">  2  3  1 -1</clus>
</clustering>
</event>
<event>
 6    0  0.3800129E+002  0.1059665E+03  0.7546771E-02  0.1268227E+00
         21   -1    0    0  501  502  0.00000000000E+00  0.00000000000E+00  0.10507079160E+04  0.10507079160E+04  0.00000000000E+00 0.  1.
          2   -1    0    0  505    0 -0.00000000000E+00 -0.00000000000E+00 -0.14088540580E+04  0.14088540580E+04  0.00000000000E+00 0.  1.
         21    1    1    2  503  504 -0.12895713500E+03  0.10358530018E+03  0.84677170674E+02  0.18582271205E+03  0.00000000000E+00 0.  1.
         21    1    1    2  504  502  0.32306497601E+02 -0.77853559631E+02  0.89740971157E+03  0.90135957140E+03  0.00000000000E+00 0.  1.
         21    1    1    2  505  503  0.17548323181E+01  0.53735779217E+02 -0.41908375303E+02  0.68168360146E+02  0.00000000000E+00 0.  1.
          2    1    1    2  501    0  0.94895805081E+02 -0.79467519763E+02 -0.12983246489E+04  0.13042113304E+04  0.00000000000E+00 0.  1.
<scales pt_clust_3="105.96654" pt_clust_4="84.21907" pt_clust_5="53.76443" pt_clust_6="14000.00000"></scales>
<clustering>
<clus scale="   53.764">  2  5  1 -1</clus>
<clus scale="   84.219">  1  4  2 -1</clus>
<clus scale="  105.967">  1  3  2 -1</clus>
<clus scale="   84.219">  1  3  2 -1</clus>
</clustering>
</event>
<event>
 6    0  0.3800129E+002  0.6347179E+02  0.7546771E-02  0.1383814E+00
         21   -1    0    0  504  502  0.00000000000E+00  0.00000000000E+00  0.28588153350E+02  0.28588153350E+02  0.00000000000E+00 0. -1.
          1   -1    0    0  505    0 -0.00000000000E+00 -0.00000000000E+00 -0.31282486906E+04  0.31282486906E+04  0.00000000000E+00 0.  1.
         21    1    1    2  503  502 -0.33143222420E+02  0.71364099273E+02 -0.74936064469E+02  0.10865873925E+03  0.00000000000E+00 0. -1.
         21    1    1    2  504  501  0.37168978184E+02 -0.38291960092E+02 -0.60524535183E+02  0.80690931994E+02  0.00000000000E+00 0.  1.
         21    1    1    2  505  503 -0.19904041017E+02  0.39406904111E+02 -0.44272444968E+03  0.44492023249E+03  0.00000000000E+00 0.  1.
          1    1    1    2  501    0  0.15878285254E+02 -0.72479043292E+02 -0.25214754879E+04  0.25225669402E+04  0.00000000000E+00 0.  1.
<scales pt_clust_3="14000.00000" pt_clust_4="63.47179" pt_clust_5="44.14833" pt_clust_6="35.56831"></scales>
<clustering>
<clus scale="   44.148">  2  5  1 -1</clus>
<clus scale="   35.568">  2  6  1 -1</clus>
<clus scale="   63.472">  1  4  2 -1</clus>
<clus scale="   63.472">  1  3  2 -1</clus>
</clustering>
</event>
<event>
 6    0  0.3800129E+002  0.1159015E+03  0.7546771E-02  0.1250016E+00
         21   -1    0    0  501  502  0.00000000000E+00  0.00000000000E+00  0.57113338302E+02  0.57113338302E+02  0.00000000000E+00 0.  1.
          2   -1    0    0  504    0 -0.00000000000E+00 -0.00000000000E+00 -0.25696138242E+04  0.25696138242E+04  0.00000000000E+00 0. -1.
         21    1    1    2  503  502  0.16482148945E+02 -0.63378418051E+02  0.16523001453E+02  0.67538838348E+02  0.00000000000E+00 0.  1.
         21    1    1    2  504  505  0.32604385090E+02 -0.29458432183E+02 -0.24258290686E+03  0.24653054954E+03  0.00000000000E+00 0. -1.
         21    1    1    2  505  503 -0.78386550604E+01 -0.39545326811E+02 -0.26007124381E+02  0.47975492747E+02  0.00000000000E+00 0. -1.
          2    1    1    2  501    0 -0.41247878975E+02  0.13238217704E+03 -0.22604334561E+04  0.22646822819E+04  0.00000000000E+00 0. -1.
<scales pt_clust_3="39.89670" pt_clust_4="43.94138" pt_clust_5="39.89670" pt_clust_6="104.15160"></scales>
<clustering>
<clus scale="   39.897">  3  5 -1 -1</clus>
<clus scale="   43.941">  2  4  1 -1</clus>
<clus scale="  104.152">  2  6  1 -1</clus>
<clus scale="  115.902">  1  3  2 -1</clus>
</clustering>
</event>
<event>
 6    0  0.3800129E+002  0.1147177E+03  0.7546771E-02  0.1252075E+00
         21   -1    0    0  504  502  0.00000000000E+00  0.00000000000E+00  0.23996632418E+03  0.23996632418E+03  0.00000000000E+00 0.  1.
          2   -1    0    0  503    0 -0.00000000000E+00 -0.00000000000E+00 -0.10408658900E+04  0.10408658900E+04  0.00000000000E+00 0. -1.
         21    1    1    2  503  505  0.28723283362E+02  0.12681512899E+02 -0.20591344812E+03  0.20829353301E+03  0.00000000000E+00 0.  1.
         21    1    1    2  504  501 -0.21188020174E+02 -0.79714488989E+02  0.20651807113E+03  0.22238040754E+03  0.00000000000E+00 0.  1.
         21    1    1    2  505  502  0.22105344873E+02 -0.36364766057E+02 -0.11119365984E+01  0.42570868976E+02  0.00000000000E+00 0. -1.
          2    1    1    2  501    0 -0.29640608061E+02  0.10339774215E+03 -0.80039225225E+03  0.80758740468E+03  0.00000000000E+00 0. -1.
<scales pt_clust_3="31.39821" pt_clust_4="114.71774" pt_clust_5="42.67111" pt_clust_6="14000.00000"></scales>
<clustering>
<clus scale="   31.398">  2  3  1 -1</clus>
<clus scale="   42.671">  1  5  2 -1</clus>
<clus scale="  114.718">  1  4  2 -1</clus>
<clus scale="   42.671">  1  3  2 -1</clus>
</clustering>
</event>
<event>
 6    0  0.3800129E+002  0.1515966E+03  0.7546771E-02  0.1198525E+00
         -3   -1    0    0    0  501 -0.00000000000E+00  0.00000000000E+00  0.10299368985E+04  0.10299368985E+04  0.00000000000E+00 0. -1.
         21   -1    0    0  504  502  0.00000000000E+00 -0.00000000000E+00 -0.74093849306E+03  0.74093849306E+03  0.00000000000E+00 0.  1.
         21    1    1    2  503  502  0.65605176570E+02  0.44031636731E+02 -0.52008405957E+03  0.52605156900E+03  0.00000000000E+00 0.  1.
         21    1    1    2  504  501 -0.22394285454E+02 -0.58365795825E+02  0.18683126265E+03  0.19701266672E+03  0.00000000000E+00 0. -1.
         21    1    1    2  505  503  0.45662356630E+02  0.45107264694E+02 -0.20521438970E+03  0.21501781759E+03  0.00000000000E+00 0. -1.
         -3    1    1    2    0  505 -0.88873247746E+02 -0.30773105600E+02  0.82746559211E+03  0.83279333830E+03  0.00000000000E+00 0. -1.
<scales pt_clust_3="47.69074" pt_clust_4="62.51456" pt_clust_5="47.69074" pt_clust_6="142.06248"></scales>
<clustering>
<clus scale="   47.691">  3  5 -1 -1</clus>
<clus scale="   62.515">  1  4  2 -1</clus>
<clus scale="  142.062">  1  6  2 -1</clus>
<clus scale="  151.597">  2  3  1 -1</clus>
</clustering>
</event>
<event>
 6    0  0.3800129E+002  0.1048717E+03  0.7546771E-02  0.1270373E+00
         21   -1    0    0  505  502  0.00000000000E+00  0.00000000000E+00  0.29904886481E+03  0.29904886481E+03  0.00000000000E+00 0. -1.
         -2   -1    0    0    0  501 -0.00000000000E+00 -0.00000000000E+00 -0.32325029567E+03  0.32325029567E+03  0.00000000000E+00 0. -1.
         21    1    1    2  503  501  0.26015499879E+02  0.15366068266E+02 -0.10776942917E+03  0.11192485046E+03  0.00000000000E+00 0.  1.
         21    1    1    2  504  502  0.39966288677E+02 -0.57963752371E+02  0.10108704205E+03  0.12318965416E+03  0.00000000000E+00 0.  1.
         21    1    1    2  505  503  0.60104359926E+01 -0.42732603367E+02  0.16647033707E+03  0.17197259623E+03  0.00000000000E+00 0. -1.
         -2    1    1    2    0  504 -0.71992224548E+02  0.85330287473E+02 -0.18398938081E+03  0.21521205962E+03  0.00000000000E+00 0. -1.
<scales pt_clust_3="30.21460" pt_clust_4="14000.00000" pt_clust_5="43.00528" pt_clust_6="104.87166"></scales>
<clustering>
<clus scale="   30.215">  2  3  1 -1</clus>
<clus scale="   43.005">  1  5  2 -1</clus>
<clus scale="  104.872">  2  6  1 -1</clus>
<clus scale="   43.005">  1  3  2 -1</clus>
</clustering>
</event>
<event>
 6    0  0.3800129E+002  0.1241617E+03  0.7546771E-02  0.1236385E+00
          2   -1    0    0  503    0 -0.00000000000E+00  0.00000000000E+00  0.31087933530E+03  0.31087933530E+03  0.00000000000E+00 0. -1.
         21   -1    0    0  501  502  0.00000000000E+00 -0.00000000000E+00 -0.58799406419E+03  0.58799406419E+03  0.00000000000E+00 0. -1.
         21    1    1    2  503  504 -0.27110059163E+02 -0.15206998112E+02 -0.59076651675E+01  0.31640300364E+02  0.00000000000E+00 0.  1.
         21    1    1    2  504  505 -0.54646087922E+02 -0.47837264556E+01 -0.17788627943E+03  0.18615210816E+03  0.00000000000E+00 0. -1.
         21    1    1    2  505  502 -0.56122968980E+02 -0.31075012893E+02 -0.36584308895E+03  0.37142510659E+03  0.00000000000E+00 0. -1.
          2    1    1    2  501    0  0.13787911607E+03  0.51065737461E+02  0.27252230466E+03  0.30965588437E+03  0.00000000000E+00 0. -1.
<scales pt_clust_3="31.08389" pt_clust_4="38.12138" pt_clust_5="38.12138" pt_clust_6="117.13681"></scales>
<clustering>
<clus scale="   31.084">  1  3  2 -1</clus>
<clus scale="   38.121">  4  5 -1 -1</clus>
<clus scale="  117.137">  1  6  2 -1</clus>
<clus scale="  124.162">  2  3  1 -1</clus>
</clustering>
</event>
<event>
 6    0  0.3800129E+002  0.1190116E+03  0.7546771E-02  0.1244737E+00
          2   -1    0    0  505    0 -0.00000000000E+00  0.00000000000E+00  0.12257476336E+04  0.12257476336E+04  0.00000000000E+00 0.  1.
         21   -1    0    0  503  502  0.00000000000E+00 -0.00000000000E+00 -0.67047794724E+02  0.67047794724E+02  0.00000000000E+00 0.  1.
         21    1    1    2  503  504  0.35822942681E+02  0.14035921939E+02  0.24316054526E+02  0.45514402497E+02  0.00000000000E+00 0.  1.
         21    1    1    2  504  501  0.32898125196E+02 -0.27709169615E+02  0.53458396967E+03  0.53631157488E+03  0.00000000000E+00 0.  1.
         21    1    1    2  505  502 -0.70024080607E+02  0.87230814549E+02  0.53532407492E+01  0.11198769601E+03  0.00000000000E+00 0.  1.
          2    1    1    2  501    0  0.13030127301E+01 -0.73557566873E+02  0.59444657392E+03  0.59898175493E+03  0.00000000000E+00 0.  1.
<scales pt_clust_3="38.47454" pt_clust_4="40.41986" pt_clust_5="106.80571" pt_clust_6="40.41986"></scales>
<clustering>
<clus scale="   38.475">  2  3  1 -1</clus>
<clus scale="   40.420">  4  6 -1 -1</clus>
<clus scale="  106.806">  2  5  1 -1</clus>
<clus scale="   38.475">  2  3  1 -1</clus>
</clustering>
</event>
<event>
 6    0  0.3800129E+002  0.5923830E+02  0.7546771E-02  0.1401056E+00
         21   -1    0    0  505  502  0.00000000000E+00  0.00000000000E+00  0.64070343806E+03  0.64070343806E+03  0.00000000000E+00 0. -1.
          1   -1    0    0  503    0 -0.00000000000E+00 -0.00000000000E+00 -0.63108071562E+03  0.63108071562E+03  0.00000000000E+00 0. -1.
         21    1    1    2  503  502 -0.56336958253E+00  0.82908951429E+02  0.14685808407E+03  0.16864610422E+03  0.00000000000E+00 0. -1.
         21    1    1    2  504  501  0.50080240368E+02 -0.30987768602E+02 -0.21436909935E+03  0.22231145502E+03  0.00000000000E+00 0. -1.
         21    1    1    2  505  504  0.15575641210E+02 -0.40016117306E+02  0.47528151238E+03  0.47721735745E+03  0.00000000000E+00 0. -1.
          1    1    1    2  501    0 -0.65092511996E+02 -0.11905065521E+02 -0.39814777467E+03  0.40360923698E+03  0.00000000000E+00 0. -1.
<scales pt_clust_3="46.78743" pt_clust_4="59.23830" pt_clust_5="42.94054" pt_clust_6="14000.00000"></scales>
<clustering>
<clus scale="   42.941">  1  5  2 -1</clus>
<clus scale="   46.787">  1  3  2 -1</clus>
<clus scale="   59.238">  1  4  2 -1</clus>
<clus scale="   42.941">  1  3  2 -1</clus>
</clustering>
</event>
<event>
 6    0  0.3800129E+002  0.1126612E+03  0.7546771E-02  0.1255720E+00
         21   -1    0    0  503  502  0.00000000000E+00  0.00000000000E+00  0.56732755532E+02  0.56732755532E+02  0.00000000000E+00 0.  1.
          2   -1    0    0  505    0 -0.00000000000E+00 -0.00000000000E+00 -0.56643165516E+03  0.56643165516E+03  0.00000000000E+00 0.  1.
         21    1    1    2  503  504  0.42875331451E+01  0.55027014088E+02 -0.18256141543E+02  0.58134687785E+02  0.00000000000E+00 0.  1.
         21    1    1    2  504  501  0.34059565732E+02  0.50346341972E+02 -0.80733416263E+01  0.61318732968E+02  0.00000000000E+00 0.  1.
         21    1    1    2  505  502 -0.43949285862E+02 -0.87735335046E+01 -0.16284201817E+03  0.16889652897E+03  0.00000000000E+00 0.  1.
          2    1    1    2  501    0  0.56021869845E+01 -0.96599822555E+02 -0.32052739828E+03  0.33481446096E+03  0.00000000000E+00 0.  1.
<scales pt_clust_3="30.16095" pt_clust_4="30.16095" pt_clust_5="44.81645" pt_clust_6="108.12363"></scales>
<clustering>
<clus scale="   30.161">  3  4 -1 -1</clus>
<clus scale="   44.816">  2  5  1 -1</clus>
<clus scale="  108.124">  2  6  1 -1</clus>
<clus scale="  112.661">  1  3  2 -1</clus>
</clustering>
</event>
<event>
 6    0  0.3800129E+002  0.1656895E+03  0.7546771E-02  0.1182419E+00
         21   -1    0    0  503  502  0.00000000000E+00  0.00000000000E+00  0.95605195135E+02  0.95605195135E+02  0.00000000000E+00 0.  1.
          2   -1    0    0  505    0 -0.00000000000E+00 -0.00000000000E+00 -0.99019940188E+03  0.99019940188E+03  0.00000000000E+00 0. -1.
         21    1    1    2  503  501 -0.11944720520E+03 -0.73234756248E+02 -0.69014324702E+01  0.14028041247E+03  0.00000000000E+00 0.  1.
         21    1    1    2  504  502 -0.42023160012E+02  0.14615693098E+02 -0.34150521092E+02  0.56087632799E+02  0.00000000000E+00 0. -1.
         21    1    1    2  505  504 -0.23851143799E+02  0.53887963175E+02 -0.29827765696E+03  0.30404333618E+03  0.00000000000E+00 0. -1.
          2    1    1    2  501    0  0.18532150901E+03  0.47310999742E+01 -0.55526459623E+03  0.58539321557E+03  0.00000000000E+00 0. -1.
<scales pt_clust_3="14000.00000" pt_clust_4="44.49230" pt_clust_5="59.97516" pt_clust_6="165.68947"></scales>
<clustering>
<clus scale="   44.492">  1  4  2 -1</clus>
<clus scale="   59.975">  2  5  1 -1</clus>
<clus scale="  165.689">  2  6  1 -1</clus>
<clus scale="   44.492">  1  3  2 -1</clus>
</clustering>
</event>
<event>
 6    0  0.3800129E+002  0.9130422E+02  0.7546771E-02  0.1299724E+00
          2   -1    0    0  504    0 -0.00000000000E+00  0.00000000000E+00  0.25927467817E+03  0.25927467817E+03  0.00000000000E+00 0.  1.
         21   -1    0    0  505  502  0.00000000000E+00 -0.00000000000E+00 -0.48359523674E+03  0.48359523674E+03  0.00000000000E+00 0. -1.
         21    1    1    2  503  501 -0.21138312472E+02  0.53003296316E+02 -0.38444555373E+02  0.68805243349E+02  0.00000000000E+00 0.  1.
         21    1    1    2  504  502  0.14580983949E+01 -0.30368811535E+02 -0.89512196603E+02  0.94534777229E+02  0.00000000000E+00 0. -1.
         21    1    1    2  505  503 -0.33933508439E+02  0.59313865707E+02 -0.32431378840E+03  0.33143483675E+03  0.00000000000E+00 0. -1.
          2    1    1    2  501    0  0.53613722516E+02 -0.81948350488E+02  0.22794998181E+03  0.24809505758E+03  0.00000000000E+00 0.  1.
<scales pt_clust_3="91.30422" pt_clust_4="30.40380" pt_clust_5="47.09904" pt_clust_6="14000.00000"></scales>
<clustering>
<clus scale="   30.404">  2  4  1 -1</clus>
<clus scale="   47.099">  2  5  1 -1</clus>
<clus scale="   91.304">  2  3  1 -1</clus>
<clus scale="   30.404">  2  3  1 -1</clus>
</clustering>
</event>
<event>
 6    0  0.3800129E+002  0.7151869E+02  0.7546771E-02  0.1355004E+00
          1   -1    0    0  504    0 -0.00000000000E+00  0.00000000000E+00  0.14215291987E+04  0.14215291987E+04  0.00000000000E+00 0. -1.
         21   -1    0    0  503  502  0.00000000000E+00 -0.00000000000E+00 -0.75103654714E+02  0.75103654714E+02  0.00000000000E+00 0. -1.
         21    1    1    2  503  501  0.37853760314E+02  0.92523146803E+02 -0.20207318342E+02  0.10198909539E+03  0.00000000000E+00 0. -1.
         21    1    1    2  504  505  0.16492968861E+02  0.28785222407E+02  0.26169316460E+03  0.26378764082E+03  0.00000000000E+00 0.  1.
         21    1    1    2  505  502 -0.13422471003E+00 -0.35401319328E+02  0.19004632090E+02  0.40180187497E+02  0.00000000000E+00 0. -1.
          1    1    1    2  501    0 -0.54212504465E+02 -0.85907049882E+02  0.10859350656E+04  0.10906759297E+04  0.00000000000E+00 0. -1.
<scales pt_clust_3="71.51869" pt_clust_4="33.17540" pt_clust_5="34.66741" pt_clust_6="14000.00000"></scales>
<clustering>
<clus scale="   33.175">  1  4  2 -1</clus>
<clus scale="   34.667">  2  5  1 -1</clus>
<clus scale="   71.519">  2  3  1 -1</clus>
<clus scale="   34.667">  2  3  1 -1</clus>
</clustering>
</event>
<event>
 6    0  0.3800129E+002  0.1223337E+03  0.7546771E-02  0.1239296E+00
          2   -1    0    0  503    0 -0.00000000000E+00  0.00000000000E+00  0.10668990562E+04  0.10668990562E+04  0.00000000000E+00 0. -1.
         21   -1    0    0  505  502  0.00000000000E+00 -0.00000000000E+00 -0.25561732486E+03  0.25561732486E+03  0.00000000000E+00 0.  1.
         21    1    1    2  503  504  0.52119100158E+02  0.59105642244E+01  0.11364857054E+03  0.12516921729E+03  0.00000000000E+00 0. -1.
         21    1    1    2  504  502  0.85833082669E+02  0.66696072991E+02 -0.20477573239E+03  0.23183784162E+03  0.00000000000E+00 0.  1.
         21    1    1    2  505  501 -0.24449910809E+02  0.38876638313E+02 -0.31948850696E+01  0.46036924698E+02  0.00000000000E+00 0. -1.
          2    1    1    2  501    0 -0.11350227202E+03 -0.11148327553E+03  0.90560377829E+03  0.91947239748E+03  0.00000000000E+00 0. -1.
<scales pt_clust_3="51.96685" pt_clust_4="14000.00000" pt_clust_5="45.92593" pt_clust_6="122.33366"></scales>
<clustering>
<clus scale="   45.926">  2  5  1 -1</clus>
<clus scale="   51.967">  1  3  2 -1</clus>
<clus scale="  122.334">  1  6  2 -1</clus>
<clus scale="   45.926">  2  3  1 -1</clus>
</clustering>
</event>
<event>
 6    0  0.3800129E+002  0.9520466E+02  0.7546771E-02  0.1290716E+00
          2   -1    0    0  505    0 -0.00000000000E+00  0.00000000000E+00  0.21692353691E+04  0.21692353691E+04  0.00000000000E+00 0.  1.
         21   -1    0    0  504  502  0.00000000000E+00 -0.00000000000E+00 -0.80403949680E+02  0.80403949680E+02  0.00000000000E+00 0.  1.
         21    1    1    2  503  502  0.12947449507E+03  0.66135340609E+02  0.47487516332E+02  0.15294637086E+03  0.00000000000E+00 0.  1.
         21    1    1    2  504  501 -0.52091026204E+02 -0.31595566998E+02  0.23126765181E+02  0.65165958389E+02  0.00000000000E+00 0. -1.
         21    1    1    2  505  503  0.83792097471E+01  0.48114934713E+02  0.14565859291E+04  0.14574044829E+04  0.00000000000E+00 0.  1.
          2    1    1    2  501    0 -0.85762678611E+02 -0.82654708324E+02  0.56163120878E+03  0.57412250655E+03  0.00000000000E+00 0.  1.
<scales pt_clust_3="95.20466" pt_clust_4="58.97759" pt_clust_5="48.83910" pt_clust_6="14000.00000"></scales>
<clustering>
<clus scale="   48.839">  1  5  2 -1</clus>
<clus scale="   58.978">  2  4  1 -1</clus>
<clus scale="   95.205">  2  3  1 -1</clus>
<clus scale="   58.978">  2  3  1 -1</clus>
</clustering>
</event>
<event>
 6    0  0.3800129E+002  0.6678945E+02  0.7546771E-02  0.1371364E+00
         21   -1    0    0  504  502  0.00000000000E+00  0.00000000000E+00  0.14614840331E+03  0.14614840331E+03  0.00000000000E+00 0. -1.
          2   -1    0    0  503    0 -0.00000000000E+00 -0.00000000000E+00 -0.31024314784E+04  0.31024314784E+04  0.00000000000E+00 0. -1.
         21    1    1    2  503  505 -0.25000055057E+02  0.18416331966E+02 -0.51311166565E+03  0.51405033359E+03  0.00000000000E+00 0. -1.
         21    1    1    2  504  501  0.32127500045E+02 -0.15826905269E+02  0.54056747612E+02  0.64844422674E+02  0.00000000000E+00 0. -1.
         21    1    1    2  505  502 -0.97746932574E+02  0.74067796944E+01  0.57290002159E+02  0.11354059873E+03  0.00000000000E+00 0. -1.
          2    1    1    2  501    0  0.90619487586E+02 -0.99962063910E+01 -0.25545181592E+04  0.25561445267E+04  0.00000000000E+00 0. -1.
<scales pt_clust_3="31.05099" pt_clust_4="35.75066" pt_clust_5="66.78945" pt_clust_6="14000.00000"></scales>
<clustering>
<clus scale="   31.051">  2  3  1 -1</clus>
<clus scale="   35.751">  1  4  2 -1</clus>
<clus scale="   66.789">  1  5  2 -1</clus>
<clus scale="   35.751">  1  3  2 -1</clus>
</clustering>
</event>
<event>
 6    0  0.3800129E+002  0.7337827E+02  0.7546771E-02  0.1348968E+00
         21   -1    0    0  505  502  0.00000000000E+00  0.00000000000E+00  0.36012466926E+04  0.36012466926E+04  0.00000000000E+00 0. -1.
          1   -1    0    0  503    0 -0.00000000000E+00 -0.00000000000E+00 -0.56734029923E+02  0.56734029923E+02  0.00000000000E+00 0. -1.
         21    1    1    2  503  502 -0.42563112278E+02 -0.30289619999E+01  0.37937454753E+03  0.38176673566E+03  0.00000000000E+00 0. -1.
         21    1    1    2  504  501 -0.92805129395E+02  0.56071787738E+02  0.26048077080E+03  0.28214724769E+03  0.00000000000E+00 0. -1.
         21    1    1    2  505  504  0.69116705190E+02 -0.30393421528E+02  0.29211570908E+04  0.29221327191E+04  0.00000000000E+00 0. -1.
          1    1    1    2  501    0  0.66251536483E+02 -0.22649404210E+02 -0.16499746520E+02  0.71934019995E+02  0.00000000000E+00 0. -1.
<scales pt_clust_3="42.67075" pt_clust_4="14000.00000" pt_clust_5="45.04353" pt_clust_6="73.37827"></scales>
<clustering>
<clus scale="   42.671">  1  3  2 -1</clus>
<clus scale="   45.044">  1  5  2 -1</clus>
<clus scale="   73.378">  2  6  1 -1</clus>
<clus scale="   42.671">  1  3  2 -1</clus>
</clustering>
</event>
<event>
 6    0  0.3800129E+002  0.1526775E+03  0.7546771E-02  0.1197221E+00
          2   -1    0    0  503    0 -0.00000000000E+00  0.00000000000E+00  0.31639552543E+04  0.31639552543E+04  0.00000000000E+00 0.  1.
         21   -1    0    0  504  502  0.00000000000E+00 -0.00000000000E+00 -0.65145927480E+02  0.65145927480E+02  0.00000000000E+00 0.  1.
         21    1    1    2  503  505  0.44077335866E+02 -0.24163638803E+02  0.99324773855E+03  0.99451886011E+03  0.00000000000E+00 0.  1.
         21    1    1    2  504  501  0.10877920005E+03 -0.18672822487E+01  0.53799058183E+01  0.10892816208E+03  0.00000000000E+00 0.  1.
         21    1    1    2  505  502  0.44241171405E+02  0.12122982366E+02  0.58054508262E+02  0.73990363415E+02  0.00000000000E+00 0. -1.
          2    1    1    2  501    0 -0.19709770732E+03  0.13907938686E+02  0.20421271742E+04  0.20516637962E+04  0.00000000000E+00 0.  1.
<scales pt_clust_3="50.63390" pt_clust_4="152.67751" pt_clust_5="45.87208" pt_clust_6="14000.00000"></scales>
<clustering>
<clus scale="   45.872">  2  5  1 -1</clus>
<clus scale="   50.634">  1  3  2 -1</clus>
<clus scale="  152.678">  2  4  1 -1</clus>
<clus scale="   45.872">  2  3  1 -1</clus>
</clustering>
</event>
<event>
 6    0  0.3800129E+002  0.1657462E+03  0.7546771E-02  0.1182358E+00
         21   -1    0    0  504  502  0.00000000000E+00  0.00000000000E+00  0.11927794407E+04  0.11927794407E+04  0.00000000000E+00 0.  1.
          2   -1    0    0  505    0 -0.00000000000E+00 -0.00000000000E+00 -0.33755236207E+03  0.33755236207E+03  0.00000000000E+00 0. -1.
         21    1    1    2  503  501 -0.27682579495E+02 -0.54965388919E+02  0.75853675138E+03  0.76102925199E+03  0.00000000000E+00 0.  1.
         21    1    1    2  504  503  0.20020673685E+02 -0.31303072725E+02  0.33969298394E+03  0.34171923135E+03  0.00000000000E+00 0.  1.
         21    1    1    2  505  502 -0.80704905928E+02 -0.88785898335E+02 -0.62214626047E+01  0.12014542930E+03  0.00000000000E+00 0. -1.
          2    1    1    2  501    0  0.88366811738E+02  0.17505435998E+03 -0.23678119414E+03  0.30743789009E+03  0.00000000000E+00 0. -1.
<scales pt_clust_3="83.45891" pt_clust_4="37.15790" pt_clust_5="14000.00000" pt_clust_6="165.74618"></scales>
<clustering>
<clus scale="   37.158">  1  4  2 -1</clus>
<clus scale="   83.459">  1  3  2 -1</clus>
<clus scale="  165.746">  2  6  1 -1</clus>
<clus scale="   37.158">  1  3  2 -1</clus>
</clustering>
</event>
<event>
 6    0  0.3800129E+002  0.1621016E+03  0.7546771E-02  0.1186344E+00
         21   -1    0    0  504  502  0.00000000000E+00  0.00000000000E+00  0.24342316770E+03  0.24342316770E+03  0.00000000000E+00 0. -1.
          2   -1    0    0  502    0 -0.00000000000E+00 -0.00000000000E+00 -0.12204410679E+04  0.12204410679E+04  0.00000000000E+00 0.  1.
         21    1    1    2  503  505  0.75535657434E+02  0.47469926298E+02  0.69541046701E+02  0.11311492661E+03  0.00000000000E+00 0. -1.
         21    1    1    2  504  503  0.52708495939E+02  0.25174161586E+02  0.14084692779E+03  0.15247878876E+03  0.00000000000E+00 0. -1.
         21    1    1    2  505  501 -0.49709103302E+02 -0.16994239303E+02 -0.22444422975E+03  0.23051032816E+03  0.00000000000E+00 0.  1.
          2    1    1    2  501    0 -0.78535050072E+02 -0.55649848581E+02 -0.96296164496E+03  0.96776019209E+03  0.00000000000E+00 0.  1.
<scales pt_clust_3="54.60004" pt_clust_4="54.60004" pt_clust_5="47.85414" pt_clust_6="160.99543"></scales>
<clustering>
<clus scale="   47.854">  5  6 -1 -1</clus>
<clus scale="   54.600">  3  4 -1 -1</clus>
<clus scale="  160.995">  2  5  1 -1</clus>
<clus scale="  162.102">  1  3  2 -1</clus>
</clustering>
</event>
<event>
 6    0  0.4752171E+002  0.7820214E+02  0.7546771E-02  0.1334232E+00
         21   -1    0    0  503  502  0.00000000000E+00  0.00000000000E+00  0.71093929289E+03  0.71093929289E+03  0.00000000000E+00 0.  1.
         -1   -1    0    0    0  501 -0.00000000000E+00 -0.00000000000E+00 -0.82001111602E+03  0.82001111602E+03  0.00000000000E+00 0. -1.
         21    1    1    2  503  501 -0.30017807795E+02 -0.34334101555E+02  0.51052800663E+01  0.45890774661E+02  0.00000000000E+00 0.  1.
         21    1    1    2  504  505 -0.81086029967E+02 -0.34142771305E+02  0.61760591623E+03  0.62384111828E+03  0.00000000000E+00 0.  1.
         21    1    1    2  505  502  0.46747364062E+02  0.24092996882E+02  0.51757436976E+02  0.73787673955E+02  0.00000000000E+00 0.  1.
         -1    1    1    2    0  504  0.64356473700E+02  0.44383875978E+02 -0.78354045639E+03  0.78743084202E+03  0.00000000000E+00 0. -1.
<scales pt_clust_3="45.60591" pt_clust_4="78.20214" pt_clust_5="48.73091" pt_clust_6="14000.00000"></scales>
<clustering>
<clus scale="   45.606">  1  3  2 -1</clus>
<clus scale="   48.731">  1  5  2 -1</clus>
<clus scale="   78.202">  1  4  2 -1</clus>
<clus scale="   45.606">  1  3  2 -1</clus>
</clustering>
</event>
<event>
 6    0  0.3800129E+002  0.1124394E+03  0.7546771E-02  0.1256118E+00
         -2   -1    0    0    0  501 -0.00000000000E+00  0.00000000000E+00  0.12940185894E+04  0.12940185894E+04  0.00000000000E+00 0. -1.
         21   -1    0    0  505  502  0.00000000000E+00 -0.00000000000E+00 -0.84723142175E+02  0.84723142175E+02  0.00000000000E+00 0. -1.
         21    1    1    2  503  501  0.77140844936E+02  0.62754878910E+02  0.53868650605E+03  0.54778831366E+03  0.00000000000E+00 0.  1.
         21    1    1    2  504  502 -0.31260163166E+00  0.71374726382E+02 -0.27316033939E+02  0.76423916387E+02  0.00000000000E+00 0. -1.
         21    1    1    2  505  503 -0.36708984878E+02  0.11141401326E+02 -0.21437699274E+01  0.38422339125E+02  0.00000000000E+00 0. -1.
         -2    1    1    2    0  504 -0.40119258426E+02 -0.14527100662E+03  0.70006874508E+03  0.71610716244E+03  0.00000000000E+00 0. -1.
<scales pt_clust_3="112.43944" pt_clust_4="85.71254" pt_clust_5="38.36249" pt_clust_6="14000.00000"></scales>
<clustering>
<clus scale="   38.362">  2  5  1 -1</clus>
<clus scale="   85.713">  2  4  1 -1</clus>
<clus scale="  112.439">  1  3  2 -1</clus>
<clus scale="   38.362">  2  3  1 -1</clus>
</clustering>
</event>
<event>
 6    0  0.3800129E+002  0.9116394E+02  0.7546771E-02  0.1300057E+00
         21   -1    0    0  501  502  0.00000000000E+00  0.00000000000E+00  0.13752475957E+04  0.13752475957E+04  0.00000000000E+00 0. -1.
          4   -1    0    0  505    0 -0.00000000000E+00 -0.00000000000E+00 -0.18892974741E+03  0.18892974741E+03  0.00000000000E+00 0. -1.
         21    1    1    2  503  504 -0.60292664832E+02  0.48738373009E+02  0.37855331293E+03  0.38641072083E+03  0.00000000000E+00 0. -1.
         21    1    1    2  504  502  0.10351384481E+03 -0.20791806927E+02  0.95251738195E+03  0.95835107253E+03  0.00000000000E+00 0. -1.
         21    1    1    2  505  503  0.28784434704E+02 -0.34548848065E+02  0.12211551373E+02  0.46597087578E+02  0.00000000000E+00 0.  1.
          4    1    1    2  501    0 -0.72005614684E+02  0.66022819824E+01 -0.15696439792E+03  0.17281846223E+03  0.00000000000E+00 0. -1.
<scales pt_clust_3="14000.00000" pt_clust_4="91.16394" pt_clust_5="44.96851" pt_clust_6="51.71559"></scales>
<clustering>
<clus scale="   44.969">  2  5  1 -1</clus>
<clus scale="   51.716">  2  6  1 -1</clus>
<clus scale="   91.164">  1  4  2 -1</clus>
<clus scale="   91.164">  1  3  2 -1</clus>
</clustering>
</event>
<event>
 6    0  0.3800129E+002  0.1127796E+03  0.7546771E-02  0.1255507E+00
         21   -1    0    0  503  502  0.00000000000E+00  0.00000000000E+00  0.70325331270E+03  0.70325331270E+03  0.00000000000E+00 0. -1.
         -1   -1    0    0    0  501 -0.00000000000E+00 -0.00000000000E+00 -0.45673672102E+03  0.45673672102E+03  0.00000000000E+00 0. -1.
         21    1    1    2  503  501  0.19954962239E+02 -0.10004392370E+03  0.65507998636E+03  0.66297569768E+03  0.00000000000E+00 0. -1.
         21    1    1    2  504  502 -0.17392324583E+02  0.61342650816E+02 -0.37256706381E+01  0.63869354038E+02  0.00000000000E+00 0. -1.
         21    1    1    2  505  504 -0.32100244676E+02  0.47371951955E+02 -0.47180886950E+02  0.74165784791E+02  0.00000000000E+00 0. -1.
         -1    1    1    2    0  505  0.29537607021E+02 -0.86706790666E+01 -0.35765683710E+03  0.35897919720E+03  0.00000000000E+00 0. -1.
<scales pt_clust_3="102.59333" pt_clust_4="40.63343" pt_clust_5="40.63343" pt_clust_6="30.78394"></scales>
<clustering>
<clus scale="   30.784">  2  6  1 -1</clus>
<clus scale="   40.633">  4  5 -1 -1</clus>
<clus scale="  102.593">  1  3  2 -1</clus>
<clus scale="  102.593">  1  3  2 -1</clus>
</clustering>
</event>
<event>
 6    0  0.3800129E+002  0.2156484E+03  0.7546771E-02  0.1137170E+00
         21   -1    0    0  503  502  0.00000000000E+00  0.00000000000E+00  0.10896620041E+04  0.10896620041E+04  0.00000000000E+00 0.  1.
          1   -1    0    0  505    0 -0.00000000000E+00 -0.00000000000E+00 -0.62161107717E+03  0.62161107717E+03  0.00000000000E+00 0. -1.
         21    1    1    2  503  504  0.94422168308E+02  0.67190764288E+02  0.25345686353E+03  0.27869432420E+03  0.00000000000E+00 0.  1.
         21    1    1    2  504  501  0.10448169951E+03  0.90210278866E+02  0.77231113749E+03  0.78455007044E+03  0.00000000000E+00 0.  1.
         21    1    1    2  505  502 -0.34409625223E+02 -0.14871156619E+02  0.11015525909E+02  0.39070646504E+02  0.00000000000E+00 0.  1.
          1    1    1    2  501    0 -0.16449424260E+03 -0.14252988654E+03 -0.56873259997E+03  0.60895804015E+03  0.00000000000E+00 0. -1.
<scales pt_clust_3="106.74469" pt_clust_4="215.64840" pt_clust_5="37.48565" pt_clust_6="14000.00000"></scales>
<clustering>
<clus scale="   37.486">  1  5  2 -1</clus>
<clus scale="  106.745">  1  3  2 -1</clus>
<clus scale="  215.648">  1  4  2 -1</clus>
<clus scale="   37.486">  1  3  2 -1</clus>
</clustering>
</event>
<event>
 6    0  0.3800129E+002  0.1301887E+03  0.7546771E-02  0.1227176E+00
         21   -1    0    0  503  502  0.00000000000E+00  0.00000000000E+00  0.16897806667E+02  0.16897806667E+02  0.00000000000E+00 0. -1.
         -1   -1    0    0    0  501 -0.00000000000E+00 -0.00000000000E+00 -0.26551320429E+04  0.26551320429E+04  0.00000000000E+00 0. -1.
         21    1    1    2  503  505  0.74339952758E+01 -0.31710905432E+02 -0.51307635078E+02  0.60772684870E+02  0.00000000000E+00 0. -1.
         21    1    1    2  504  501  0.17892947701E+02  0.26082417751E+02 -0.13116683650E+04  0.13120496751E+04  0.00000000000E+00 0. -1.
         21    1    1    2  505  504 -0.61500952917E+02 -0.81751427355E+02 -0.25769042536E+03  0.27725442901E+03  0.00000000000E+00 0. -1.
         -1    1    1    2    0  502  0.36174009941E+02  0.87379915036E+02 -0.10175678108E+04  0.10219530606E+04  0.00000000000E+00 0. -1.
<scales pt_clust_3="30.83093" pt_clust_4="31.62989" pt_clust_5="30.83093" pt_clust_6="118.16733"></scales>
<clustering>
<clus scale="   30.831">  3  5 -1 -1</clus>
<clus scale="   31.630">  2  4  1 -1</clus>
<clus scale="  118.167">  2  6  1 -1</clus>
<clus scale="  130.189">  1  3  2 -1</clus>
</clustering>
</event>
<event>
 6    0  0.3800129E+002  0.8327565E+02  0.7546771E-02  0.1320004E+00
          2   -1    0    0  505    0 -0.00000000000E+00  0.00000000000E+00  0.15216119993E+04  0.15216119993E+04  0.00000000000E+00 0. -1.
         21   -1    0    0  501  502  0.00000000000E+00 -0.00000000000E+00 -0.20564017414E+02  0.20564017414E+02  0.00000000000E+00 0. -1.
         21    1    1    2  503  504  0.64514886504E+02  0.34198674459E+02  0.15774485021E+03  0.17382507783E+03  0.00000000000E+00 0. -1.
         21    1    1    2  504  502 -0.29149266554E+02  0.50758276030E+02  0.97590941232E+02  0.11379839251E+03  0.00000000000E+00 0. -1.
         21    1    1    2  505  503 -0.32110375510E+02  0.23482713640E+02  0.29489504129E+03  0.29756612615E+03  0.00000000000E+00 0.  1.
          2    1    1    2  501    0 -0.32552444408E+01 -0.10843966413E+03  0.95081714918E+03  0.95698642025E+03  0.00000000000E+00 0. -1.
<scales pt_clust_3="83.27565" pt_clust_4="61.68423" pt_clust_5="39.78083" pt_clust_6="14000.00000"></scales>
<clustering>
<clus scale="   39.781">  1  5  2 -1</clus>
<clus scale="   61.684">  2  4  1 -1</clus>
<clus scale="   83.276">  2  3  1 -1</clus>
<clus scale="   61.684">  2  3  1 -1</clus>
</clustering>
</event>
<event>
 6    0  0.3800129E+002  0.1304685E+03  0.7546771E-02  0.1226762E+00
         21   -1    0    0  503  502  0.00000000000E+00  0.00000000000E+00  0.58057656563E+02  0.58057656563E+02  0.00000000000E+00 0. -1.
          2   -1    0    0  504    0 -0.00000000000E+00 -0.00000000000E+00 -0.16257236294E+04  0.16257236294E+04  0.00000000000E+00 0.  1.
         21    1    1    2  503  501  0.40520783191E+02 -0.43112406411E+02 -0.91072147704E+02  0.10860363504E+03  0.00000000000E+00 0.  1.
         21    1    1    2  504  505 -0.31544230824E+02 -0.20600707490E+02 -0.17621410978E+03  0.18019667071E+03  0.00000000000E+00 0. -1.
         21    1    1    2  505  502  0.97701520683E+02  0.43955282413E+02 -0.18743661845E+02  0.10876110911E+03  0.00000000000E+00 0. -1.
          2    1    1    2  501    0 -0.10667807305E+03  0.19757831488E+02 -0.12816360535E+04  0.12862198711E+04  0.00000000000E+00 0.  1.
<scales pt_clust_3="58.76700" pt_clust_4="37.67529" pt_clust_5="14000.00000" pt_clust_6="130.46849"></scales>
<clustering>
<clus scale="   37.675">  2  4  1 -1</clus>
<clus scale="   58.767">  1  3  2 -1</clus>
<clus scale="  130.468">  2  6  1 -1</clus>
<clus scale="   58.767">  1  3  2 -1</clus>
</clustering>
</event>
<event>
 6    0  0.3800129E+002  0.1905528E+03  0.7546771E-02  0.1157964E+00
          2   -1    0    0  505    0 -0.00000000000E+00  0.00000000000E+00  0.40175097173E+03  0.40175097173E+03  0.00000000000E+00 0. -1.
         21   -1    0    0  503  502  0.00000000000E+00 -0.00000000000E+00 -0.18699018900E+04  0.18699018900E+04  0.00000000000E+00 0. -1.
         21    1    1    2  503  501 -0.48754668065E+02  0.11126112831E+03 -0.81629159869E+03  0.82528057679E+03  0.00000000000E+00 0. -1.
         21    1    1    2  504  502  0.20459264135E+03 -0.16358365035E+01 -0.96265129905E+03  0.98415362033E+03  0.00000000000E+00 0. -1.
         21    1    1    2  505  504  0.22768995879E+02  0.31159289310E+02 -0.32483757800E+02  0.50443265204E+02  0.00000000000E+00 0. -1.
          2    1    1    2  501    0 -0.17860696916E+03 -0.14078458112E+03  0.34327573730E+03  0.41177539938E+03  0.00000000000E+00 0. -1.
<scales pt_clust_3="121.69711" pt_clust_4="14000.00000" pt_clust_5="38.59182" pt_clust_6="190.55278"></scales>
<clustering>
<clus scale="   38.592">  1  5  2 -1</clus>
<clus scale="  121.697">  2  3  1 -1</clus>
<clus scale="  190.553">  1  6  2 -1</clus>
<clus scale="  121.697">  2  3  1 -1</clus>
</clustering>
</event>
<event>
 6    0  0.3800129E+002  0.1433685E+03  0.7546771E-02  0.1208867E+00
         -2   -1    0    0    0  501 -0.00000000000E+00  0.00000000000E+00  0.57698669214E+03  0.57698669214E+03  0.00000000000E+00 0.  1.
         21   -1    0    0  504  502  0.00000000000E+00 -0.00000000000E+00 -0.23777796565E+03  0.23777796565E+03  0.00000000000E+00 0.  1.
         21    1    1    2  503  501 -0.29409230874E+02  0.95470473891E+01  0.17169946501E+02  0.35367443183E+02  0.00000000000E+00 0. -1.
         21    1    1    2  504  505  0.38538738172E+02  0.10062069653E+02 -0.26088182332E+02  0.47613788371E+02  0.00000000000E+00 0. -1.
         21    1    1    2  505  503  0.45857858450E+02 -0.12944302900E+03 -0.15894185716E+03  0.21004988668E+03  0.00000000000E+00 0.  1.
         -2    1    1    2    0  502 -0.54987365748E+02  0.10983391195E+03  0.50706881948E+03  0.52173353955E+03  0.00000000000E+00 0.  1.
<scales pt_clust_3="30.92004" pt_clust_4="39.32301" pt_clust_5="14000.00000" pt_clust_6="143.36851"></scales>
<clustering>
<clus scale="   30.920">  1  3  2 -1</clus>
<clus scale="   39.323">  2  4  1 -1</clus>
<clus scale="  143.369">  1  6  2 -1</clus>
<clus scale="   39.323">  2  3  1 -1</clus>
</clustering>
</event>
<event>
 6    0  0.3800129E+002  0.1074412E+03  0.7546771E-02  0.1265383E+00
         21   -1    0    0  503  502  0.00000000000E+00  0.00000000000E+00  0.32570684441E+04  0.32570684441E+04  0.00000000000E+00 0.  1.
          2   -1    0    0  504    0 -0.00000000000E+00 -0.00000000000E+00 -0.11147849421E+03  0.11147849421E+03  0.00000000000E+00 0.  1.
         21    1    1    2  503  501 -0.90524368838E+02 -0.83319498006E+01  0.28626399946E+04  0.28640830682E+04  0.00000000000E+00 0.  1.
         21    1    1    2  504  505 -0.78358798893E+02  0.55050283236E+02 -0.24933662328E+02  0.98956164868E+02  0.00000000000E+00 0.  1.
         21    1    1    2  505  502 -0.11214949611E+02  0.30225338562E+02  0.15148101762E+03  0.15487364168E+03  0.00000000000E+00 0.  1.
          2    1    1    2  501    0  0.18009811734E+03 -0.76943671997E+02  0.15640259991E+03  0.25063406351E+03  0.00000000000E+00 0.  1.
<scales pt_clust_3="107.44120" pt_clust_4="96.08029" pt_clust_5="32.23889" pt_clust_6="14000.00000"></scales>
<clustering>
<clus scale="   32.239">  1  5  2 -1</clus>
<clus scale="   96.080">  2  4  1 -1</clus>
<clus scale="  107.441">  1  3  2 -1</clus>
<clus scale="   32.239">  1  3  2 -1</clus>
</clustering>
</event>
<event>
 6    0  0.3800129E+002  0.2022429E+03  0.7546771E-02  0.1147860E+00
         21   -1    0    0  505  502  0.00000000000E+00  0.00000000000E+00  0.21667456089E+03  0.21667456089E+03  0.00000000000E+00 0.  1.
          2   -1    0    0  503    0 -0.00000000000E+00 -0.00000000000E+00 -0.25840443783E+04  0.25840443783E+04  0.00000000000E+00 0. -1.
         21    1    1    2  503  504  0.34559242352E+02  0.31351988790E+02 -0.95905313825E+02  0.10665419660E+03  0.00000000000E+00 0. -1.
         21    1    1    2  504  502 -0.46898339841E+02  0.52720852661E+02 -0.78210975114E+02  0.10533707426E+03  0.00000000000E+00 0.  1.
         21    1    1    2  505  501  0.65853251871E+02  0.14919942319E+03  0.15696662665E+03  0.22635291150E+03  0.00000000000E+00 0.  1.
          2    1    1    2  501    0 -0.53514154382E+02 -0.23327226464E+03 -0.23502201551E+04  0.23623747568E+04  0.00000000000E+00 0. -1.
<scales pt_clust_3="46.66142" pt_clust_4="70.59953" pt_clust_5="202.24292" pt_clust_6="14000.00000"></scales>
<clustering>
<clus scale="   46.661">  2  3  1 -1</clus>
<clus scale="   70.600">  1  4  2 -1</clus>
<clus scale="  202.243">  1  5  2 -1</clus>
<clus scale="   70.600">  1  3  2 -1</clus>
</clustering>
</event>
<event>
 6    0  0.3800129E+002  0.1638862E+03  0.7546771E-02  0.1184378E+00
         21   -1    0    0  501  502  0.00000000000E+00  0.00000000000E+00  0.13520683281E+03  0.13520683281E+03  0.00000000000E+00 0.  1.
          1   -1    0    0  504    0 -0.00000000000E+00 -0.00000000000E+00 -0.83053436156E+03  0.83053436156E+03  0.00000000000E+00 0. -1.
         21    1    1    2  503  502  0.84840170850E+02  0.78899632366E+01  0.14492073045E+02  0.86429892346E+02  0.00000000000E+00 0.  1.
         21    1    1    2  504  505  0.30321276434E+02  0.26564741050E+02 -0.13369261304E+03  0.13963803226E+03  0.00000000000E+00 0. -1.
         21    1    1    2  505  503 -0.22700505295E+02  0.14497051623E+03 -0.20056032544E+02  0.14810134354E+03  0.00000000000E+00 0.  1.
          1    1    1    2  501    0 -0.92460941989E+02 -0.17942522052E+03 -0.55607095621E+03  0.59157192622E+03  0.00000000000E+00 0. -1.
<scales pt_clust_3="86.90746" pt_clust_4="40.31210" pt_clust_5="163.88619" pt_clust_6="14000.00000"></scales>
<clustering>
<clus scale="   40.312">  2  4  1 -1</clus>
<clus scale="   86.907">  1  3  2 -1</clus>
<clus scale="  163.886">  1  5  2 -1</clus>
<clus scale="   86.907">  1  3  2 -1</clus>
</clustering>
</event>
<event>
 6    0  0.3800129E+002  0.1869820E+03  0.7546771E-02  0.1161212E+00
          2   -1    0    0  502    0 -0.00000000000E+00  0.00000000000E+00  0.20004348275E+04  0.20004348275E+04  0.00000000000E+00 0. -1.
         21   -1    0    0  504  502  0.00000000000E+00 -0.00000000000E+00 -0.13523404272E+03  0.13523404272E+03  0.00000000000E+00 0.  1.
         21    1    1    2  503  501  0.19143423370E+02 -0.54971277235E+02  0.45601344004E+03  0.45971357330E+03  0.00000000000E+00 0. -1.
         21    1    1    2  504  505  0.68755202909E+01  0.62727726635E+02 -0.78172580039E+02  0.10046388773E+03  0.00000000000E+00 0.  1.
         21    1    1    2  505  503 -0.54116494477E+01  0.12388584562E+03  0.52833567037E+02  0.13479011277E+03  0.00000000000E+00 0.  1.
          2    1    1    2  501    0 -0.20607294214E+02 -0.13164229502E+03  0.14345263578E+04  0.14407012964E+04  0.00000000000E+00 0. -1.
<scales pt_clust_3="33.76150" pt_clust_4="63.10341" pt_clust_5="179.86963" pt_clust_6="33.76150"></scales>
<clustering>
<clus scale="   33.762">  3  6 -1 -1</clus>
<clus scale="   63.103">  2  4  1 -1</clus>
<clus scale="  179.870">  2  5  1 -1</clus>
<clus scale="   63.103">  2  3  1 -1</clus>
</clustering>
</event>
<event>
 6    0  0.3800129E+002  0.1031770E+03  0.7546771E-02  0.1273754E+00
          2   -1    0    0  505    0 -0.00000000000E+00  0.00000000000E+00  0.18498670614E+04  0.18498670614E+04  0.00000000000E+00 0.  1.
         21   -1    0    0  504  502  0.00000000000E+00 -0.00000000000E+00 -0.66950493507E+02  0.66950493507E+02  0.00000000000E+00 0.  1.
         21    1    1    2  503  501 -0.49125683867E+02 -0.18311925849E+02 -0.41574087741E+01  0.52592237938E+02  0.00000000000E+00 0. -1.
         21    1    1    2  504  503  0.73074823086E+01 -0.37451743933E+02 -0.17401789327E+02  0.41938701614E+02  0.00000000000E+00 0.  1.
         21    1    1    2  505  502  0.12266434679E+03 -0.66350658105E+01  0.54480673490E+03  0.55848450691E+03  0.00000000000E+00 0.  1.
          2    1    1    2  501    0 -0.80846145229E+02  0.62398735592E+02  0.12596690311E+04  0.12638021085E+04  0.00000000000E+00 0.  1.
<scales pt_clust_3="63.95047" pt_clust_4="38.15799" pt_clust_5="14000.00000" pt_clust_6="103.17699"></scales>
<clustering>
<clus scale="   38.158">  2  4  1 -1</clus>
<clus scale="   63.950">  2  3  1 -1</clus>
<clus scale="  103.177">  1  6  2 -1</clus>
<clus scale="   38.158">  2  3  1 -1</clus>
</clustering>
</event>
<event>
 6    0  0.3800129E+002  0.1707062E+03  0.7546771E-02  0.1177113E+00
         21   -1    0    0  504  502  0.00000000000E+00  0.00000000000E+00  0.28023554970E+03  0.28023554970E+03  0.00000000000E+00 0. -1.
          1   -1    0    0  502    0 -0.00000000000E+00 -0.00000000000E+00 -0.51722150962E+04  0.51722150962E+04  0.00000000000E+00 0.  1.
         21    1    1    2  503  505  0.14228413151E+03 -0.90443905691E+01  0.14370068320E+03  0.20242643462E+03  0.00000000000E+00 0. -1.
         21    1    1    2  504  503  0.26116864876E+02  0.56625979505E+02  0.79545426280E+02  0.10107456173E+03  0.00000000000E+00 0. -1.
         21    1    1    2  505  501 -0.13822692094E+03 -0.12689315612E+03 -0.51794958321E+03  0.55089048411E+03  0.00000000000E+00 0.  1.
          1    1    1    2  501    0 -0.30174075455E+02  0.79311567180E+02 -0.45972760728E+04  0.45980591655E+04  0.00000000000E+00 0.  1.
<scales pt_clust_3="14000.00000" pt_clust_4="62.35858" pt_clust_5="170.70622" pt_clust_6="84.94754"></scales>
<clustering>
<clus scale="   62.359">  1  4  2 -1</clus>
<clus scale="   84.948">  2  6  1 -1</clus>
<clus scale="  170.706">  2  5  1 -1</clus>
<clus scale="   62.359">  1  3  2 -1</clus>
</clustering>
</event>
<event>
 6    0  0.3800129E+002  0.3459452E+03  0.7546771E-02  0.1064292E+00
         21   -1    0    0  503  502  0.00000000000E+00  0.00000000000E+00  0.82341422345E+03  0.82341422345E+03  0.00000000000E+00 0.  1.
          2   -1    0    0  504    0 -0.00000000000E+00 -0.00000000000E+00 -0.14899304685E+04  0.14899304685E+04  0.00000000000E+00 0.  1.
         21    1    1    2  503  505  0.29974449386E+03 -0.20059198020E+03  0.66376602208E+03  0.75542652600E+03  0.00000000000E+00 0.  1.
         21    1    1    2  504  502  0.20057288922E+02 -0.34554604347E+02 -0.21075365442E+02  0.45171745029E+02  0.00000000000E+00 0.  1.
         21    1    1    2  505  501 -0.23505992627E+03  0.15504255883E+03 -0.10134608374E+03  0.29926976573E+03  0.00000000000E+00 0. -1.
          2    1    1    2  501    0 -0.84741856511E+02  0.80104025720E+02 -0.12078608180E+04  0.12134766552E+04  0.00000000000E+00 0.  1.
<scales pt_clust_3="345.94520" pt_clust_4="39.95392" pt_clust_5="14000.00000" pt_clust_6="85.29173"></scales>
<clustering>
<clus scale="   39.954">  2  4  1 -1</clus>
<clus scale="   85.292">  2  6  1 -1</clus>
<clus scale="  345.945">  1  3  2 -1</clus>
<clus scale="  345.945">  1  3  2 -1</clus>
</clustering>
</event>
<event>
 6    0  0.3800129E+002  0.1589905E+03  0.7546771E-02  0.1189841E+00
          1   -1    0    0  504    0 -0.00000000000E+00  0.00000000000E+00  0.64886637164E+03  0.64886637164E+03  0.00000000000E+00 0. -1.
         21   -1    0    0  505  502  0.00000000000E+00 -0.00000000000E+00 -0.76028452406E+03  0.76028452406E+03  0.00000000000E+00 0.  1.
         21    1    1    2  503  502  0.12869570212E+03  0.17127665342E+03 -0.63633959875E+03  0.67143604364E+03  0.00000000000E+00 0.  1.
         21    1    1    2  504  503  0.39906053783E+02 -0.33370835072E+02  0.11883810434E+02  0.53360385235E+02  0.00000000000E+00 0. -1.
         21    1    1    2  505  501 -0.16599075941E+02 -0.62539335773E+02 -0.59074526028E+02  0.87615623415E+02  0.00000000000E+00 0. -1.
          1    1    1    2  501    0 -0.15200267997E+03 -0.75366482574E+02  0.57211216193E+03  0.59673884341E+03  0.00000000000E+00 0. -1.
<scales pt_clust_3="14000.00000" pt_clust_4="52.02024" pt_clust_5="65.22368" pt_clust_6="158.99046"></scales>
<clustering>
<clus scale="   52.020">  1  4  2 -1</clus>
<clus scale="   65.224">  2  5  1 -1</clus>
<clus scale="  158.990">  1  6  2 -1</clus>
<clus scale="   65.224">  2  3  1 -1</clus>
</clustering>
</event>
<event>
 6    0  0.3800129E+002  0.1099564E+03  0.7546771E-02  0.1260651E+00
         21   -1    0    0  503  502  0.00000000000E+00  0.00000000000E+00  0.52799977532E+03  0.52799977532E+03  0.00000000000E+00 0.  1.
          2   -1    0    0  505    0 -0.00000000000E+00 -0.00000000000E+00 -0.11442285930E+04  0.11442285930E+04  0.00000000000E+00 0. -1.
         21    1    1    2  503  504  0.39689123419E+02 -0.40076146005E+02  0.89531321140E+02  0.10581673526E+03  0.00000000000E+00 0. -1.
         21    1    1    2  504  501  0.67417876088E+02 -0.10462328753E+02 -0.32652904320E+02  0.75636251227E+02  0.00000000000E+00 0.  1.
         21    1    1    2  505  502  0.53197523387E+01  0.82872182297E+02  0.40140947584E+03  0.40990933834E+03  0.00000000000E+00 0.  1.
          2    1    1    2  501    0 -0.11242675185E+03 -0.32333707539E+02 -0.10745167104E+04  0.10808660435E+04  0.00000000000E+00 0. -1.
<scales pt_clust_3="56.40323" pt_clust_4="109.95639" pt_clust_5="62.12554" pt_clust_6="14000.00000"></scales>
<clustering>
<clus scale="   56.403">  1  3  2 -1</clus>
<clus scale="   62.126">  1  5  2 -1</clus>
<clus scale="  109.956">  1  4  2 -1</clus>
<clus scale="   56.403">  1  3  2 -1</clus>
</clustering>
</event>
<event>
 6    0  0.3800129E+002  0.9458686E+02  0.7546771E-02  0.1292109E+00
          2   -1    0    0  505    0 -0.00000000000E+00  0.00000000000E+00  0.56693466958E+02  0.56693466958E+02  0.00000000000E+00 0.  1.
         21   -1    0    0  503  502  0.00000000000E+00 -0.00000000000E+00 -0.56644978256E+03  0.56644978256E+03  0.00000000000E+00 0.  1.
         21    1    1    2  503  501 -0.33809763738E+01  0.36100314246E+02 -0.24110626288E+03  0.24381733673E+03  0.00000000000E+00 0.  1.
         21    1    1    2  504  502 -0.18738188684E+02 -0.58115079820E+02 -0.12568157139E+03  0.13972952302E+03  0.00000000000E+00 0.  1.
         21    1    1    2  505  504  0.70938229039E+02 -0.62353386486E+02 -0.63184174051E+02  0.11363281655E+03  0.00000000000E+00 0.  1.
          2    1    1    2  501    0 -0.48819063982E+02  0.84368152059E+02 -0.79784307283E+02  0.12596357322E+03  0.00000000000E+00 0.  1.
<scales pt_clust_3="36.25829" pt_clust_4="47.77327" pt_clust_5="14000.00000" pt_clust_6="94.58686"></scales>
<clustering>
<clus scale="   36.258">  2  3  1 -1</clus>
<clus scale="   47.773">  2  4  1 -1</clus>
<clus scale="   94.587">  2  6  1 -1</clus>
<clus scale="   36.258">  2  3  1 -1</clus>
</clustering>
</event>
<event>
 6    0  0.3800129E+002  0.1019026E+03  0.7546771E-02  0.1276345E+00
         21   -1    0    0  505  502  0.00000000000E+00  0.00000000000E+00  0.14518307824E+03  0.14518307824E+03  0.00000000000E+00 0. -1.
          2   -1    0    0  503    0 -0.00000000000E+00 -0.00000000000E+00 -0.59954034053E+03  0.59954034053E+03  0.00000000000E+00 0. -1.
         21    1    1    2  503  502 -0.93200661535E+01  0.66847551537E+02  0.37609402198E+02  0.77265295659E+02  0.00000000000E+00 0. -1.
         21    1    1    2  504  501 -0.53665215973E+02  0.58476822908E+02 -0.12470703077E+03  0.14782197992E+03  0.00000000000E+00 0. -1.
         21    1    1    2  505  504  0.34463625080E+02 -0.42948523007E+01  0.62907541415E+02  0.71857817785E+02  0.00000000000E+00 0. -1.
          2    1    1    2  501    0  0.28521657047E+02 -0.12102952214E+03 -0.43016717513E+03  0.44777832541E+03  0.00000000000E+00 0. -1.
<scales pt_clust_3="65.68634" pt_clust_4="14000.00000" pt_clust_5="34.73021" pt_clust_6="101.90264"></scales>
<clustering>
<clus scale="   34.730">  1  5  2 -1</clus>
<clus scale="   65.686">  1  3  2 -1</clus>
<clus scale="  101.903">  2  6  1 -1</clus>
<clus scale="   34.730">  1  3  2 -1</clus>
</clustering>
</event>
<event>
 6    0  0.3800129E+002  0.2887956E+03  0.7546771E-02  0.1090980E+00
         21   -1    0    0  503  502  0.00000000000E+00  0.00000000000E+00  0.17171790111E+03  0.17171790111E+03  0.00000000000E+00 0.  1.
          2   -1    0    0  505    0 -0.00000000000E+00 -0.00000000000E+00 -0.16232602619E+04  0.16232602619E+04  0.00000000000E+00 0.  1.
         21    1    1    2  503  504  0.82057518561E+02 -0.12569372499E+03 -0.40710761295E+02  0.15553043091E+03  0.00000000000E+00 0.  1.
         21    1    1    2  504  501  0.11286200286E+03 -0.43393593245E+02  0.83192943036E+00  0.12091950931E+03  0.00000000000E+00 0.  1.
         21    1    1    2  505  502  0.54659676959E+02 -0.14158482006E+03 -0.27600545864E+03  0.31498087999E+03  0.00000000000E+00 0. -1.
          2    1    1    2  501    0 -0.24957919839E+03  0.31067213829E+03 -0.11356580703E+04  0.12035473428E+04  0.00000000000E+00 0.  1.
<scales pt_clust_3="81.52132" pt_clust_4="81.52132" pt_clust_5="151.76937" pt_clust_6="274.14012"></scales>
<clustering>
<clus scale="   81.521">  3  4 -1 -1</clus>
<clus scale="  151.769">  2  5  1 -1</clus>
<clus scale="  274.140">  2  6  1 -1</clus>
<clus scale="  288.796">  1  3  2 -1</clus>
</clustering>
</event>
<event>
 6    0  0.3800129E+002  0.1379514E+03  0.7546771E-02  0.1216112E+00
         -2   -1    0    0    0  501 -0.00000000000E+00  0.00000000000E+00  0.14764018829E+03  0.14764018829E+03  0.00000000000E+00 0.  1.
         21   -1    0    0  503  502  0.00000000000E+00 -0.00000000000E+00 -0.93582383198E+03  0.93582383198E+03  0.00000000000E+00 0. -1.
         21    1    1    2  503  505  0.35723679601E+02  0.13539591793E+02 -0.11780308731E+03  0.12384292152E+03  0.00000000000E+00 0. -1.
         21    1    1    2  504  502 -0.50385877064E+02  0.13867340795E+02 -0.53511156034E+03  0.53765734605E+03  0.00000000000E+00 0. -1.
         21    1    1    2  505  501  0.21619259714E+02  0.97208926192E+02 -0.23948494628E+03  0.25936462214E+03  0.00000000000E+00 0. -1.
         -2    1    1    2    0  504 -0.69570622508E+01 -0.12461585878E+03  0.10421595025E+03  0.16259913056E+03  0.00000000000E+00 0.  1.
<scales pt_clust_3="37.36778" pt_clust_4="52.25935" pt_clust_5="37.36778" pt_clust_6="124.05947"></scales>
<clustering>
<clus scale="   37.368">  3  5 -1 -1</clus>
<clus scale="   52.259">  2  4  1 -1</clus>
<clus scale="  124.059">  1  6  2 -1</clus>
<clus scale="   52.259">  2  3  1 -1</clus>
</clustering>
</event>
<event>
 6    0  0.3800129E+002  0.2328455E+03  0.7546771E-02  0.1124653E+00
         -1   -1    0    0    0  501 -0.00000000000E+00  0.00000000000E+00  0.23431659811E+03  0.23431659811E+03  0.00000000000E+00 0.  1.
         21   -1    0    0  504  502  0.00000000000E+00 -0.00000000000E+00 -0.66821767038E+03  0.66821767038E+03  0.00000000000E+00 0. -1.
         21    1    1    2  503  502 -0.39355789162E+02 -0.11352350164E+02 -0.18945813812E+03  0.19383534274E+03  0.00000000000E+00 0.  1.
         21    1    1    2  504  501 -0.11940591625E+02  0.66661325983E+02  0.56811047113E+02  0.88395730577E+02  0.00000000000E+00 0.  1.
         21    1    1    2  505  503 -0.17724189545E+03  0.12615913736E+02 -0.33529270990E+03  0.37946679973E+03  0.00000000000E+00 0. -1.
         -1    1    1    2    0  505  0.22853827623E+03 -0.67924889555E+02  0.34038728636E+02  0.24083639545E+03  0.00000000000E+00 0.  1.
<scales pt_clust_3="38.39685" pt_clust_4="67.72230" pt_clust_5="38.39685" pt_clust_6="218.68078"></scales>
<clustering>
<clus scale="   38.397">  3  5 -1 -1</clus>
<clus scale="   67.722">  1  4  2 -1</clus>
<clus scale="  218.681">  1  6  2 -1</clus>
<clus scale="  232.845">  2  3  1 -1</clus>
</clustering>
</event>
<event>
 6    0  0.3800129E+002  0.1322176E+03  0.7546771E-02  0.1224202E+00
          4   -1    0    0  505    0 -0.00000000000E+00  0.00000000000E+00  0.34071454745E+02  0.34071454745E+02  0.00000000000E+00 0. -1.
         21   -1    0    0  503  502  0.00000000000E+00 -0.00000000000E+00 -0.31293156609E+04  0.31293156609E+04  0.00000000000E+00 0.  1.
         21    1    1    2  503  501 -0.13448542154E+03  0.76125270865E+02 -0.23063225058E+04  0.23114940809E+04  0.00000000000E+00 0.  1.
         21    1    1    2  504  502  0.42549037238E+02 -0.61238710457E+01 -0.20861464030E+03  0.21299763030E+03  0.00000000000E+00 0.  1.
         21    1    1    2  505  504  0.55589084365E+02  0.11366469728E+02 -0.53668281454E+03  0.53967377771E+03  0.00000000000E+00 0.  1.
          4    1    1    2  501    0  0.36347299942E+02 -0.81367869548E+02 -0.43624245541E+02  0.99221626710E+02  0.00000000000E+00 0. -1.
<scales pt_clust_3="126.86259" pt_clust_4="32.42099" pt_clust_5="32.42099" pt_clust_6="89.11709"></scales>
<clustering>
<clus scale="   32.421">  4  5 -1 -1</clus>
<clus scale="   89.117">  1  6  2 -1</clus>
<clus scale="  126.863">  2  3  1 -1</clus>
<clus scale="  126.863">  2  3  1 -1</clus>
</clustering>
</event>
<event>
 6    0  0.3800129E+002  0.1797453E+03  0.7546771E-02  0.1168050E+00
         21   -1    0    0  503  502  0.00000000000E+00  0.00000000000E+00  0.12010743782E+04  0.12010743782E+04  0.00000000000E+00 0. -1.
         -2   -1    0    0    0  501 -0.00000000000E+00 -0.00000000000E+00 -0.17470742961E+03  0.17470742961E+03  0.00000000000E+00 0.  1.
         21    1    1    2  503  505  0.62410932842E+02 -0.96885471235E+02  0.64443372627E+03  0.65465773242E+03  0.00000000000E+00 0. -1.
         21    1    1    2  504  501  0.13104706780E+01  0.37963245303E+02 -0.49711233418E+02  0.62563024666E+02  0.00000000000E+00 0. -1.
         21    1    1    2  505  504  0.53197249188E+02 -0.35748131916E+02  0.49222538427E+03  0.49638060515E+03  0.00000000000E+00 0.  1.
         -2    1    1    2    0  502 -0.11691865271E+03  0.94670357848E+02 -0.60580928568E+02  0.16218044553E+03  0.00000000000E+00 0.  1.
<scales pt_clust_3="32.83299" pt_clust_4="37.98586" pt_clust_5="32.83299" pt_clust_6="174.26983"></scales>
<clustering>
<clus scale="   32.833">  3  5 -1 -1</clus>
<clus scale="   37.986">  2  4  1 -1</clus>
<clus scale="  174.270">  2  6  1 -1</clus>
<clus scale="  179.745">  1  3  2 -1</clus>
</clustering>
</event>
<event>
 6    0  0.3800129E+002  0.1541049E+03  0.7546771E-02  0.1195518E+00
         21   -1    0    0  503  502  0.00000000000E+00  0.00000000000E+00  0.40318108869E+03  0.40318108869E+03  0.00000000000E+00 0.  1.
          1   -1    0    0  505    0 -0.00000000000E+00 -0.00000000000E+00 -0.40512964238E+03  0.40512964238E+03  0.00000000000E+00 0.  1.
         21    1    1    2  503  504 -0.97324946218E-01 -0.89141590709E+02  0.21068137091E+03  0.22876379240E+03  0.00000000000E+00 0.  1.
         21    1    1    2  504  501  0.90756699363E+02 -0.61297084432E+02  0.10725732799E+03  0.15329137434E+03  0.00000000000E+00 0.  1.
         21    1    1    2  505  502  0.48586770446E+02  0.42454740436E+02 -0.20739370876E+03  0.21719859503E+03  0.00000000000E+00 0.  1.
          1    1    1    2  501    0 -0.13924614486E+03  0.10798393471E+03 -0.11249354382E+03  0.20905696930E+03  0.00000000000E+00 0.  1.
<scales pt_clust_3="87.17833" pt_clust_4="154.10492" pt_clust_5="64.52193" pt_clust_6="14000.00000"></scales>
<clustering>
<clus scale="   64.522">  2  5  1 -1</clus>
<clus scale="   87.178">  1  3  2 -1</clus>
<clus scale="  154.105">  1  4  2 -1</clus>
<clus scale="   87.178">  1  3  2 -1</clus>
</clustering>
</event>
<event>
 6    0  0.3800129E+002  0.2650882E+03  0.7546771E-02  0.1104124E+00
         21   -1    0    0  503  502  0.00000000000E+00  0.00000000000E+00  0.20943628365E+03  0.20943628365E+03  0.00000000000E+00 0.  1.
          2   -1    0    0  504    0 -0.00000000000E+00 -0.00000000000E+00 -0.16429526941E+04  0.16429526941E+04  0.00000000000E+00 0.  1.
         21    1    1    2  503  501 -0.10647200604E+02 -0.49143195889E+02 -0.14228451908E+02  0.52257682943E+02  0.00000000000E+00 0. -1.
         21    1    1    2  504  505 -0.16769445204E+03  0.16641275610E+03 -0.39620358794E+03  0.46129374344E+03  0.00000000000E+00 0. -1.
         21    1    1    2  505  502 -0.88427452211E+02 -0.93001747215E+01  0.12602723411E+03  0.15423608946E+03  0.00000000000E+00 0.  1.
          2    1    1    2  501    0  0.26676910486E+03 -0.10796938549E+03 -0.11491116047E+04  0.11846014619E+04  0.00000000000E+00 0.  1.
<scales pt_clust_3="50.28336" pt_clust_4="14000.00000" pt_clust_5="106.45919" pt_clust_6="265.08824"></scales>
<clustering>
<clus scale="   50.283">  1  3  2 -1</clus>
<clus scale="  106.459">  1  5  2 -1</clus>
<clus scale="  265.088">  2  6  1 -1</clus>
<clus scale="   50.283">  1  3  2 -1</clus>
</clustering>
</event>
<event>
 6    0  0.3800129E+002  0.2294220E+03  0.7546771E-02  0.1127047E+00
         21   -1    0    0  505  502  0.00000000000E+00  0.00000000000E+00  0.12500575436E+04  0.12500575436E+04  0.00000000000E+00 0. -1.
          2   -1    0    0  504    0 -0.00000000000E+00 -0.00000000000E+00 -0.32322231462E+03  0.32322231462E+03  0.00000000000E+00 0. -1.
         21    1    1    2  503  501 -0.12941529564E+03  0.17388527055E+03  0.18131229874E+03  0.28259256136E+03  0.00000000000E+00 0. -1.
         21    1    1    2  504  502  0.44309733654E+02  0.25235072556E+02 -0.10423895741E+03  0.11604275774E+03  0.00000000000E+00 0. -1.
         21    1    1    2  505  503  0.14814850828E+03 -0.17964480599E+03  0.99140697556E+03  0.10183850097E+04  0.00000000000E+00 0. -1.
          2    1    1    2  501    0 -0.63042946296E+02 -0.19475537123E+02 -0.14164508787E+03  0.15625952945E+03  0.00000000000E+00 0. -1.
<scales pt_clust_3="14000.00000" pt_clust_4="50.99178" pt_clust_5="229.42198" pt_clust_6="32.12117"></scales>
<clustering>
<clus scale="   50.992">  2  4  1 -1</clus>
<clus scale="   32.121">  2  6  1 -1</clus>
<clus scale="  229.422">  1  5  2 -1</clus>
<clus scale="  229.422">  1  3  2 -1</clus>
</clustering>
</event>
<event>
 6    0  0.3800129E+002  0.1429517E+03  0.7546771E-02  0.1209412E+00
         21   -1    0    0  505  502  0.00000000000E+00  0.00000000000E+00  0.47400809434E+02  0.47400809434E+02  0.00000000000E+00 0.  1.
          1   -1    0    0  504    0 -0.00000000000E+00 -0.00000000000E+00 -0.16903955727E+04  0.16903955727E+04  0.00000000000E+00 0.  1.
         21    1    1    2  503  501  0.14621118813E+02  0.10931452082E+03 -0.16093239307E+03  0.19509658305E+03  0.00000000000E+00 0.  1.
         21    1    1    2  504  502 -0.37578830450E+02 -0.54673487329E+01 -0.10279492629E+03  0.10958493177E+03  0.00000000000E+00 0.  1.
         21    1    1    2  505  503  0.37724711318E+02  0.46361035436E+02 -0.16488111567E+02  0.62002881173E+02  0.00000000000E+00 0.  1.
          1    1    1    2  501    0 -0.14766999681E+02 -0.15020820753E+03 -0.13627793323E+04  0.13711119861E+04  0.00000000000E+00 0.  1.
<scales pt_clust_3="14000.00000" pt_clust_4="37.97447" pt_clust_5="47.22009" pt_clust_6="142.95169"></scales>
<clustering>
<clus scale="   37.974">  1  4  2 -1</clus>
<clus scale="   47.220">  1  5  2 -1</clus>
<clus scale="  142.952">  2  6  1 -1</clus>
<clus scale="   37.974">  1  3  2 -1</clus>
</clustering>
</event>
<event>
 6    0  0.3800129E+002  0.1483902E+03  0.7546771E-02  0.1202465E+00
         21   -1    0    0  504  502  0.00000000000E+00  0.00000000000E+00  0.21479787740E+04  0.21479787740E+04  0.00000000000E+00 0.  1.
          2   -1    0    0  505    0 -0.00000000000E+00 -0.00000000000E+00 -0.47427802835E+03  0.47427802835E+03  0.00000000000E+00 0. -1.
         21    1    1    2  503  501 -0.26181235884E+01 -0.31502130895E+02  0.27026299390E+03  0.27210535587E+03  0.00000000000E+00 0.  1.
         21    1    1    2  504  503 -0.80407142570E+02 -0.77181450866E+02  0.18542627156E+04  0.18576093517E+04  0.00000000000E+00 0.  1.
         21    1    1    2  505  502 -0.87844593488E+01  0.49106974179E+02 -0.31109640326E+02  0.58791762691E+02  0.00000000000E+00 0.  1.
          2    1    1    2  501    0  0.91809725507E+02  0.59576607582E+02 -0.41971532349E+03  0.43375033215E+03  0.00000000000E+00 0. -1.
<scales pt_clust_3="30.91558" pt_clust_4="30.91558" pt_clust_5="49.88649" pt_clust_6="136.56396"></scales>
<clustering>
<clus scale="   30.916">  3  4 -1 -1</clus>
<clus scale="   49.886">  2  5  1 -1</clus>
<clus scale="  136.564">  2  6  1 -1</clus>
<clus scale="  148.390">  1  3  2 -1</clus>
</clustering>
</event>
<event>
 6    0  0.3800129E+002  0.1031376E+03  0.7546771E-02  0.1273833E+00
          1   -1    0    0  504    0 -0.00000000000E+00  0.00000000000E+00  0.41637028480E+03  0.41637028480E+03  0.00000000000E+00 0.  1.
         21   -1    0    0  505  502  0.00000000000E+00 -0.00000000000E+00 -0.10414229407E+03  0.10414229407E+03  0.00000000000E+00 0.  1.
         21    1    1    2  503  502  0.28831862410E+02  0.11072611645E+02 -0.19310739823E+02  0.36425042089E+02  0.00000000000E+00 0.  1.
         21    1    1    2  504  503  0.19584003642E+02  0.26822372514E+02  0.53804738489E+02  0.63229128966E+02  0.00000000000E+00 0.  1.
         21    1    1    2  505  501  0.38515616202E+01  0.86742032163E+02 -0.24131297379E+02  0.90118445303E+02  0.00000000000E+00 0.  1.
          1    1    1    2  501    0 -0.52267427671E+02 -0.12463701632E+03  0.30186528945E+03  0.33073996252E+03  0.00000000000E+00 0.  1.
<scales pt_clust_3="30.88493" pt_clust_4="34.82925" pt_clust_5="103.13765" pt_clust_6="14000.00000"></scales>
<clustering>
<clus scale="   30.885">  2  3  1 -1</clus>
<clus scale="   34.829">  1  4  2 -1</clus>
<clus scale="  103.138">  2  5  1 -1</clus>
<clus scale="   30.885">  2  3  1 -1</clus>
</clustering>
</event>
<event>
 6    0  0.3800129E+002  0.8891296E+02  0.7546771E-02  0.1305506E+00
         21   -1    0    0  505  502  0.00000000000E+00  0.00000000000E+00  0.66147050876E+02  0.66147050876E+02  0.00000000000E+00 0. -1.
          2   -1    0    0  503    0 -0.00000000000E+00 -0.00000000000E+00 -0.78780183112E+03  0.78780183112E+03  0.00000000000E+00 0. -1.
         21    1    1    2  503  504 -0.81046480175E+01  0.37317495936E+02 -0.21631554301E+03  0.21966040829E+03  0.00000000000E+00 0.  1.
         21    1    1    2  504  502  0.18084440238E+02  0.41868637392E+02 -0.32801266710E+02  0.56177868183E+02  0.00000000000E+00 0. -1.
         21    1    1    2  505  501  0.73750113498E+02 -0.49740661731E+02  0.81204790108E+01  0.89326115161E+02  0.00000000000E+00 0. -1.
          2    1    1    2  501    0 -0.83729905718E+02 -0.29445471598E+02 -0.48065844953E+03  0.48878449036E+03  0.00000000000E+00 0. -1.
<scales pt_clust_3="38.18744" pt_clust_4="48.06260" pt_clust_5="88.91296" pt_clust_6="14000.00000"></scales>
<clustering>
<clus scale="   38.187">  2  3  1 -1</clus>
<clus scale="   48.063">  1  4  2 -1</clus>
<clus scale="   88.913">  1  5  2 -1</clus>
<clus scale="   48.063">  1  3  2 -1</clus>
</clustering>
</event>
<event>
 6    0  0.3800129E+002  0.1361911E+03  0.7546771E-02  0.1218548E+00
         21   -1    0    0  503  502  0.00000000000E+00  0.00000000000E+00  0.48510679174E+02  0.48510679174E+02  0.00000000000E+00 0.  1.
          1   -1    0    0  505    0 -0.00000000000E+00 -0.00000000000E+00 -0.29647616120E+04  0.29647616120E+04  0.00000000000E+00 0.  1.
         21    1    1    2  503  504  0.10746935095E+02 -0.36132072625E+02 -0.21280055319E+02  0.43288151272E+02  0.00000000000E+00 0.  1.
         21    1    1    2  504  501  0.61418777459E+02 -0.25038186273E+02 -0.72723229579E+02  0.98426851605E+02  0.00000000000E+00 0.  1.
         21    1    1    2  505  502 -0.13899184811E+03 -0.21548260430E+02 -0.27213036876E+04  0.27249361133E+04  0.00000000000E+00 0.  1.
          1    1    1    2  501    0  0.66826135557E+02  0.82718519328E+02 -0.10094396032E+03  0.14662117500E+03  0.00000000000E+00 0.  1.
<scales pt_clust_3="36.13035" pt_clust_4="106.04963" pt_clust_5="14000.00000" pt_clust_6="136.19115"></scales>
<clustering>
<clus scale="   36.130">  3  4 -1 -1</clus>
<clus scale="  106.050">  1  3  2 -1</clus>
<clus scale="  136.191">  1  6  2 -1</clus>
<clus scale="  106.050">  1  3  2 -1</clus>
</clustering>
</event>
<event>
 6    0  0.3800129E+002  0.8811715E+02  0.7546771E-02  0.1307476E+00
         21   -1    0    0  503  502  0.00000000000E+00  0.00000000000E+00  0.37293484018E+03  0.37293484018E+03  0.00000000000E+00 0.  1.
          1   -1    0    0  505    0 -0.00000000000E+00 -0.00000000000E+00 -0.37065802999E+03  0.37065802999E+03  0.00000000000E+00 0. -1.
         21    1    1    2  503  501  0.39694071076E+02 -0.41863006159E+02  0.57968450240E+01  0.57980462015E+02  0.00000000000E+00 0.  1.
         21    1    1    2  504  502 -0.79431957232E+02  0.55546604814E+02  0.31383983325E+03  0.32846659202E+03  0.00000000000E+00 0.  1.
         21    1    1    2  505  504 -0.30153206505E+02 -0.19414864098E+02 -0.40580191224E+01  0.36091831896E+02  0.00000000000E+00 0.  1.
          1    1    1    2  501    0  0.69891092661E+02  0.57312654417E+01 -0.31330184896E+03  0.32105398424E+03  0.00000000000E+00 0. -1.
<scales pt_clust_3="88.11715" pt_clust_4="14000.00000" pt_clust_5="35.86297" pt_clust_6="44.22369"></scales>
<clustering>
<clus scale="   35.863">  2  5  1 -1</clus>
<clus scale="   44.224">  2  6  1 -1</clus>
<clus scale="   88.117">  2  3  1 -1</clus>
<clus scale="   88.117">  1  3  2 -1</clus>
</clustering>
</event>
<event>
 6    0  0.3800129E+002  0.1820211E+03  0.7546771E-02  0.1165861E+00
         -2   -1    0    0    0  501 -0.00000000000E+00  0.00000000000E+00  0.10882718124E+04  0.10882718124E+04  0.00000000000E+00 0. -1.
         21   -1    0    0  505  502  0.00000000000E+00 -0.00000000000E+00 -0.13221328022E+03  0.13221328022E+03  0.00000000000E+00 0. -1.
         21    1    1    2  503  502  0.65529573173E+02 -0.14491524540E+03  0.39424188106E+02  0.16385609515E+03  0.00000000000E+00 0. -1.
         21    1    1    2  504  503 -0.18430292629E+03 -0.22022618521E+02  0.10623706828E+03  0.21386649817E+03  0.00000000000E+00 0. -1.
         21    1    1    2  505  501  0.39671141185E+02 -0.19970343427E+01  0.85945626444E+02  0.94680717646E+02  0.00000000000E+00 0. -1.
         -2    1    1    2    0  504  0.79102211927E+02  0.16893489827E+03  0.72445164938E+03  0.74808178168E+03  0.00000000000E+00 0. -1.
<scales pt_clust_3="160.93292" pt_clust_4="14000.00000" pt_clust_5="39.72137" pt_clust_6="182.02114"></scales>
<clustering>
<clus scale="   39.721">  1  5  2 -1</clus>
<clus scale="  160.933">  2  3  1 -1</clus>
<clus scale="  182.021">  1  6  2 -1</clus>
<clus scale="  160.933">  2  3  1 -1</clus>
</clustering>
</event>
<event>
 6    0  0.3800129E+002  0.8226022E+02  0.7546771E-02  0.1322757E+00
         21   -1    0    0  504  502  0.00000000000E+00  0.00000000000E+00  0.69637870956E+03  0.69637870956E+03  0.00000000000E+00 0. -1.
          1   -1    0    0  503    0 -0.00000000000E+00 -0.00000000000E+00 -0.24389324192E+03  0.24389324192E+03  0.00000000000E+00 0. -1.
         21    1    1    2  503  502 -0.47615073588E+02 -0.21261909137E+02  0.55983064291E+03  0.56225404645E+03  0.00000000000E+00 0. -1.
         21    1    1    2  504  505 -0.90862752348E+01 -0.63017341871E+02  0.91931958954E+02  0.11182678951E+03  0.00000000000E+00 0. -1.
         21    1    1    2  505  501  0.77476680839E+02  0.37012922587E+02 -0.32839889069E+02  0.91929597119E+02  0.00000000000E+00 0. -1.
          1    1    1    2  501    0 -0.20775332016E+02  0.47266328420E+02 -0.16643724515E+03  0.17426151840E+03  0.00000000000E+00 0. -1.
<scales pt_clust_3="52.14852" pt_clust_4="82.26022" pt_clust_5="14000.00000" pt_clust_6="51.63061"></scales>
<clustering>
<clus scale="   51.631">  2  6  1 -1</clus>
<clus scale="   52.149">  1  3  2 -1</clus>
<clus scale="   82.260">  1  4  2 -1</clus>
<clus scale="   52.149">  1  3  2 -1</clus>
</clustering>
</event>
<event>
 6    0  0.3800129E+002  0.1960488E+03  0.7546771E-02  0.1153116E+00
          3   -1    0    0  504    0 -0.00000000000E+00  0.00000000000E+00  0.78888824256E+03  0.78888824256E+03  0.00000000000E+00 0.  1.
         21   -1    0    0  503  502  0.00000000000E+00 -0.00000000000E+00 -0.23870796740E+03  0.23870796740E+03  0.00000000000E+00 0.  1.
         21    1    1    2  503  505 -0.49956003309E+02 -0.79225119155E+02 -0.12543309866E+03  0.15654291428E+03  0.00000000000E+00 0.  1.
         21    1    1    2  504  502 -0.28090791222E+02  0.17059378070E+02 -0.14963595708E+02  0.36111274252E+02  0.00000000000E+00 0. -1.
         21    1    1    2  505  501 -0.87981719655E+02 -0.82243668913E+02  0.11359881647E+02  0.12097045499E+03  0.00000000000E+00 0.  1.
          3    1    1    2  501    0  0.16602851419E+03  0.14440941000E+03  0.67921708787E+03  0.71397156644E+03  0.00000000000E+00 0.  1.
<scales pt_clust_3="96.50482" pt_clust_4="32.86510" pt_clust_5="196.04878" pt_clust_6="14000.00000"></scales>
<clustering>
<clus scale="   32.865">  2  4  1 -1</clus>
<clus scale="   96.505">  2  3  1 -1</clus>
<clus scale="  196.049">  2  5  1 -1</clus>
<clus scale="   32.865">  2  3  1 -1</clus>
</clustering>
</event>
<event>
 6    0  0.3800129E+002  0.2259032E+03  0.7546771E-02  0.1129557E+00
         21   -1    0    0  501  502  0.00000000000E+00  0.00000000000E+00  0.19115416395E+03  0.19115416395E+03  0.00000000000E+00 0. -1.
          1   -1    0    0  503    0 -0.00000000000E+00 -0.00000000000E+00 -0.64740108549E+03  0.64740108549E+03  0.00000000000E+00 0. -1.
         21    1    1    2  503  505 -0.34114358468E+02 -0.21163235815E+02 -0.56742005068E+02  0.69507748798E+02  0.00000000000E+00 0. -1.
         21    1    1    2  504  502  0.34830685665E+02 -0.13005159877E+03  0.24890977357E+02  0.13691660148E+03  0.00000000000E+00 0. -1.
         21    1    1    2  505  504  0.38549250001E+02 -0.76548993419E+02  0.53671407045E+02  0.10112572869E+03  0.00000000000E+00 0. -1.
          1    1    1    2  501    0 -0.39265577198E+02  0.22776382800E+03 -0.47806730088E+03  0.53100517047E+03  0.00000000000E+00 0. -1.
<scales pt_clust_3="40.14563" pt_clust_4="39.27973" pt_clust_5="39.27973" pt_clust_6="220.47357"></scales>
<clustering>
<clus scale="   39.280">  4  5 -1 -1</clus>
<clus scale="   40.146">  2  3  1 -1</clus>
<clus scale="  220.474">  2  6  1 -1</clus>
<clus scale="  225.903">  1  3  2 -1</clus>
</clustering>
</event>
<event>
 6    0  0.4374736E+002  0.1059369E+03  0.7546771E-02  0.1268285E+00
          1   -1    0    0  504    0 -0.00000000000E+00  0.00000000000E+00  0.30624459183E+04  0.30624459183E+04  0.00000000000E+00 0.  1.
         21   -1    0    0  503  502  0.00000000000E+00 -0.00000000000E+00 -0.41367248939E+03  0.41367248939E+03  0.00000000000E+00 0.  1.
         21    1    1    2  503  501  0.41842820487E+02  0.13818647758E+03 -0.38358084100E+03  0.40985434705E+03  0.00000000000E+00 0.  1.
         21    1    1    2  504  505 -0.89064521215E+02 -0.29425818643E+02  0.31680821687E+03  0.33040250304E+03  0.00000000000E+00 0.  1.
         21    1    1    2  505  502 -0.15691178837E+02 -0.35365573783E+02  0.31005372741E+02  0.49580944335E+02  0.00000000000E+00 0.  1.
          1    1    1    2  501    0  0.62912879565E+02 -0.73395085157E+02  0.26845406804E+04  0.26862806133E+04  0.00000000000E+00 0.  1.
<scales pt_clust_3="14000.00000" pt_clust_4="94.23776" pt_clust_5="38.69027" pt_clust_6="105.93691"></scales>
<clustering>
<clus scale="   38.690">  2  5  1 -1</clus>
<clus scale="   94.238">  1  4  2 -1</clus>
<clus scale="  105.937">  1  6  2 -1</clus>
<clus scale="   38.690">  2  3  1 -1</clus>
</clustering>
</event>
<event>
 6    0  0.3800129E+002  0.3858412E+03  0.7546771E-02  0.1048796E+00
         -1   -1    0    0    0  501 -0.00000000000E+00  0.00000000000E+00  0.25637342376E+04  0.25637342376E+04  0.00000000000E+00 0. -1.
         21   -1    0    0  503  502  0.00000000000E+00 -0.00000000000E+00 -0.10104226832E+03  0.10104226832E+03  0.00000000000E+00 0. -1.
         21    1    1    2  503  504 -0.12530219458E+03  0.21322591868E+02  0.21142007307E+03  0.24668550867E+03  0.00000000000E+00 0.  1.
         21    1    1    2  504  505 -0.23654294475E+03 -0.13049168690E+03  0.34299001907E+03  0.43660370846E+03  0.00000000000E+00 0. -1.
         21    1    1    2  505  501  0.39787740557E+02 -0.14832819067E+02  0.11220117867E+04  0.11228150010E+04  0.00000000000E+00 0. -1.
         -1    1    1    2    0  502  0.32205739878E+03  0.12400191409E+03  0.78627009038E+03  0.85867228780E+03  0.00000000000E+00 0. -1.
<scales pt_clust_3="87.40299" pt_clust_4="87.40299" pt_clust_5="42.46265" pt_clust_6="363.60644"></scales>
<clustering>
<clus scale="   42.463">  1  5  2 -1</clus>
<clus scale="   87.403">  3  4 -1 -1</clus>
<clus scale="  363.606">  1  6  2 -1</clus>
<clus scale="  385.841">  2  3  1 -1</clus>
</clustering>
</event>
<event>
 6    0  0.3800129E+002  0.2060624E+03  0.7546771E-02  0.1144723E+00
         21   -1    0    0  505  502  0.00000000000E+00  0.00000000000E+00  0.25935245772E+03  0.25935245772E+03  0.00000000000E+00 0. -1.
         -3   -1    0    0    0  501 -0.00000000000E+00 -0.00000000000E+00 -0.34200292368E+03  0.34200292368E+03  0.00000000000E+00 0. -1.
         21    1    1    2  503  504  0.87723616496E+02 -0.39785376826E+02  0.44913700731E+02  0.10628052321E+03  0.00000000000E+00 0. -1.
         21    1    1    2  504  502  0.10084562241E+03 -0.32854111161E+02  0.88527284672E+02  0.13815322041E+03  0.00000000000E+00 0. -1.
         21    1    1    2  505  501  0.26737782005E+02  0.59257190864E+02 -0.74527669841E+02  0.98897407588E+02  0.00000000000E+00 0. -1.
         -3    1    1    2    0  503 -0.21530702091E+03  0.13382297122E+02 -0.14156378152E+03  0.25802423019E+03  0.00000000000E+00 0. -1.
<scales pt_clust_3="31.70029" pt_clust_4="31.70029" pt_clust_5="65.01018" pt_clust_6="203.35983"></scales>
<clustering>
<clus scale="   31.700">  3  4 -1 -1</clus>
<clus scale="   65.010">  2  5  1 -1</clus>
<clus scale="  203.360">  2  6  1 -1</clus>
<clus scale="  206.062">  1  3  2 -1</clus>
</clustering>
</event>
<event>
 6    0  0.3800129E+002  0.1516151E+03  0.7546771E-02  0.1198502E+00
         21   -1    0    0  501  502  0.00000000000E+00  0.00000000000E+00  0.47702354804E+03  0.47702354804E+03  0.00000000000E+00 0. -1.
          2   -1    0    0  505    0 -0.00000000000E+00 -0.00000000000E+00 -0.30282874924E+03  0.30282874924E+03  0.00000000000E+00 0.  1.
         21    1    1    2  503  504  0.74444580503E+02  0.38935327718E+02  0.17064322511E+03  0.19020269606E+03  0.00000000000E+00 0. -1.
         21    1    1    2  504  502  0.58830773194E+02  0.16725832980E+01  0.26905721536E+03  0.27541903084E+03  0.00000000000E+00 0. -1.
         21    1    1    2  505  503 -0.11896748122E+03  0.32283895288E+01 -0.16293061023E+03  0.20176736069E+03  0.00000000000E+00 0.  1.
          2    1    1    2  501    0 -0.14307872478E+02 -0.43836300545E+02 -0.10257503144E+03  0.11246320969E+03  0.00000000000E+00 0.  1.
<scales pt_clust_3="53.71665" pt_clust_4="53.71665" pt_clust_5="137.59125" pt_clust_6="46.11222"></scales>
<clustering>
<clus scale="   46.112">  2  6  1 -1</clus>
<clus scale="   53.717">  3  4 -1 -1</clus>
<clus scale="  137.591">  2  5  1 -1</clus>
<clus scale="  151.615">  1  3  2 -1</clus>
</clustering>
</event>
<event>
 6    0  0.3800129E+002  0.7643785E+02  0.7546771E-02  0.1339475E+00
         21   -1    0    0  503  502  0.00000000000E+00  0.00000000000E+00  0.50204336599E+03  0.50204336599E+03  0.00000000000E+00 0. -1.
         -1   -1    0    0    0  501 -0.00000000000E+00 -0.00000000000E+00 -0.90337544922E+03  0.90337544922E+03  0.00000000000E+00 0.  1.
         21    1    1    2  503  504 -0.30074944050E+02 -0.70187603578E+02  0.47048749112E+03  0.47664376766E+03  0.00000000000E+00 0. -1.
         21    1    1    2  504  505 -0.68038821364E+02 -0.21737023332E+02 -0.74718013024E+02  0.10336614952E+03  0.00000000000E+00 0. -1.
         21    1    1    2  505  501  0.47144257467E+02  0.96436415576E+01 -0.41236579515E+02  0.63372204670E+02  0.00000000000E+00 0. -1.
         -1    1    1    2    0  502  0.50969507947E+02  0.82280985353E+02 -0.75586498181E+03  0.76203669335E+03  0.00000000000E+00 0.  1.
<scales pt_clust_3="76.43785" pt_clust_4="66.42344" pt_clust_5="48.12048" pt_clust_6="14000.00000"></scales>
<clustering>
<clus scale="   48.120">  2  5  1 -1</clus>
<clus scale="   66.423">  2  4  1 -1</clus>
<clus scale="   76.438">  1  3  2 -1</clus>
<clus scale="   76.438">  1  3  2 -1</clus>
</clustering>
</event>
<event>
 6    0  0.3800129E+002  0.1284818E+03  0.7546771E-02  0.1229726E+00
         21   -1    0    0  505  502  0.00000000000E+00  0.00000000000E+00  0.71658909171E+02  0.71658909171E+02  0.00000000000E+00 0. -1.
          2   -1    0    0  504    0 -0.00000000000E+00 -0.00000000000E+00 -0.35432036874E+04  0.35432036874E+04  0.00000000000E+00 0. -1.
         21    1    1    2  503  501 -0.41841539562E+02 -0.38482909729E+02  0.22500822351E+02  0.61138660278E+02  0.00000000000E+00 0. -1.
         21    1    1    2  504  502  0.20300973862E+02  0.63763792039E+02 -0.59972230362E+03  0.60344410858E+03  0.00000000000E+00 0. -1.
         21    1    1    2  505  503 -0.49774564865E+02 -0.45424469002E+02 -0.13776482900E+02  0.68779947461E+02  0.00000000000E+00 0. -1.
          2    1    1    2  501    0  0.71315130564E+02  0.20143586692E+02 -0.28805468141E+04  0.28814998803E+04  0.00000000000E+00 0. -1.
<scales pt_clust_3="33.98101" pt_clust_4="66.91749" pt_clust_5="33.98101" pt_clust_6="123.03984"></scales>
<clustering>
<clus scale="   33.981">  3  5 -1 -1</clus>
<clus scale="   66.917">  2  4  1 -1</clus>
<clus scale="  123.040">  2  6  1 -1</clus>
<clus scale="  128.482">  1  3  2 -1</clus>
</clustering>
</event>
<event>
 6    0  0.3800129E+002  0.1198238E+03  0.7546771E-02  0.1243388E+00
         21   -1    0    0  504  502  0.00000000000E+00  0.00000000000E+00  0.57331640621E+03  0.57331640621E+03  0.00000000000E+00 0.  1.
          1   -1    0    0  505    0 -0.00000000000E+00 -0.00000000000E+00 -0.83209270789E+03  0.83209270789E+03  0.00000000000E+00 0. -1.
         21    1    1    2  503  502 -0.41360244892E+02 -0.27541770662E+02  0.52804686885E+03  0.53037978345E+03  0.00000000000E+00 0.  1.
         21    1    1    2  504  501 -0.37527138059E+02  0.63860803963E+01 -0.22730061134E+01  0.38134428939E+02  0.00000000000E+00 0.  1.
         21    1    1    2  505  503 -0.14430496564E+02  0.11011285273E+03 -0.13564991467E+03  0.17531109182E+03  0.00000000000E+00 0. -1.
          1    1    1    2  501    0  0.93317879515E+02 -0.88957162461E+02 -0.64890024975E+03  0.66158380989E+03  0.00000000000E+00 0. -1.
<scales pt_clust_3="80.04821" pt_clust_4="38.06663" pt_clust_5="14000.00000" pt_clust_6="119.82377"></scales>
<clustering>
<clus scale="   38.067">  1  4  2 -1</clus>
<clus scale="   80.048">  1  3  2 -1</clus>
<clus scale="  119.824">  2  6  1 -1</clus>
<clus scale="   38.067">  1  3  2 -1</clus>
</clustering>
</event>
<event>
 6    0  0.3800129E+002  0.2494589E+03  0.7546771E-02  0.1113647E+00
          2   -1    0    0  504    0 -0.00000000000E+00  0.00000000000E+00  0.55952880683E+03  0.55952880683E+03  0.00000000000E+00 0. -1.
         21   -1    0    0  503  502  0.00000000000E+00 -0.00000000000E+00 -0.24149815624E+03  0.24149815624E+03  0.00000000000E+00 0.  1.
         21    1    1    2  503  505 -0.15976205198E+03 -0.99610683636E+02 -0.76779068559E+02  0.20332542123E+03  0.00000000000E+00 0.  1.
         21    1    1    2  504  502 -0.25617812405E+02  0.19997268021E+02  0.23607364267E+02  0.40168030675E+02  0.00000000000E+00 0.  1.
         21    1    1    2  505  501 -0.57177845986E+02 -0.35195004698E+01 -0.42143461097E+02  0.71117960238E+02  0.00000000000E+00 0.  1.
          2    1    1    2  501    0  0.24255771037E+03  0.83132916085E+02  0.41334581598E+03  0.48641555093E+03  0.00000000000E+00 0. -1.
<scales pt_clust_3="32.60160" pt_clust_4="32.49866" pt_clust_5="32.60160" pt_clust_6="242.38790"></scales>
<clustering>
<clus scale="   32.499">  1  4  2 -1</clus>
<clus scale="   32.602">  3  5 -1 -1</clus>
<clus scale="  242.388">  1  6  2 -1</clus>
<clus scale="  249.459">  2  3  1 -1</clus>
</clustering>
</event>
<event>
 6    0  0.3800129E+002  0.1359418E+03  0.7546771E-02  0.1218896E+00
         21   -1    0    0  501  502  0.00000000000E+00  0.00000000000E+00  0.16988114624E+02  0.16988114624E+02  0.00000000000E+00 0. -1.
          2   -1    0    0  505    0 -0.00000000000E+00 -0.00000000000E+00 -0.37342363278E+04  0.37342363278E+04  0.00000000000E+00 0. -1.
         21    1    1    2  503  504  0.19977719855E+02  0.84187417290E+02 -0.27729986516E+03  0.29048553448E+03  0.00000000000E+00 0. -1.
         21    1    1    2  504  502  0.19167623204E+02  0.30086137129E+02 -0.44948008514E+02  0.57383768577E+02  0.00000000000E+00 0. -1.
         21    1    1    2  505  503  0.46395956234E+02  0.14518739918E+02 -0.18498403349E+04  0.18504790307E+04  0.00000000000E+00 0. -1.
          2    1    1    2  501    0 -0.85541299294E+02 -0.12879229434E+03 -0.15451600046E+04  0.15528761086E+04  0.00000000000E+00 0. -1.
<scales pt_clust_3="32.60524" pt_clust_4="32.60524" pt_clust_5="48.61459" pt_clust_6="126.10162"></scales>
<clustering>
<clus scale="   32.605">  3  4 -1 -1</clus>
<clus scale="   48.615">  2  5  1 -1</clus>
<clus scale="  126.102">  2  6  1 -1</clus>
<clus scale="  135.942">  1  3  2 -1</clus>
</clustering>
</event>
<event>
 6    0  0.3800129E+002  0.1290911E+03  0.7546771E-02  0.1228811E+00
          2   -1    0    0  503    0 -0.00000000000E+00  0.00000000000E+00  0.61574477906E+03  0.61574477906E+03  0.00000000000E+00 0.  1.
         21   -1    0    0  505  502  0.00000000000E+00 -0.00000000000E+00 -0.37057134105E+03  0.37057134105E+03  0.00000000000E+00 0.  1.
         21    1    1    2  503  504 -0.16955934690E+02 -0.38938499338E+02  0.12229766902E+03  0.12946208055E+03  0.00000000000E+00 0.  1.
         21    1    1    2  504  502  0.10148050642E+02 -0.57340399768E+02  0.13352412045E+02  0.59742709052E+02  0.00000000000E+00 0.  1.
         21    1    1    2  505  501  0.75100490126E+02  0.10782078711E+03 -0.32841722688E+03  0.35372769281E+03  0.00000000000E+00 0.  1.
          2    1    1    2  501    0 -0.68292606079E+02 -0.11541888007E+02  0.43794058382E+03  0.44338363770E+03  0.00000000000E+00 0.  1.
<scales pt_clust_3="42.47011" pt_clust_4="60.89687" pt_clust_5="14000.00000" pt_clust_6="129.09111"></scales>
<clustering>
<clus scale="   42.470">  1  3  2 -1</clus>
<clus scale="   60.897">  1  4  2 -1</clus>
<clus scale="  129.091">  1  6  2 -1</clus>
<clus scale="  129.091">  2  3  1 -1</clus>
</clustering>
</event>
<event>
 6    0  0.3800129E+002  0.8608199E+02  0.7546771E-02  0.1312627E+00
         21   -1    0    0  503  502  0.00000000000E+00  0.00000000000E+00  0.58948875937E+02  0.58948875937E+02  0.00000000000E+00 0.  1.
          1   -1    0    0  505    0 -0.00000000000E+00 -0.00000000000E+00 -0.18447212838E+04  0.18447212838E+04  0.00000000000E+00 0. -1.
         21    1    1    2  503  504 -0.46077218809E+02  0.20460466307E+02 -0.32571084226E+02  0.60021798560E+02  0.00000000000E+00 0.  1.
         21    1    1    2  504  501  0.21571335378E+02  0.62237974635E+02  0.10901108016E+02  0.66766175213E+02  0.00000000000E+00 0. -1.
         21    1    1    2  505  502 -0.56216241098E+02  0.37057799597E+02 -0.64301907233E+03  0.64653466547E+03  0.00000000000E+00 0.  1.
          1    1    1    2  501    0  0.80722124528E+02 -0.11975624054E+03 -0.11210833593E+04  0.11303475205E+04  0.00000000000E+00 0. -1.
<scales pt_clust_3="50.41568" pt_clust_4="14000.00000" pt_clust_5="69.26538" pt_clust_6="86.08199"></scales>
<clustering>
<clus scale="   50.416">  1  3  2 -1</clus>
<clus scale="   69.265">  2  5  1 -1</clus>
<clus scale="   86.082">  2  6  1 -1</clus>
<clus scale="   50.416">  1  3  2 -1</clus>
</clustering>
</event>
<event>
 6    0  0.3800129E+002  0.8815274E+02  0.7546771E-02  0.1307388E+00
         21   -1    0    0  503  502  0.00000000000E+00  0.00000000000E+00  0.66501780126E+02  0.66501780126E+02  0.00000000000E+00 0. -1.
         -4   -1    0    0    0  501 -0.00000000000E+00 -0.00000000000E+00 -0.46395794000E+03  0.46395794000E+03  0.00000000000E+00 0. -1.
         21    1    1    2  503  504 -0.31729434085E+01  0.35227751219E+02  0.28749211961E+02  0.45580469658E+02  0.00000000000E+00 0. -1.
         21    1    1    2  504  505  0.51453461338E+02 -0.86754106690E+02 -0.28535663366E+03  0.30265845781E+03  0.00000000000E+00 0. -1.
         21    1    1    2  505  501  0.26157035964E+02  0.23404674628E+02 -0.54255084596E+02  0.64618755245E+02  0.00000000000E+00 0. -1.
         -4    1    1    2    0  502 -0.74437553894E+02  0.28121680843E+02 -0.86593653580E+02  0.11760203741E+03  0.00000000000E+00 0. -1.
<scales pt_clust_3="35.81128" pt_clust_4="88.15274" pt_clust_5="35.09942" pt_clust_6="14000.00000"></scales>
<clustering>
<clus scale="   35.099">  2  5  1 -1</clus>
<clus scale="   35.811">  1  3  2 -1</clus>
<clus scale="   88.153">  2  4  1 -1</clus>
<clus scale="   35.811">  1  3  2 -1</clus>
</clustering>
</event>
<event>
 6    0  0.3800129E+002  0.1627345E+03  0.7546771E-02  0.1185644E+00
         -4   -1    0    0    0  501 -0.00000000000E+00  0.00000000000E+00  0.66870995175E+03  0.66870995175E+03  0.00000000000E+00 0.  1.
         21   -1    0    0  503  502  0.00000000000E+00 -0.00000000000E+00 -0.96068225445E+02  0.96068225445E+02  0.00000000000E+00 0.  1.
         21    1    1    2  503  504  0.29779752699E+02 -0.43868838154E+02 -0.18824354314E+02  0.56264242172E+02  0.00000000000E+00 0.  1.
         21    1    1    2  504  505  0.81582787161E+02 -0.74015580072E+02  0.26810577586E+02  0.11337047378E+03  0.00000000000E+00 0.  1.
         21    1    1    2  505  501  0.36662234822E+01  0.54547462411E+02  0.20861210603E+03  0.21565685157E+03  0.00000000000E+00 0.  1.
         -4    1    1    2    0  502 -0.11502876334E+03  0.63336955815E+02  0.35604339701E+03  0.37948660967E+03  0.00000000000E+00 0.  1.
<scales pt_clust_3="34.08606" pt_clust_4="34.08606" pt_clust_5="54.67053" pt_clust_6="155.14091"></scales>
<clustering>
<clus scale="   34.086">  3  4 -1 -1</clus>
<clus scale="   54.671">  1  5  2 -1</clus>
<clus scale="  155.141">  1  6  2 -1</clus>
<clus scale="  162.734">  2  3  1 -1</clus>
</clustering>
</event>
<event>
 6    0  0.3800129E+002  0.9460818E+02  0.7546771E-02  0.1292061E+00
         21   -1    0    0  501  502  0.00000000000E+00  0.00000000000E+00  0.37415226108E+03  0.37415226108E+03  0.00000000000E+00 0.  1.
          2   -1    0    0  505    0 -0.00000000000E+00 -0.00000000000E+00 -0.55893118187E+03  0.55893118187E+03  0.00000000000E+00 0.  1.
         21    1    1    2  503  504 -0.74184637272E+02  0.26635734623E+02  0.39054398629E+02  0.87966293648E+02  0.00000000000E+00 0.  1.
         21    1    1    2  504  502 -0.12667437451E+02 -0.78812502912E+02  0.28597353325E+03  0.29690526487E+03  0.00000000000E+00 0.  1.
         21    1    1    2  505  503 -0.35871301541E+02 -0.60665011969E+01 -0.23552544140E+02  0.43339070669E+02  0.00000000000E+00 0.  1.
          2    1    1    2  501    0  0.12272337626E+03  0.58243269486E+02 -0.48625430853E+03  0.50487281377E+03  0.00000000000E+00 0.  1.
<scales pt_clust_3="14000.00000" pt_clust_4="79.94634" pt_clust_5="36.38066" pt_clust_6="94.60818"></scales>
<clustering>
<clus scale="   36.381">  2  5  1 -1</clus>
<clus scale="   79.946">  1  4  2 -1</clus>
<clus scale="   94.608">  2  6  1 -1</clus>
<clus scale="   79.946">  1  3  2 -1</clus>
</clustering>
</event>
<event>
 6    0  0.3800129E+002  0.2035227E+03  0.7546771E-02  0.1146800E+00
         -2   -1    0    0    0  501 -0.00000000000E+00  0.00000000000E+00  0.51236997210E+03  0.51236997210E+03  0.00000000000E+00 0.  1.
         21   -1    0    0  503  502  0.00000000000E+00 -0.00000000000E+00 -0.10433323305E+04  0.10433323305E+04  0.00000000000E+00 0. -1.
         21    1    1    2  503  504  0.68665195046E+02  0.31232583219E+02 -0.46454178562E+03  0.47062666080E+03  0.00000000000E+00 0. -1.
         21    1    1    2  504  505  0.12007585686E+03  0.31547248795E+02 -0.52962980814E+03  0.54398637296E+03  0.00000000000E+00 0. -1.
         21    1    1    2  505  501  0.27658555631E+02  0.29839964216E+02  0.10347789071E+03  0.11118944657E+03  0.00000000000E+00 0.  1.
         -2    1    1    2    0  502 -0.21639960753E+03 -0.92619796230E+02  0.35973134469E+03  0.42989982222E+03  0.00000000000E+00 0.  1.
<scales pt_clust_3="30.16896" pt_clust_4="30.16896" pt_clust_5="40.68684" pt_clust_6="199.80878"></scales>
<clustering>
<clus scale="   30.169">  3  4 -1 -1</clus>
<clus scale="   40.687">  1  5  2 -1</clus>
<clus scale="  199.809">  1  6  2 -1</clus>
<clus scale="  203.523">  2  3  1 -1</clus>
</clustering>
</event>
<event>
 6    0  0.3800129E+002  0.1740786E+03  0.7546771E-02  0.1173660E+00
          2   -1    0    0  505    0 -0.00000000000E+00  0.00000000000E+00  0.52957163220E+03  0.52957163220E+03  0.00000000000E+00 0. -1.
         21   -1    0    0  503  502  0.00000000000E+00 -0.00000000000E+00 -0.42867472527E+03  0.42867472527E+03  0.00000000000E+00 0. -1.
         21    1    1    2  503  504 -0.38296638903E+02  0.11074636321E+02 -0.10809566158E+03  0.11521263895E+03  0.00000000000E+00 0.  1.
         21    1    1    2  504  501 -0.29944125292E+02  0.61640124976E+02 -0.24925855212E+03  0.25850721740E+03  0.00000000000E+00 0. -1.
         21    1    1    2  505  502 -0.20594345045E+02  0.12576929808E+03  0.87106064047E+02  0.15436809833E+03  0.00000000000E+00 0. -1.
          2    1    1    2  501    0  0.88835109239E+02 -0.19848405938E+03  0.37114505658E+03  0.43015840279E+03  0.00000000000E+00 0. -1.
<scales pt_clust_3="34.28214" pt_clust_4="109.38234" pt_clust_5="14000.00000" pt_clust_6="174.07861"></scales>
<clustering>
<clus scale="   34.282">  3  4 -1 -1</clus>
<clus scale="  109.382">  2  3  1 -1</clus>
<clus scale="  174.079">  1  6  2 -1</clus>
<clus scale="  109.382">  2  3  1 -1</clus>
</clustering>
</event>
<event>
 6    0  0.3800129E+002  0.2443363E+03  0.7546771E-02  0.1116937E+00
         21   -1    0    0  504  502  0.00000000000E+00  0.00000000000E+00  0.70531556206E+03  0.70531556206E+03  0.00000000000E+00 0.  1.
          3   -1    0    0  503    0 -0.00000000000E+00 -0.00000000000E+00 -0.24401885254E+03  0.24401885254E+03  0.00000000000E+00 0.  1.
         21    1    1    2  503  505  0.33928598586E+02  0.21709774888E+02 -0.61855952772E+02  0.73814788633E+02  0.00000000000E+00 0.  1.
         21    1    1    2  504  501 -0.46578093956E+02 -0.67439882915E+01  0.57318664677E+02  0.74164880739E+02  0.00000000000E+00 0.  1.
         21    1    1    2  505  502  0.25428609274E+03 -0.96760787949E+02  0.47353719013E+03  0.54613325982E+03  0.00000000000E+00 0.  1.
          3    1    1    2  501    0 -0.24163659737E+03  0.81795001352E+02 -0.77031925190E+01  0.25522148540E+03  0.00000000000E+00 0.  1.
<scales pt_clust_3="40.27982" pt_clust_4="45.31669" pt_clust_5="244.33625" pt_clust_6="14000.00000"></scales>
<clustering>
<clus scale="   40.280">  2  3  1 -1</clus>
<clus scale="   45.317">  1  4  2 -1</clus>
<clus scale="  244.336">  1  5  2 -1</clus>
<clus scale="   45.317">  1  3  2 -1</clus>
</clustering>
</event>
<event>
 6    0  0.3800129E+002  0.1119918E+03  0.7546771E-02  0.1256925E+00
         21   -1    0    0  503  502  0.00000000000E+00  0.00000000000E+00  0.41309580108E+03  0.41309580108E+03  0.00000000000E+00 0.  1.
          2   -1    0    0  505    0 -0.00000000000E+00 -0.00000000000E+00 -0.52802247096E+03  0.52802247096E+03  0.00000000000E+00 0. -1.
         21    1    1    2  503  504 -0.40054772512E+02  0.49456123502E+01  0.25632936848E+03  0.25948716544E+03  0.00000000000E+00 0.  1.
         21    1    1    2  504  501  0.30010083215E+02 -0.63271673805E+02  0.11971438561E+03  0.13869190288E+03  0.00000000000E+00 0. -1.
         21    1    1    2  505  502  0.37449562779E+02 -0.78983206529E+02 -0.13972639623E+03  0.16481590478E+03  0.00000000000E+00 0. -1.
          2    1    1    2  501    0 -0.27404873482E+02  0.13730926798E+03 -0.35124402775E+03  0.37812329893E+03  0.00000000000E+00 0. -1.
<scales pt_clust_3="40.35894" pt_clust_4="59.24825" pt_clust_5="111.99177" pt_clust_6="14000.00000"></scales>
<clustering>
<clus scale="   40.359">  1  3  2 -1</clus>
<clus scale="   59.248">  1  4  2 -1</clus>
<clus scale="  111.992">  2  5  1 -1</clus>
<clus scale="   40.359">  1  3  2 -1</clus>
</clustering>
</event>
<event>
 6    0  0.3800129E+002  0.9269864E+02  0.7546771E-02  0.1296445E+00
         21   -1    0    0  503  502  0.00000000000E+00  0.00000000000E+00  0.54507278045E+03  0.54507278045E+03  0.00000000000E+00 0. -1.
         -2   -1    0    0    0  501 -0.00000000000E+00 -0.00000000000E+00 -0.42625844356E+03  0.42625844356E+03  0.00000000000E+00 0. -1.
         21    1    1    2  503  504  0.85564429465E+02  0.32307471561E+02  0.36437513217E+03  0.37567842798E+03  0.00000000000E+00 0. -1.
         21    1    1    2  504  501 -0.24697796988E+02  0.41626620821E+02 -0.16641375641E+03  0.17330982390E+03  0.00000000000E+00 0. -1.
         21    1    1    2  505  502 -0.21301346976E+02  0.34452052540E+02  0.15559287704E+03  0.16077883783E+03  0.00000000000E+00 0.  1.
         -2    1    1    2    0  505 -0.39565285501E+02 -0.10838614492E+03 -0.23473991592E+03  0.26156413430E+03  0.00000000000E+00 0. -1.
<scales pt_clust_3="92.69864" pt_clust_4="48.76297" pt_clust_5="40.50545" pt_clust_6="14000.00000"></scales>
<clustering>
<clus scale="   40.505">  1  5  2 -1</clus>
<clus scale="   48.763">  2  4  1 -1</clus>
<clus scale="   92.699">  1  3  2 -1</clus>
<clus scale="   40.505">  1  3  2 -1</clus>
</clustering>
</event>
<event>
 6    0  0.3800129E+002  0.1678716E+03  0.7546771E-02  0.1180086E+00
         21   -1    0    0  504  502  0.00000000000E+00  0.00000000000E+00  0.10279576388E+03  0.10279576388E+03  0.00000000000E+00 0. -1.
          2   -1    0    0  505    0 -0.00000000000E+00 -0.00000000000E+00 -0.19307117812E+04  0.19307117812E+04  0.00000000000E+00 0. -1.
         21    1    1    2  503  502  0.65811302482E+01 -0.31602473917E+02  0.12874864832E+02  0.34753270026E+02  0.00000000000E+00 0. -1.
         21    1    1    2  504  501  0.37511179862E+02 -0.47489795087E+01  0.34269252439E+02  0.51029629469E+02  0.00000000000E+00 0. -1.
         21    1    1    2  505  503 -0.12943198383E+03  0.11703930358E+03 -0.17997887386E+04  0.18082285089E+04  0.00000000000E+00 0. -1.
          2    1    1    2  501    0  0.85339673724E+02 -0.80687850158E+02 -0.75271395962E+02  0.13949613659E+03  0.00000000000E+00 0. -1.
<scales pt_clust_3="32.28045" pt_clust_4="46.49926" pt_clust_5="167.87165" pt_clust_6="14000.00000"></scales>
<clustering>
<clus scale="   32.280">  1  3  2 -1</clus>
<clus scale="   46.499">  1  4  2 -1</clus>
<clus scale="  167.872">  2  5  1 -1</clus>
<clus scale="   32.280">  1  3  2 -1</clus>
</clustering>
</event>
<event>
 6    0  0.3800129E+002  0.1019297E+03  0.7546771E-02  0.1276290E+00
         21   -1    0    0  504  502  0.00000000000E+00  0.00000000000E+00  0.67491141907E+03  0.67491141907E+03  0.00000000000E+00 0.  1.
          1   -1    0    0  505    0 -0.00000000000E+00 -0.00000000000E+00 -0.17438257325E+04  0.17438257325E+04  0.00000000000E+00 0.  1.
         21    1    1    2  503  502 -0.11195539987E+03 -0.98979077924E+02  0.62966979010E+03  0.64715911026E+03  0.00000000000E+00 0.  1.
         21    1    1    2  504  501  0.31619199470E+02  0.37808975417E+02  0.98600947468E+01  0.50264439375E+02  0.00000000000E+00 0. -1.
         21    1    1    2  505  503 -0.23860400267E+02 -0.21807765231E+02 -0.66139301773E+02  0.73615926024E+02  0.00000000000E+00 0. -1.
          1    1    1    2  501    0  0.10419660067E+03  0.82977867737E+02 -0.16423048965E+04  0.16476976759E+04  0.00000000000E+00 0.  1.
<scales pt_clust_3="14000.00000" pt_clust_4="48.90125" pt_clust_5="32.32487" pt_clust_6="101.92965"></scales>
<clustering>
<clus scale="   32.325">  2  5  1 -1</clus>
<clus scale="   48.901">  1  4  2 -1</clus>
<clus scale="  101.930">  2  6  1 -1</clus>
<clus scale="   48.901">  1  3  2 -1</clus>
</clustering>
</event>
<event>
 6    0  0.3800129E+002  0.1240327E+03  0.7546771E-02  0.1236589E+00
          2   -1    0    0  503    0 -0.00000000000E+00  0.00000000000E+00  0.22342342352E+04  0.22342342352E+04  0.00000000000E+00 0. -1.
         21   -1    0    0  501  502  0.00000000000E+00 -0.00000000000E+00 -0.20087904136E+02  0.20087904136E+02  0.00000000000E+00 0. -1.
         21    1    1    2  503  505  0.31997232786E+02 -0.99633163001E+01  0.60259777205E+03  0.60352892678E+03  0.00000000000E+00 0. -1.
         21    1    1    2  504  502  0.42889007521E+02 -0.40162402488E+02  0.86661524239E+02  0.10470293846E+03  0.00000000000E+00 0. -1.
         21    1    1    2  505  504  0.22943839569E+02 -0.55850368638E+02  0.12527417229E+03  0.13906581785E+03  0.00000000000E+00 0. -1.
          2    1    1    2  501    0 -0.97830079876E+02  0.10597608743E+03  0.13996128624E+04  0.14070244562E+04  0.00000000000E+00 0. -1.
<scales pt_clust_3="33.51254" pt_clust_4="30.47011" pt_clust_5="30.47011" pt_clust_6="120.12522"></scales>
<clustering>
<clus scale="   30.470">  4  5 -1 -1</clus>
<clus scale="   33.513">  1  3  2 -1</clus>
<clus scale="  120.125">  1  6  2 -1</clus>
<clus scale="  124.033">  2  3  1 -1</clus>
</clustering>
</event>
<event>
 6    0  0.3800129E+002  0.2665837E+03  0.7546771E-02  0.1103251E+00
          2   -1    0    0  503    0 -0.00000000000E+00  0.00000000000E+00  0.10280884258E+04  0.10280884258E+04  0.00000000000E+00 0.  1.
         21   -1    0    0  505  502  0.00000000000E+00 -0.00000000000E+00 -0.45536179352E+03  0.45536179352E+03  0.00000000000E+00 0.  1.
         21    1    1    2  503  504  0.45334078461E+02  0.77017877455E+00  0.52497514967E+02  0.69366857526E+02  0.00000000000E+00 0.  1.
         21    1    1    2  504  502  0.12751835342E+03 -0.14733577446E+03 -0.34710104843E+03  0.39805514532E+03  0.00000000000E+00 0.  1.
         21    1    1    2  505  501 -0.25534494585E+02 -0.10412938501E+03  0.64965485096E+01  0.10741109989E+03  0.00000000000E+00 0.  1.
          2    1    1    2  501    0 -0.14731793729E+03  0.25069498070E+03  0.86083361723E+03  0.90861711659E+03  0.00000000000E+00 0.  1.
<scales pt_clust_3="45.34062" pt_clust_4="266.58369" pt_clust_5="106.56588" pt_clust_6="14000.00000"></scales>
<clustering>
<clus scale="   45.341">  1  3  2 -1</clus>
<clus scale="  106.566">  2  5  1 -1</clus>
<clus scale="  266.584">  2  4  1 -1</clus>
<clus scale="  106.566">  2  3  1 -1</clus>
</clustering>
</event>
<event>
 6    0  0.3800129E+002  0.9100720E+02  0.7546771E-02  0.1300431E+00
         21   -1    0    0  505  502  0.00000000000E+00  0.00000000000E+00  0.81408854693E+03  0.81408854693E+03  0.00000000000E+00 0.  1.
          2   -1    0    0  503    0 -0.00000000000E+00 -0.00000000000E+00 -0.15799602215E+03  0.15799602215E+03  0.00000000000E+00 0.  1.
         21    1    1    2  503  502 -0.31354730118E+01 -0.12719577276E+03  0.70942476611E+03  0.72074412559E+03  0.00000000000E+00 0.  1.
         21    1    1    2  504  501  0.24528998584E+01  0.51439764625E+02 -0.86847651761E+01  0.52225388927E+02  0.00000000000E+00 0.  1.
         21    1    1    2  505  504 -0.14348037441E+02  0.29912582370E+02  0.68500259373E+02  0.76111196920E+02  0.00000000000E+00 0.  1.
          2    1    1    2  501    0  0.15030610595E+02  0.45843425768E+02 -0.11314773552E+03  0.12300385764E+03  0.00000000000E+00 0.  1.
<scales pt_clust_3="91.00720" pt_clust_4="14000.00000" pt_clust_5="33.17573" pt_clust_6="48.40395"></scales>
<clustering>
<clus scale="   33.176">  1  5  2 -1</clus>
<clus scale="   48.404">  2  6  1 -1</clus>
<clus scale="   91.007">  1  3  2 -1</clus>
<clus scale="   33.176">  1  3  2 -1</clus>
</clustering>
</event>
<event>
 6    0  0.3800129E+002  0.2976787E+03  0.7546771E-02  0.1086407E+00
          4   -1    0    0  502    0 -0.00000000000E+00  0.00000000000E+00  0.23165778349E+03  0.23165778349E+03  0.00000000000E+00 0.  1.
         21   -1    0    0  504  502  0.00000000000E+00 -0.00000000000E+00 -0.10088566569E+04  0.10088566569E+04  0.00000000000E+00 0.  1.
         21    1    1    2  503  501 -0.27313627157E+02 -0.33860119675E+02 -0.91314639729E+01  0.44451384312E+02  0.00000000000E+00 0. -1.
         21    1    1    2  504  505  0.13426906072E+03  0.29247288643E+02 -0.53320019639E+03  0.55062331407E+03  0.00000000000E+00 0.  1.
         21    1    1    2  505  503  0.13437817883E+03  0.53798159675E+02 -0.34613205431E+03  0.37517880530E+03  0.00000000000E+00 0.  1.
          4    1    1    2  501    0 -0.24133361240E+03 -0.49185328643E+02  0.11126484124E+03  0.27026093673E+03  0.00000000000E+00 0.  1.
<scales pt_clust_3="41.05969" pt_clust_4="67.62084" pt_clust_5="289.62796" pt_clust_6="41.05969"></scales>
<clustering>
<clus scale="   41.060">  3  6 -1 -1</clus>
<clus scale="   67.621">  4  5 -1 -1</clus>
<clus scale="  289.628">  2  4  1 -1</clus>
<clus scale="  289.628">  2  3  1 -1</clus>
</clustering>
</event>
<event>
 6    0  0.3800129E+002  0.9259159E+02  0.7546771E-02  0.1296694E+00
         21   -1    0    0  503  502  0.00000000000E+00  0.00000000000E+00  0.78979551039E+02  0.78979551039E+02  0.00000000000E+00 0. -1.
          1   -1    0    0  505    0 -0.00000000000E+00 -0.00000000000E+00 -0.23494777054E+04  0.23494777054E+04  0.00000000000E+00 0.  1.
         21    1    1    2  503  501 -0.72700462606E+01 -0.78360650999E+02  0.76460582352E+01  0.79067739339E+02  0.00000000000E+00 0. -1.
         21    1    1    2  504  502 -0.40128580615E+02  0.55949942851E+02 -0.83909444467E+01  0.69362144112E+02  0.00000000000E+00 0. -1.
         21    1    1    2  505  504 -0.38128881841E+02  0.83421260578E+02 -0.15425405740E+04  0.15452651361E+04  0.00000000000E+00 0.  1.
          1    1    1    2  501    0  0.85527508716E+02 -0.61010552429E+02 -0.72721269413E+03  0.73476223688E+03  0.00000000000E+00 0.  1.
<scales pt_clust_3="51.62118" pt_clust_4="68.85273" pt_clust_5="14000.00000" pt_clust_6="92.59159"></scales>
<clustering>
<clus scale="   68.853">  1  4  2 -1</clus>
<clus scale="   51.621">  1  3  2 -1</clus>
<clus scale="   92.592">  1  6  2 -1</clus>
<clus scale="   68.853">  1  3  2 -1</clus>
</clustering>
</event>
<event>
 6    0  0.3800129E+002  0.2528618E+03  0.7546771E-02  0.1111509E+00
         -1   -1    0    0    0  501 -0.00000000000E+00  0.00000000000E+00  0.10831346598E+04  0.10831346598E+04  0.00000000000E+00 0. -1.
         21   -1    0    0  505  502  0.00000000000E+00 -0.00000000000E+00 -0.44539423016E+03  0.44539423016E+03  0.00000000000E+00 0.  1.
         21    1    1    2  503  504 -0.31089540936E+02 -0.68583182180E+02  0.19620570079E+03  0.21015920027E+03  0.00000000000E+00 0.  1.
         21    1    1    2  504  501 -0.16335284669E+02 -0.38787004280E+02  0.21819290762E+02  0.47406272534E+02  0.00000000000E+00 0.  1.
         21    1    1    2  505  503 -0.15428331840E+03 -0.19354577582E+03 -0.34510274429E+03  0.42468719523E+03  0.00000000000E+00 0.  1.
         -1    1    1    2    0  502  0.20170814401E+03  0.30091596228E+03  0.76481818242E+03  0.84627622197E+03  0.00000000000E+00 0. -1.
<scales pt_clust_3="83.45365" pt_clust_4="42.08650" pt_clust_5="252.86185" pt_clust_6="14000.00000"></scales>
<clustering>
<clus scale="   42.086">  1  4  2 -1</clus>
<clus scale="   83.454">  1  3  2 -1</clus>
<clus scale="  252.862">  2  5  1 -1</clus>
<clus scale="  252.862">  2  3  1 -1</clus>
</clustering>
</event>
<event>
 6    0  0.3800129E+002  0.1007695E+03  0.7546771E-02  0.1278686E+00
         21   -1    0    0  504  502  0.00000000000E+00  0.00000000000E+00  0.19594416701E+03  0.19594416701E+03  0.00000000000E+00 0.  1.
          2   -1    0    0  503    0 -0.00000000000E+00 -0.00000000000E+00 -0.24201612314E+04  0.24201612314E+04  0.00000000000E+00 0. -1.
         21    1    1    2  503  505 -0.43279845521E+02  0.90824556883E+02  0.79439092862E+02  0.12819054035E+03  0.00000000000E+00 0.  1.
         21    1    1    2  504  501 -0.45523273855E+02  0.18737077556E+02 -0.77646719682E+02  0.91937259124E+02  0.00000000000E+00 0.  1.
         21    1    1    2  505  502  0.35165229788E+02 -0.24243037042E+02  0.78445692242E+02  0.89319901827E+02  0.00000000000E+00 0.  1.
          2    1    1    2  501    0  0.53637889588E+02 -0.85318597397E+02 -0.23044551298E+04  0.23066576971E+04  0.00000000000E+00 0. -1.
<scales pt_clust_3="100.76954" pt_clust_4="46.57028" pt_clust_5="42.71204" pt_clust_6="14000.00000"></scales>
<clustering>
<clus scale="   42.712">  1  5  2 -1</clus>
<clus scale="   46.570">  1  4  2 -1</clus>
<clus scale="  100.770">  1  3  2 -1</clus>
<clus scale="   42.712">  1  3  2 -1</clus>
</clustering>
</event>
<event>
 6    0  0.3800129E+002  0.1874064E+03  0.7546771E-02  0.1160822E+00
         21   -1    0    0  505  502  0.00000000000E+00  0.00000000000E+00  0.19567119227E+04  0.19567119227E+04  0.00000000000E+00 0.  1.
          2   -1    0    0  504    0 -0.00000000000E+00 -0.00000000000E+00 -0.21872999096E+04  0.21872999096E+04  0.00000000000E+00 0. -1.
         21    1    1    2  503  501 -0.61640819188E+02 -0.30982566453E+02  0.93579524116E+03  0.93833482478E+03  0.00000000000E+00 0.  1.
         21    1    1    2  504  502  0.59767408562E+01  0.34330417387E+02 -0.15396639708E+03  0.15786054104E+03  0.00000000000E+00 0. -1.
         21    1    1    2  505  503 -0.11072583010E+03 -0.29161710213E+02  0.10109710775E+04  0.10174345848E+04  0.00000000000E+00 0.  1.
          2    1    1    2  501    0  0.16638990844E+03  0.25813859279E+02 -0.20233879086E+04  0.20303818817E+04  0.00000000000E+00 0. -1.
<scales pt_clust_3="32.99883" pt_clust_4="34.84679" pt_clust_5="32.99883" pt_clust_6="182.52092"></scales>
<clustering>
<clus scale="   32.999">  3  5 -1 -1</clus>
<clus scale="   34.847">  2  4  1 -1</clus>
<clus scale="  182.521">  2  6  1 -1</clus>
<clus scale="  187.406">  1  3  2 -1</clus>
</clustering>
</event>
<event>
 6    0  0.3800129E+002  0.1048382E+03  0.7546771E-02  0.1270439E+00
          1   -1    0    0  505    0 -0.00000000000E+00  0.00000000000E+00  0.28335752538E+04  0.28335752538E+04  0.00000000000E+00 0. -1.
         21   -1    0    0  503  502  0.00000000000E+00 -0.00000000000E+00 -0.16875889501E+02  0.16875889501E+02  0.00000000000E+00 0. -1.
         21    1    1    2  503  501 -0.27836421436E+02 -0.89425362586E+02  0.15561018290E+03  0.18162128414E+03  0.00000000000E+00 0. -1.
         21    1    1    2  504  502  0.39493509623E+02  0.46538069401E+02  0.47447619169E+03  0.47838602162E+03  0.00000000000E+00 0.  1.
         21    1    1    2  505  504  0.53680302206E+02  0.30708853300E+02  0.90695274403E+03  0.90905879261E+03  0.00000000000E+00 0. -1.
          1    1    1    2  501    0 -0.65337390394E+02  0.12178439886E+02  0.12796602457E+04  0.12813850449E+04  0.00000000000E+00 0. -1.
<scales pt_clust_3="94.77488" pt_clust_4="44.52608" pt_clust_5="44.52608" pt_clust_6="66.46269"></scales>
<clustering>
<clus scale="   44.526">  4  5 -1 -1</clus>
<clus scale="   66.463">  1  6  2 -1</clus>
<clus scale="   94.775">  2  3  1 -1</clus>
<clus scale="   94.775">  2  3  1 -1</clus>
</clustering>
</event>
<event>
 6    0  0.3800129E+002  0.9392592E+02  0.7546771E-02  0.1293614E+00
         21   -1    0    0  503  502  0.00000000000E+00  0.00000000000E+00  0.97472062192E+02  0.97472062192E+02  0.00000000000E+00 0. -1.
          2   -1    0    0  502    0 -0.00000000000E+00 -0.00000000000E+00 -0.56036127537E+04  0.56036127537E+04  0.00000000000E+00 0.  1.
         21    1    1    2  503  505 -0.48666849601E+02 -0.61643253037E+01  0.22085086190E+02  0.53797882752E+02  0.00000000000E+00 0. -1.
         21    1    1    2  504  501  0.87656356189E+02 -0.28854178225E+02 -0.58214478775E+03  0.58941390745E+03  0.00000000000E+00 0. -1.
         21    1    1    2  505  504 -0.33245936576E+01 -0.56459167585E+02  0.40981618761E+02  0.69843994757E+02  0.00000000000E+00 0. -1.
          2    1    1    2  501    0 -0.35664912930E+02  0.91477671113E+02 -0.49870626087E+04  0.49880290310E+04  0.00000000000E+00 0.  1.
<scales pt_clust_3="49.05569" pt_clust_4="93.92592" pt_clust_5="78.94860" pt_clust_6="14000.00000"></scales>
<clustering>
<clus scale="   49.056">  1  3  2 -1</clus>
<clus scale="   78.949">  1  5  2 -1</clus>
<clus scale="   93.926">  1  4  2 -1</clus>
<clus scale="   49.056">  1  3  2 -1</clus>
</clustering>
</event>
<event>
 6    0  0.3800129E+002  0.1758213E+03  0.7546771E-02  0.1171910E+00
         21   -1    0    0  504  502  0.00000000000E+00  0.00000000000E+00  0.59516131893E+02  0.59516131893E+02  0.00000000000E+00 0.  1.
          2   -1    0    0  505    0 -0.00000000000E+00 -0.00000000000E+00 -0.12438251404E+04  0.12438251404E+04  0.00000000000E+00 0. -1.
         21    1    1    2  503  501 -0.11882248171E+03  0.94019725101E+02 -0.16737772706E+03  0.22577376815E+03  0.00000000000E+00 0.  1.
         21    1    1    2  504  503 -0.10935224461E+02  0.42671610244E+02 -0.62408392741E+01  0.44490375698E+02  0.00000000000E+00 0. -1.
         21    1    1    2  505  502 -0.15330720472E+02 -0.30148743748E+02 -0.15033617854E+03  0.15409394640E+03  0.00000000000E+00 0. -1.
          2    1    1    2  501    0  0.14508842664E+03 -0.10654259160E+03 -0.86035426363E+03  0.87898318205E+03  0.00000000000E+00 0. -1.
<scales pt_clust_3="14000.00000" pt_clust_4="43.46339" pt_clust_5="33.82274" pt_clust_6="175.82135"></scales>
<clustering>
<clus scale="   33.823">  2  5  1 -1</clus>
<clus scale="   43.463">  1  4  2 -1</clus>
<clus scale="  175.821">  2  6  1 -1</clus>
<clus scale="   43.463">  1  3  2 -1</clus>
</clustering>
</event>
<event>
 6    0  0.3800129E+002  0.8695319E+02  0.7546771E-02  0.1310402E+00
          2   -1    0    0  503    0 -0.00000000000E+00  0.00000000000E+00  0.19828127335E+04  0.19828127335E+04  0.00000000000E+00 0. -1.
         21   -1    0    0  501  502  0.00000000000E+00 -0.00000000000E+00 -0.11866753480E+02  0.11866753480E+02  0.00000000000E+00 0. -1.
         21    1    1    2  503  504 -0.56085471259E+02  0.65010093498E+02  0.10277806437E+04  0.10313607244E+04  0.00000000000E+00 0. -1.
         21    1    1    2  504  505  0.79747991292E+02 -0.48053837522E+02  0.45767036980E+03  0.46704505223E+03  0.00000000000E+00 0. -1.
         21    1    1    2  505  502  0.30623045168E+02  0.19407235524E+02  0.13759681740E+03  0.14229299296E+03  0.00000000000E+00 0.  1.
          2    1    1    2  501    0 -0.54285565201E+02 -0.36363491500E+02  0.34789814911E+03  0.35398071735E+03  0.00000000000E+00 0. -1.
<scales pt_clust_3="14000.00000" pt_clust_4="86.95319" pt_clust_5="36.25482" pt_clust_6="53.76015"></scales>
<clustering>
<clus scale="   36.255">  2  5  1 -1</clus>
<clus scale="   53.760">  2  6  1 -1</clus>
<clus scale="   86.953">  2  4  1 -1</clus>
<clus scale="   36.255">  2  3  1 -1</clus>
</clustering>
</event>
<event>
 6    0  0.3800129E+002  0.7943776E+02  0.7546771E-02  0.1330655E+00
          1   -1    0    0  505    0 -0.00000000000E+00  0.00000000000E+00  0.54252713122E+04  0.54252713122E+04  0.00000000000E+00 0.  1.
         21   -1    0    0  504  502  0.00000000000E+00 -0.00000000000E+00 -0.30790212483E+02  0.30790212483E+02  0.00000000000E+00 0.  1.
         21    1    1    2  503  502 -0.80779689910E+02  0.14790227614E+02  0.37561096341E+02  0.90304734611E+02  0.00000000000E+00 0.  1.
         21    1    1    2  504  501  0.67558822689E+02  0.19898347172E+02  0.36904496178E+03  0.37570510052E+03  0.00000000000E+00 0.  1.
         21    1    1    2  505  503  0.32913940066E+02  0.47264986136E+02  0.27225475014E+04  0.27231566616E+04  0.00000000000E+00 0.  1.
          1    1    1    2  501    0 -0.19693072845E+02 -0.81953560922E+02  0.22653275402E+04  0.22668950279E+04  0.00000000000E+00 0.  1.
<scales pt_clust_3="14000.00000" pt_clust_4="79.43776" pt_clust_5="57.59606" pt_clust_6="43.05186"></scales>
<clustering>
<clus scale="   57.596">  1  5  2 -1</clus>
<clus scale="   43.052">  1  6  2 -1</clus>
<clus scale="   79.438">  1  4  2 -1</clus>
<clus scale="   79.438">  2  3  1 -1</clus>
</clustering>
</event>
<event>
 6    0  0.3800129E+002  0.1027679E+03  0.7546771E-02  0.1274581E+00
         21   -1    0    0  504  502  0.00000000000E+00  0.00000000000E+00  0.13640243091E+03  0.13640243091E+03  0.00000000000E+00 0.  1.
          3   -1    0    0  503    0 -0.00000000000E+00 -0.00000000000E+00 -0.86867229046E+03  0.86867229046E+03  0.00000000000E+00 0.  1.
         21    1    1    2  503  502  0.43672173538E+02  0.13371164829E+01 -0.77608565115E+01  0.44376542405E+02  0.00000000000E+00 0.  1.
         21    1    1    2  504  505 -0.74128672328E+02 -0.11088464163E+03  0.60179929240E+02  0.14632869744E+03  0.00000000000E+00 0.  1.
         21    1    1    2  505  501  0.10726591290E+02  0.75748516088E+02 -0.88096686367E+02  0.11667871956E+03  0.00000000000E+00 0. -1.
          3    1    1    2  501    0  0.19729907500E+02  0.33799009061E+02 -0.69659224591E+03  0.69769076196E+03  0.00000000000E+00 0.  1.
<scales pt_clust_3="47.11752" pt_clust_4="102.76791" pt_clust_5="14000.00000" pt_clust_6="39.13620"></scales>
<clustering>
<clus scale="   39.136">  2  6  1 -1</clus>
<clus scale="   47.118">  1  3  2 -1</clus>
<clus scale="  102.768">  1  4  2 -1</clus>
<clus scale="   47.118">  1  3  2 -1</clus>
</clustering>
</event>
<event>
 6    0  0.3800129E+002  0.9744421E+02  0.7546771E-02  0.1285764E+00
          1   -1    0    0  505    0 -0.00000000000E+00  0.00000000000E+00  0.43892399024E+03  0.43892399024E+03  0.00000000000E+00 0. -1.
         21   -1    0    0  504  502  0.00000000000E+00 -0.00000000000E+00 -0.27414358519E+03  0.27414358519E+03  0.00000000000E+00 0. -1.
         21    1    1    2  503  501 -0.14470363083E+03  0.49581453012E+02 -0.18261955139E+03  0.23821704769E+03  0.00000000000E+00 0. -1.
         21    1    1    2  504  503  0.61405898624E+02 -0.14303601641E+02 -0.23356844515E+02  0.67237040323E+02  0.00000000000E+00 0. -1.
         21    1    1    2  505  502 -0.16852075729E+02  0.25932736909E+02  0.17870577309E+02  0.35719138193E+02  0.00000000000E+00 0.  1.
          1    1    1    2  501    0  0.10014980794E+03 -0.61210588279E+02  0.35288622365E+03  0.37189434923E+03  0.00000000000E+00 0. -1.
<scales pt_clust_3="97.44421" pt_clust_4="61.87338" pt_clust_5="30.92732" pt_clust_6="14000.00000"></scales>
<clustering>
<clus scale="   30.927">  1  5  2 -1</clus>
<clus scale="   61.873">  2  4  1 -1</clus>
<clus scale="   97.444">  2  3  1 -1</clus>
<clus scale="   61.873">  2  3  1 -1</clus>
</clustering>
</event>
<event>
 6    0  0.3800129E+002  0.9320055E+02  0.7546771E-02  0.1295281E+00
          4   -1    0    0  503    0 -0.00000000000E+00  0.00000000000E+00  0.32360623772E+02  0.32360623772E+02  0.00000000000E+00 0.  1.
         21   -1    0    0  505  502  0.00000000000E+00 -0.00000000000E+00 -0.14983642414E+04  0.14983642414E+04  0.00000000000E+00 0.  1.
         21    1    1    2  503  504  0.37927153667E+02  0.70649417482E+01 -0.79758493890E+02  0.88599095564E+02  0.00000000000E+00 0.  1.
         21    1    1    2  504  502 -0.29283829415E+02 -0.76739651847E+02 -0.72105695573E+03  0.72572009083E+03  0.00000000000E+00 0.  1.
         21    1    1    2  505  501  0.30439292397E+02  0.11634869639E+03 -0.63885796223E+03  0.65007927638E+03  0.00000000000E+00 0.  1.
          4    1    1    2  501    0 -0.39082616650E+02 -0.46673986294E+02 -0.26330205806E+02  0.66326402424E+02  0.00000000000E+00 0.  1.
<scales pt_clust_3="38.57956" pt_clust_4="93.20055" pt_clust_5="14000.00000" pt_clust_6="43.29527"></scales>
<clustering>
<clus scale="   38.580">  1  3  2 -1</clus>
<clus scale="   43.295">  1  6  2 -1</clus>
<clus scale="   93.201">  2  4  1 -1</clus>
<clus scale="   93.201">  2  3  1 -1</clus>
</clustering>
</event>
<event>
 6    0  0.3800129E+002  0.1420885E+03  0.7546771E-02  0.1210546E+00
         21   -1    0    0  501  502  0.00000000000E+00  0.00000000000E+00  0.46590465437E+03  0.46590465437E+03  0.00000000000E+00 0. -1.
          2   -1    0    0  505    0 -0.00000000000E+00 -0.00000000000E+00 -0.28906517954E+04  0.28906517954E+04  0.00000000000E+00 0. -1.
         21    1    1    2  503  504  0.35757625634E+02 -0.19679655487E+02  0.86516772101E+02  0.95661112715E+02  0.00000000000E+00 0. -1.
         21    1    1    2  504  502  0.96655588137E+02  0.12653574879E+02  0.34801559860E+03  0.36141011683E+03  0.00000000000E+00 0. -1.
         21    1    1    2  505  503  0.81140404716E+02 -0.66708313889E+02 -0.16401379630E+03  0.19476727086E+03  0.00000000000E+00 0.  1.
          2    1    1    2  501    0 -0.21355361849E+03  0.73734394497E+02 -0.26952657154E+04  0.27047179493E+04  0.00000000000E+00 0. -1.
<scales pt_clust_3="32.43834" pt_clust_4="32.43834" pt_clust_5="105.04173" pt_clust_6="132.95122"></scales>
<clustering>
<clus scale="   32.438">  3  4 -1 -1</clus>
<clus scale="  105.042">  2  5  1 -1</clus>
<clus scale="  132.951">  2  6  1 -1</clus>
<clus scale="  142.088">  1  3  2 -1</clus>
</clustering>
</event>
<event>
 6    0  0.3800129E+002  0.9022784E+02  0.7546771E-02  0.1302301E+00
         21   -1    0    0  503  502  0.00000000000E+00  0.00000000000E+00  0.12559533853E+03  0.12559533853E+03  0.00000000000E+00 0.  1.
          1   -1    0    0  505    0 -0.00000000000E+00 -0.00000000000E+00 -0.10276138170E+04  0.10276138170E+04  0.00000000000E+00 0. -1.
         21    1    1    2  503  501 -0.35461295347E+02  0.20344021864E+02  0.12961723047E+02  0.42888098089E+02  0.00000000000E+00 0. -1.
         21    1    1    2  504  502  0.23924852523E+02  0.34895945963E+02  0.82688382217E+02  0.92884305275E+02  0.00000000000E+00 0.  1.
         21    1    1    2  505  504 -0.64192172572E+02 -0.91371275660E+02 -0.46629069775E+03  0.47947508783E+03  0.00000000000E+00 0. -1.
          1    1    1    2  501    0  0.75728615397E+02  0.36131307833E+02 -0.53137788594E+03  0.53796166431E+03  0.00000000000E+00 0. -1.
<scales pt_clust_3="40.88255" pt_clust_4="53.77180" pt_clust_5="14000.00000" pt_clust_6="90.22784"></scales>
<clustering>
<clus scale="   40.883">  1  3  2 -1</clus>
<clus scale="   53.772">  1  4  2 -1</clus>
<clus scale="   90.228">  2  6  1 -1</clus>
<clus scale="   40.883">  1  3  2 -1</clus>
</clustering>
</event>
<event>
 6    0  0.3800129E+002  0.1102095E+03  0.7546771E-02  0.1260182E+00
          2   -1    0    0  504    0 -0.00000000000E+00  0.00000000000E+00  0.14688702994E+04  0.14688702994E+04  0.00000000000E+00 0. -1.
         21   -1    0    0  503  502  0.00000000000E+00 -0.00000000000E+00 -0.32152329407E+03  0.32152329407E+03  0.00000000000E+00 0.  1.
         21    1    1    2  503  501  0.35984449424E+02 -0.13362799262E+02 -0.52890808211E+02  0.65351990005E+02  0.00000000000E+00 0.  1.
         21    1    1    2  504  505  0.36155727599E+02  0.12239916703E+02  0.48126991424E+03  0.48278129889E+03  0.00000000000E+00 0. -1.
         21    1    1    2  505  502 -0.39947951927E+02 -0.97201533661E+02 -0.24822243701E+03  0.26955213826E+03  0.00000000000E+00 0.  1.
          2    1    1    2  501    0 -0.32192225096E+02  0.98324416220E+02  0.96719033635E+03  0.97270816636E+03  0.00000000000E+00 0. -1.
<scales pt_clust_3="38.57287" pt_clust_4="38.17135" pt_clust_5="110.20955" pt_clust_6="14000.00000"></scales>
<clustering>
<clus scale="   38.171">  1  4  2 -1</clus>
<clus scale="   38.573">  2  3  1 -1</clus>
<clus scale="  110.210">  2  5  1 -1</clus>
<clus scale="   38.573">  2  3  1 -1</clus>
</clustering>
</event>
<event>
 6    0  0.3800129E+002  0.1203472E+03  0.7546771E-02  0.1242525E+00
          3   -1    0    0  503    0 -0.00000000000E+00  0.00000000000E+00  0.50807452636E+03  0.50807452636E+03  0.00000000000E+00 0. -1.
         21   -1    0    0  504  502  0.00000000000E+00 -0.00000000000E+00 -0.35842179452E+03  0.35842179452E+03  0.00000000000E+00 0.  1.
         21    1    1    2  503  502 -0.10258363341E+02  0.53431652141E+02  0.12249760544E+03  0.13403670694E+03  0.00000000000E+00 0. -1.
         21    1    1    2  504  505 -0.31990863889E+02  0.49882248617E+01 -0.18027772052E+03  0.18316209836E+03  0.00000000000E+00 0.  1.
         21    1    1    2  505  501 -0.84939753568E+02 -0.44825494940E+02 -0.14525209193E+03  0.17413287152E+03  0.00000000000E+00 0.  1.
          3    1    1    2  501    0  0.12718898080E+03 -0.13594382063E+02  0.35268493885E+03  0.37516464406E+03  0.00000000000E+00 0. -1.
<scales pt_clust_3="54.77343" pt_clust_4="32.37743" pt_clust_5="120.34716" pt_clust_6="14000.00000"></scales>
<clustering>
<clus scale="   32.377">  2  4  1 -1</clus>
<clus scale="   54.773">  1  3  2 -1</clus>
<clus scale="  120.347">  2  5  1 -1</clus>
<clus scale="   32.377">  2  3  1 -1</clus>
</clustering>
</event>
<event>
 6    0  0.3800129E+002  0.1464725E+03  0.7546771E-02  0.1204876E+00
          2   -1    0    0  503    0 -0.00000000000E+00  0.00000000000E+00  0.92144166516E+03  0.92144166516E+03  0.00000000000E+00 0. -1.
         21   -1    0    0  504  502  0.00000000000E+00 -0.00000000000E+00 -0.15317615748E+03  0.15317615748E+03  0.00000000000E+00 0. -1.
         21    1    1    2  503  502 -0.15960240283E+02  0.45426440863E+02  0.46418367802E+02  0.66880159007E+02  0.00000000000E+00 0. -1.
         21    1    1    2  504  505 -0.42123171914E+02 -0.13577615112E+03 -0.51556964952E+02  0.15122051931E+03  0.00000000000E+00 0. -1.
         21    1    1    2  505  501  0.21318236902E+02 -0.33806084624E+02 -0.25355107161E+02  0.47330751540E+02  0.00000000000E+00 0. -1.
          2    1    1    2  501    0  0.36765175295E+02  0.12415579488E+03  0.79875921200E+03  0.80918639278E+03  0.00000000000E+00 0. -1.
<scales pt_clust_3="48.14863" pt_clust_4="34.83434" pt_clust_5="34.83434" pt_clust_6="130.91229"></scales>
<clustering>
<clus scale="   34.834">  4  5 -1 -1</clus>
<clus scale="   48.149">  2  3  1 -1</clus>
<clus scale="  130.912">  1  6  2 -1</clus>
<clus scale="   48.149">  2  3  1 -1</clus>
</clustering>
</event>
<event>
 6    0  0.3800129E+002  0.1116653E+03  0.7546771E-02  0.1257517E+00
          1   -1    0    0  504    0 -0.00000000000E+00  0.00000000000E+00  0.12559160209E+04  0.12559160209E+04  0.00000000000E+00 0. -1.
         21   -1    0    0  501  502  0.00000000000E+00 -0.00000000000E+00 -0.41344573423E+03  0.41344573423E+03  0.00000000000E+00 0.  1.
         21    1    1    2  503  502  0.10358754528E+03 -0.26285241340E+02 -0.28897121168E+03  0.30810007243E+03  0.00000000000E+00 0.  1.
         21    1    1    2  504  505 -0.15515079143E+02 -0.29830740296E+02  0.10837580163E+03  0.11347204557E+03  0.00000000000E+00 0.  1.
         21    1    1    2  505  503 -0.13957853149E+03  0.13084762802E+03 -0.27521539484E+02  0.19328917027E+03  0.00000000000E+00 0.  1.
          1    1    1    2  501    0  0.51506065348E+02 -0.74731646382E+02  0.10505872362E+04  0.10545004669E+04  0.00000000000E+00 0. -1.
<scales pt_clust_3="106.80647" pt_clust_4="33.62426" pt_clust_5="111.66533" pt_clust_6="14000.00000"></scales>
<clustering>
<clus scale="   33.624">  1  4  2 -1</clus>
<clus scale="  106.806">  2  3  1 -1</clus>
<clus scale="  111.665">  2  5  1 -1</clus>
<clus scale="  106.806">  2  3  1 -1</clus>
</clustering>
</event>
<event>
 6    0  0.3800129E+002  0.8531416E+02  0.7546771E-02  0.1314613E+00
          2   -1    0    0  505    0 -0.00000000000E+00  0.00000000000E+00  0.17535177476E+04  0.17535177476E+04  0.00000000000E+00 0. -1.
         21   -1    0    0  504  502  0.00000000000E+00 -0.00000000000E+00 -0.39549419668E+02  0.39549419668E+02  0.00000000000E+00 0. -1.
         21    1    1    2  503  501 -0.40034395417E+02  0.63322856587E+02  0.61822992998E+03  0.62275258595E+03  0.00000000000E+00 0. -1.
         21    1    1    2  504  503  0.24538472704E+02 -0.22118562138E+02  0.76073534256E+01  0.33900431558E+02  0.00000000000E+00 0. -1.
         21    1    1    2  505  502 -0.13403835581E+02  0.51009179850E+02  0.96550850922E+01  0.53617347056E+02  0.00000000000E+00 0. -1.
          2    1    1    2  501    0  0.28899758294E+02 -0.92213474298E+02  0.10784759594E+04  0.10827968027E+04  0.00000000000E+00 0. -1.
<scales pt_clust_3="14000.00000" pt_clust_4="33.03585" pt_clust_5="33.34333" pt_clust_6="85.31416"></scales>
<clustering>
<clus scale="   33.036">  2  4  1 -1</clus>
<clus scale="   33.343">  2  5  1 -1</clus>
<clus scale="   85.314">  1  6  2 -1</clus>
<clus scale="   33.036">  2  3  1 -1</clus>
</clustering>
</event>
<event>
 6    0  0.3800129E+002  0.7185762E+02  0.7546771E-02  0.1353888E+00
          2   -1    0    0  504    0 -0.00000000000E+00  0.00000000000E+00  0.61462655548E+03  0.61462655548E+03  0.00000000000E+00 0. -1.
         21   -1    0    0  501  502  0.00000000000E+00 -0.00000000000E+00 -0.21304211023E+03  0.21304211023E+03  0.00000000000E+00 0. -1.
         21    1    1    2  503  505 -0.53817348178E+02 -0.20546393861E+02 -0.14054320268E+03  0.15189092496E+03  0.00000000000E+00 0. -1.
         21    1    1    2  504  503  0.30787799466E+02 -0.49852193794E+02  0.71653795641E+02  0.92560230400E+02  0.00000000000E+00 0.  1.
         21    1    1    2  505  502  0.91671719669E+01 -0.37888247780E+02 -0.43132127881E+02  0.58137224025E+02  0.00000000000E+00 0.  1.
          2    1    1    2  501    0  0.13862376745E+02  0.10828683544E+03  0.51360598017E+03  0.52508028632E+03  0.00000000000E+00 0. -1.
<scales pt_clust_3="14000.00000" pt_clust_4="60.98279" pt_clust_5="38.98149" pt_clust_6="71.85762"></scales>
<clustering>
<clus scale="   38.981">  2  5  1 -1</clus>
<clus scale="   60.983">  1  4  2 -1</clus>
<clus scale="   71.858">  1  6  2 -1</clus>
<clus scale="   38.981">  2  3  1 -1</clus>
</clustering>
</event>
<event>
 6    0  0.3800129E+002  0.9849989E+02  0.7546771E-02  0.1283482E+00
         21   -1    0    0  503  502  0.00000000000E+00  0.00000000000E+00  0.13883989225E+03  0.13883989225E+03  0.00000000000E+00 0. -1.
         -1   -1    0    0    0  501 -0.00000000000E+00 -0.00000000000E+00 -0.17999845024E+04  0.17999845024E+04  0.00000000000E+00 0.  1.
         21    1    1    2  503  504 -0.64254121313E+00 -0.69630856066E+02 -0.46578028330E+02  0.83775782293E+02  0.00000000000E+00 0.  1.
         21    1    1    2  504  501  0.71246544051E+01 -0.76343156932E+02 -0.51496510419E+03  0.52064200449E+03  0.00000000000E+00 0.  1.
         21    1    1    2  505  502 -0.48635727927E+02 -0.21707644357E+02  0.10485361785E+03  0.11760500428E+03  0.00000000000E+00 0. -1.
         -1    1    1    2    0  505  0.42153614735E+02  0.16768165735E+03 -0.12044550955E+04  0.12168016036E+04  0.00000000000E+00 0.  1.
<scales pt_clust_3="98.49989" pt_clust_4="78.60349" pt_clust_5="53.26027" pt_clust_6="14000.00000"></scales>
<clustering>
<clus scale="   53.260">  1  5  2 -1</clus>
<clus scale="   78.603">  2  4  1 -1</clus>
<clus scale="   98.500">  1  3  2 -1</clus>
<clus scale="   53.260">  1  3  2 -1</clus>
</clustering>
</event>
<event>
 6    0  0.3800129E+002  0.8912185E+02  0.7546771E-02  0.1304992E+00
         21   -1    0    0  505  502  0.00000000000E+00  0.00000000000E+00  0.60587375072E+02  0.60587375072E+02  0.00000000000E+00 0. -1.
          2   -1    0    0  503    0 -0.00000000000E+00 -0.00000000000E+00 -0.17571468503E+04  0.17571468503E+04  0.00000000000E+00 0. -1.
         21    1    1    2  503  504  0.12056982000E+02 -0.72213138821E+02 -0.49208380300E+03  0.49750032905E+03  0.00000000000E+00 0. -1.
         21    1    1    2  504  502 -0.24153386409E+02 -0.20599392218E+02  0.16762627411E+02  0.35898561427E+02  0.00000000000E+00 0. -1.
         21    1    1    2  505  501  0.98828492158E+02  0.64941497227E+02 -0.87911510263E+02  0.14735298626E+03  0.00000000000E+00 0. -1.
          2    1    1    2  501    0 -0.86732087749E+02  0.27871033812E+02 -0.11333267893E+04  0.11369823486E+04  0.00000000000E+00 0. -1.
<scales pt_clust_3="74.53566" pt_clust_4="31.74462" pt_clust_5="89.12185" pt_clust_6="14000.00000"></scales>
<clustering>
<clus scale="   31.745">  1  4  2 -1</clus>
<clus scale="   74.536">  2  3  1 -1</clus>
<clus scale="   89.122">  1  5  2 -1</clus>
<clus scale="   31.745">  1  3  2 -1</clus>
</clustering>
</event>
<event>
 6    0  0.3800129E+002  0.1531452E+03  0.7546771E-02  0.1196661E+00
         21   -1    0    0  501  502  0.00000000000E+00  0.00000000000E+00  0.13524834563E+03  0.13524834563E+03  0.00000000000E+00 0. -1.
          1   -1    0    0  504    0 -0.00000000000E+00 -0.00000000000E+00 -0.17933680865E+04  0.17933680865E+04  0.00000000000E+00 0. -1.
         21    1    1    2  503  505 -0.92742084712E+02 -0.29160256681E+02  0.38230963554E+02  0.10446540777E+03  0.00000000000E+00 0. -1.
         21    1    1    2  504  503 -0.18870543485E+02  0.44087928434E+02 -0.75397084359E+03  0.75549445785E+03  0.00000000000E+00 0. -1.
         21    1    1    2  505  502 -0.52528926535E+02  0.76044930379E+01  0.43701835654E+02  0.68752940859E+02  0.00000000000E+00 0. -1.
          1    1    1    2  501    0  0.16414155473E+03 -0.22532164791E+02 -0.98608169652E+03  0.99990362568E+03  0.00000000000E+00 0. -1.
<scales pt_clust_3="30.67304" pt_clust_4="47.95668" pt_clust_5="30.67304" pt_clust_6="147.41156"></scales>
<clustering>
<clus scale="   30.673">  3  5 -1 -1</clus>
<clus scale="   47.957">  2  4  1 -1</clus>
<clus scale="  147.412">  2  6  1 -1</clus>
<clus scale="  153.145">  1  3  2 -1</clus>
</clustering>
</event>
<event>
 6    0  0.3800129E+002  0.6283726E+02  0.7546771E-02  0.1386297E+00
          2   -1    0    0  503    0 -0.00000000000E+00  0.00000000000E+00  0.39940011067E+04  0.39940011067E+04  0.00000000000E+00 0.  1.
         21   -1    0    0  501  502  0.00000000000E+00 -0.00000000000E+00 -0.29796159003E+03  0.29796159003E+03  0.00000000000E+00 0.  1.
         21    1    1    2  503  505  0.34269192156E+02 -0.43071521787E+02  0.98388978290E+03  0.98542814980E+03  0.00000000000E+00 0. -1.
         21    1    1    2  504  502 -0.46731510898E+01 -0.62223464545E+02 -0.18161570447E+03  0.19203609555E+03  0.00000000000E+00 0.  1.
         21    1    1    2  505  504  0.56346604962E+02  0.53959019314E+02 -0.95636134865E+02  0.12342117301E+03  0.00000000000E+00 0.  1.
          2    1    1    2  501    0 -0.85942646029E+02  0.51335967018E+02  0.29894015731E+04  0.29910772784E+04  0.00000000000E+00 0.  1.
<scales pt_clust_3="55.04120" pt_clust_4="14000.00000" pt_clust_5="62.83726" pt_clust_6="52.58868"></scales>
<clustering>
<clus scale="   55.041">  1  3  2 -1</clus>
<clus scale="   52.589">  1  6  2 -1</clus>
<clus scale="   62.837">  1  5  2 -1</clus>
<clus scale="   62.837">  2  3  1 -1</clus>
</clustering>
</event>
<event>
 6    0  0.3800129E+002  0.1255566E+03  0.7546771E-02  0.1234202E+00
         -4   -1    0    0    0  501 -0.00000000000E+00  0.00000000000E+00  0.94556359829E+02  0.94556359829E+02  0.00000000000E+00 0.  1.
         21   -1    0    0  503  502  0.00000000000E+00 -0.00000000000E+00 -0.12466474590E+04  0.12466474590E+04  0.00000000000E+00 0. -1.
         21    1    1    2  503  501 -0.71489675483E+01  0.39940024046E+02 -0.37877119241E+02  0.55506661040E+02  0.00000000000E+00 0. -1.
         21    1    1    2  504  502 -0.43720009993E+02  0.47700819957E+02 -0.73035746530E+03  0.73321813576E+03  0.00000000000E+00 0. -1.
         21    1    1    2  505  504 -0.24832965803E+02  0.50193591064E+02 -0.39106948444E+03  0.39505874808E+03  0.00000000000E+00 0. -1.
         -4    1    1    2    0  505  0.75701943344E+02 -0.13783443507E+03  0.72129698039E+01  0.15742027395E+03  0.00000000000E+00 0.  1.
<scales pt_clust_3="40.57479" pt_clust_4="31.23802" pt_clust_5="31.23802" pt_clust_6="120.98335"></scales>
<clustering>
<clus scale="   31.238">  4  5 -1 -1</clus>
<clus scale="   40.575">  1  3  2 -1</clus>
<clus scale="  120.983">  1  6  2 -1</clus>
<clus scale="  125.557">  2  3  1 -1</clus>
</clustering>
</event>
<event>
 6    0  0.3800129E+002  0.9611157E+02  0.7546771E-02  0.1288692E+00
         21   -1    0    0  503  502  0.00000000000E+00  0.00000000000E+00  0.75645653994E+02  0.75645653994E+02  0.00000000000E+00 0.  1.
          2   -1    0    0  504    0 -0.00000000000E+00 -0.00000000000E+00 -0.47110684400E+04  0.47110684400E+04  0.00000000000E+00 0.  1.
         21    1    1    2  503  505 -0.21499720688E+02  0.46159291305E+02 -0.37479739621E+02  0.63226964545E+02  0.00000000000E+00 0.  1.
         21    1    1    2  504  502 -0.41973109841E+02  0.30759226158E+02  0.49787992889E+02  0.72018859888E+02  0.00000000000E+00 0.  1.
         21    1    1    2  505  501 -0.18915996246E+02 -0.91592335786E+02 -0.17194296055E+04  0.17219712945E+04  0.00000000000E+00 0.  1.
          2    1    1    2  501    0  0.82388826776E+02  0.14673818323E+02 -0.29283014338E+04  0.29294969750E+04  0.00000000000E+00 0.  1.
<scales pt_clust_3="50.92070" pt_clust_4="96.11157" pt_clust_5="14000.00000" pt_clust_6="83.56218"></scales>
<clustering>
<clus scale="   50.921">  1  3  2 -1</clus>
<clus scale="   83.562">  2  6  1 -1</clus>
<clus scale="   96.112">  1  4  2 -1</clus>
<clus scale="   50.921">  1  3  2 -1</clus>
</clustering>
</event>
<event>
 6    0  0.3800129E+002  0.1114597E+03  0.7546771E-02  0.1257890E+00
          1   -1    0    0  504    0 -0.00000000000E+00  0.00000000000E+00  0.42278670278E+03  0.42278670278E+03  0.00000000000E+00 0.  1.
         21   -1    0    0  503  502  0.00000000000E+00 -0.00000000000E+00 -0.60480548077E+03  0.60480548077E+03  0.00000000000E+00 0. -1.
         21    1    1    2  503  501  0.18872537763E+02  0.39410422237E+02 -0.13683813884E+02  0.45788653888E+02  0.00000000000E+00 0. -1.
         21    1    1    2  504  505 -0.41446957192E+02 -0.21631621107E+02  0.49753060067E+02  0.68272573397E+02  0.00000000000E+00 0. -1.
         21    1    1    2  505  502  0.49608965947E+01 -0.14619595337E+03 -0.54371775930E+03  0.56305139113E+03  0.00000000000E+00 0. -1.
          1    1    1    2  501    0  0.17613522835E+02  0.12841715224E+03  0.32562973513E+03  0.35047956513E+03  0.00000000000E+00 0.  1.
<scales pt_clust_3="43.69616" pt_clust_4="46.19121" pt_clust_5="111.45972" pt_clust_6="14000.00000"></scales>
<clustering>
<clus scale="   43.696">  2  3  1 -1</clus>
<clus scale="   46.191">  1  4  2 -1</clus>
<clus scale="  111.460">  2  5  1 -1</clus>
<clus scale="   43.696">  2  3  1 -1</clus>
</clustering>
</event>
<event>
 6    0  0.5584273E+002  0.1076008E+03  0.7546771E-02  0.1265078E+00
         21   -1    0    0  505  502  0.00000000000E+00  0.00000000000E+00  0.18387681762E+04  0.18387681762E+04  0.00000000000E+00 0. -1.
          2   -1    0    0  503    0 -0.00000000000E+00 -0.00000000000E+00 -0.18308674130E+04  0.18308674130E+04  0.00000000000E+00 0.  1.
         21    1    1    2  503  504  0.13044839324E+02  0.31756631803E+02 -0.14117322631E+02  0.37120752885E+02  0.00000000000E+00 0. -1.
         21    1    1    2  504  502  0.69266209097E+02 -0.13212655950E+03  0.71102094921E+03  0.72650259852E+03  0.00000000000E+00 0. -1.
         21    1    1    2  505  501  0.29000793033E+02  0.88720245074E+02  0.11047926582E+04  0.11087286167E+04  0.00000000000E+00 0. -1.
          2    1    1    2  501    0 -0.11131184145E+03  0.11649682622E+02 -0.17937955216E+04  0.17972836211E+04  0.00000000000E+00 0.  1.
<scales pt_clust_3="34.33149" pt_clust_4="107.60078" pt_clust_5="93.37718" pt_clust_6="14000.00000"></scales>
<clustering>
<clus scale="   34.331">  2  3  1 -1</clus>
<clus scale="   93.377">  1  5  2 -1</clus>
<clus scale="  107.601">  1  4  2 -1</clus>
<clus scale="   93.377">  1  3  2 -1</clus>
</clustering>
</event>
<event>
 6    0  0.3800129E+002  0.8671542E+02  0.7546771E-02  0.1311007E+00
          1   -1    0    0  503    0 -0.00000000000E+00  0.00000000000E+00  0.93595804253E+03  0.93595804253E+03  0.00000000000E+00 0. -1.
         21   -1    0    0  504  502  0.00000000000E+00 -0.00000000000E+00 -0.22223266752E+02  0.22223266752E+02  0.00000000000E+00 0. -1.
         21    1    1    2  503  505  0.29535000143E+02 -0.22149895082E+02  0.21070104297E+03  0.21391087769E+03  0.00000000000E+00 0.  1.
         21    1    1    2  504  501  0.36563740630E+02  0.24105076555E+02  0.13358946152E+03  0.14058487143E+03  0.00000000000E+00 0.  1.
         21    1    1    2  505  502 -0.48741655082E+02  0.77152577010E+02  0.14314298078E+03  0.16975918834E+03  0.00000000000E+00 0. -1.
          1    1    1    2  501    0 -0.17357085691E+02 -0.79107758483E+02  0.42630129051E+03  0.43392637182E+03  0.00000000000E+00 0. -1.
<scales pt_clust_3="36.91794" pt_clust_4="46.62332" pt_clust_5="14000.00000" pt_clust_6="86.71542"></scales>
<clustering>
<clus scale="   36.918">  1  3  2 -1</clus>
<clus scale="   46.623">  2  4  1 -1</clus>
<clus scale="   86.715">  1  6  2 -1</clus>
<clus scale="   46.623">  2  3  1 -1</clus>
</clustering>
</event>
<event>
 6    0  0.3800129E+002  0.8423020E+02  0.7546771E-02  0.1317458E+00
          2   -1    0    0  503    0 -0.00000000000E+00  0.00000000000E+00  0.89220796156E+03  0.89220796156E+03  0.00000000000E+00 0. -1.
         21   -1    0    0  505  502  0.00000000000E+00 -0.00000000000E+00 -0.17012765984E+03  0.17012765984E+03  0.00000000000E+00 0.  1.
         21    1    1    2  503  504  0.43280322474E+02 -0.48676217102E+02  0.58208476596E+03  0.58571770947E+03  0.00000000000E+00 0.  1.
         21    1    1    2  504  502 -0.68774909262E+02 -0.15716202579E+02 -0.10165364947E+03  0.12373540972E+03  0.00000000000E+00 0.  1.
         21    1    1    2  505  501  0.11940934214E+02 -0.49259705907E+02 -0.29443590134E+02  0.58617655497E+02  0.00000000000E+00 0.  1.
          2    1    1    2  501    0  0.13553652573E+02  0.11365212559E+03  0.27109277538E+03  0.29426484671E+03  0.00000000000E+00 0. -1.
<scales pt_clust_3="65.78043" pt_clust_4="14000.00000" pt_clust_5="50.68633" pt_clust_6="84.23020"></scales>
<clustering>
<clus scale="   50.686">  2  5  1 -1</clus>
<clus scale="   65.780">  1  3  2 -1</clus>
<clus scale="   84.230">  1  6  2 -1</clus>
<clus scale="   50.686">  2  3  1 -1</clus>
</clustering>
</event>
<event>
 6    0  0.3800129E+002  0.1250124E+03  0.7546771E-02  0.1235050E+00
          2   -1    0    0  505    0 -0.00000000000E+00  0.00000000000E+00  0.11920150981E+03  0.11920150981E+03  0.00000000000E+00 0. -1.
         21   -1    0    0  503  502  0.00000000000E+00 -0.00000000000E+00 -0.15316946044E+04  0.15316946044E+04  0.00000000000E+00 0.  1.
         21    1    1    2  503  504  0.35108556055E+01 -0.43398379944E+02 -0.76723323636E+03  0.76846768602E+03  0.00000000000E+00 0.  1.
         21    1    1    2  504  501  0.12790284930E+02 -0.74048785550E+02 -0.67418932360E+03  0.67836425177E+03  0.00000000000E+00 0.  1.
         21    1    1    2  505  502  0.34121120523E+02  0.40624997525E+01 -0.47274175442E+02  0.58443155577E+02  0.00000000000E+00 0.  1.
          2    1    1    2  501    0 -0.50422261059E+02  0.11338466574E+03  0.76203640817E+02  0.14562102084E+03  0.00000000000E+00 0. -1.
<scales pt_clust_3="30.10411" pt_clust_4="30.10411" pt_clust_5="34.36211" pt_clust_6="118.59173"></scales>
<clustering>
<clus scale="   30.104">  3  4 -1 -1</clus>
<clus scale="   34.362">  1  5  2 -1</clus>
<clus scale="  118.592">  1  6  2 -1</clus>
<clus scale="  125.012">  2  3  1 -1</clus>
</clustering>
</event>
<event>
 6    0  0.3800129E+002  0.1957710E+03  0.7546771E-02  0.1153357E+00
         21   -1    0    0  501  502  0.00000000000E+00  0.00000000000E+00  0.94810129053E+02  0.94810129053E+02  0.00000000000E+00 0. -1.
          2   -1    0    0  505    0 -0.00000000000E+00 -0.00000000000E+00 -0.83305281710E+03  0.83305281710E+03  0.00000000000E+00 0. -1.
         21    1    1    2  503  502 -0.41363106715E+02 -0.77258199638E+02 -0.44021242452E+02  0.98069392756E+02  0.00000000000E+00 0. -1.
         21    1    1    2  504  503 -0.56191902717E+02 -0.86126583781E+02 -0.67257631969E+01  0.10305607336E+03  0.00000000000E+00 0. -1.
         21    1    1    2  505  504  0.24114360299E+02 -0.22247908660E+02 -0.61841187790E+02  0.70005744905E+02  0.00000000000E+00 0.  1.
          2    1    1    2  501    0  0.73440649133E+02  0.18563269208E+03 -0.62565449460E+03  0.65673173513E+03  0.00000000000E+00 0. -1.
<scales pt_clust_3="37.76116" pt_clust_4="37.76116" pt_clust_5="32.80963" pt_clust_6="191.47235"></scales>
<clustering>
<clus scale="   32.810">  2  5  1 -1</clus>
<clus scale="   37.761">  3  4 -1 -1</clus>
<clus scale="  191.472">  2  6  1 -1</clus>
<clus scale="  195.771">  1  3  2 -1</clus>
</clustering>
</event>
<event>
 6    0  0.3800129E+002  0.9204472E+02  0.7546771E-02  0.1297974E+00
         21   -1    0    0  503  502  0.00000000000E+00  0.00000000000E+00  0.33979583786E+02  0.33979583786E+02  0.00000000000E+00 0. -1.
          2   -1    0    0  504    0 -0.00000000000E+00 -0.00000000000E+00 -0.29782584649E+04  0.29782584649E+04  0.00000000000E+00 0. -1.
         21    1    1    2  503  501  0.52290606222E+02 -0.78080386114E+02 -0.20940196067E+03  0.22952131780E+03  0.00000000000E+00 0. -1.
         21    1    1    2  504  505  0.43310950223E+02  0.10639557530E+02 -0.62176231795E+03  0.62335978264E+03  0.00000000000E+00 0. -1.
         21    1    1    2  505  502 -0.93253141691E+02  0.29914125066E+02 -0.81542635956E+02  0.12743706208E+03  0.00000000000E+00 0. -1.
          2    1    1    2  501    0 -0.23484147541E+01  0.37526703518E+02 -0.20315719666E+04  0.20319198862E+04  0.00000000000E+00 0. -1.
<scales pt_clust_3="92.04472" pt_clust_4="54.70008" pt_clust_5="14000.00000" pt_clust_6="37.60011"></scales>
<clustering>
<clus scale="   37.600">  2  6  1 -1</clus>
<clus scale="   54.700">  2  4  1 -1</clus>
<clus scale="   92.045">  2  3  1 -1</clus>
<clus scale="   92.045">  1  3  2 -1</clus>
</clustering>
</event>
<event>
 6    0  0.3800129E+002  0.1358510E+03  0.7546771E-02  0.1219023E+00
         21   -1    0    0  503  502  0.00000000000E+00  0.00000000000E+00  0.24010698701E+02  0.24010698701E+02  0.00000000000E+00 0. -1.
          2   -1    0    0  505    0 -0.00000000000E+00 -0.00000000000E+00 -0.35985656078E+04  0.35985656078E+04  0.00000000000E+00 0. -1.
         21    1    1    2  503  501  0.17705749213E+03 -0.33979902222E+01 -0.98537066926E+03  0.10011574590E+04  0.00000000000E+00 0. -1.
         21    1    1    2  504  502 -0.31946696091E+02 -0.24396755928E-01 -0.24597971352E+02  0.40319377239E+02  0.00000000000E+00 0. -1.
         21    1    1    2  505  504 -0.80610456349E+02  0.13716454928E+02 -0.20637534856E+03  0.22198416903E+03  0.00000000000E+00 0. -1.
          2    1    1    2  501    0 -0.64500339692E+02 -0.10294067950E+02 -0.23582109199E+04  0.23591153012E+04  0.00000000000E+00 0. -1.
<scales pt_clust_3="125.92694" pt_clust_4="31.85876" pt_clust_5="31.85876" pt_clust_6="65.31663"></scales>
<clustering>
<clus scale="   31.859">  4  5 -1 -1</clus>
<clus scale="   65.317">  2  6  1 -1</clus>
<clus scale="  125.927">  2  3  1 -1</clus>
<clus scale="  135.851">  1  3  2 -1</clus>
</clustering>
</event>
<event>
 6    0  0.3800129E+002  0.1119140E+03  0.7546771E-02  0.1257066E+00
          1   -1    0    0  503    0 -0.00000000000E+00  0.00000000000E+00  0.13401551081E+04  0.13401551081E+04  0.00000000000E+00 0. -1.
         21   -1    0    0  501  502  0.00000000000E+00 -0.00000000000E+00 -0.29514487587E+03  0.29514487587E+03  0.00000000000E+00 0. -1.
         21    1    1    2  503  505 -0.73900794815E+02  0.72458905474E+02  0.91194076805E+02  0.13794194468E+03  0.00000000000E+00 0.  1.
         21    1    1    2  504  502  0.79918412935E+02 -0.44273376108E+02 -0.24105926972E+03  0.25779188520E+03  0.00000000000E+00 0. -1.
         21    1    1    2  505  504 -0.12784071386E+02  0.44750803835E+02  0.42996757082E+01  0.46739214117E+02  0.00000000000E+00 0.  1.
          1    1    1    2  501    0  0.67664532667E+01 -0.72936333202E+02  0.11905757494E+04  0.11928269400E+04  0.00000000000E+00 0. -1.
<scales pt_clust_3="40.98639" pt_clust_4="93.74989" pt_clust_5="40.98639" pt_clust_6="73.24953"></scales>
<clustering>
<clus scale="   40.986">  3  5 -1 -1</clus>
<clus scale="   73.250">  1  6  2 -1</clus>
<clus scale="   93.750">  2  4  1 -1</clus>
<clus scale="   93.750">  2  3  1 -1</clus>
</clustering>
</event>
<event>
 6    0  0.3800129E+002  0.1734964E+03  0.7546771E-02  0.1174250E+00
         21   -1    0    0  501  502  0.00000000000E+00  0.00000000000E+00  0.49544670671E+03  0.49544670671E+03  0.00000000000E+00 0.  1.
          2   -1    0    0  504    0 -0.00000000000E+00 -0.00000000000E+00 -0.19119195157E+04  0.19119195157E+04  0.00000000000E+00 0. -1.
         21    1    1    2  503  502 -0.82229458962E+02  0.93745429023E+02  0.41666914326E+03  0.43492880375E+03  0.00000000000E+00 0.  1.
         21    1    1    2  504  505 -0.17848451616E+02 -0.25898442893E+02 -0.29356864301E+03  0.29524878447E+03  0.00000000000E+00 0. -1.
         21    1    1    2  505  503 -0.15476888437E+02  0.37113446743E+02  0.58786526725E+02  0.71223575656E+02  0.00000000000E+00 0.  1.
          2    1    1    2  501    0  0.11555479902E+03 -0.10496043287E+03 -0.15983598360E+04  0.16059650585E+04  0.00000000000E+00 0. -1.
<scales pt_clust_3="33.38874" pt_clust_4="31.45309" pt_clust_5="33.38874" pt_clust_6="163.21594"></scales>
<clustering>
<clus scale="   31.453">  2  4  1 -1</clus>
<clus scale="   33.389">  3  5 -1 -1</clus>
<clus scale="  163.216">  2  6  1 -1</clus>
<clus scale="  173.496">  1  3  2 -1</clus>
</clustering>
</event>
<event>
 6    0  0.3800129E+002  0.1337997E+03  0.7546771E-02  0.1221924E+00
         21   -1    0    0  505  502  0.00000000000E+00  0.00000000000E+00  0.35389276629E+03  0.35389276629E+03  0.00000000000E+00 0. -1.
          2   -1    0    0  504    0 -0.00000000000E+00 -0.00000000000E+00 -0.99044365963E+03  0.99044365963E+03  0.00000000000E+00 0.  1.
         21    1    1    2  503  501  0.50453759880E+02 -0.31246004753E+02  0.92311539159E+02  0.10974203826E+03  0.00000000000E+00 0. -1.
         21    1    1    2  504  502 -0.32875884666E+02  0.57962055606E+02 -0.10531521893E+03  0.12462631753E+03  0.00000000000E+00 0. -1.
         21    1    1    2  505  503  0.54221416623E+02 -0.37648002847E+02  0.23717378492E+03  0.24618842051E+03  0.00000000000E+00 0. -1.
          2    1    1    2  501    0 -0.71799291838E+02  0.10931951994E+02 -0.86072099849E+03  0.86377964963E+03  0.00000000000E+00 0.  1.
<scales pt_clust_3="46.66948" pt_clust_4="66.63650" pt_clust_5="46.66948" pt_clust_6="124.41751"></scales>
<clustering>
<clus scale="   46.669">  3  5 -1 -1</clus>
<clus scale="   66.637">  2  4  1 -1</clus>
<clus scale="  124.418">  2  6  1 -1</clus>
<clus scale="  133.800">  1  3  2 -1</clus>
</clustering>
</event>
<event>
 6    0  0.3800129E+002  0.1695304E+03  0.7546771E-02  0.1178338E+00
         21   -1    0    0  501  502  0.00000000000E+00  0.00000000000E+00  0.23553956505E+03  0.23553956505E+03  0.00000000000E+00 0.  1.
          2   -1    0    0  505    0 -0.00000000000E+00 -0.00000000000E+00 -0.19443100396E+04  0.19443100396E+04  0.00000000000E+00 0.  1.
         21    1    1    2  503  502 -0.76286453778E+00  0.11515179193E+03  0.10158273608E+03  0.15355640467E+03  0.00000000000E+00 0.  1.
         21    1    1    2  504  503  0.55938189629E+01  0.46363885191E+02  0.95258580346E+02  0.10609004567E+03  0.00000000000E+00 0.  1.
         21    1    1    2  505  504  0.33937364583E+02  0.65793429836E+01 -0.84061084453E+03  0.84132135621E+03  0.00000000000E+00 0. -1.
          2    1    1    2  501    0 -0.38768319008E+02 -0.16809502010E+03 -0.10650009465E+04  0.10788817981E+04  0.00000000000E+00 0.  1.
<scales pt_clust_3="32.21547" pt_clust_4="32.21547" pt_clust_5="34.56924" pt_clust_6="161.80681"></scales>
<clustering>
<clus scale="   32.215">  3  4 -1 -1</clus>
<clus scale="   34.569">  2  5  1 -1</clus>
<clus scale="  161.807">  2  6  1 -1</clus>
<clus scale="  169.530">  1  3  2 -1</clus>
</clustering>
</event>
<event>
 6    0  0.3800129E+002  0.1766958E+03  0.7546771E-02  0.1171040E+00
          3   -1    0    0  505    0 -0.00000000000E+00  0.00000000000E+00  0.44488977476E+03  0.44488977476E+03  0.00000000000E+00 0. -1.
         21   -1    0    0  501  502  0.00000000000E+00 -0.00000000000E+00 -0.38545342062E+03  0.38545342062E+03  0.00000000000E+00 0. -1.
         21    1    1    2  503  502 -0.31465151174E+02 -0.98948714329E+02 -0.25208346742E+03  0.27262974591E+03  0.00000000000E+00 0. -1.
         21    1    1    2  504  503  0.69296465958E+01 -0.63148522478E+02 -0.74463243862E+02  0.97880184815E+02  0.00000000000E+00 0. -1.
         21    1    1    2  505  504  0.18350932106E+02 -0.23985401386E+02  0.17859846349E+03  0.18113383823E+03  0.00000000000E+00 0. -1.
          3    1    1    2  501    0  0.61845724722E+01  0.18608263819E+03  0.20738460193E+03  0.27869942642E+03  0.00000000000E+00 0. -1.
<scales pt_clust_3="48.28464" pt_clust_4="48.28464" pt_clust_5="30.20027" pt_clust_6="165.69261"></scales>
<clustering>
<clus scale="   30.200">  1  5  2 -1</clus>
<clus scale="   48.285">  3  4 -1 -1</clus>
<clus scale="  165.693">  1  6  2 -1</clus>
<clus scale="  176.696">  2  3  1 -1</clus>
</clustering>
</event>
<event>
 6    0  0.3800129E+002  0.1278673E+03  0.7546771E-02  0.1230655E+00
         21   -1    0    0  505  502  0.00000000000E+00  0.00000000000E+00  0.16513076661E+04  0.16513076661E+04  0.00000000000E+00 0.  1.
          2   -1    0    0  504    0 -0.00000000000E+00 -0.00000000000E+00 -0.52846068264E+03  0.52846068264E+03  0.00000000000E+00 0. -1.
         21    1    1    2  503  502 -0.11087171019E+03 -0.33986989204E+02  0.57092565590E+02  0.12925638321E+03  0.00000000000E+00 0.  1.
         21    1    1    2  504  503 -0.61547790173E+02 -0.44608552991E+02 -0.45685053738E+02  0.88685836582E+02  0.00000000000E+00 0.  1.
         21    1    1    2  505  501  0.12825326166E+03 -0.18347436638E+02  0.15271739837E+04  0.15326597483E+04  0.00000000000E+00 0.  1.
          2    1    1    2  501    0  0.44166238699E+02  0.96942978832E+02 -0.41573451207E+03  0.42916638069E+03  0.00000000000E+00 0. -1.
<scales pt_clust_3="127.86732" pt_clust_4="76.01351" pt_clust_5="14000.00000" pt_clust_6="57.40079"></scales>
<clustering>
<clus scale="   76.014">  2  4  1 -1</clus>
<clus scale="   57.401">  2  6  1 -1</clus>
<clus scale="  127.867">  2  3  1 -1</clus>
<clus scale="  127.867">  1  3  2 -1</clus>
</clustering>
</event>
<event>
 6    0  0.3800129E+002  0.8702112E+02  0.7546771E-02  0.1310230E+00
          2   -1    0    0  504    0 -0.00000000000E+00  0.00000000000E+00  0.86217203171E+03  0.86217203171E+03  0.00000000000E+00 0.  1.
         21   -1    0    0  503  502  0.00000000000E+00 -0.00000000000E+00 -0.10253805679E+03  0.10253805679E+03  0.00000000000E+00 0.  1.
         21    1    1    2  503  501 -0.53208504643E+02  0.35227386581E+02  0.64838056660E+02  0.90973003265E+02  0.00000000000E+00 0.  1.
         21    1    1    2  504  505  0.20715431117E+02 -0.25681443768E+02  0.48239074707E+02  0.58443767580E+02  0.00000000000E+00 0.  1.
         21    1    1    2  505  502  0.99475070065E+02  0.22167038362E+01 -0.52797586737E+02  0.11264008392E+03  0.00000000000E+00 0.  1.
          2    1    1    2  501    0 -0.66981996539E+02 -0.11762646649E+02  0.69935443029E+03  0.70265323374E+03  0.00000000000E+00 0.  1.
<scales pt_clust_3="87.02112" pt_clust_4="32.99493" pt_clust_5="14000.00000" pt_clust_6="59.67540"></scales>
<clustering>
<clus scale="   32.995">  1  4  2 -1</clus>
<clus scale="   59.675">  1  6  2 -1</clus>
<clus scale="   87.021">  1  3  2 -1</clus>
<clus scale="   87.021">  2  3  1 -1</clus>
</clustering>
</event>
<event>
 6    0  0.3800129E+002  0.1980758E+03  0.7546771E-02  0.1151373E+00
         21   -1    0    0  503  502  0.00000000000E+00  0.00000000000E+00  0.84588592192E+03  0.84588592192E+03  0.00000000000E+00 0.  1.
         -2   -1    0    0    0  501 -0.00000000000E+00 -0.00000000000E+00 -0.50306244951E+03  0.50306244951E+03  0.00000000000E+00 0.  1.
         21    1    1    2  503  501  0.25485170283E+02 -0.15360110692E+03 -0.23440306161E+03  0.28140289487E+03  0.00000000000E+00 0.  1.
         21    1    1    2  504  502 -0.51210804362E+02  0.66320795515E+02  0.13852075839E+03  0.16189192353E+03  0.00000000000E+00 0.  1.
         21    1    1    2  505  504 -0.13909073866E+03  0.31617108115E+02  0.63066557620E+03  0.64659488407E+03  0.00000000000E+00 0.  1.
         -2    1    1    2    0  505  0.16481637274E+03  0.55663203294E+02 -0.19195980057E+03  0.25905866896E+03  0.00000000000E+00 0.  1.
<scales pt_clust_3="153.21360" pt_clust_4="83.79137" pt_clust_5="14000.00000" pt_clust_6="198.07584"></scales>
<clustering>
<clus scale="   83.791">  1  4  2 -1</clus>
<clus scale="  153.214">  2  3  1 -1</clus>
<clus scale="  198.076">  2  6  1 -1</clus>
<clus scale="   83.791">  1  3  2 -1</clus>
</clustering>
</event>
<event>
 6    0  0.3800129E+002  0.9368187E+02  0.7546771E-02  0.1294173E+00
         21   -1    0    0  504  502  0.00000000000E+00  0.00000000000E+00  0.20879425600E+02  0.20879425600E+02  0.00000000000E+00 0. -1.
          2   -1    0    0  505    0 -0.00000000000E+00 -0.00000000000E+00 -0.24518707778E+04  0.24518707778E+04  0.00000000000E+00 0. -1.
         21    1    1    2  503  502  0.29849412010E+02 -0.12708897405E+02 -0.75808933083E+02  0.82459067456E+02  0.00000000000E+00 0. -1.
         21    1    1    2  504  501  0.41851624337E+02  0.12529002480E+02 -0.30513873617E+02  0.53288186739E+02  0.00000000000E+00 0. -1.
         21    1    1    2  505  503 -0.66383092430E+02  0.78548559714E+02 -0.20117266305E+04  0.20143536499E+04  0.00000000000E+00 0. -1.
          2    1    1    2  501    0 -0.53179439164E+01 -0.78368664789E+02 -0.31294191503E+03  0.32264929929E+03  0.00000000000E+00 0. -1.
<scales pt_clust_3="32.44231" pt_clust_4="61.36412" pt_clust_5="93.68187" pt_clust_6="14000.00000"></scales>
<clustering>
<clus scale="   32.442">  1  3  2 -1</clus>
<clus scale="   61.364">  1  4  2 -1</clus>
<clus scale="   93.682">  2  5  1 -1</clus>
<clus scale="   32.442">  1  3  2 -1</clus>
</clustering>
</event>
<event>
 6    0  0.3800129E+002  0.7618133E+02  0.7546771E-02  0.1340251E+00
         21   -1    0    0  501  502  0.00000000000E+00  0.00000000000E+00  0.24058679877E+03  0.24058679877E+03  0.00000000000E+00 0. -1.
          2   -1    0    0  503    0 -0.00000000000E+00 -0.00000000000E+00 -0.56992140294E+03  0.56992140294E+03  0.00000000000E+00 0. -1.
         21    1    1    2  503  504 -0.23854596365E+02  0.25012516075E+02 -0.28731308398E+02  0.44946143443E+02  0.00000000000E+00 0. -1.
         21    1    1    2  504  505 -0.63036764639E+02 -0.60879876892E+01  0.52378818936E+02  0.82184171003E+02  0.00000000000E+00 0.  1.
         21    1    1    2  505  502 -0.48562687854E+01  0.46052594464E+02  0.15568939363E+03  0.16243032997E+03  0.00000000000E+00 0. -1.
          2    1    1    2  501    0  0.91747629790E+02 -0.64977122850E+02 -0.50867150834E+03  0.52094755730E+03  0.00000000000E+00 0. -1.
<scales pt_clust_3="34.56397" pt_clust_4="76.18133" pt_clust_5="46.48121" pt_clust_6="14000.00000"></scales>
<clustering>
<clus scale="   34.564">  2  3  1 -1</clus>
<clus scale="   46.481">  1  5  2 -1</clus>
<clus scale="   76.181">  1  4  2 -1</clus>
<clus scale="   46.481">  1  3  2 -1</clus>
</clustering>
</event>
<event>
 6    0  0.3800129E+002  0.7857417E+02  0.7546771E-02  0.1333147E+00
          2   -1    0    0  503    0 -0.00000000000E+00  0.00000000000E+00  0.10506461590E+04  0.10506461590E+04  0.00000000000E+00 0. -1.
         21   -1    0    0  505  502  0.00000000000E+00 -0.00000000000E+00 -0.33257857646E+02  0.33257857646E+02  0.00000000000E+00 0.  1.
         21    1    1    2  503  502  0.33835038042E+02  0.73101812308E+01  0.22178847001E+02  0.41111431539E+02  0.00000000000E+00 0.  1.
         21    1    1    2  504  501  0.85110750269E+02  0.52177911358E+02  0.30044855853E+03  0.31660023779E+03  0.00000000000E+00 0.  1.
         21    1    1    2  505  504 -0.59707773702E+02 -0.16604139494E+02  0.56836739588E+02  0.84090015197E+02  0.00000000000E+00 0.  1.
          2    1    1    2  501    0 -0.59238014608E+02 -0.42883953095E+02  0.63792415619E+03  0.64210233208E+03  0.00000000000E+00 0. -1.
<scales pt_clust_3="34.61573" pt_clust_4="78.57417" pt_clust_5="42.19708" pt_clust_6="14000.00000"></scales>
<clustering>
<clus scale="   34.616">  2  3  1 -1</clus>
<clus scale="   42.197">  2  5  1 -1</clus>
<clus scale="   78.574">  2  4  1 -1</clus>
<clus scale="   34.616">  2  3  1 -1</clus>
</clustering>
</event>
<event>
 6    0  0.3800129E+002  0.1955141E+03  0.7546771E-02  0.1153580E+00
         21   -1    0    0  503  502  0.00000000000E+00  0.00000000000E+00  0.24294217865E+03  0.24294217865E+03  0.00000000000E+00 0.  1.
          2   -1    0    0  504    0 -0.00000000000E+00 -0.00000000000E+00 -0.21179365071E+04  0.21179365071E+04  0.00000000000E+00 0.  1.
         21    1    1    2  503  501 -0.15609336692E+03 -0.87388004537E+02 -0.14446132640E+03  0.22993668120E+03  0.00000000000E+00 0.  1.
         21    1    1    2  504  505  0.29878660854E+02  0.50752376483E+01 -0.30108179395E+03  0.30260327007E+03  0.00000000000E+00 0.  1.
         21    1    1    2  505  502  0.20235163236E+03  0.21084909868E+02  0.14565062302E+03  0.25020963317E+03  0.00000000000E+00 0.  1.
          2    1    1    2  501    0 -0.76136926297E+02  0.61227857020E+02 -0.15751018312E+04  0.15781291014E+04  0.00000000000E+00 0.  1.
<scales pt_clust_3="14000.00000" pt_clust_4="30.30664" pt_clust_5="195.51407" pt_clust_6="82.62967"></scales>
<clustering>
<clus scale="   30.307">  2  4  1 -1</clus>
<clus scale="   82.630">  2  6  1 -1</clus>
<clus scale="  195.514">  1  5  2 -1</clus>
<clus scale="  195.514">  1  3  2 -1</clus>
</clustering>
</event>
<event>
 6    0  0.3800129E+002  0.1377217E+03  0.7546771E-02  0.1216428E+00
         -2   -1    0    0    0  501 -0.00000000000E+00  0.00000000000E+00  0.91229282550E+02  0.91229282550E+02  0.00000000000E+00 0. -1.
         21   -1    0    0  504  502  0.00000000000E+00 -0.00000000000E+00 -0.35709856740E+03  0.35709856740E+03  0.00000000000E+00 0.  1.
         21    1    1    2  503  505  0.66254075012E+02  0.69820802595E+02 -0.34913709073E+02  0.10238903267E+03  0.00000000000E+00 0.  1.
         21    1    1    2  504  503 -0.75022841997E+02  0.89106406989E+01 -0.88773752773E+02  0.11657017423E+03  0.00000000000E+00 0.  1.
         21    1    1    2  505  501  0.56103205640E+02  0.28364327253E+02 -0.47731546594E+02  0.78932916352E+02  0.00000000000E+00 0.  1.
         -2    1    1    2    0  502 -0.47334438655E+02 -0.10709577055E+03 -0.94450276411E+02  0.15043572669E+03  0.00000000000E+00 0. -1.
<scales pt_clust_3="30.62288" pt_clust_4="75.55016" pt_clust_5="30.62288" pt_clust_6="132.40654"></scales>
<clustering>
<clus scale="   30.623">  3  5 -1 -1</clus>
<clus scale="   75.550">  2  4  1 -1</clus>
<clus scale="  132.407">  1  6  2 -1</clus>
<clus scale="   75.550">  2  3  1 -1</clus>
</clustering>
</event>
<event>
 6    0  0.3800129E+002  0.1200833E+03  0.7546771E-02  0.1242960E+00
          1   -1    0    0  505    0 -0.00000000000E+00  0.00000000000E+00  0.12099724584E+04  0.12099724584E+04  0.00000000000E+00 0.  1.
         21   -1    0    0  501  502  0.00000000000E+00 -0.00000000000E+00 -0.40200503249E+02  0.40200503249E+02  0.00000000000E+00 0.  1.
         21    1    1    2  503  504  0.86769710081E+02 -0.38735665189E+02  0.10425793260E+03  0.14106435005E+03  0.00000000000E+00 0.  1.
         21    1    1    2  504  502  0.33805470823E+02  0.81996892818E+01  0.12583909533E+02  0.36991884799E+02  0.00000000000E+00 0.  1.
         21    1    1    2  505  503 -0.36978040296E+02  0.62667084075E+01  0.85581263896E+03  0.85663406429E+03  0.00000000000E+00 0. -1.
          1    1    1    2  501    0 -0.83597140607E+02  0.24269267500E+02  0.19711747406E+03  0.21548266251E+03  0.00000000000E+00 0.  1.
<scales pt_clust_3="30.73937" pt_clust_4="30.73937" pt_clust_5="37.50529" pt_clust_6="108.80627"></scales>
<clustering>
<clus scale="   30.739">  3  4 -1 -1</clus>
<clus scale="   37.505">  1  5  2 -1</clus>
<clus scale="  108.806">  1  6  2 -1</clus>
<clus scale="  120.083">  2  3  1 -1</clus>
</clustering>
</event>
<event>
 6    0  0.3800129E+002  0.2719179E+03  0.7546771E-02  0.1100187E+00
         21   -1    0    0  504  502  0.00000000000E+00  0.00000000000E+00  0.20075351264E+03  0.20075351264E+03  0.00000000000E+00 0.  1.
         -4   -1    0    0    0  501 -0.00000000000E+00 -0.00000000000E+00 -0.15792956386E+04  0.15792956386E+04  0.00000000000E+00 0. -1.
         21    1    1    2  503  505 -0.60216209188E+02 -0.76655157178E-01 -0.59460985084E+03  0.59765112937E+03  0.00000000000E+00 0. -1.
         21    1    1    2  504  501  0.17265016723E+03  0.50502278375E+02  0.11398222915E+03  0.21295658930E+03  0.00000000000E+00 0.  1.
         21    1    1    2  505  502  0.81318935350E+02  0.23449594259E+01 -0.44517489844E+02  0.92736589236E+02  0.00000000000E+00 0. -1.
         -4    1    1    2    0  503 -0.19375289339E+03 -0.52770582644E+02 -0.85339701445E+03  0.87670484335E+03  0.00000000000E+00 0. -1.
<scales pt_clust_3="53.95603" pt_clust_4="253.43803" pt_clust_5="81.35274" pt_clust_6="53.95603"></scales>
<clustering>
<clus scale="   53.956">  3  6 -1 -1</clus>
<clus scale="   81.353">  1  5  2 -1</clus>
<clus scale="  253.438">  1  4  2 -1</clus>
<clus scale="   81.353">  1  3  2 -1</clus>
</clustering>
</event>
<event>
 6    0  0.3800129E+002  0.8811338E+02  0.7546771E-02  0.1307486E+00
         21   -1    0    0  505  502  0.00000000000E+00  0.00000000000E+00  0.11193507242E+03  0.11193507242E+03  0.00000000000E+00 0. -1.
          1   -1    0    0  504    0 -0.00000000000E+00 -0.00000000000E+00 -0.17383546426E+04  0.17383546426E+04  0.00000000000E+00 0. -1.
         21    1    1    2  503  502 -0.27723556974E+02 -0.79331031192E+02  0.74056077945E+02  0.11201031560E+03  0.00000000000E+00 0. -1.
         21    1    1    2  504  503 -0.42596373956E+02 -0.15069333086E+02 -0.10947996751E+03  0.11843732165E+03  0.00000000000E+00 0. -1.
         21    1    1    2  505  501 -0.36860079929E+02  0.20304212683E+02 -0.26074158021E+02  0.49505436687E+02  0.00000000000E+00 0.  1.
          1    1    1    2  501    0  0.10718001086E+03  0.74096151595E+02 -0.15649215226E+04  0.15703366411E+04  0.00000000000E+00 0. -1.
<scales pt_clust_3="88.11338" pt_clust_4="46.45490" pt_clust_5="42.08238" pt_clust_6="14000.00000"></scales>
<clustering>
<clus scale="   42.082">  1  5  2 -1</clus>
<clus scale="   46.455">  2  4  1 -1</clus>
<clus scale="   88.113">  1  3  2 -1</clus>
<clus scale="   42.082">  1  3  2 -1</clus>
</clustering>
</event>
<event>
 6    0  0.3800129E+002  0.1575062E+03  0.7546771E-02  0.1191541E+00
         -1   -1    0    0    0  501 -0.00000000000E+00  0.00000000000E+00  0.46119115471E+03  0.46119115471E+03  0.00000000000E+00 0. -1.
         21   -1    0    0  505  502  0.00000000000E+00 -0.00000000000E+00 -0.41279335968E+03  0.41279335968E+03  0.00000000000E+00 0.  1.
         21    1    1    2  503  501 -0.33010279990E+02  0.14391424499E+02  0.31592823718E+02  0.47905095706E+02  0.00000000000E+00 0.  1.
         21    1    1    2  504  502 -0.29136946752E+02 -0.83653137634E+01 -0.20455259915E+02  0.36569902906E+02  0.00000000000E+00 0.  1.
         21    1    1    2  505  503 -0.12559461337E+03  0.38092840497E+02 -0.34074644172E+03  0.36514820135E+03  0.00000000000E+00 0.  1.
         -1    1    1    2    0  504  0.18774184011E+03 -0.44118951233E+02  0.37800667295E+03  0.42436131442E+03  0.00000000000E+00 0. -1.
<scales pt_clust_3="36.50922" pt_clust_4="30.31403" pt_clust_5="157.50621" pt_clust_6="14000.00000"></scales>
<clustering>
<clus scale="   30.314">  2  4  1 -1</clus>
<clus scale="   36.509">  1  3  2 -1</clus>
<clus scale="  157.506">  2  5  1 -1</clus>
<clus scale="   30.314">  2  3  1 -1</clus>
</clustering>
</event>
<event>
 6    0  0.3800129E+002  0.1455345E+03  0.7546771E-02  0.1206070E+00
         21   -1    0    0  501  502  0.00000000000E+00  0.00000000000E+00  0.94094747902E+03  0.94094747902E+03  0.00000000000E+00 0.  1.
          2   -1    0    0  504    0 -0.00000000000E+00 -0.00000000000E+00 -0.13368936735E+04  0.13368936735E+04  0.00000000000E+00 0. -1.
         21    1    1    2  503  502 -0.14135060912E+03 -0.34792518881E+02  0.91248410725E+03  0.92402259716E+03  0.00000000000E+00 0.  1.
         21    1    1    2  504  505 -0.23203733319E+02  0.27464012522E+02 -0.66898710180E+01  0.36571021287E+02  0.00000000000E+00 0.  1.
         21    1    1    2  505  503  0.32724364330E+02 -0.45215217331E+02 -0.49306681884E+03  0.49621586809E+03  0.00000000000E+00 0. -1.
          2    1    1    2  501    0  0.13182997811E+03  0.52543723690E+02 -0.80867361187E+03  0.82103166600E+03  0.00000000000E+00 0. -1.
<scales pt_clust_3="14000.00000" pt_clust_4="35.95393" pt_clust_5="42.34356" pt_clust_6="145.53452"></scales>
<clustering>
<clus scale="   35.954">  2  4  1 -1</clus>
<clus scale="   42.344">  2  5  1 -1</clus>
<clus scale="  145.535">  2  6  1 -1</clus>
<clus scale="  145.535">  1  3  2 -1</clus>
</clustering>
</event>
<event>
 6    0  0.3800129E+002  0.1533802E+03  0.7546771E-02  0.1196380E+00
         21   -1    0    0  501  502  0.00000000000E+00  0.00000000000E+00  0.59307219234E+03  0.59307219234E+03  0.00000000000E+00 0. -1.
          2   -1    0    0  505    0 -0.00000000000E+00 -0.00000000000E+00 -0.41920679598E+03  0.41920679598E+03  0.00000000000E+00 0. -1.
         21    1    1    2  503  502  0.57817132608E+01 -0.61009551202E+02  0.16133390212E+03  0.17258105782E+03  0.00000000000E+00 0. -1.
         21    1    1    2  504  503  0.76989040581E+01 -0.86444926629E+02  0.38438275638E+03  0.39405850057E+03  0.00000000000E+00 0. -1.
         21    1    1    2  505  504 -0.27988205495E+02 -0.33938447594E+02 -0.17594417303E+02  0.47378490818E+02  0.00000000000E+00 0. -1.
          2    1    1    2  501    0  0.14507588177E+02  0.18139292543E+03 -0.35425684484E+03  0.39826093911E+03  0.00000000000E+00 0. -1.
<scales pt_clust_3="30.86562" pt_clust_4="30.86562" pt_clust_5="43.99043" pt_clust_6="148.91711"></scales>
<clustering>
<clus scale="   30.866">  3  4 -1 -1</clus>
<clus scale="   43.990">  2  5  1 -1</clus>
<clus scale="  148.917">  2  6  1 -1</clus>
<clus scale="  153.380">  1  3  2 -1</clus>
</clustering>
</event>
<event>
 6    0  0.3800129E+002  0.9100750E+02  0.7546771E-02  0.1300430E+00
         -4   -1    0    0    0  501 -0.00000000000E+00  0.00000000000E+00  0.30601713732E+03  0.30601713732E+03  0.00000000000E+00 0.  1.
         21   -1    0    0  504  502  0.00000000000E+00 -0.00000000000E+00 -0.87951543409E+03  0.87951543409E+03  0.00000000000E+00 0. -1.
         21    1    1    2  503  501 -0.20609978169E+02  0.33462998668E+02  0.25710916343E+03  0.26009549284E+03  0.00000000000E+00 0.  1.
         21    1    1    2  504  503 -0.60573731854E+00 -0.54509545678E+02 -0.10428653140E+03  0.11767471317E+03  0.00000000000E+00 0. -1.
         21    1    1    2  505  502  0.79035949553E+02 -0.46178884394E+02 -0.71209942961E+03  0.71795875114E+03  0.00000000000E+00 0. -1.
         -4    1    1    2    0  505 -0.57820234066E+02  0.67225431403E+02 -0.14221499187E+02  0.89803614258E+02  0.00000000000E+00 0.  1.
<scales pt_clust_3="39.30068" pt_clust_4="49.90916" pt_clust_5="14000.00000" pt_clust_6="91.00750"></scales>
<clustering>
<clus scale="   39.301">  1  3  2 -1</clus>
<clus scale="   49.909">  1  4  2 -1</clus>
<clus scale="   91.008">  1  6  2 -1</clus>
<clus scale="   91.008">  2  3  1 -1</clus>
</clustering>
</event>
<event>
 6    0  0.3800129E+002  0.8595470E+02  0.7546771E-02  0.1312955E+00
         21   -1    0    0  504  502  0.00000000000E+00  0.00000000000E+00  0.16259650867E+03  0.16259650867E+03  0.00000000000E+00 0.  1.
          2   -1    0    0  503    0 -0.00000000000E+00 -0.00000000000E+00 -0.12396483710E+04  0.12396483710E+04  0.00000000000E+00 0.  1.
         21    1    1    2  503  505 -0.93440169367E+02  0.84452387096E+01  0.80988952570E+02  0.12394191279E+03  0.00000000000E+00 0.  1.
         21    1    1    2  504  501 -0.30692753082E+02 -0.32768654285E+01 -0.22586782155E+02  0.38248472740E+02  0.00000000000E+00 0.  1.
         21    1    1    2  505  502  0.74176962739E+02  0.17978952684E+02  0.23448012334E+02  0.79845311842E+02  0.00000000000E+00 0.  1.
          2    1    1    2  501    0  0.49955959711E+02 -0.23147325965E+02 -0.11589020451E+04  0.11602091823E+04  0.00000000000E+00 0.  1.
<scales pt_clust_3="14000.00000" pt_clust_4="30.86718" pt_clust_5="85.95470" pt_clust_6="54.94638"></scales>
<clustering>
<clus scale="   30.867">  1  4  2 -1</clus>
<clus scale="   54.946">  2  6  1 -1</clus>
<clus scale="   85.955">  1  5  2 -1</clus>
<clus scale="   30.867">  1  3  2 -1</clus>
</clustering>
</event>
<event>
 6    0  0.3800129E+002  0.2523531E+03  0.7546771E-02  0.1111827E+00
          2   -1    0    0  503    0 -0.00000000000E+00  0.00000000000E+00  0.14873616443E+04  0.14873616443E+04  0.00000000000E+00 0. -1.
         21   -1    0    0  501  502  0.00000000000E+00 -0.00000000000E+00 -0.35532779057E+03  0.35532779057E+03  0.00000000000E+00 0. -1.
         21    1    1    2  503  504  0.55499093403E+01  0.51419886876E+02  0.56983069409E+03  0.57217289886E+03  0.00000000000E+00 0. -1.
         21    1    1    2  504  505 -0.32158985549E+02  0.14767230907E+03 -0.53708689710E+02  0.16039306272E+03  0.00000000000E+00 0. -1.
         21    1    1    2  505  502 -0.74738625575E+02  0.10056593763E+03 -0.19945411196E+03  0.23554471495E+03  0.00000000000E+00 0. -1.
          2    1    1    2  501    0  0.10134770178E+03 -0.29965813358E+03  0.81536596134E+03  0.87457875837E+03  0.00000000000E+00 0. -1.
<scales pt_clust_3="51.71853" pt_clust_4="252.35314" pt_clust_5="126.04655" pt_clust_6="14000.00000"></scales>
<clustering>
<clus scale="   51.719">  1  3  2 -1</clus>
<clus scale="  126.047">  2  5  1 -1</clus>
<clus scale="  252.353">  2  4  1 -1</clus>
<clus scale="  126.047">  2  3  1 -1</clus>
</clustering>
</event>
<event>
 6    0  0.3800129E+002  0.8581848E+02  0.7546771E-02  0.1313306E+00
         21   -1    0    0  504  502  0.00000000000E+00  0.00000000000E+00  0.28132180075E+03  0.28132180075E+03  0.00000000000E+00 0.  1.
          2   -1    0    0  505    0 -0.00000000000E+00 -0.00000000000E+00 -0.10911921074E+04  0.10911921074E+04  0.00000000000E+00 0. -1.
         21    1    1    2  503  502  0.67049733858E+02 -0.55265566777E+02  0.25064680609E+03  0.26528055165E+03  0.00000000000E+00 0.  1.
         21    1    1    2  504  501 -0.32021205788E+02  0.38591626910E+02 -0.28582601526E+02  0.57720329154E+02  0.00000000000E+00 0. -1.
         21    1    1    2  505  503  0.60064396226E+02  0.26136202553E+02 -0.16815034280E+03  0.18045877802E+03  0.00000000000E+00 0.  1.
          2    1    1    2  501    0 -0.95092924296E+02 -0.94622626854E+01 -0.86378416840E+03  0.86905424931E+03  0.00000000000E+00 0. -1.
<scales pt_clust_3="40.29971" pt_clust_4="50.14650" pt_clust_5="14000.00000" pt_clust_6="85.81848"></scales>
<clustering>
<clus scale="   50.146">  1  4  2 -1</clus>
<clus scale="   40.300">  1  3  2 -1</clus>
<clus scale="   85.818">  2  6  1 -1</clus>
<clus scale="   50.146">  1  3  2 -1</clus>
</clustering>
</event>
<event>
 6    0  0.3800129E+002  0.1071298E+03  0.7546771E-02  0.1265979E+00
          1   -1    0    0  503    0 -0.00000000000E+00  0.00000000000E+00  0.45393979531E+04  0.45393979531E+04  0.00000000000E+00 0. -1.
         21   -1    0    0  504  502  0.00000000000E+00 -0.00000000000E+00 -0.29376407644E+03  0.29376407644E+03  0.00000000000E+00 0.  1.
         21    1    1    2  503  505  0.27320134705E+02  0.66330773228E+02  0.59226444876E+03  0.59659310967E+03  0.00000000000E+00 0.  1.
         21    1    1    2  504  501  0.53068449742E+02 -0.14204659418E+02  0.70320365162E+02  0.89235567257E+02  0.00000000000E+00 0. -1.
         21    1    1    2  505  502 -0.29678673204E+02  0.60175772835E+02 -0.27715605411E+03  0.28516210409E+03  0.00000000000E+00 0.  1.
          1    1    1    2  501    0 -0.50709911243E+02 -0.11230188665E+03  0.38602051168E+04  0.38621712485E+04  0.00000000000E+00 0. -1.
<scales pt_clust_3="14000.00000" pt_clust_4="54.93662" pt_clust_5="51.45649" pt_clust_6="107.12980"></scales>
<clustering>
<clus scale="   54.937">  2  4  1 -1</clus>
<clus scale="   51.456">  2  5  1 -1</clus>
<clus scale="  107.130">  1  6  2 -1</clus>
<clus scale="   54.937">  2  3  1 -1</clus>
</clustering>
</event>
<event>
 6    0  0.3800129E+002  0.1969154E+03  0.7546771E-02  0.1152368E+00
         21   -1    0    0  504  502  0.00000000000E+00  0.00000000000E+00  0.10790641529E+03  0.10790641529E+03  0.00000000000E+00 0. -1.
          2   -1    0    0  503    0 -0.00000000000E+00 -0.00000000000E+00 -0.23011532300E+04  0.23011532300E+04  0.00000000000E+00 0. -1.
         21    1    1    2  503  505  0.19930742626E+02 -0.77843274057E+02 -0.10921567076E+04  0.10951087087E+04  0.00000000000E+00 0. -1.
         21    1    1    2  504  501  0.16521144604E+03 -0.19776890162E+02 -0.10725543004E+02  0.16673627248E+03  0.00000000000E+00 0. -1.
         21    1    1    2  505  502  0.47040326652E+01 -0.73457513499E+02 -0.98549733378E+02  0.12300481357E+03  0.00000000000E+00 0. -1.
          2    1    1    2  501    0 -0.18984622133E+03  0.17107767772E+03 -0.99181483068E+03  0.10242098505E+04  0.00000000000E+00 0. -1.
<scales pt_clust_3="81.47034" pt_clust_4="196.91539" pt_clust_5="73.60798" pt_clust_6="14000.00000"></scales>
<clustering>
<clus scale="   73.608">  1  5  2 -1</clus>
<clus scale="   81.470">  2  3  1 -1</clus>
<clus scale="  196.915">  1  4  2 -1</clus>
<clus scale="   73.608">  1  3  2 -1</clus>
</clustering>
</event>
<event>
 6    0  0.3800129E+002  0.1425176E+03  0.7546771E-02  0.1209981E+00
         21   -1    0    0  505  502  0.00000000000E+00  0.00000000000E+00  0.22623953916E+03  0.22623953916E+03  0.00000000000E+00 0. -1.
          1   -1    0    0  504    0 -0.00000000000E+00 -0.00000000000E+00 -0.28048251534E+04  0.28048251534E+04  0.00000000000E+00 0.  1.
         21    1    1    2  503  501  0.14171219542E+02  0.42061443878E+02 -0.73902282916E+03  0.74035446277E+03  0.00000000000E+00 0. -1.
         21    1    1    2  504  502  0.55628648672E+02 -0.21000653600E+03  0.79238497502E+02  0.23124885125E+03  0.00000000000E+00 0. -1.
         21    1    1    2  505  503 -0.13960873511E+02  0.89124171647E+02  0.39713718285E+02  0.98565731271E+02  0.00000000000E+00 0. -1.
          1    1    1    2  501    0 -0.55838994703E+02  0.78820920477E+02 -0.19585150009E+04  0.19608956473E+04  0.00000000000E+00 0.  1.
<scales pt_clust_3="41.19366" pt_clust_4="128.91164" pt_clust_5="90.21100" pt_clust_6="41.19366"></scales>
<clustering>
<clus scale="   41.194">  3  6 -1 -1</clus>
<clus scale="   90.211">  1  5  2 -1</clus>
<clus scale="  128.912">  1  4  2 -1</clus>
<clus scale="   90.211">  1  3  2 -1</clus>
</clustering>
</event>
<event>
 6    0  0.3800129E+002  0.1218493E+03  0.7546771E-02  0.1240077E+00
         21   -1    0    0  505  502  0.00000000000E+00  0.00000000000E+00  0.66699173222E+03  0.66699173222E+03  0.00000000000E+00 0.  1.
         -1   -1    0    0    0  501 -0.00000000000E+00 -0.00000000000E+00 -0.89504348587E+03  0.89504348587E+03  0.00000000000E+00 0.  1.
         21    1    1    2  503  501  0.64786657877E+02  0.70873928197E+02 -0.22688923093E+01  0.96049844400E+02  0.00000000000E+00 0.  1.
         21    1    1    2  504  502  0.87196219680E+02 -0.92231974897E+02 -0.17749720968E+03  0.21820902219E+03  0.00000000000E+00 0.  1.
         21    1    1    2  505  503 -0.11136979764E+03 -0.59004571360E+02  0.58992857605E+03  0.60324165647E+03  0.00000000000E+00 0.  1.
         -1    1    1    2    0  504 -0.40613079918E+02  0.80362618061E+02 -0.63821422771E+03  0.64453469503E+03  0.00000000000E+00 0.  1.
<scales pt_clust_3="121.84935" pt_clust_4="62.89451" pt_clust_5="14000.00000" pt_clust_6="90.04206"></scales>
<clustering>
<clus scale="   90.042">  2  6  1 -1</clus>
<clus scale="   62.895">  2  4  1 -1</clus>
<clus scale="  121.849">  2  3  1 -1</clus>
<clus scale="  121.849">  1  3  2 -1</clus>
</clustering>
</event>
<event>
 6    0  0.3800129E+002  0.1247698E+03  0.7546771E-02  0.1235430E+00
         -4   -1    0    0    0  501 -0.00000000000E+00  0.00000000000E+00  0.16102970381E+04  0.16102970381E+04  0.00000000000E+00 0. -1.
         21   -1    0    0  505  502  0.00000000000E+00 -0.00000000000E+00 -0.52057888944E+02  0.52057888944E+02  0.00000000000E+00 0.  1.
         21    1    1    2  503  504 -0.11768806376E+02  0.39072162882E+02  0.35796017147E+02  0.54281613456E+02  0.00000000000E+00 0. -1.
         21    1    1    2  504  501 -0.33701720679E+02  0.83955054025E+02  0.21274202624E+03  0.23117834415E+03  0.00000000000E+00 0. -1.
         21    1    1    2  505  503 -0.21256811956E+02 -0.32268322739E+02 -0.19255515165E+02  0.43172578927E+02  0.00000000000E+00 0.  1.
         -4    1    1    2    0  502  0.66727339011E+02 -0.90758894168E+02  0.13289566209E+04  0.13337223905E+04  0.00000000000E+00 0. -1.
<scales pt_clust_3="33.66750" pt_clust_4="33.66750" pt_clust_5="38.64061" pt_clust_6="114.25642"></scales>
<clustering>
<clus scale="   33.668">  3  4 -1 -1</clus>
<clus scale="   38.641">  2  5  1 -1</clus>
<clus scale="  114.256">  1  6  2 -1</clus>
<clus scale="   38.641">  2  3  1 -1</clus>
</clustering>
</event>
<event>
 6    0  0.3800129E+002  0.1105905E+03  0.7546771E-02  0.1259480E+00
         21   -1    0    0  504  502  0.00000000000E+00  0.00000000000E+00  0.66594844272E+02  0.66594844272E+02  0.00000000000E+00 0. -1.
          3   -1    0    0  503    0 -0.00000000000E+00 -0.00000000000E+00 -0.10183605719E+04  0.10183605719E+04  0.00000000000E+00 0. -1.
         21    1    1    2  503  505 -0.28110672952E+02  0.13821790819E+02 -0.91426418658E+02  0.96643892016E+02  0.00000000000E+00 0. -1.
         21    1    1    2  504  501  0.43948632811E+00  0.42190766398E+02 -0.25688433308E+02  0.49397869623E+02  0.00000000000E+00 0.  1.
         21    1    1    2  505  502 -0.49262367128E+02  0.60009775940E+02  0.14024422933E+02  0.78896378003E+02  0.00000000000E+00 0. -1.
          3    1    1    2  501    0  0.76933553752E+02 -0.11602233316E+03 -0.84867529862E+03  0.86001727655E+03  0.00000000000E+00 0. -1.
<scales pt_clust_3="31.32494" pt_clust_4="42.75793" pt_clust_5="110.59048" pt_clust_6="14000.00000"></scales>
<clustering>
<clus scale="   31.325">  2  3  1 -1</clus>
<clus scale="   42.758">  1  4  2 -1</clus>
<clus scale="  110.590">  1  5  2 -1</clus>
<clus scale="   42.758">  1  3  2 -1</clus>
</clustering>
</event>
<event>
 6    0  0.3800129E+002  0.1083942E+03  0.7546771E-02  0.1263573E+00
          2   -1    0    0  505    0 -0.00000000000E+00  0.00000000000E+00  0.19231326195E+03  0.19231326195E+03  0.00000000000E+00 0.  1.
         21   -1    0    0  503  502  0.00000000000E+00 -0.00000000000E+00 -0.41441004831E+03  0.41441004831E+03  0.00000000000E+00 0. -1.
         21    1    1    2  503  504 -0.60482050040E+02 -0.78001605161E+00 -0.13191109274E+03  0.14511796301E+03  0.00000000000E+00 0. -1.
         21    1    1    2  504  501 -0.12196956063E+02  0.85936274079E+02 -0.21374292949E+03  0.23069427571E+03  0.00000000000E+00 0. -1.
         21    1    1    2  505  502 -0.47471225482E+02 -0.54573625879E+01  0.13888472596E+02  0.49761327617E+02  0.00000000000E+00 0.  1.
          2    1    1    2  501    0  0.12015023158E+03 -0.79698895439E+02  0.10966876327E+03  0.18114974392E+03  0.00000000000E+00 0.  1.
<scales pt_clust_3="62.44338" pt_clust_4="14000.00000" pt_clust_5="47.78389" pt_clust_6="108.39424"></scales>
<clustering>
<clus scale="   47.784">  1  5  2 -1</clus>
<clus scale="   62.443">  2  3  1 -1</clus>
<clus scale="  108.394">  1  6  2 -1</clus>
<clus scale="   62.443">  2  3  1 -1</clus>
</clustering>
</event>
<event>
 6    0  0.3800129E+002  0.1316394E+03  0.7546771E-02  0.1225043E+00
          2   -1    0    0  504    0 -0.00000000000E+00  0.00000000000E+00  0.78108610244E+03  0.78108610244E+03  0.00000000000E+00 0. -1.
         21   -1    0    0  503  502  0.00000000000E+00 -0.00000000000E+00 -0.49528001855E+03  0.49528001855E+03  0.00000000000E+00 0. -1.
         21    1    1    2  503  505  0.24112592187E+02  0.19486514100E+02 -0.31582689553E+03  0.31734487434E+03  0.00000000000E+00 0. -1.
         21    1    1    2  504  502 -0.39184168877E+02  0.15396165053E+03  0.12596167498E+03  0.20274598020E+03  0.00000000000E+00 0. -1.
         21    1    1    2  505  501  0.46959470525E+02 -0.47825439702E+02 -0.12497006992E+03  0.14180967149E+03  0.00000000000E+00 0. -1.
          2    1    1    2  501    0 -0.31887893836E+02 -0.12562272493E+03  0.60064137436E+03  0.61446559495E+03  0.00000000000E+00 0. -1.
<scales pt_clust_3="31.00228" pt_clust_4="14000.00000" pt_clust_5="72.98740" pt_clust_6="131.63942"></scales>
<clustering>
<clus scale="   31.002">  2  3  1 -1</clus>
<clus scale="   72.987">  2  5  1 -1</clus>
<clus scale="  131.639">  1  6  2 -1</clus>
<clus scale="   31.002">  2  3  1 -1</clus>
</clustering>
</event>
<event>
 6    0  0.3800129E+002  0.9816008E+02  0.7546771E-02  0.1284213E+00
         21   -1    0    0  501  502  0.00000000000E+00  0.00000000000E+00  0.36830542754E+03  0.36830542754E+03  0.00000000000E+00 0. -1.
          2   -1    0    0  505    0 -0.00000000000E+00 -0.00000000000E+00 -0.17177160440E+03  0.17177160440E+03  0.00000000000E+00 0. -1.
         21    1    1    2  503  502  0.16052199816E+02 -0.37197261464E+02  0.12978206868E+03  0.13595843016E+03  0.00000000000E+00 0. -1.
         21    1    1    2  504  503  0.83942678252E+02  0.25605794600E+02  0.17309047817E+03  0.19406788396E+03  0.00000000000E+00 0. -1.
         21    1    1    2  505  504  0.77197447817E+01  0.45085588287E+02 -0.83133340544E+02  0.94886548260E+02  0.00000000000E+00 0. -1.
          2    1    1    2  501    0 -0.10771462285E+03 -0.33494121424E+02 -0.23205383166E+02  0.11516416957E+03  0.00000000000E+00 0. -1.
<scales pt_clust_3="40.51308" pt_clust_4="14000.00000" pt_clust_5="44.89758" pt_clust_6="98.16008"></scales>
<clustering>
<clus scale="   40.513">  1  3  2 -1</clus>
<clus scale="   44.898">  2  5  1 -1</clus>
<clus scale="   98.160">  2  6  1 -1</clus>
<clus scale="   40.513">  1  3  2 -1</clus>
</clustering>
</event>
<event>
 6    0  0.3800129E+002  0.9912348E+02  0.7546771E-02  0.1282150E+00
         21   -1    0    0  504  502  0.00000000000E+00  0.00000000000E+00  0.37308288580E+03  0.37308288580E+03  0.00000000000E+00 0. -1.
          3   -1    0    0  505    0 -0.00000000000E+00 -0.00000000000E+00 -0.37141150978E+03  0.37141150978E+03  0.00000000000E+00 0. -1.
         21    1    1    2  503  502 -0.33083713992E+02 -0.13535776422E+02  0.17920046625E+02  0.39985965612E+02  0.00000000000E+00 0. -1.
         21    1    1    2  504  501 -0.52956406205E+02 -0.76955785180E+02  0.24472115564E+03  0.26194468472E+03  0.00000000000E+00 0. -1.
         21    1    1    2  505  503 -0.34950635118E+02  0.71352006150E+01 -0.29051537826E+03  0.29269718650E+03  0.00000000000E+00 0. -1.
          3    1    1    2  501    0  0.12099075531E+03  0.83356360987E+02  0.29545552004E+02  0.14986655875E+03  0.00000000000E+00 0. -1.
<scales pt_clust_3="39.93843" pt_clust_4="14000.00000" pt_clust_5="35.67153" pt_clust_6="99.12348"></scales>
<clustering>
<clus scale="   35.672">  2  5  1 -1</clus>
<clus scale="   39.938">  2  3  1 -1</clus>
<clus scale="   99.123">  2  6  1 -1</clus>
<clus scale="   99.123">  1  3  2 -1</clus>
</clustering>
</event>
<event>
 6    0  0.3800129E+002  0.1863434E+03  0.7546771E-02  0.1161801E+00
          2   -1    0    0  503    0 -0.00000000000E+00  0.00000000000E+00  0.31441582574E+04  0.31441582574E+04  0.00000000000E+00 0.  1.
         21   -1    0    0  504  502  0.00000000000E+00 -0.00000000000E+00 -0.13325192649E+03  0.13325192649E+03  0.00000000000E+00 0. -1.
         21    1    1    2  503  502 -0.52409999886E+02  0.60863388219E+02 -0.41299204481E+02  0.90314917950E+02  0.00000000000E+00 0. -1.
         21    1    1    2  504  505  0.62201207397E+01 -0.62442397622E+02 -0.23620011961E+02  0.67049592749E+02  0.00000000000E+00 0. -1.
         21    1    1    2  505  501 -0.13329347151E+03 -0.69042912467E+02  0.28108954387E+03  0.31866189760E+03  0.00000000000E+00 0. -1.
          2    1    1    2  501    0  0.17948335065E+03  0.70621921870E+02  0.27947360035E+04  0.28013837756E+04  0.00000000000E+00 0.  1.
<scales pt_clust_3="49.79921" pt_clust_4="62.75144" pt_clust_5="14000.00000" pt_clust_6="186.34336"></scales>
<clustering>
<clus scale="   62.751">  2  4  1 -1</clus>
<clus scale="   49.799">  2  3  1 -1</clus>
<clus scale="  186.343">  1  6  2 -1</clus>
<clus scale="   62.751">  2  3  1 -1</clus>
</clustering>
</event>
<event>
 6    0  0.3800129E+002  0.1645139E+03  0.7546771E-02  0.1183693E+00
         21   -1    0    0  505  502  0.00000000000E+00  0.00000000000E+00  0.31840465826E+02  0.31840465826E+02  0.00000000000E+00 0.  1.
         -1   -1    0    0    0  501 -0.00000000000E+00 -0.00000000000E+00 -0.16797342151E+04  0.16797342151E+04  0.00000000000E+00 0.  1.
         21    1    1    2  503  501 -0.21898479950E+02 -0.33544466305E+02 -0.16232662050E+03  0.16719660992E+03  0.00000000000E+00 0. -1.
         21    1    1    2  504  503  0.45475429750E+02 -0.48120880510E+02 -0.11061483885E+03  0.12891577260E+03  0.00000000000E+00 0.  1.
         21    1    1    2  505  504  0.97971783156E+02 -0.14426191071E+02 -0.14380821846E+03  0.17460638299E+03  0.00000000000E+00 0.  1.
         -1    1    1    2    0  502 -0.12154873296E+03  0.96091537886E+02 -0.12311440715E+04  0.12408559155E+04  0.00000000000E+00 0.  1.
<scales pt_clust_3="40.05964" pt_clust_4="44.72505" pt_clust_5="44.72505" pt_clust_6="155.43317"></scales>
<clustering>
<clus scale="   40.060">  2  3  1 -1</clus>
<clus scale="   44.725">  4  5 -1 -1</clus>
<clus scale="  155.433">  2  6  1 -1</clus>
<clus scale="  164.514">  1  3  2 -1</clus>
</clustering>
</event>
<event>
 6    0  0.3800129E+002  0.1203953E+03  0.7546771E-02  0.1242446E+00
         21   -1    0    0  503  502  0.00000000000E+00  0.00000000000E+00  0.21851653343E+03  0.21851653343E+03  0.00000000000E+00 0. -1.
          2   -1    0    0  504    0 -0.00000000000E+00 -0.00000000000E+00 -0.14869479395E+04  0.14869479395E+04  0.00000000000E+00 0. -1.
         21    1    1    2  503  501  0.63774140787E+02  0.48686619906E+02 -0.13555701129E+03  0.15752216130E+03  0.00000000000E+00 0.  1.
         21    1    1    2  504  505 -0.35515351721E+01 -0.40087363574E+02 -0.15232771984E+03  0.15755425843E+03  0.00000000000E+00 0.  1.
         21    1    1    2  505  502 -0.98364588307E+02 -0.78288614087E+02  0.18415788525E+03  0.22297718724E+03  0.00000000000E+00 0. -1.
          2    1    1    2  501    0  0.38141982692E+02  0.69689357755E+02 -0.11647045602E+04  0.11674108660E+04  0.00000000000E+00 0. -1.
<scales pt_clust_3="120.39528" pt_clust_4="40.24438" pt_clust_5="14000.00000" pt_clust_6="49.23627"></scales>
<clustering>
<clus scale="   40.244">  2  4  1 -1</clus>
<clus scale="   49.236">  2  6  1 -1</clus>
<clus scale="  120.395">  2  3  1 -1</clus>
<clus scale="  120.395">  1  3  2 -1</clus>
</clustering>
</event>
<event>
 6    0  0.3800129E+002  0.1762593E+03  0.7546771E-02  0.1171473E+00
         21   -1    0    0  501  502  0.00000000000E+00  0.00000000000E+00  0.12277120627E+04  0.12277120627E+04  0.00000000000E+00 0.  1.
          2   -1    0    0  503    0 -0.00000000000E+00 -0.00000000000E+00 -0.28054543446E+04  0.28054543446E+04  0.00000000000E+00 0. -1.
         21    1    1    2  503  504 -0.91042043133E+01  0.51611592979E+02 -0.16499559005E+03  0.17311899897E+03  0.00000000000E+00 0. -1.
         21    1    1    2  504  505  0.13476640249E+03  0.77046880622E+02  0.96939314108E+03  0.98174399261E+03  0.00000000000E+00 0.  1.
         21    1    1    2  505  502 -0.50657176389E+01  0.42451655845E+02  0.24204015209E+03  0.24578698054E+03  0.00000000000E+00 0.  1.
          2    1    1    2  501    0 -0.12059648054E+03 -0.17111012945E+03 -0.26241799851E+04  0.26325164352E+04  0.00000000000E+00 0. -1.
<scales pt_clust_3="52.58466" pt_clust_4="176.25926" pt_clust_5="42.75283" pt_clust_6="14000.00000"></scales>
<clustering>
<clus scale="   42.753">  1  5  2 -1</clus>
<clus scale="   52.585">  2  3  1 -1</clus>
<clus scale="  176.259">  1  4  2 -1</clus>
<clus scale="   42.753">  1  3  2 -1</clus>
</clustering>
</event>
<event>
 6    0  0.3800129E+002  0.1833638E+03  0.7546771E-02  0.1164587E+00
         -1   -1    0    0    0  501 -0.00000000000E+00  0.00000000000E+00  0.14977454536E+04  0.14977454536E+04  0.00000000000E+00 0.  1.
         21   -1    0    0  503  502  0.00000000000E+00 -0.00000000000E+00 -0.69937839605E+03  0.69937839605E+03  0.00000000000E+00 0. -1.
         21    1    1    2  503  504  0.33709511498E+02 -0.28894517142E+02 -0.18412988532E+03  0.18940707208E+03  0.00000000000E+00 0. -1.
         21    1    1    2  504  505  0.15004010727E+03  0.45584458286E+02 -0.48024780421E+03  0.50520088091E+03  0.00000000000E+00 0. -1.
         21    1    1    2  505  501 -0.83131203610E+01  0.10687256275E+03  0.26780487303E+03  0.28846196050E+03  0.00000000000E+00 0.  1.
         -1    1    1    2    0  502 -0.17543649840E+03 -0.12356250389E+03  0.11949398740E+04  0.12140539362E+04  0.00000000000E+00 0.  1.
<scales pt_clust_3="44.39847" pt_clust_4="14000.00000" pt_clust_5="106.56415" pt_clust_6="183.36376"></scales>
<clustering>
<clus scale="   44.398">  2  3  1 -1</clus>
<clus scale="  106.564">  1  5  2 -1</clus>
<clus scale="  183.364">  1  6  2 -1</clus>
<clus scale="   44.398">  2  3  1 -1</clus>
</clustering>
</event>
<event>
 6    0  0.3800129E+002  0.1545493E+03  0.7546771E-02  0.1194992E+00
         21   -1    0    0  505  502  0.00000000000E+00  0.00000000000E+00  0.30495974205E+03  0.30495974205E+03  0.00000000000E+00 0. -1.
          1   -1    0    0  503    0 -0.00000000000E+00 -0.00000000000E+00 -0.10189816217E+04  0.10189816217E+04  0.00000000000E+00 0. -1.
         21    1    1    2  503  502  0.27811294030E+02 -0.12258897626E+02  0.18895311243E+01  0.30451912493E+02  0.00000000000E+00 0. -1.
         21    1    1    2  504  501 -0.83561005445E+02  0.47521199786E+02 -0.10498363631E+03  0.14234560040E+03  0.00000000000E+00 0. -1.
         21    1    1    2  505  504  0.10767939883E+03 -0.10196739544E+03  0.24751922655E+03  0.28854457225E+03  0.00000000000E+00 0. -1.
          1    1    1    2  501    0 -0.51929687413E+02  0.66705093283E+02 -0.85844700102E+03  0.86259927861E+03  0.00000000000E+00 0. -1.
<scales pt_clust_3="30.39323" pt_clust_4="154.54931" pt_clust_5="14000.00000" pt_clust_6="84.34327"></scales>
<clustering>
<clus scale="   30.393">  1  3  2 -1</clus>
<clus scale="   84.343">  2  6  1 -1</clus>
<clus scale="  154.549">  2  4  1 -1</clus>
<clus scale="   30.393">  1  3  2 -1</clus>
</clustering>
</event>
<event>
 6    0  0.3800129E+002  0.1124541E+03  0.7546771E-02  0.1256092E+00
          2   -1    0    0  504    0 -0.00000000000E+00  0.00000000000E+00  0.71053655701E+03  0.71053655701E+03  0.00000000000E+00 0.  1.
         21   -1    0    0  501  502  0.00000000000E+00 -0.00000000000E+00 -0.13309047996E+03  0.13309047996E+03  0.00000000000E+00 0. -1.
         21    1    1    2  503  502  0.15881475219E+02  0.11588240511E+03 -0.31795166697E+02  0.12121008907E+03  0.00000000000E+00 0. -1.
         21    1    1    2  504  505  0.22385359069E+02  0.24622233397E+02  0.14219135379E+03  0.14603335157E+03  0.00000000000E+00 0.  1.
         21    1    1    2  505  503 -0.95811217631E+02 -0.80680834214E+02  0.26431941532E+02  0.12801497556E+03  0.00000000000E+00 0.  1.
          2    1    1    2  501    0  0.57544383343E+02 -0.59823804289E+02  0.44061794842E+03  0.44836862077E+03  0.00000000000E+00 0.  1.
<scales pt_clust_3="14000.00000" pt_clust_4="33.27700" pt_clust_5="112.45414" pt_clust_6="85.33498"></scales>
<clustering>
<clus scale="   33.277">  1  4  2 -1</clus>
<clus scale="   85.335">  1  6  2 -1</clus>
<clus scale="  112.454">  1  5  2 -1</clus>
<clus scale="  112.454">  2  3  1 -1</clus>
</clustering>
</event>
<event>
 6    0  0.3800129E+002  0.1522021E+03  0.7546771E-02  0.1197793E+00
          2   -1    0    0  503    0 -0.00000000000E+00  0.00000000000E+00  0.12873494962E+04  0.12873494962E+04  0.00000000000E+00 0. -1.
         21   -1    0    0  504  502  0.00000000000E+00 -0.00000000000E+00 -0.49853531790E+02  0.49853531790E+02  0.00000000000E+00 0. -1.
         21    1    1    2  503  505  0.47110087581E+02 -0.92947477357E+01  0.31758631766E+02  0.57570507893E+02  0.00000000000E+00 0. -1.
         21    1    1    2  504  501 -0.43800884161E+01  0.45721681169E+02  0.10620818897E+03  0.11571446197E+03  0.00000000000E+00 0.  1.
         21    1    1    2  505  502  0.63163235842E+02 -0.11530184967E+03  0.12810754872E+03  0.18356376260E+03  0.00000000000E+00 0. -1.
          2    1    1    2  501    0 -0.10589323501E+03  0.78874916240E+02  0.97142159491E+03  0.98035429549E+03  0.00000000000E+00 0. -1.
<scales pt_clust_3="42.32214" pt_clust_4="45.93101" pt_clust_5="42.32214" pt_clust_6="135.13496"></scales>
<clustering>
<clus scale="   42.322">  3  5 -1 -1</clus>
<clus scale="   45.931">  2  4  1 -1</clus>
<clus scale="  135.135">  1  6  2 -1</clus>
<clus scale="   45.931">  2  3  1 -1</clus>
</clustering>
</event>
<event>
 6    0  0.3800129E+002  0.1899860E+03  0.7546771E-02  0.1158474E+00
         21   -1    0    0  503  502  0.00000000000E+00  0.00000000000E+00  0.43796082405E+03  0.43796082405E+03  0.00000000000E+00 0. -1.
          1   -1    0    0  504    0 -0.00000000000E+00 -0.00000000000E+00 -0.22755282832E+04  0.22755282832E+04  0.00000000000E+00 0.  1.
         21    1    1    2  503  501  0.85942572030E+02 -0.46721270740E+02 -0.21793396055E+03  0.23888117127E+03  0.00000000000E+00 0.  1.
         21    1    1    2  504  505 -0.70929777892E+02  0.95195154010E+00  0.11275322146E+03  0.13321121782E+03  0.00000000000E+00 0.  1.
         21    1    1    2  505  502 -0.10505738824E+03  0.66511692402E+02  0.29071290146E+03  0.31618799965E+03  0.00000000000E+00 0. -1.
          1    1    1    2  501    0  0.90044594098E+02 -0.20742373202E+02 -0.20230996215E+04  0.20252087185E+04  0.00000000000E+00 0.  1.
<scales pt_clust_3="180.11874" pt_clust_4="45.64424" pt_clust_5="45.64424" pt_clust_6="92.40279"></scales>
<clustering>
<clus scale="   45.644">  4  5 -1 -1</clus>
<clus scale="   92.403">  2  6  1 -1</clus>
<clus scale="  180.119">  2  3  1 -1</clus>
<clus scale="  189.986">  1  3  2 -1</clus>
</clustering>
</event>
<event>
 6    0  0.3800129E+002  0.8760277E+02  0.7546771E-02  0.1308763E+00
         21   -1    0    0  504  502  0.00000000000E+00  0.00000000000E+00  0.53381616840E+03  0.53381616840E+03  0.00000000000E+00 0.  1.
          2   -1    0    0  505    0 -0.00000000000E+00 -0.00000000000E+00 -0.90994148686E+03  0.90994148686E+03  0.00000000000E+00 0. -1.
         21    1    1    2  503  501 -0.28736622372E+02  0.52616223144E+02  0.31983274377E+03  0.32540320280E+03  0.00000000000E+00 0.  1.
         21    1    1    2  504  503  0.16189582884E+02  0.27048123966E+02  0.14434099284E+03  0.14774310752E+03  0.00000000000E+00 0.  1.
         21    1    1    2  505  502  0.71693302439E+02 -0.14419353996E+02  0.41729559908E+02  0.84197408240E+02  0.00000000000E+00 0.  1.
          2    1    1    2  501    0 -0.59146262950E+02 -0.65244993114E+02 -0.88202861497E+03  0.88641393670E+03  0.00000000000E+00 0. -1.
<scales pt_clust_3="14000.00000" pt_clust_4="31.52306" pt_clust_5="74.99543" pt_clust_6="87.60277"></scales>
<clustering>
<clus scale="   31.523">  1  4  2 -1</clus>
<clus scale="   74.995">  1  5  2 -1</clus>
<clus scale="   87.603">  2  6  1 -1</clus>
<clus scale="   31.523">  1  3  2 -1</clus>
</clustering>
</event>
<event>
 6    0  0.3800129E+002  0.2054972E+03  0.7546771E-02  0.1145182E+00
         21   -1    0    0  501  502  0.00000000000E+00  0.00000000000E+00  0.88619828553E+02  0.88619828553E+02  0.00000000000E+00 0. -1.
          4   -1    0    0  503    0 -0.00000000000E+00 -0.00000000000E+00 -0.17899062282E+04  0.17899062282E+04  0.00000000000E+00 0.  1.
         21    1    1    2  503  505  0.23438124735E+02 -0.80487675303E+02 -0.10566716775E+04  0.10599918139E+04  0.00000000000E+00 0.  1.
         21    1    1    2  504  502  0.56053013627E+02 -0.40000766473E+02 -0.81800376728E+01  0.69346338558E+02  0.00000000000E+00 0. -1.
         21    1    1    2  505  504  0.51836603986E+02 -0.10075685769E+03 -0.88226825124E+02  0.14360693074E+03  0.00000000000E+00 0. -1.
          4    1    1    2  501    0 -0.13132774235E+03  0.22124529946E+03 -0.54820785932E+03  0.60558097350E+03  0.00000000000E+00 0.  1.
<scales pt_clust_3="83.83085" pt_clust_4="52.88445" pt_clust_5="52.88445" pt_clust_6="193.97720"></scales>
<clustering>
<clus scale="   52.884">  4  5 -1 -1</clus>
<clus scale="   83.831">  2  3  1 -1</clus>
<clus scale="  193.977">  2  6  1 -1</clus>
<clus scale="  205.497">  1  3  2 -1</clus>
</clustering>
</event>
<event>
 6    0  0.3800129E+002  0.1236988E+03  0.7546771E-02  0.1237117E+00
         21   -1    0    0  505  502  0.00000000000E+00  0.00000000000E+00  0.10265975217E+03  0.10265975217E+03  0.00000000000E+00 0. -1.
          2   -1    0    0  503    0 -0.00000000000E+00 -0.00000000000E+00 -0.29219437021E+04  0.29219437021E+04  0.00000000000E+00 0.  1.
         21    1    1    2  503  504 -0.21140713694E+02 -0.48646411873E+02 -0.11200024325E+04  0.11212577099E+04  0.00000000000E+00 0. -1.
         21    1    1    2  504  502  0.15418441082E+02 -0.16905676577E+03  0.42355742399E+01  0.16981124364E+03  0.00000000000E+00 0. -1.
         21    1    1    2  505  501 -0.56471983610E+01  0.51249075651E+02 -0.50675742404E+02  0.72293772018E+02  0.00000000000E+00 0. -1.
          2    1    1    2  501    0  0.11369470973E+02  0.16645410199E+03 -0.16528413492E+04  0.16612407287E+04  0.00000000000E+00 0.  1.
<scales pt_clust_3="52.73601" pt_clust_4="123.69878" pt_clust_5="51.55927" pt_clust_6="14000.00000"></scales>
<clustering>
<clus scale="   51.559">  1  5  2 -1</clus>
<clus scale="   52.736">  2  3  1 -1</clus>
<clus scale="  123.699">  1  4  2 -1</clus>
<clus scale="   51.559">  1  3  2 -1</clus>
</clustering>
</event>
<event>
 6    0  0.3800129E+002  0.1368862E+03  0.7546771E-02  0.1217581E+00
         21   -1    0    0  501  502  0.00000000000E+00  0.00000000000E+00  0.26889573454E+02  0.26889573454E+02  0.00000000000E+00 0. -1.
          2   -1    0    0  504    0 -0.00000000000E+00 -0.00000000000E+00 -0.23874527908E+04  0.23874527908E+04  0.00000000000E+00 0. -1.
         21    1    1    2  503  505 -0.63837186691E+02  0.76279222179E+02 -0.12856020388E+03  0.16254670763E+03  0.00000000000E+00 0. -1.
         21    1    1    2  504  503 -0.30772893738E+02  0.35969765640E+00 -0.54530450115E+03  0.54617222499E+03  0.00000000000E+00 0. -1.
         21    1    1    2  505  502 -0.34484610216E+02 -0.58900410117E+01 -0.43400149454E+02  0.55744541414E+02  0.00000000000E+00 0. -1.
          2    1    1    2  501    0  0.12909469065E+03 -0.70748878823E+02 -0.16432983629E+04  0.16498788902E+04  0.00000000000E+00 0. -1.
<scales pt_clust_3="35.00267" pt_clust_4="30.77500" pt_clust_5="35.00267" pt_clust_6="123.60797"></scales>
<clustering>
<clus scale="   30.775">  2  4  1 -1</clus>
<clus scale="   35.003">  3  5 -1 -1</clus>
<clus scale="  123.608">  2  6  1 -1</clus>
<clus scale="  136.886">  1  3  2 -1</clus>
</clustering>
</event>
<event>
 6    0  0.3800129E+002  0.1359366E+03  0.7546771E-02  0.1218904E+00
         21   -1    0    0  505  502  0.00000000000E+00  0.00000000000E+00  0.76105249341E+02  0.76105249341E+02  0.00000000000E+00 0.  1.
          1   -1    0    0  504    0 -0.00000000000E+00 -0.00000000000E+00 -0.22762855582E+04  0.22762855582E+04  0.00000000000E+00 0.  1.
         21    1    1    2  503  502 -0.22772589434E+02 -0.39959230702E+02 -0.65909703984E+02  0.80370517151E+02  0.00000000000E+00 0.  1.
         21    1    1    2  504  503  0.37718814601E+02 -0.14271119250E+02 -0.21765667817E+03  0.22136125083E+03  0.00000000000E+00 0. -1.
         21    1    1    2  505  501  0.17242949330E+02 -0.97750893472E+02  0.25386254243E+02  0.10245495781E+03  0.00000000000E+00 0.  1.
          1    1    1    2  501    0 -0.32189174497E+02  0.15198124342E+03 -0.19420001809E+04  0.19482040817E+04  0.00000000000E+00 0.  1.
<scales pt_clust_3="45.79143" pt_clust_4="40.32833" pt_clust_5="14000.00000" pt_clust_6="135.93659"></scales>
<clustering>
<clus scale="   40.328">  2  4  1 -1</clus>
<clus scale="   45.791">  1  3  2 -1</clus>
<clus scale="  135.937">  2  6  1 -1</clus>
<clus scale="   45.791">  1  3  2 -1</clus>
</clustering>
</event>
<event>
 6    0  0.3800129E+002  0.2729898E+03  0.7546771E-02  0.1099581E+00
         21   -1    0    0  501  502  0.00000000000E+00  0.00000000000E+00  0.17923212767E+02  0.17923212767E+02  0.00000000000E+00 0.  1.
          2   -1    0    0  503    0 -0.00000000000E+00 -0.00000000000E+00 -0.38742899321E+04  0.38742899321E+04  0.00000000000E+00 0.  1.
         21    1    1    2  503  505 -0.14640459506E+02  0.44198678953E+02 -0.55034306838E+03  0.55230911562E+03  0.00000000000E+00 0.  1.
         21    1    1    2  504  502 -0.10384784877E+03  0.93251196257E+01 -0.74827162722E+03  0.75550100043E+03  0.00000000000E+00 0.  1.
         21    1    1    2  505  504 -0.95331458426E+02  0.69674435160E+02 -0.10458052663E+04  0.10524501266E+04  0.00000000000E+00 0.  1.
          2    1    1    2  501    0  0.21381976670E+03 -0.12319823374E+03 -0.15119467574E+04  0.15319529022E+04  0.00000000000E+00 0.  1.
<scales pt_clust_3="31.40865" pt_clust_4="79.41726" pt_clust_5="79.41726" pt_clust_6="246.77256"></scales>
<clustering>
<clus scale="   31.409">  3  5 -1 -1</clus>
<clus scale="   79.417">  3  4 -1 -1</clus>
<clus scale="  246.773">  1  6  2 -1</clus>
<clus scale="  246.773">  1  3  2 -1</clus>
</clustering>
</event>
<event>
 6    0  0.3800129E+002  0.1876200E+03  0.7546771E-02  0.1160626E+00
         -2   -1    0    0    0  501 -0.00000000000E+00  0.00000000000E+00  0.16339263077E+04  0.16339263077E+04  0.00000000000E+00 0.  1.
         21   -1    0    0  504  502  0.00000000000E+00 -0.00000000000E+00 -0.31735923408E+03  0.31735923408E+03  0.00000000000E+00 0. -1.
         21    1    1    2  503  502 -0.60423664451E+02  0.13511405847E+03  0.12170558252E+03  0.19162222428E+03  0.00000000000E+00 0. -1.
         21    1    1    2  504  505 -0.60223227011E+01  0.29571206638E+02 -0.78139835551E+02  0.83764900362E+02  0.00000000000E+00 0. -1.
         21    1    1    2  505  501  0.43249311701E+02  0.30066493307E+02 -0.19135193684E+03  0.19846929414E+03  0.00000000000E+00 0. -1.
         -2    1    1    2    0  503  0.23196675451E+02 -0.19475175842E+03  0.14643532635E+04  0.14774291230E+04  0.00000000000E+00 0.  1.
<scales pt_clust_3="14000.00000" pt_clust_4="30.17821" pt_clust_5="66.55943" pt_clust_6="187.62004"></scales>
<clustering>
<clus scale="   30.178">  2  4  1 -1</clus>
<clus scale="   66.559">  2  5  1 -1</clus>
<clus scale="  187.620">  1  6  2 -1</clus>
<clus scale="   30.178">  2  3  1 -1</clus>
</clustering>
</event>
<event>
 6    0  0.3800129E+002  0.1299791E+03  0.7546771E-02  0.1227487E+00
         -1   -1    0    0    0  501 -0.00000000000E+00  0.00000000000E+00  0.48709453445E+03  0.48709453445E+03  0.00000000000E+00 0.  1.
         21   -1    0    0  503  502  0.00000000000E+00 -0.00000000000E+00 -0.31158593469E+03  0.31158593469E+03  0.00000000000E+00 0. -1.
         21    1    1    2  503  505 -0.12762701716E+02  0.29256578524E+02 -0.15616215865E+03  0.15939088348E+03  0.00000000000E+00 0.  1.
         21    1    1    2  504  502 -0.15400875890E+01  0.58511517366E+02 -0.11790527624E+01  0.58543656357E+02  0.00000000000E+00 0. -1.
         21    1    1    2  505  501  0.17905715996E+02  0.49531685157E+02 -0.10737291027E+03  0.11959491779E+03  0.00000000000E+00 0. -1.
         -1    1    1    2    0  504 -0.36029266908E+01 -0.13729978105E+03  0.44022272144E+03  0.46115101152E+03  0.00000000000E+00 0.  1.
<scales pt_clust_3="31.91918" pt_clust_4="64.31716" pt_clust_5="14000.00000" pt_clust_6="129.97913"></scales>
<clustering>
<clus scale="   31.919">  2  3  1 -1</clus>
<clus scale="   64.317">  2  4  1 -1</clus>
<clus scale="  129.979">  1  6  2 -1</clus>
<clus scale="   31.919">  2  3  1 -1</clus>
</clustering>
</event>
<event>
 6    0  0.3800129E+002  0.8682018E+02  0.7546771E-02  0.1310740E+00
          2   -1    0    0  503    0 -0.00000000000E+00  0.00000000000E+00  0.54122732270E+04  0.54122732270E+04  0.00000000000E+00 0. -1.
         21   -1    0    0  501  502  0.00000000000E+00 -0.00000000000E+00 -0.31886166622E+02  0.31886166622E+02  0.00000000000E+00 0.  1.
         21    1    1    2  503  504  0.37516634638E+02  0.20654153605E+01  0.34200770696E+03  0.34406545225E+03  0.00000000000E+00 0.  1.
         21    1    1    2  504  505 -0.33084867353E+02  0.74892356468E+02  0.31304538458E+03  0.32357516331E+03  0.00000000000E+00 0.  1.
         21    1    1    2  505  502  0.52360585350E+02  0.14200338921E+02  0.44728358821E+01  0.54436079805E+02  0.00000000000E+00 0.  1.
          2    1    1    2  501    0 -0.56792352636E+02 -0.91158110749E+02  0.47208611329E+04  0.47220826982E+04  0.00000000000E+00 0. -1.
<scales pt_clust_3="37.57345" pt_clust_4="14000.00000" pt_clust_5="54.46556" pt_clust_6="86.82018"></scales>
<clustering>
<clus scale="   37.573">  1  3  2 -1</clus>
<clus scale="   54.466">  2  5  1 -1</clus>
<clus scale="   86.820">  1  6  2 -1</clus>
<clus scale="   54.466">  2  3  1 -1</clus>
</clustering>
</event>
<event>
 6    0  0.3800129E+002  0.7160436E+02  0.7546771E-02  0.1354721E+00
         21   -1    0    0  505  502  0.00000000000E+00  0.00000000000E+00  0.13835404165E+03  0.13835404165E+03  0.00000000000E+00 0.  1.
          1   -1    0    0  503    0 -0.00000000000E+00 -0.00000000000E+00 -0.72455389419E+03  0.72455389419E+03  0.00000000000E+00 0. -1.
         21    1    1    2  503  504  0.17833877127E+01  0.49011198337E+02 -0.85695835195E+02  0.98737298950E+02  0.00000000000E+00 0. -1.
         21    1    1    2  504  502 -0.15709563014E+01  0.86178857792E+02  0.66062019042E+02  0.10859766938E+03  0.00000000000E+00 0.  1.
         21    1    1    2  505  501 -0.34046983219E+02 -0.51990626676E+02  0.17561707520E+02  0.64580460663E+02  0.00000000000E+00 0. -1.
          1    1    1    2  501    0  0.33834551807E+02 -0.83199429453E+02 -0.58412774391E+03  0.59099250685E+03  0.00000000000E+00 0. -1.
<scales pt_clust_3="49.04363" pt_clust_4="71.60436" pt_clust_5="14000.00000" pt_clust_6="51.74789"></scales>
<clustering>
<clus scale="   49.044">  2  3  1 -1</clus>
<clus scale="   51.748">  2  6  1 -1</clus>
<clus scale="   71.604">  1  4  2 -1</clus>
<clus scale="   71.604">  1  3  2 -1</clus>
</clustering>
</event>
<event>
 6    0  0.3800129E+002  0.1958866E+03  0.7546771E-02  0.1153257E+00
         21   -1    0    0  503  502  0.00000000000E+00  0.00000000000E+00  0.51268076964E+03  0.51268076964E+03  0.00000000000E+00 0. -1.
          2   -1    0    0  504    0 -0.00000000000E+00 -0.00000000000E+00 -0.42499915795E+03  0.42499915795E+03  0.00000000000E+00 0. -1.
         21    1    1    2  503  501  0.17236562858E+03 -0.14100997379E+02  0.34427207552E+03  0.38526875039E+03  0.00000000000E+00 0. -1.
         21    1    1    2  504  505 -0.10375399293E+02 -0.42852195905E+02 -0.14389460743E+03  0.15049789916E+03  0.00000000000E+00 0. -1.
         21    1    1    2  505  502  0.10705564376E+02 -0.63714225029E+02  0.89183370285E+02  0.11012622356E+03  0.00000000000E+00 0.  1.
          2    1    1    2  501    0 -0.17269579366E+03  0.12066741831E+03 -0.20187922669E+03  0.29178705447E+03  0.00000000000E+00 0. -1.
<scales pt_clust_3="195.88663" pt_clust_4="44.09036" pt_clust_5="66.13872" pt_clust_6="14000.00000"></scales>
<clustering>
<clus scale="   44.090">  2  4  1 -1</clus>
<clus scale="   66.139">  1  5  2 -1</clus>
<clus scale="  195.887">  1  3  2 -1</clus>
<clus scale="   66.139">  1  3  2 -1</clus>
</clustering>
</event>
<event>
 6    0  0.3800129E+002  0.1091855E+03  0.7546771E-02  0.1262086E+00
         21   -1    0    0  505  502  0.00000000000E+00  0.00000000000E+00  0.17715960259E+03  0.17715960259E+03  0.00000000000E+00 0.  1.
          2   -1    0    0  503    0 -0.00000000000E+00 -0.00000000000E+00 -0.21765011072E+04  0.21765011072E+04  0.00000000000E+00 0. -1.
         21    1    1    2  503  504 -0.42714195515E+02 -0.23872087912E+02 -0.32984261802E+03  0.33345244300E+03  0.00000000000E+00 0. -1.
         21    1    1    2  504  502  0.35593903810E+02 -0.55706175975E+02 -0.78900145728E+02  0.10293365352E+03  0.00000000000E+00 0. -1.
         21    1    1    2  505  501  0.30187656758E+02 -0.48459021448E+02  0.15585441563E+03  0.16598243959E+03  0.00000000000E+00 0.  1.
          2    1    1    2  501    0 -0.23067365053E+02  0.12803728533E+03 -0.17464531565E+04  0.17512921736E+04  0.00000000000E+00 0. -1.
<scales pt_clust_3="48.93239" pt_clust_4="109.18553" pt_clust_5="57.08644" pt_clust_6="14000.00000"></scales>
<clustering>
<clus scale="   48.932">  2  3  1 -1</clus>
<clus scale="   57.086">  1  5  2 -1</clus>
<clus scale="  109.186">  1  4  2 -1</clus>
<clus scale="   57.086">  1  3  2 -1</clus>
</clustering>
</event>
<event>
 6    0  0.3800129E+002  0.9523829E+02  0.7546771E-02  0.1290640E+00
         21   -1    0    0  505  502  0.00000000000E+00  0.00000000000E+00  0.14120251419E+03  0.14120251419E+03  0.00000000000E+00 0. -1.
         -1   -1    0    0    0  501 -0.00000000000E+00 -0.00000000000E+00 -0.39092106100E+03  0.39092106100E+03  0.00000000000E+00 0.  1.
         21    1    1    2  503  501  0.85056029214E+01 -0.37378508119E+02  0.73991413664E+01  0.39041586074E+02  0.00000000000E+00 0. -1.
         21    1    1    2  504  502  0.73987455031E+02 -0.61613459205E+01 -0.61888486442E+02  0.96655524620E+02  0.00000000000E+00 0.  1.
         21    1    1    2  505  503  0.52269643658E+01 -0.31923635245E+02  0.86236140001E+02  0.92103808205E+02  0.00000000000E+00 0. -1.
         -1    1    1    2    0  504 -0.87720022318E+02  0.75463489284E+02 -0.28146534174E+03  0.30432265629E+03  0.00000000000E+00 0.  1.
<scales pt_clust_3="52.75038" pt_clust_4="14000.00000" pt_clust_5="32.34872" pt_clust_6="95.23829"></scales>
<clustering>
<clus scale="   32.349">  1  5  2 -1</clus>
<clus scale="   52.750">  1  3  2 -1</clus>
<clus scale="   95.238">  2  6  1 -1</clus>
<clus scale="   32.349">  1  3  2 -1</clus>
</clustering>
</event>
<event>
 6    0  0.3800129E+002  0.1045015E+03  0.7546771E-02  0.1271105E+00
         -1   -1    0    0    0  501 -0.00000000000E+00  0.00000000000E+00  0.20348625259E+04  0.20348625259E+04  0.00000000000E+00 0. -1.
         21   -1    0    0  503  502  0.00000000000E+00 -0.00000000000E+00 -0.32319234593E+03  0.32319234593E+03  0.00000000000E+00 0. -1.
         21    1    1    2  503  504  0.33082141932E+02  0.29406208959E+02 -0.23283859287E+02  0.50012911768E+02  0.00000000000E+00 0. -1.
         21    1    1    2  504  501  0.39361608603E+02  0.59550066245E+01  0.43620837298E+03  0.43802116729E+03  0.00000000000E+00 0. -1.
         21    1    1    2  505  502  0.67437353291E+02 -0.57175496920E+02 -0.27554266793E+03  0.28937967433E+03  0.00000000000E+00 0. -1.
         -1    1    1    2    0  505 -0.13988110383E+03  0.21814281336E+02  0.15742883342E+04  0.15806411185E+04  0.00000000000E+00 0. -1.
<scales pt_clust_3="44.54187" pt_clust_4="39.80953" pt_clust_5="14000.00000" pt_clust_6="104.50151"></scales>
<clustering>
<clus scale="   39.810">  1  4  2 -1</clus>
<clus scale="   44.542">  2  3  1 -1</clus>
<clus scale="  104.502">  1  6  2 -1</clus>
<clus scale="   44.542">  2  3  1 -1</clus>
</clustering>
</event>
<event>
 6    0  0.3800129E+002  0.1271664E+03  0.7546771E-02  0.1231722E+00
         -3   -1    0    0    0  501 -0.00000000000E+00  0.00000000000E+00  0.56778620779E+03  0.56778620779E+03  0.00000000000E+00 0.  1.
         21   -1    0    0  504  502  0.00000000000E+00 -0.00000000000E+00 -0.10571318779E+03  0.10571318779E+03  0.00000000000E+00 0.  1.
         21    1    1    2  503  502  0.58689228218E+01 -0.53177079662E+02  0.78499014084E+02  0.94996532930E+02  0.00000000000E+00 0. -1.
         21    1    1    2  504  501  0.77270710652E+02  0.90407927907E+02 -0.46639496592E+02  0.12774818510E+03  0.00000000000E+00 0.  1.
         21    1    1    2  505  503 -0.46711844976E+02 -0.30451726804E+02  0.74192666576E+02  0.92810860895E+02  0.00000000000E+00 0. -1.
         -3    1    1    2    0  505 -0.36427788498E+02 -0.67791214400E+01  0.35602083594E+03  0.35794381666E+03  0.00000000000E+00 0.  1.
<scales pt_clust_3="51.83306" pt_clust_4="113.47394" pt_clust_5="51.83306" pt_clust_6="37.05321"></scales>
<clustering>
<clus scale="   37.053">  1  6  2 -1</clus>
<clus scale="   51.833">  3  5 -1 -1</clus>
<clus scale="  113.474">  2  4  1 -1</clus>
<clus scale="  113.474">  2  3  1 -1</clus>
</clustering>
</event>
<event>
 6    0  0.3800129E+002  0.1023114E+03  0.7546771E-02  0.1275509E+00
          1   -1    0    0  505    0 -0.00000000000E+00  0.00000000000E+00  0.10306371436E+04  0.10306371436E+04  0.00000000000E+00 0. -1.
         21   -1    0    0  504  502  0.00000000000E+00 -0.00000000000E+00 -0.13212696266E+04  0.13212696266E+04  0.00000000000E+00 0.  1.
         21    1    1    2  503  502  0.11383656788E+03  0.15016968854E+02 -0.12238042533E+04  0.12291790447E+04  0.00000000000E+00 0.  1.
         21    1    1    2  504  501 -0.12227167130E+02 -0.28085366158E+02 -0.88424554376E+02  0.93579876174E+02  0.00000000000E+00 0. -1.
         21    1    1    2  505  503 -0.23570184921E+02  0.30570498913E+02  0.20175033107E+03  0.20541009009E+03  0.00000000000E+00 0. -1.
          1    1    1    2  501    0 -0.78039215827E+02 -0.17502101609E+02  0.81984599358E+03  0.82373775921E+03  0.00000000000E+00 0. -1.
<scales pt_clust_3="14000.00000" pt_clust_4="30.63154" pt_clust_5="38.57997" pt_clust_6="102.31136"></scales>
<clustering>
<clus scale="   30.632">  2  4  1 -1</clus>
<clus scale="   38.580">  1  5  2 -1</clus>
<clus scale="  102.311">  1  6  2 -1</clus>
<clus scale="   30.632">  2  3  1 -1</clus>
</clustering>
</event>
<event>
 6    0  0.3800129E+002  0.1309004E+03  0.7546771E-02  0.1226126E+00
          2   -1    0    0  504    0 -0.00000000000E+00  0.00000000000E+00  0.37086995307E+04  0.37086995307E+04  0.00000000000E+00 0.  1.
         21   -1    0    0  503  502  0.00000000000E+00 -0.00000000000E+00 -0.24709882808E+03  0.24709882808E+03  0.00000000000E+00 0. -1.
         21    1    1    2  503  501  0.14435725294E+03  0.47574359368E+02 -0.20553651770E+03  0.25563175909E+03  0.00000000000E+00 0. -1.
         21    1    1    2  504  505  0.36176285072E+02  0.49740350770E+02  0.25578240816E+04  0.25585634365E+04  0.00000000000E+00 0.  1.
         21    1    1    2  505  502 -0.17453698883E+02 -0.28395295534E+02  0.21922439622E+02  0.39893831254E+02  0.00000000000E+00 0.  1.
          2    1    1    2  501    0 -0.16307983913E+03 -0.68919414604E+02  0.10873906991E+04  0.11017093319E+04  0.00000000000E+00 0.  1.
<scales pt_clust_3="14000.00000" pt_clust_4="61.45309" pt_clust_5="33.33053" pt_clust_6="130.90043"></scales>
<clustering>
<clus scale="   33.331">  2  5  1 -1</clus>
<clus scale="   61.453">  1  4  2 -1</clus>
<clus scale="  130.900">  1  6  2 -1</clus>
<clus scale="   33.331">  2  3  1 -1</clus>
</clustering>
</event>
<event>
 6    0  0.3800129E+002  0.1215790E+03  0.7546771E-02  0.1240515E+00
          2   -1    0    0  503    0 -0.00000000000E+00  0.00000000000E+00  0.94890501131E+03  0.94890501131E+03  0.00000000000E+00 0. -1.
         21   -1    0    0  504  502  0.00000000000E+00 -0.00000000000E+00 -0.36690123667E+02  0.36690123667E+02  0.00000000000E+00 0.  1.
         21    1    1    2  503  505 -0.18660316163E+02 -0.31854846041E+02  0.52457064657E+03  0.52586814113E+03  0.00000000000E+00 0. -1.
         21    1    1    2  504  501 -0.26448779722E+02  0.25963033178E+02  0.45331349080E+02  0.58553806452E+02  0.00000000000E+00 0. -1.
         21    1    1    2  505  502  0.11288662693E+03 -0.14963969900E+02  0.11018568026E+03  0.15845565647E+03  0.00000000000E+00 0.  1.
          2    1    1    2  501    0 -0.67777531041E+02  0.20855782764E+02  0.23212721174E+03  0.24271753092E+03  0.00000000000E+00 0. -1.
<scales pt_clust_3="36.91800" pt_clust_4="35.41457" pt_clust_5="109.86761" pt_clust_6="35.41457"></scales>
<clustering>
<clus scale="   36.918">  1  3  2 -1</clus>
<clus scale="   35.415">  4  6 -1 -1</clus>
<clus scale="  109.868">  2  5  1 -1</clus>
<clus scale="  109.868">  2  3  1 -1</clus>
</clustering>
</event>
<event>
 6    0  0.3800129E+002  0.1771107E+03  0.7546771E-02  0.1170629E+00
          2   -1    0    0  504    0 -0.00000000000E+00  0.00000000000E+00  0.14301602613E+04  0.14301602613E+04  0.00000000000E+00 0.  1.
         21   -1    0    0  501  502  0.00000000000E+00 -0.00000000000E+00 -0.73192128134E+02  0.73192128134E+02  0.00000000000E+00 0.  1.
         21    1    1    2  503  502  0.43109799532E+01  0.62354166772E+02  0.12053634502E+02  0.63654668067E+02  0.00000000000E+00 0.  1.
         21    1    1    2  504  505 -0.39200839778E+02 -0.63341913157E+02  0.16214463268E+03  0.17843706371E+03  0.00000000000E+00 0. -1.
         21    1    1    2  505  503 -0.87858251558E+02  0.75126536496E+02  0.61657078123E+02  0.13101398450E+03  0.00000000000E+00 0.  1.
          2    1    1    2  501    0  0.12274811138E+03 -0.74138790112E+02  0.11211127879E+04  0.11302466732E+04  0.00000000000E+00 0.  1.
<scales pt_clust_3="59.65367" pt_clust_4="74.49096" pt_clust_5="59.65367" pt_clust_6="157.43779"></scales>
<clustering>
<clus scale="   59.654">  3  5 -1 -1</clus>
<clus scale="   74.491">  1  4  2 -1</clus>
<clus scale="  157.438">  1  6  2 -1</clus>
<clus scale="  177.111">  2  3  1 -1</clus>
</clustering>
</event>
<event>
 6    0  0.3800129E+002  0.9739107E+02  0.7546771E-02  0.1285880E+00
         21   -1    0    0  505  502  0.00000000000E+00  0.00000000000E+00  0.12874538122E+04  0.12874538122E+04  0.00000000000E+00 0. -1.
          3   -1    0    0  504    0 -0.00000000000E+00 -0.00000000000E+00 -0.44808595504E+03  0.44808595504E+03  0.00000000000E+00 0. -1.
         21    1    1    2  503  502 -0.11330738072E+02 -0.34278128977E+02  0.11823629113E+03  0.12362522514E+03  0.00000000000E+00 0. -1.
         21    1    1    2  504  503 -0.71832573325E+02 -0.41104003557E+01 -0.34088997114E+02  0.79617044066E+02  0.00000000000E+00 0. -1.
         21    1    1    2  505  501 -0.43246179626E+02 -0.47059068591E+02  0.11278397184E+04  0.11296491573E+04  0.00000000000E+00 0. -1.
          3    1    1    2  501    0  0.12640949102E+03  0.85447597923E+02 -0.37261915532E+03  0.40264834076E+03  0.00000000000E+00 0. -1.
<scales pt_clust_3="36.10230" pt_clust_4="72.21202" pt_clust_5="14000.00000" pt_clust_6="97.39107"></scales>
<clustering>
<clus scale="   36.102">  1  3  2 -1</clus>
<clus scale="   72.212">  2  4  1 -1</clus>
<clus scale="   97.391">  2  6  1 -1</clus>
<clus scale="   36.102">  1  3  2 -1</clus>
</clustering>
</event>
<event>
 6    0  0.3800129E+002  0.1464184E+03  0.7546771E-02  0.1204944E+00
          3   -1    0    0  504    0 -0.00000000000E+00  0.00000000000E+00  0.95943015273E+02  0.95943015273E+02  0.00000000000E+00 0. -1.
         21   -1    0    0  503  502  0.00000000000E+00 -0.00000000000E+00 -0.12582504977E+04  0.12582504977E+04  0.00000000000E+00 0. -1.
         21    1    1    2  503  501  0.65108861325E+02  0.13645289952E+02 -0.40341270399E+03  0.40886081678E+03  0.00000000000E+00 0. -1.
         21    1    1    2  504  505 -0.59233500151E+02  0.18284536860E+02 -0.38624495698E+02  0.73039602246E+02  0.00000000000E+00 0.  1.
         21    1    1    2  505  502  0.76622761375E+02 -0.87372379140E+02 -0.75734308408E+03  0.76620723515E+03  0.00000000000E+00 0. -1.
          3    1    1    2  501    0 -0.82498122549E+02  0.55442552328E+02  0.37072801351E+02  0.10608585878E+03  0.00000000000E+00 0. -1.
<scales pt_clust_3="64.65572" pt_clust_4="61.99139" pt_clust_5="14000.00000" pt_clust_6="146.41841"></scales>
<clustering>
<clus scale="   61.991">  1  4  2 -1</clus>
<clus scale="   64.656">  2  3  1 -1</clus>
<clus scale="  146.418">  1  6  2 -1</clus>
<clus scale="   64.656">  2  3  1 -1</clus>
</clustering>
</event>
<event>
 6    0  0.3800129E+002  0.1777425E+03  0.7546771E-02  0.1170006E+00
          2   -1    0    0  504    0 -0.00000000000E+00  0.00000000000E+00  0.22854345549E+04  0.22854345549E+04  0.00000000000E+00 0. -1.
         21   -1    0    0  501  502  0.00000000000E+00 -0.00000000000E+00 -0.62581370444E+02  0.62581370444E+02  0.00000000000E+00 0. -1.
         21    1    1    2  503  502  0.98203822138E+02 -0.41271808298E+02  0.74424558704E+02  0.12994755781E+03  0.00000000000E+00 0. -1.
         21    1    1    2  504  505  0.48674237717E+02  0.31369416899E+02  0.44924468637E+03  0.45296137800E+03  0.00000000000E+00 0.  1.
         21    1    1    2  505  503  0.43980534411E+02 -0.47662391774E+02  0.11714502660E+02  0.65903115020E+02  0.00000000000E+00 0. -1.
          2    1    1    2  501    0 -0.19085859427E+03  0.57564783173E+02  0.16874694368E+04  0.16992038746E+04  0.00000000000E+00 0. -1.
<scales pt_clust_3="41.37525" pt_clust_4="57.90701" pt_clust_5="41.37525" pt_clust_6="169.64826"></scales>
<clustering>
<clus scale="   41.375">  3  5 -1 -1</clus>
<clus scale="   57.907">  1  4  2 -1</clus>
<clus scale="  169.648">  1  6  2 -1</clus>
<clus scale="  177.743">  2  3  1 -1</clus>
</clustering>
</event>
<event>
 6    0  0.3800129E+002  0.9391592E+02  0.7546771E-02  0.1293637E+00
          2   -1    0    0  502    0 -0.00000000000E+00  0.00000000000E+00  0.12990539436E+04  0.12990539436E+04  0.00000000000E+00 0. -1.
         21   -1    0    0  505  502  0.00000000000E+00 -0.00000000000E+00 -0.65566437216E+02  0.65566437216E+02  0.00000000000E+00 0.  1.
         21    1    1    2  503  501  0.49071471626E+02  0.44094351913E+02  0.17975010710E+03  0.19147433823E+03  0.00000000000E+00 0.  1.
         21    1    1    2  504  503  0.64801797175E+02  0.42883263159E+02  0.15005556618E+02  0.79141733022E+02  0.00000000000E+00 0.  1.
         21    1    1    2  505  504 -0.48380110153E+02 -0.16796605119E+01 -0.13005553831E+01  0.48426725702E+02  0.00000000000E+00 0. -1.
          2    1    1    2  501    0 -0.65493158648E+02 -0.85297954561E+02  0.10400323981E+04  0.10455775839E+04  0.00000000000E+00 0. -1.
<scales pt_clust_3="14000.00000" pt_clust_4="49.38947" pt_clust_5="48.40926" pt_clust_6="93.91592"></scales>
<clustering>
<clus scale="   48.409">  2  5  1 -1</clus>
<clus scale="   49.389">  2  4  1 -1</clus>
<clus scale="   93.916">  1  6  2 -1</clus>
<clus scale="   48.409">  2  3  1 -1</clus>
</clustering>
</event>
<event>
 6    0  0.3800129E+002  0.4278402E+03  0.7546771E-02  0.1034544E+00
         21   -1    0    0  503  502  0.00000000000E+00  0.00000000000E+00  0.26855085145E+04  0.26855085145E+04  0.00000000000E+00 0. -1.
          4   -1    0    0  505    0 -0.00000000000E+00 -0.00000000000E+00 -0.25075398755E+03  0.25075398755E+03  0.00000000000E+00 0. -1.
         21    1    1    2  503  501  0.21622234912E+03  0.32431886230E+03  0.21762067561E+04  0.22108393596E+04  0.00000000000E+00 0. -1.
         21    1    1    2  504  502  0.39900485532E+02  0.34079062841E+02  0.10901289091E+03  0.12098446865E+03  0.00000000000E+00 0.  1.
         21    1    1    2  505  504  0.73428895539E+02 -0.93154059572E+02 -0.59359115821E+02  0.13263855452E+03  0.00000000000E+00 0. -1.
          4    1    1    2  501    0 -0.32955173019E+03 -0.26524386557E+03  0.20889399578E+03  0.47180011930E+03  0.00000000000E+00 0. -1.
<scales pt_clust_3="14000.00000" pt_clust_4="52.47315" pt_clust_5="118.58779" pt_clust_6="427.84024"></scales>
<clustering>
<clus scale="   52.473">  1  4  2 -1</clus>
<clus scale="  118.588">  2  5  1 -1</clus>
<clus scale="  427.840">  2  6  1 -1</clus>
<clus scale="   52.473">  1  3  2 -1</clus>
</clustering>
</event>
<event>
 6    0  0.3800129E+002  0.9312618E+02  0.7546771E-02  0.1295453E+00
         21   -1    0    0  505  502  0.00000000000E+00  0.00000000000E+00  0.60211573080E+03  0.60211573080E+03  0.00000000000E+00 0. -1.
          2   -1    0    0  504    0 -0.00000000000E+00 -0.00000000000E+00 -0.10258642181E+04  0.10258642181E+04  0.00000000000E+00 0.  1.
         21    1    1    2  503  502 -0.49908213145E+02  0.58952468666E+02  0.14149050388E+03  0.16120107317E+03  0.00000000000E+00 0. -1.
         21    1    1    2  504  503  0.43087694933E+02  0.32851668135E+02 -0.45614727530E+02  0.70827148195E+02  0.00000000000E+00 0.  1.
         21    1    1    2  505  501 -0.42980292562E+02 -0.33097493216E+02  0.43492907493E+03  0.43829904155E+03  0.00000000000E+00 0. -1.
          2    1    1    2  501    0  0.49800810774E+02 -0.58706643584E+02 -0.95455333858E+03  0.95765268597E+03  0.00000000000E+00 0.  1.
<scales pt_clust_3="93.12618" pt_clust_4="54.18285" pt_clust_5="54.15277" pt_clust_6="14000.00000"></scales>
<clustering>
<clus scale="   54.183">  2  4  1 -1</clus>
<clus scale="   54.153">  1  5  2 -1</clus>
<clus scale="   93.126">  1  3  2 -1</clus>
<clus scale="   54.153">  1  3  2 -1</clus>
</clustering>
</event>
<event>
 6    0  0.3800129E+002  0.1467281E+03  0.7546771E-02  0.1204552E+00
          2   -1    0    0  503    0 -0.00000000000E+00  0.00000000000E+00  0.28010913307E+04  0.28010913307E+04  0.00000000000E+00 0.  1.
         21   -1    0    0  501  502  0.00000000000E+00 -0.00000000000E+00 -0.56227800424E+02  0.56227800424E+02  0.00000000000E+00 0. -1.
         21    1    1    2  503  504  0.24526771315E+02  0.21000444785E+02  0.12753420115E+04  0.12757506917E+04  0.00000000000E+00 0.  1.
         21    1    1    2  504  505 -0.33670961301E+02  0.89476722360E+02  0.11712458075E+02  0.96317179949E+02  0.00000000000E+00 0. -1.
         21    1    1    2  505  502  0.48119112706E+01  0.42795612832E+02  0.38751357554E+02  0.57933467702E+02  0.00000000000E+00 0.  1.
          2    1    1    2  501    0  0.43322787156E+01 -0.15327277998E+03  0.14190577032E+04  0.14273177917E+04  0.00000000000E+00 0.  1.
<scales pt_clust_3="32.28903" pt_clust_4="36.49476" pt_clust_5="36.49476" pt_clust_6="136.42316"></scales>
<clustering>
<clus scale="   32.289">  1  3  2 -1</clus>
<clus scale="   36.495">  4  5 -1 -1</clus>
<clus scale="  136.423">  1  6  2 -1</clus>
<clus scale="  146.728">  2  3  1 -1</clus>
</clustering>
</event>
<event>
 6    0  0.3800129E+002  0.8682059E+02  0.7546771E-02  0.1310739E+00
         21   -1    0    0  501  502  0.00000000000E+00  0.00000000000E+00  0.22643509229E+03  0.22643509229E+03  0.00000000000E+00 0. -1.
          2   -1    0    0  504    0 -0.00000000000E+00 -0.00000000000E+00 -0.23975374848E+03  0.23975374848E+03  0.00000000000E+00 0. -1.
         21    1    1    2  503  502 -0.48305406613E+02  0.10229167796E+02  0.15112688691E+03  0.15898862893E+03  0.00000000000E+00 0. -1.
         21    1    1    2  504  505 -0.45121900155E+01 -0.30888337468E+02 -0.26924289917E+02  0.41223374896E+02  0.00000000000E+00 0. -1.
         21    1    1    2  505  503 -0.46340530536E+02 -0.33438652967E+02  0.29527565496E+02  0.64323132749E+02  0.00000000000E+00 0. -1.
          2    1    1    2  501    0  0.99158127165E+02  0.54097822639E+02 -0.16704881868E+03  0.20165370420E+03  0.00000000000E+00 0. -1.
<scales pt_clust_3="49.34226" pt_clust_4="31.21617" pt_clust_5="14000.00000" pt_clust_6="86.82059"></scales>
<clustering>
<clus scale="   31.216">  2  4  1 -1</clus>
<clus scale="   49.342">  1  3  2 -1</clus>
<clus scale="   86.821">  2  6  1 -1</clus>
<clus scale="   49.342">  1  3  2 -1</clus>
</clustering>
</event>
<event>
 6    0  0.3800129E+002  0.1642430E+03  0.7546771E-02  0.1183988E+00
          2   -1    0    0  505    0 -0.00000000000E+00  0.00000000000E+00  0.33375567492E+04  0.33375567492E+04  0.00000000000E+00 0. -1.
         21   -1    0    0  504  502  0.00000000000E+00 -0.00000000000E+00 -0.15847443571E+03  0.15847443571E+03  0.00000000000E+00 0. -1.
         21    1    1    2  503  501 -0.12611332272E+02  0.11387129279E+03  0.26350796689E+03  0.28733632844E+03  0.00000000000E+00 0.  1.
         21    1    1    2  504  503  0.22305845149E+01  0.38419614071E+02  0.13412749231E+02  0.40754681873E+02  0.00000000000E+00 0.  1.
         21    1    1    2  505  502 -0.52704295266E+02  0.11537607235E+02 -0.12476303091E+03  0.13592892629E+03  0.00000000000E+00 0. -1.
          2    1    1    2  501    0  0.63085043023E+02 -0.16382851410E+03  0.30269246283E+04  0.30320112483E+04  0.00000000000E+00 0. -1.
<scales pt_clust_3="164.24295" pt_clust_4="38.48431" pt_clust_5="68.53688" pt_clust_6="14000.00000"></scales>
<clustering>
<clus scale="   38.484">  2  4  1 -1</clus>
<clus scale="   68.537">  2  5  1 -1</clus>
<clus scale="  164.243">  2  3  1 -1</clus>
<clus scale="   38.484">  2  3  1 -1</clus>
</clustering>
</event>
<event>
 6    0  0.3800129E+002  0.1121482E+03  0.7546771E-02  0.1256643E+00
          2   -1    0    0  503    0 -0.00000000000E+00  0.00000000000E+00  0.25631034618E+04  0.25631034618E+04  0.00000000000E+00 0.  1.
         21   -1    0    0  504  502  0.00000000000E+00 -0.00000000000E+00 -0.44331542450E+03  0.44331542450E+03  0.00000000000E+00 0.  1.
         21    1    1    2  503  505 -0.30682958574E+02 -0.27089254715E+02  0.11055265707E+04  0.11062839917E+04  0.00000000000E+00 0. -1.
         21    1    1    2  504  501  0.71891704426E+02 -0.70068091394E+02 -0.40710726546E+03  0.41930213473E+03  0.00000000000E+00 0.  1.
         21    1    1    2  505  502 -0.18743607452E+02 -0.28690604314E+02 -0.15978006992E+02  0.37812303602E+02  0.00000000000E+00 0. -1.
          2    1    1    2  501    0 -0.22465138400E+02  0.12584795042E+03  0.14373467390E+04  0.14430204563E+04  0.00000000000E+00 0.  1.
<scales pt_clust_3="40.96013" pt_clust_4="112.14820" pt_clust_5="34.27059" pt_clust_6="14000.00000"></scales>
<clustering>
<clus scale="   34.271">  2  5  1 -1</clus>
<clus scale="   40.960">  1  3  2 -1</clus>
<clus scale="  112.148">  2  4  1 -1</clus>
<clus scale="   34.271">  2  3  1 -1</clus>
</clustering>
</event>
<event>
 6    0  0.3800129E+002  0.1718163E+03  0.7546771E-02  0.1175967E+00
         21   -1    0    0  501  502  0.00000000000E+00  0.00000000000E+00  0.14975451481E+03  0.14975451481E+03  0.00000000000E+00 0. -1.
          1   -1    0    0  505    0 -0.00000000000E+00 -0.00000000000E+00 -0.92447177627E+03  0.92447177627E+03  0.00000000000E+00 0.  1.
         21    1    1    2  503  504  0.43938540242E+02 -0.13749565243E+03  0.82254850403E+02  0.16613702227E+03  0.00000000000E+00 0. -1.
         21    1    1    2  504  502  0.25122136628E+02 -0.33696687162E+02 -0.28757346076E+02  0.50927138422E+02  0.00000000000E+00 0. -1.
         21    1    1    2  505  503  0.31969050049E+02  0.69408212324E+02 -0.32886380752E+03  0.33762541965E+03  0.00000000000E+00 0.  1.
          1    1    1    2  501    0 -0.10102972692E+03  0.10178412727E+03 -0.49935095827E+03  0.51953671074E+03  0.00000000000E+00 0.  1.
<scales pt_clust_3="171.81629" pt_clust_4="42.03080" pt_clust_5="75.79085" pt_clust_6="14000.00000"></scales>
<clustering>
<clus scale="   42.031">  1  4  2 -1</clus>
<clus scale="   75.791">  2  5  1 -1</clus>
<clus scale="  171.816">  1  3  2 -1</clus>
<clus scale="   42.031">  1  3  2 -1</clus>
</clustering>
</event>
<event>
 6    0  0.3800129E+002  0.9193877E+02  0.7546771E-02  0.1298223E+00
         21   -1    0    0  504  502  0.00000000000E+00  0.00000000000E+00  0.35115497103E+02  0.35115497103E+02  0.00000000000E+00 0. -1.
          2   -1    0    0  505    0 -0.00000000000E+00 -0.00000000000E+00 -0.82635608380E+03  0.82635608380E+03  0.00000000000E+00 0. -1.
         21    1    1    2  503  502 -0.17659880408E+02  0.37835200764E+02 -0.90694776197E+02  0.99844460149E+02  0.00000000000E+00 0. -1.
         21    1    1    2  504  501  0.52026816923E+02  0.19344508732E+02 -0.10140236315E+03  0.11560034147E+03  0.00000000000E+00 0. -1.
         21    1    1    2  505  503  0.32119606583E+02  0.72218283209E+02 -0.33776669467E+03  0.34689117830E+03  0.00000000000E+00 0. -1.
          2    1    1    2  501    0 -0.66486543099E+02 -0.12939799270E+03 -0.26137675269E+03  0.29913560098E+03  0.00000000000E+00 0. -1.
<scales pt_clust_3="41.75373" pt_clust_4="55.57260" pt_clust_5="14000.00000" pt_clust_6="91.93877"></scales>
<clustering>
<clus scale="   41.754">  1  3  2 -1</clus>
<clus scale="   55.573">  1  4  2 -1</clus>
<clus scale="   91.939">  1  6  2 -1</clus>
<clus scale="   41.754">  1  3  2 -1</clus>
</clustering>
</event>
<event>
 6    0  0.3800129E+002  0.1702371E+03  0.7546771E-02  0.1177601E+00
          2   -1    0    0  505    0 -0.00000000000E+00  0.00000000000E+00  0.46084597982E+03  0.46084597982E+03  0.00000000000E+00 0. -1.
         21   -1    0    0  503  502  0.00000000000E+00 -0.00000000000E+00 -0.33043723836E+03  0.33043723836E+03  0.00000000000E+00 0. -1.
         21    1    1    2  503  504 -0.46368147467E+02 -0.39519616878E+02 -0.35895021471E+02  0.70712500904E+02  0.00000000000E+00 0. -1.
         21    1    1    2  504  501  0.65002713497E+01 -0.13232549146E+03 -0.96129666252E+01  0.13283334801E+03  0.00000000000E+00 0. -1.
         21    1    1    2  505  502  0.81454280579E+02 -0.60068667643E+01 -0.17444832882E+03  0.19262165429E+03  0.00000000000E+00 0. -1.
          2    1    1    2  501    0 -0.41586404462E+02  0.17785197510E+03  0.35036505838E+03  0.39511571497E+03  0.00000000000E+00 0. -1.
<scales pt_clust_3="60.92459" pt_clust_4="14000.00000" pt_clust_5="60.08910" pt_clust_6="170.23709"></scales>
<clustering>
<clus scale="   60.925">  2  3  1 -1</clus>
<clus scale="   60.089">  2  5  1 -1</clus>
<clus scale="  170.237">  1  6  2 -1</clus>
<clus scale="   60.925">  2  3  1 -1</clus>
</clustering>
</event>
<event>
 6    0  0.3800129E+002  0.1630407E+03  0.7546771E-02  0.1185306E+00
          2   -1    0    0  504    0 -0.00000000000E+00  0.00000000000E+00  0.17524050832E+04  0.17524050832E+04  0.00000000000E+00 0.  1.
         21   -1    0    0  503  502  0.00000000000E+00 -0.00000000000E+00 -0.68917406554E+02  0.68917406554E+02  0.00000000000E+00 0. -1.
         21    1    1    2  503  505 -0.27337992599E+02 -0.10984977327E+03  0.53982466081E+02  0.12541309808E+03  0.00000000000E+00 0. -1.
         21    1    1    2  504  502 -0.34834217681E+02 -0.63900318319E+01  0.37389434558E+03  0.37556788586E+03  0.00000000000E+00 0.  1.
         21    1    1    2  505  501 -0.12322269580E+01 -0.40677703156E+02 -0.11252489302E+02  0.42223363589E+02  0.00000000000E+00 0. -1.
          2    1    1    2  501    0  0.63404437237E+02  0.15691750826E+03  0.12668633543E+04  0.12781181423E+04  0.00000000000E+00 0.  1.
<scales pt_clust_3="31.73494" pt_clust_4="35.41547" pt_clust_5="31.73494" pt_clust_6="154.21067"></scales>
<clustering>
<clus scale="   31.735">  3  5 -1 -1</clus>
<clus scale="   35.415">  1  4  2 -1</clus>
<clus scale="  154.211">  1  6  2 -1</clus>
<clus scale="  163.041">  2  3  1 -1</clus>
</clustering>
</event>
<event>
 6    0  0.3800129E+002  0.8306292E+02  0.7546771E-02  0.1320577E+00
          2   -1    0    0  505    0 -0.00000000000E+00  0.00000000000E+00  0.14684558696E+04  0.14684558696E+04  0.00000000000E+00 0. -1.
         21   -1    0    0  501  502  0.00000000000E+00 -0.00000000000E+00 -0.38550449639E+02  0.38550449639E+02  0.00000000000E+00 0.  1.
         21    1    1    2  503  502 -0.56194969210E+02  0.59507514189E+02  0.27367186764E+02  0.86301690139E+02  0.00000000000E+00 0.  1.
         21    1    1    2  504  503 -0.59549645750E+02 -0.34126672664E+02  0.24228084459E+03  0.25181500701E+03  0.00000000000E+00 0.  1.
         21    1    1    2  505  504  0.20200773264E+02  0.25745114366E+02  0.22288584797E+03  0.22527535014E+03  0.00000000000E+00 0. -1.
          2    1    1    2  501    0  0.95543841696E+02 -0.51125955891E+02  0.93737154061E+03  0.94361427194E+03  0.00000000000E+00 0. -1.
<scales pt_clust_3="83.06292" pt_clust_4="62.66174" pt_clust_5="32.72434" pt_clust_6="14000.00000"></scales>
<clustering>
<clus scale="   32.724">  1  5  2 -1</clus>
<clus scale="   62.662">  1  4  2 -1</clus>
<clus scale="   83.063">  2  3  1 -1</clus>
<clus scale="   83.063">  2  3  1 -1</clus>
</clustering>
</event>
<event>
 6    0  0.3800129E+002  0.1476792E+03  0.7546771E-02  0.1203354E+00
         21   -1    0    0  504  502  0.00000000000E+00  0.00000000000E+00  0.14359624747E+03  0.14359624747E+03  0.00000000000E+00 0. -1.
          2   -1    0    0  505    0 -0.00000000000E+00 -0.00000000000E+00 -0.33210085110E+03  0.33210085110E+03  0.00000000000E+00 0.  1.
         21    1    1    2  503  502  0.15844079372E+03  0.42059685414E+01 -0.20556511295E+02  0.15982410783E+03  0.00000000000E+00 0. -1.
         21    1    1    2  504  501 -0.26950732827E+02 -0.33427326263E+02  0.20618249863E+02  0.47632345821E+02  0.00000000000E+00 0. -1.
         21    1    1    2  505  503  0.22144488343E+02  0.28916234194E+02 -0.45761827325E+02  0.58486509590E+02  0.00000000000E+00 0. -1.
          2    1    1    2  501    0 -0.15363454924E+03  0.30512352785E+00 -0.14280451487E+03  0.20975413533E+03  0.00000000000E+00 0.  1.
<scales pt_clust_3="147.67918" pt_clust_4="41.18213" pt_clust_5="36.42152" pt_clust_6="14000.00000"></scales>
<clustering>
<clus scale="   36.422">  2  5  1 -1</clus>
<clus scale="   41.182">  1  4  2 -1</clus>
<clus scale="  147.679">  1  3  2 -1</clus>
<clus scale="   41.182">  1  3  2 -1</clus>
</clustering>
</event>
<event>
 6    0  0.3800129E+002  0.7377925E+02  0.7546771E-02  0.1347694E+00
         -4   -1    0    0    0  501 -0.00000000000E+00  0.00000000000E+00  0.99816984659E+02  0.99816984659E+02  0.00000000000E+00 0. -1.
         21   -1    0    0  503  502  0.00000000000E+00 -0.00000000000E+00 -0.23565192878E+03  0.23565192878E+03  0.00000000000E+00 0. -1.
         21    1    1    2  503  505 -0.33597700517E+02 -0.12776649131E+02 -0.51605445399E+02  0.62890144203E+02  0.00000000000E+00 0. -1.
         21    1    1    2  504  502  0.47339024037E+02 -0.27758907780E+02 -0.96823334649E+02  0.11129374776E+03  0.00000000000E+00 0. -1.
         21    1    1    2  505  501 -0.34483021865E+02  0.95697599611E+02  0.47385577441E+01  0.10183105272E+03  0.00000000000E+00 0. -1.
         -4    1    1    2    0  504  0.20741698346E+02 -0.55162042700E+02  0.78552781873E+01  0.59453968753E+02  0.00000000000E+00 0. -1.
<scales pt_clust_3="35.94507" pt_clust_4="44.82707" pt_clust_5="73.77925" pt_clust_6="14000.00000"></scales>
<clustering>
<clus scale="   35.945">  2  3  1 -1</clus>
<clus scale="   44.827">  2  4  1 -1</clus>
<clus scale="   73.779">  2  5  1 -1</clus>
<clus scale="   35.945">  2  3  1 -1</clus>
</clustering>
</event>
<event>
 6    0  0.3800129E+002  0.2935279E+03  0.7546771E-02  0.1088521E+00
         21   -1    0    0  504  502  0.00000000000E+00  0.00000000000E+00  0.27146204126E+03  0.27146204126E+03  0.00000000000E+00 0.  1.
          2   -1    0    0  505    0 -0.00000000000E+00 -0.00000000000E+00 -0.19135083511E+04  0.19135083511E+04  0.00000000000E+00 0.  1.
         21    1    1    2  503  502 -0.14815145457E+03  0.36553123668E+03  0.63248980151E+01  0.39446412107E+03  0.00000000000E+00 0.  1.
         21    1    1    2  504  501 -0.20945865732E+02 -0.99666053644E+02 -0.15589693629E+02  0.10302955929E+03  0.00000000000E+00 0.  1.
         21    1    1    2  505  503  0.12812464508E+02 -0.12396166063E+03 -0.11947586454E+04  0.12012405560E+04  0.00000000000E+00 0.  1.
          2    1    1    2  501    0  0.15628485579E+03 -0.14190352240E+03 -0.43802286884E+03  0.48623615604E+03  0.00000000000E+00 0.  1.
<scales pt_clust_3="293.52793" pt_clust_4="101.84327" pt_clust_5="126.00298" pt_clust_6="14000.00000"></scales>
<clustering>
<clus scale="  101.843">  1  4  2 -1</clus>
<clus scale="  126.003">  2  5  1 -1</clus>
<clus scale="  293.528">  1  3  2 -1</clus>
<clus scale="  101.843">  1  3  2 -1</clus>
</clustering>
</event>
<event>
 6    0  0.3800129E+002  0.1996650E+03  0.7546771E-02  0.1150022E+00
          3   -1    0    0  504    0 -0.00000000000E+00  0.00000000000E+00  0.15878654928E+03  0.15878654928E+03  0.00000000000E+00 0. -1.
         21   -1    0    0  503  502  0.00000000000E+00 -0.00000000000E+00 -0.89442489941E+03  0.89442489941E+03  0.00000000000E+00 0. -1.
         21    1    1    2  503  501 -0.72435182564E+02  0.12716500073E+02 -0.47713900435E+03  0.48277344016E+03  0.00000000000E+00 0. -1.
         21    1    1    2  504  505 -0.38828974901E+02  0.15562707122E+03 -0.10388815174E+03  0.19110264954E+03  0.00000000000E+00 0. -1.
         21    1    1    2  505  502  0.23029495369E+02  0.49283306292E+02 -0.13277756432E+03  0.14348896655E+03  0.00000000000E+00 0. -1.
          3    1    1    2  501    0  0.88234662096E+02 -0.21762687759E+03 -0.21833629715E+02  0.23584639245E+03  0.00000000000E+00 0. -1.
<scales pt_clust_3="72.65348" pt_clust_4="199.66504" pt_clust_5="54.39855" pt_clust_6="14000.00000"></scales>
<clustering>
<clus scale="   54.399">  2  5  1 -1</clus>
<clus scale="   72.653">  2  3  1 -1</clus>
<clus scale="  199.665">  2  4  1 -1</clus>
<clus scale="   54.399">  2  3  1 -1</clus>
</clustering>
</event>
<event>
 6    0  0.3800129E+002  0.1444610E+03  0.7546771E-02  0.1207449E+00
          3   -1    0    0  504    0 -0.00000000000E+00  0.00000000000E+00  0.29885648025E+04  0.29885648025E+04  0.00000000000E+00 0.  1.
         21   -1    0    0  501  502  0.00000000000E+00 -0.00000000000E+00 -0.38149736662E+03  0.38149736662E+03  0.00000000000E+00 0. -1.
         21    1    1    2  503  505 -0.17659948369E+02  0.52641058016E+02 -0.16040781583E+03  0.16974575737E+03  0.00000000000E+00 0. -1.
         21    1    1    2  504  503  0.14256253749E+02 -0.32682574755E+02  0.11866999531E+03  0.12391109414E+03  0.00000000000E+00 0. -1.
         21    1    1    2  505  502 -0.73398239846E+02  0.49155164875E+02 -0.20369984061E+03  0.22202963070E+03  0.00000000000E+00 0. -1.
          3    1    1    2  501    0  0.76801934466E+02 -0.69113648136E+02  0.28525050970E+04  0.28543756869E+04  0.00000000000E+00 0.  1.
<scales pt_clust_3="37.68646" pt_clust_4="35.65658" pt_clust_5="37.68646" pt_clust_6="136.41651"></scales>
<clustering>
<clus scale="   35.657">  1  4  2 -1</clus>
<clus scale="   37.686">  3  5 -1 -1</clus>
<clus scale="  136.417">  1  6  2 -1</clus>
<clus scale="  144.461">  2  3  1 -1</clus>
</clustering>
</event>
<event>
 6    0  0.3800129E+002  0.1250158E+03  0.7546771E-02  0.1235045E+00
         21   -1    0    0  503  502  0.00000000000E+00  0.00000000000E+00  0.50891983077E+03  0.50891983077E+03  0.00000000000E+00 0. -1.
          1   -1    0    0  504    0 -0.00000000000E+00 -0.00000000000E+00 -0.19809900713E+04  0.19809900713E+04  0.00000000000E+00 0. -1.
         21    1    1    2  503  501  0.73465646155E+02 -0.44847990695E+02  0.11058594428E+03  0.14013491537E+03  0.00000000000E+00 0. -1.
         21    1    1    2  504  505 -0.45523177283E+02 -0.70394665273E+02 -0.58407915470E+02  0.10217266346E+03  0.00000000000E+00 0. -1.
         21    1    1    2  505  502 -0.50179277482E+02 -0.12710003802E+02  0.35757532425E+03  0.36130266619E+03  0.00000000000E+00 0. -1.
          1    1    1    2  501    0  0.22236808610E+02  0.12795265977E+03 -0.18818235936E+04  0.18862996571E+04  0.00000000000E+00 0. -1.
<scales pt_clust_3="63.76482" pt_clust_4="14000.00000" pt_clust_5="51.76393" pt_clust_6="125.01584"></scales>
<clustering>
<clus scale="   51.764">  1  5  2 -1</clus>
<clus scale="   63.765">  1  3  2 -1</clus>
<clus scale="  125.016">  2  6  1 -1</clus>
<clus scale="   51.764">  1  3  2 -1</clus>
</clustering>
</event>
<event>
 6    0  0.3800129E+002  0.9260412E+02  0.7546771E-02  0.1296665E+00
         21   -1    0    0  505  502  0.00000000000E+00  0.00000000000E+00  0.67251128070E+03  0.67251128070E+03  0.00000000000E+00 0. -1.
          3   -1    0    0  503    0 -0.00000000000E+00 -0.00000000000E+00 -0.71884988178E+02  0.71884988178E+02  0.00000000000E+00 0.  1.
         21    1    1    2  503  504 -0.22913379807E+02 -0.79586794296E+02  0.14743441045E+02  0.84121637254E+02  0.00000000000E+00 0.  1.
         21    1    1    2  504  502 -0.35156057445E+02 -0.62434368608E+02  0.32545281139E+03  0.33324695228E+03  0.00000000000E+00 0. -1.
         21    1    1    2  505  501  0.62505970557E+02  0.11946330267E+02  0.11815885247E+03  0.13420590739E+03  0.00000000000E+00 0. -1.
          3    1    1    2  501    0 -0.44365333049E+01  0.13007483264E+03  0.14227118761E+03  0.19282177194E+03  0.00000000000E+00 0.  1.
<scales pt_clust_3="92.60412" pt_clust_4="55.29031" pt_clust_5="63.63734" pt_clust_6="14000.00000"></scales>
<clustering>
<clus scale="   63.637">  1  5  2 -1</clus>
<clus scale="   55.290">  1  4  2 -1</clus>
<clus scale="   92.604">  2  3  1 -1</clus>
<clus scale="   63.637">  1  3  2 -1</clus>
</clustering>
</event>
<event>
 6    0  0.3800129E+002  0.8967623E+02  0.7546771E-02  0.1303638E+00
          2   -1    0    0  503    0 -0.00000000000E+00  0.00000000000E+00  0.35279903637E+03  0.35279903637E+03  0.00000000000E+00 0. -1.
         21   -1    0    0  504  502  0.00000000000E+00 -0.00000000000E+00 -0.64702187603E+03  0.64702187603E+03  0.00000000000E+00 0. -1.
         21    1    1    2  503  505 -0.18219902376E+02  0.31857950379E+02  0.27161854188E+02  0.45658078890E+02  0.00000000000E+00 0. -1.
         21    1    1    2  504  501 -0.36696239909E+02  0.57106529113E+02 -0.13950415920E+03  0.15514245107E+03  0.00000000000E+00 0.  1.
         21    1    1    2  505  502  0.90960192301E+02 -0.61511885858E+02 -0.48258590651E+03  0.49492082785E+03  0.00000000000E+00 0. -1.
          2    1    1    2  501    0 -0.36044050016E+02 -0.27452593634E+02  0.30070537185E+03  0.30409955459E+03  0.00000000000E+00 0. -1.
<scales pt_clust_3="36.70005" pt_clust_4="14000.00000" pt_clust_5="89.67623" pt_clust_6="53.54245"></scales>
<clustering>
<clus scale="   36.700">  1  3  2 -1</clus>
<clus scale="   53.542">  1  6  2 -1</clus>
<clus scale="   89.676">  2  5  1 -1</clus>
<clus scale="   89.676">  2  3  1 -1</clus>
</clustering>
</event>
<event>
 6    0  0.3800129E+002  0.8123547E+02  0.7546771E-02  0.1325581E+00
         21   -1    0    0  503  502  0.00000000000E+00  0.00000000000E+00  0.93186660686E+03  0.93186660686E+03  0.00000000000E+00 0.  1.
          1   -1    0    0  505    0 -0.00000000000E+00 -0.00000000000E+00 -0.11951115019E+03  0.11951115019E+03  0.00000000000E+00 0.  1.
         21    1    1    2  503  501  0.37767865042E+02 -0.14907604769E+02  0.38457136641E+03  0.38670891401E+03  0.00000000000E+00 0.  1.
         21    1    1    2  504  502 -0.41733574225E+02 -0.65569130302E+02  0.45799897798E+03  0.46454716219E+03  0.00000000000E+00 0.  1.
         21    1    1    2  505  504 -0.39659452283E+02 -0.13309798105E+02 -0.76197000659E+02  0.86925288555E+02  0.00000000000E+00 0.  1.
          1    1    1    2  501    0  0.43625161467E+02  0.93786533176E+02  0.45982112937E+02  0.11319639229E+03  0.00000000000E+00 0.  1.
<scales pt_clust_3="40.60355" pt_clust_4="81.23547" pt_clust_5="41.52903" pt_clust_6="14000.00000"></scales>
<clustering>
<clus scale="   40.604">  1  3  2 -1</clus>
<clus scale="   41.529">  2  5  1 -1</clus>
<clus scale="   81.235">  1  4  2 -1</clus>
<clus scale="   40.604">  1  3  2 -1</clus>
</clustering>
</event>
<event>
 6    0  0.3800129E+002  0.1267626E+03  0.7546771E-02  0.1232340E+00
         21   -1    0    0  501  502  0.00000000000E+00  0.00000000000E+00  0.28830191290E+03  0.28830191290E+03  0.00000000000E+00 0. -1.
          1   -1    0    0  504    0 -0.00000000000E+00 -0.00000000000E+00 -0.10015007022E+04  0.10015007022E+04  0.00000000000E+00 0. -1.
         21    1    1    2  503  502 -0.81046837546E+01 -0.75613342488E+02  0.17239014442E+03  0.18841821927E+03  0.00000000000E+00 0. -1.
         21    1    1    2  504  505  0.37315404177E+02 -0.15702822640E+02 -0.10476391051E+03  0.11231426879E+03  0.00000000000E+00 0.  1.
         21    1    1    2  505  503  0.12170254716E+03  0.19614665350E+02  0.56237864975E+02  0.13549517534E+03  0.00000000000E+00 0. -1.
          1    1    1    2  501    0 -0.15091326758E+03  0.71701499779E+02 -0.83706288813E+03  0.85357495165E+03  0.00000000000E+00 0. -1.
<scales pt_clust_3="76.15168" pt_clust_4="40.48479" pt_clust_5="126.76263" pt_clust_6="14000.00000"></scales>
<clustering>
<clus scale="   40.485">  2  4  1 -1</clus>
<clus scale="   76.152">  1  3  2 -1</clus>
<clus scale="  126.763">  1  5  2 -1</clus>
<clus scale="   76.152">  1  3  2 -1</clus>
</clustering>
</event>
<event>
 6    0  0.3800129E+002  0.1065708E+03  0.7546771E-02  0.1267055E+00
          2   -1    0    0  504    0 -0.00000000000E+00  0.00000000000E+00  0.12542131196E+04  0.12542131196E+04  0.00000000000E+00 0. -1.
         21   -1    0    0  505  502  0.00000000000E+00 -0.00000000000E+00 -0.45029120523E+02  0.45029120523E+02  0.00000000000E+00 0. -1.
         21    1    1    2  503  502 -0.44745122639E+02 -0.59514681687E+02  0.60127534235E+02  0.95704982678E+02  0.00000000000E+00 0. -1.
         21    1    1    2  504  503 -0.95567959519E+02  0.78564011228E+02  0.43916825872E+03  0.45626121709E+03  0.00000000000E+00 0. -1.
         21    1    1    2  505  501  0.36355503837E+02 -0.67681255150E+01  0.82724069266E+01  0.37894101106E+02  0.00000000000E+00 0. -1.
          2    1    1    2  501    0  0.10395757832E+03 -0.12281204027E+02  0.70161579919E+03  0.70938193925E+03  0.00000000000E+00 0. -1.
<scales pt_clust_3="67.65377" pt_clust_4="106.57083" pt_clust_5="36.98013" pt_clust_6="14000.00000"></scales>
<clustering>
<clus scale="   36.980">  2  5  1 -1</clus>
<clus scale="   67.654">  2  3  1 -1</clus>
<clus scale="  106.571">  2  4  1 -1</clus>
<clus scale="   36.980">  2  3  1 -1</clus>
</clustering>
</event>
<event>
 6    0  0.3800129E+002  0.1120399E+03  0.7546771E-02  0.1256838E+00
         21   -1    0    0  503  502  0.00000000000E+00  0.00000000000E+00  0.46504265473E+02  0.46504265473E+02  0.00000000000E+00 0. -1.
         -3   -1    0    0    0  501 -0.00000000000E+00 -0.00000000000E+00 -0.11189374344E+04  0.11189374344E+04  0.00000000000E+00 0. -1.
         21    1    1    2  503  504 -0.85472824211E+02 -0.83806005655E+02 -0.12150254862E+03  0.17056353533E+03  0.00000000000E+00 0. -1.
         21    1    1    2  504  501 -0.29754023453E+02 -0.29810243327E+02 -0.21583821779E+03  0.21990927397E+03  0.00000000000E+00 0. -1.
         21    1    1    2  505  502  0.67934915863E+02  0.79434818444E+02 -0.12879957875E+03  0.16587457509E+03  0.00000000000E+00 0. -1.
         -3    1    1    2    0  505  0.47291931800E+02  0.34181430539E+02 -0.60629282374E+03  0.60909431546E+03  0.00000000000E+00 0. -1.
<scales pt_clust_3="112.03991" pt_clust_4="42.11832" pt_clust_5="14000.00000" pt_clust_6="30.64921"></scales>
<clustering>
<clus scale="   42.118">  2  4  1 -1</clus>
<clus scale="   30.649">  2  6  1 -1</clus>
<clus scale="  112.040">  1  3  2 -1</clus>
<clus scale="  112.040">  1  3  2 -1</clus>
</clustering>
</event>
<event>
 6    0  0.3800129E+002  0.1140236E+03  0.7546771E-02  0.1253295E+00
         21   -1    0    0  503  502  0.00000000000E+00  0.00000000000E+00  0.47181332817E+03  0.47181332817E+03  0.00000000000E+00 0. -1.
          1   -1    0    0  505    0 -0.00000000000E+00 -0.00000000000E+00 -0.28323057604E+03  0.28323057604E+03  0.00000000000E+00 0.  1.
         21    1    1    2  503  501  0.11218679511E+03  0.62880394416E+02  0.35505966146E+03  0.37763366402E+03  0.00000000000E+00 0. -1.
         21    1    1    2  504  502  0.50918803697E+02  0.62627152299E+01  0.16429769191E+02  0.53869132977E+02  0.00000000000E+00 0. -1.
         21    1    1    2  505  504 -0.63924194645E+02 -0.14006801257E+02  0.37654283024E+02  0.75500583921E+02  0.00000000000E+00 0.  1.
          1    1    1    2  501    0 -0.99181404167E+02 -0.55136308389E+02 -0.22056096155E+03  0.24804052330E+03  0.00000000000E+00 0.  1.
<scales pt_clust_3="114.02364" pt_clust_4="51.30250" pt_clust_5="58.82581" pt_clust_6="14000.00000"></scales>
<clustering>
<clus scale="   51.302">  1  4  2 -1</clus>
<clus scale="   58.826">  1  5  2 -1</clus>
<clus scale="  114.024">  1  3  2 -1</clus>
<clus scale="   51.302">  1  3  2 -1</clus>
</clustering>
</event>
<event>
 6    0  0.3800129E+002  0.9832403E+02  0.7546771E-02  0.1283860E+00
          1   -1    0    0  503    0 -0.00000000000E+00  0.00000000000E+00  0.10765328619E+04  0.10765328619E+04  0.00000000000E+00 0.  1.
         21   -1    0    0  504  502  0.00000000000E+00 -0.00000000000E+00 -0.36870171671E+03  0.36870171671E+03  0.00000000000E+00 0. -1.
         21    1    1    2  503  502  0.59962424465E+02 -0.40428552467E+02  0.28345096848E+03  0.29253104405E+03  0.00000000000E+00 0.  1.
         21    1    1    2  504  505  0.31485234188E+02  0.30969540132E+02 -0.16115578344E+03  0.16709763291E+03  0.00000000000E+00 0. -1.
         21    1    1    2  505  501  0.67188945042E+02 -0.20533749987E+02 -0.18523337615E+03  0.19810954763E+03  0.00000000000E+00 0. -1.
          1    1    1    2  501    0 -0.15863660369E+03  0.29992762322E+02  0.77076933626E+03  0.78749635399E+03  0.00000000000E+00 0.  1.
<scales pt_clust_3="72.51996" pt_clust_4="44.16370" pt_clust_5="14000.00000" pt_clust_6="98.32403"></scales>
<clustering>
<clus scale="   44.164">  2  4  1 -1</clus>
<clus scale="   72.520">  1  3  2 -1</clus>
<clus scale="   98.324">  1  6  2 -1</clus>
<clus scale="   44.164">  2  3  1 -1</clus>
</clustering>
</event>
<event>
 6    0  0.3800129E+002  0.9389450E+02  0.7546771E-02  0.1293686E+00
         21   -1    0    0  504  502  0.00000000000E+00  0.00000000000E+00  0.61981249780E+03  0.61981249780E+03  0.00000000000E+00 0. -1.
          1   -1    0    0  503    0 -0.00000000000E+00 -0.00000000000E+00 -0.40092516087E+03  0.40092516087E+03  0.00000000000E+00 0. -1.
         21    1    1    2  503  505  0.31878571890E+02 -0.18088348889E+02 -0.68528569317E+02  0.77714841078E+02  0.00000000000E+00 0.  1.
         21    1    1    2  504  501 -0.62859378527E+02 -0.71969903614E+02  0.55767967679E+03  0.56580702576E+03  0.00000000000E+00 0. -1.
         21    1    1    2  505  502  0.28768034561E+02 -0.15436574648E+02  0.38757678545E+02  0.50675884754E+02  0.00000000000E+00 0. -1.
          1    1    1    2  501    0  0.22127720763E+01  0.10549482715E+03 -0.30902144909E+03  0.32653990708E+03  0.00000000000E+00 0. -1.
<scales pt_clust_3="36.91353" pt_clust_4="93.89450" pt_clust_5="32.64793" pt_clust_6="14000.00000"></scales>
<clustering>
<clus scale="   32.648">  1  5  2 -1</clus>
<clus scale="   36.914">  2  3  1 -1</clus>
<clus scale="   93.894">  1  4  2 -1</clus>
<clus scale="   32.648">  1  3  2 -1</clus>
</clustering>
</event>
<event>
 6    0  0.3800129E+002  0.1341630E+03  0.7546771E-02  0.1221406E+00
         21   -1    0    0  501  502  0.00000000000E+00  0.00000000000E+00  0.11915103010E+03  0.11915103010E+03  0.00000000000E+00 0.  1.
          4   -1    0    0  504    0 -0.00000000000E+00 -0.00000000000E+00 -0.21013701473E+04  0.21013701473E+04  0.00000000000E+00 0. -1.
         21    1    1    2  503  502  0.17767791105E+02  0.59780275597E+02 -0.28853782765E+02  0.68716202827E+02  0.00000000000E+00 0. -1.
         21    1    1    2  504  505 -0.26818859290E+02 -0.52139354348E+02 -0.18022292584E+03  0.18952062285E+03  0.00000000000E+00 0.  1.
         21    1    1    2  505  503  0.98469512526E+02  0.17459048841E+02  0.66630052808E+02  0.12016916086E+03  0.00000000000E+00 0.  1.
          4    1    1    2  501    0 -0.89418444341E+02 -0.25099970090E+02 -0.18397724614E+04  0.18421151909E+04  0.00000000000E+00 0. -1.
<scales pt_clust_3="60.89877" pt_clust_4="58.63244" pt_clust_5="14000.00000" pt_clust_6="134.16301"></scales>
<clustering>
<clus scale="   58.632">  2  4  1 -1</clus>
<clus scale="   60.899">  1  3  2 -1</clus>
<clus scale="  134.163">  2  6  1 -1</clus>
<clus scale="   60.899">  1  3  2 -1</clus>
</clustering>
</event>
<event>
 6    0  0.3800129E+002  0.1819094E+03  0.7546771E-02  0.1165968E+00
         21   -1    0    0  504  502  0.00000000000E+00  0.00000000000E+00  0.54158867232E+03  0.54158867232E+03  0.00000000000E+00 0. -1.
          2   -1    0    0  505    0 -0.00000000000E+00 -0.00000000000E+00 -0.21492918704E+04  0.21492918704E+04  0.00000000000E+00 0.  1.
         21    1    1    2  503  502  0.35435852896E+02  0.13049391825E+03  0.42609364147E+02  0.14177418765E+03  0.00000000000E+00 0.  1.
         21    1    1    2  504  501  0.11209071656E+03 -0.17470062861E+02  0.43323260717E+03  0.44783928339E+03  0.00000000000E+00 0. -1.
         21    1    1    2  505  503  0.97978902189E+01  0.44270201050E+02 -0.52019175484E+03  0.52216406536E+03  0.00000000000E+00 0. -1.
          2    1    1    2  501    0 -0.15732445967E+03 -0.15729405643E+03 -0.15633534146E+04  0.15791030063E+04  0.00000000000E+00 0.  1.
<scales pt_clust_3="181.90942" pt_clust_4="113.45699" pt_clust_5="45.34147" pt_clust_6="14000.00000"></scales>
<clustering>
<clus scale="   45.341">  2  5  1 -1</clus>
<clus scale="  113.457">  1  4  2 -1</clus>
<clus scale="  181.909">  1  3  2 -1</clus>
<clus scale="  113.457">  1  3  2 -1</clus>
</clustering>
</event>
<event>
 6    0  0.3800129E+002  0.1158758E+03  0.7546771E-02  0.1250060E+00
          2   -1    0    0  504    0 -0.00000000000E+00  0.00000000000E+00  0.11068065034E+04  0.11068065034E+04  0.00000000000E+00 0.  1.
         21   -1    0    0  503  502  0.00000000000E+00 -0.00000000000E+00 -0.78952811179E+02  0.78952811179E+02  0.00000000000E+00 0.  1.
         21    1    1    2  503  501 -0.52136999357E+02  0.93526251560E+01  0.64867155631E+02  0.83746559207E+02  0.00000000000E+00 0. -1.
         21    1    1    2  504  505  0.31272223916E+02 -0.25074482539E+01  0.35341927957E+03  0.35480899996E+03  0.00000000000E+00 0. -1.
         21    1    1    2  505  502 -0.30457771989E+02 -0.97793892262E+02 -0.23906352766E+02  0.10518001208E+03  0.00000000000E+00 0.  1.
          2    1    1    2  501    0  0.51322547431E+02  0.90948715360E+02  0.63347360976E+03  0.64202374330E+03  0.00000000000E+00 0.  1.
<scales pt_clust_3="49.88769" pt_clust_4="31.37259" pt_clust_5="14000.00000" pt_clust_6="115.87577"></scales>
<clustering>
<clus scale="   31.373">  1  4  2 -1</clus>
<clus scale="   49.888">  2  3  1 -1</clus>
<clus scale="  115.876">  1  6  2 -1</clus>
<clus scale="   49.888">  2  3  1 -1</clus>
</clustering>
</event>
<event>
 6    0  0.3800129E+002  0.6742028E+02  0.7546771E-02  0.1369092E+00
         21   -1    0    0  505  502  0.00000000000E+00  0.00000000000E+00  0.12279645662E+03  0.12279645662E+03  0.00000000000E+00 0.  1.
          2   -1    0    0  503    0 -0.00000000000E+00 -0.00000000000E+00 -0.13395022001E+04  0.13395022001E+04  0.00000000000E+00 0. -1.
         21    1    1    2  503  504 -0.12648247703E+01  0.55061056633E+02 -0.16166231413E+03  0.17078648527E+03  0.00000000000E+00 0.  1.
         21    1    1    2  504  502  0.14000819262E+02  0.10446249637E+03  0.11787313515E+02  0.10605365079E+03  0.00000000000E+00 0.  1.
         21    1    1    2  505  501  0.28708733146E+02 -0.58428076060E+02  0.37905959596E+02  0.75331887032E+02  0.00000000000E+00 0.  1.
          2    1    1    2  501    0 -0.41444727638E+02 -0.10109547694E+03 -0.11047367025E+04  0.11101266337E+04  0.00000000000E+00 0. -1.
<scales pt_clust_3="55.07558" pt_clust_4="67.42028" pt_clust_5="64.30415" pt_clust_6="14000.00000"></scales>
<clustering>
<clus scale="   55.076">  2  3  1 -1</clus>
<clus scale="   64.304">  1  5  2 -1</clus>
<clus scale="   67.420">  1  4  2 -1</clus>
<clus scale="   64.304">  1  3  2 -1</clus>
</clustering>
</event>
<event>
 6    0  0.3800129E+002  0.3137513E+03  0.7546771E-02  0.1078562E+00
         -3   -1    0    0    0  501 -0.00000000000E+00  0.00000000000E+00  0.32777607666E+03  0.32777607666E+03  0.00000000000E+00 0. -1.
         21   -1    0    0  504  502  0.00000000000E+00 -0.00000000000E+00 -0.96693738478E+03  0.96693738478E+03  0.00000000000E+00 0. -1.
         21    1    1    2  503  501 -0.39470602705E+02 -0.18345746162E+02  0.29034095683E+02  0.52320871478E+02  0.00000000000E+00 0. -1.
         21    1    1    2  504  505 -0.17408552843E+03 -0.29408783576E+03 -0.49433187107E+03  0.60096374691E+03  0.00000000000E+00 0. -1.
         21    1    1    2  505  503  0.31215336374E+03  0.91949782727E+02 -0.22360608774E+03  0.39483435453E+03  0.00000000000E+00 0. -1.
         -3    1    1    2    0  502 -0.98597232612E+02  0.22048379920E+03  0.49742555006E+02  0.24659448851E+03  0.00000000000E+00 0. -1.
<scales pt_clust_3="43.52580" pt_clust_4="313.75126" pt_clust_5="14000.00000" pt_clust_6="242.24148"></scales>
<clustering>
<clus scale="   43.526">  1  3  2 -1</clus>
<clus scale="  242.241">  1  6  2 -1</clus>
<clus scale="  313.751">  2  4  1 -1</clus>
<clus scale="  313.751">  2  3  1 -1</clus>
</clustering>
</event>
<event>
 6    0  0.3800129E+002  0.7318799E+02  0.7546771E-02  0.1349576E+00
          2   -1    0    0  504    0 -0.00000000000E+00  0.00000000000E+00  0.40824939346E+03  0.40824939346E+03  0.00000000000E+00 0.  1.
         21   -1    0    0  505  502  0.00000000000E+00 -0.00000000000E+00 -0.13055117010E+04  0.13055117010E+04  0.00000000000E+00 0.  1.
         21    1    1    2  503  502  0.82739216537E+02 -0.73338845040E+02 -0.11657938480E+04  0.11710250468E+04  0.00000000000E+00 0.  1.
         21    1    1    2  504  503 -0.29503726350E+02 -0.15343888136E+02  0.16243896997E+03  0.16580809309E+03  0.00000000000E+00 0.  1.
         21    1    1    2  505  501 -0.12934380188E+02  0.49714975555E+02 -0.12710161413E+03  0.13709010650E+03  0.00000000000E+00 0.  1.
          2    1    1    2  501    0 -0.40301109999E+02  0.38967757621E+02  0.23319418466E+03  0.23983784805E+03  0.00000000000E+00 0.  1.
<scales pt_clust_3="73.18799" pt_clust_4="33.25515" pt_clust_5="51.22248" pt_clust_6="14000.00000"></scales>
<clustering>
<clus scale="   33.255">  1  4  2 -1</clus>
<clus scale="   51.222">  2  5  1 -1</clus>
<clus scale="   73.188">  2  3  1 -1</clus>
<clus scale="   51.222">  2  3  1 -1</clus>
</clustering>
</event>
<event>
 6    0  0.3800129E+002  0.7196691E+02  0.7546771E-02  0.1353529E+00
          1   -1    0    0  502    0 -0.00000000000E+00  0.00000000000E+00  0.33658368707E+03  0.33658368707E+03  0.00000000000E+00 0. -1.
         21   -1    0    0  504  502  0.00000000000E+00 -0.00000000000E+00 -0.11243087608E+04  0.11243087608E+04  0.00000000000E+00 0. -1.
         21    1    1    2  503  505 -0.82886561773E+02  0.57852372214E+02 -0.44512804587E+03  0.45646035569E+03  0.00000000000E+00 0. -1.
         21    1    1    2  504  503  0.11867378382E+02 -0.44514723283E+02 -0.66365980542E+03  0.66525689217E+03  0.00000000000E+00 0. -1.
         21    1    1    2  505  501  0.35136594808E+02 -0.47822202762E+02  0.18586975587E+03  0.19511306855E+03  0.00000000000E+00 0. -1.
          1    1    1    2  501    0  0.35882588583E+02  0.34484553831E+02  0.13519302167E+03  0.14406213147E+03  0.00000000000E+00 0. -1.
<scales pt_clust_3="71.96691" pt_clust_4="46.06946" pt_clust_5="14000.00000" pt_clust_6="49.55349"></scales>
<clustering>
<clus scale="   46.069">  2  4  1 -1</clus>
<clus scale="   49.553">  1  6  2 -1</clus>
<clus scale="   71.967">  2  3  1 -1</clus>
<clus scale="   46.069">  2  3  1 -1</clus>
</clustering>
</event>
<event>
 6    0  0.3800129E+002  0.7269971E+02  0.7546771E-02  0.1351146E+00
          1   -1    0    0  503    0 -0.00000000000E+00  0.00000000000E+00  0.75917850518E+03  0.75917850518E+03  0.00000000000E+00 0.  1.
         21   -1    0    0  504  502  0.00000000000E+00 -0.00000000000E+00 -0.10367844590E+03  0.10367844590E+03  0.00000000000E+00 0.  1.
         21    1    1    2  503  505 -0.71389124540E+01 -0.32689620793E+02  0.20600946025E+03  0.20870906328E+03  0.00000000000E+00 0. -1.
         21    1    1    2  504  501  0.52667988944E+02 -0.36006634347E+02 -0.38217103504E+02  0.74370301711E+02  0.00000000000E+00 0.  1.
         21    1    1    2  505  502 -0.77933535626E+02 -0.29646090464E+02  0.22625151386E+01  0.83412502838E+02  0.00000000000E+00 0.  1.
          1    1    1    2  501    0  0.32404459136E+02  0.98342345604E+02  0.48544518740E+03  0.49636508326E+03  0.00000000000E+00 0.  1.
<scales pt_clust_3="33.46006" pt_clust_4="64.21899" pt_clust_5="14000.00000" pt_clust_6="72.69971"></scales>
<clustering>
<clus scale="   33.460">  1  3  2 -1</clus>
<clus scale="   64.219">  2  4  1 -1</clus>
<clus scale="   72.700">  1  6  2 -1</clus>
<clus scale="   64.219">  2  3  1 -1</clus>
</clustering>
</event>
<event>
 6    0  0.3800129E+002  0.1361573E+03  0.7546771E-02  0.1218595E+00
          2   -1    0    0  503    0 -0.00000000000E+00  0.00000000000E+00  0.13822452025E+04  0.13822452025E+04  0.00000000000E+00 0.  1.
         21   -1    0    0  504  502  0.00000000000E+00 -0.00000000000E+00 -0.96202302034E+02  0.96202302034E+02  0.00000000000E+00 0. -1.
         21    1    1    2  503  502 -0.14422881885E+02 -0.28045903126E+02  0.10955592509E+04  0.10960130768E+04  0.00000000000E+00 0.  1.
         21    1    1    2  504  505  0.10732557443E+02  0.43506735069E+02  0.24153078323E+00  0.44811629324E+02  0.00000000000E+00 0. -1.
         21    1    1    2  505  501  0.87570823580E+02  0.38039806971E+02 -0.26543949079E+02  0.99097211311E+02  0.00000000000E+00 0. -1.
          2    1    1    2  501    0 -0.83880499138E+02 -0.53500638914E+02  0.21678606787E+03  0.23852558715E+03  0.00000000000E+00 0.  1.
<scales pt_clust_3="31.53716" pt_clust_4="41.22649" pt_clust_5="41.22649" pt_clust_6="121.79599"></scales>
<clustering>
<clus scale="   31.537">  1  3  2 -1</clus>
<clus scale="   41.226">  4  5 -1 -1</clus>
<clus scale="  121.796">  1  6  2 -1</clus>
<clus scale="  136.157">  2  3  1 -1</clus>
</clustering>
</event>
<event>
 6    0  0.3800129E+002  0.1466625E+03  0.7546771E-02  0.1204635E+00
         21   -1    0    0  501  502  0.00000000000E+00  0.00000000000E+00  0.56320702108E+03  0.56320702108E+03  0.00000000000E+00 0.  1.
          2   -1    0    0  503    0 -0.00000000000E+00 -0.00000000000E+00 -0.17127801870E+04  0.17127801870E+04  0.00000000000E+00 0.  1.
         21    1    1    2  503  504 -0.33756166381E+02  0.17400080047E+02 -0.36760480906E+03  0.36956127665E+03  0.00000000000E+00 0. -1.
         21    1    1    2  504  505  0.41042690824E+02  0.10397496848E+03  0.19669734663E+03  0.22624133732E+03  0.00000000000E+00 0.  1.
         21    1    1    2  505  502  0.25514835087E+02  0.27705482078E+02  0.34535040656E+03  0.34739819207E+03  0.00000000000E+00 0.  1.
          2    1    1    2  501    0 -0.32801359530E+02 -0.14908053061E+03 -0.13240161100E+04  0.13327864020E+04  0.00000000000E+00 0.  1.
<scales pt_clust_3="37.93216" pt_clust_4="146.66251" pt_clust_5="37.66431" pt_clust_6="14000.00000"></scales>
<clustering>
<clus scale="   37.664">  1  5  2 -1</clus>
<clus scale="   37.932">  2  3  1 -1</clus>
<clus scale="  146.663">  1  4  2 -1</clus>
<clus scale="   37.664">  1  3  2 -1</clus>
</clustering>
</event>
<event>
 6    0  0.3800129E+002  0.1547222E+03  0.7546771E-02  0.1194788E+00
         21   -1    0    0  503  502  0.00000000000E+00  0.00000000000E+00  0.15094564569E+03  0.15094564569E+03  0.00000000000E+00 0.  1.
          2   -1    0    0  504    0 -0.00000000000E+00 -0.00000000000E+00 -0.58996547443E+03  0.58996547443E+03  0.00000000000E+00 0. -1.
         21    1    1    2  503  505 -0.23906289290E+02  0.96400845291E+02  0.78127730722E+02  0.12636683089E+03  0.00000000000E+00 0.  1.
         21    1    1    2  504  502 -0.11934647110E+02  0.33919684151E+02 -0.48212913768E+02  0.60145372462E+02  0.00000000000E+00 0.  1.
         21    1    1    2  505  501 -0.29741230278E+02  0.36117898217E+02  0.57351983534E+01  0.47137414547E+02  0.00000000000E+00 0. -1.
          2    1    1    2  501    0  0.65582166677E+02 -0.16643842766E+03 -0.47466984405E+03  0.50726150222E+03  0.00000000000E+00 0. -1.
<scales pt_clust_3="35.20802" pt_clust_4="35.95804" pt_clust_5="35.20802" pt_clust_6="145.97086"></scales>
<clustering>
<clus scale="   35.208">  3  5 -1 -1</clus>
<clus scale="   35.958">  2  4  1 -1</clus>
<clus scale="  145.971">  2  6  1 -1</clus>
<clus scale="  154.722">  1  3  2 -1</clus>
</clustering>
</event>
<event>
 6    0  0.3800129E+002  0.1138827E+03  0.7546771E-02  0.1253544E+00
         21   -1    0    0  501  502  0.00000000000E+00  0.00000000000E+00  0.48799618182E+02  0.48799618182E+02  0.00000000000E+00 0. -1.
          2   -1    0    0  505    0 -0.00000000000E+00 -0.00000000000E+00 -0.46573623796E+03  0.46573623796E+03  0.00000000000E+00 0. -1.
         21    1    1    2  503  502 -0.87361335690E+01  0.38294704264E+02 -0.12664198413E+02  0.41269678044E+02  0.00000000000E+00 0. -1.
         21    1    1    2  504  503 -0.51842225338E+02  0.33385472931E+02 -0.60071251579E+02  0.86085779297E+02  0.00000000000E+00 0. -1.
         21    1    1    2  505  504 -0.42823627654E+02  0.10244405792E+02 -0.10808114831E+03  0.11670623615E+03  0.00000000000E+00 0. -1.
          2    1    1    2  501    0  0.10340198656E+03 -0.81924582987E+02 -0.23612002147E+03  0.27047416265E+03  0.00000000000E+00 0. -1.
<scales pt_clust_3="36.75849" pt_clust_4="36.75849" pt_clust_5="44.03193" pt_clust_6="104.15413"></scales>
<clustering>
<clus scale="   36.758">  3  4 -1 -1</clus>
<clus scale="   44.032">  2  5  1 -1</clus>
<clus scale="  104.154">  2  6  1 -1</clus>
<clus scale="  113.883">  1  3  2 -1</clus>
</clustering>
</event>
<event>
 6    0  0.3800129E+002  0.1626193E+03  0.7546771E-02  0.1185771E+00
         21   -1    0    0  505  502  0.00000000000E+00  0.00000000000E+00  0.10510176460E+04  0.10510176460E+04  0.00000000000E+00 0.  1.
          3   -1    0    0  504    0 -0.00000000000E+00 -0.00000000000E+00 -0.65606141610E+03  0.65606141610E+03  0.00000000000E+00 0.  1.
         21    1    1    2  503  502  0.53967151518E+02  0.58765748337E+02  0.12296689666E+03  0.14658350622E+03  0.00000000000E+00 0.  1.
         21    1    1    2  504  503 -0.27797296939E+02  0.38848074759E+02 -0.50526349867E+02  0.69532543895E+02  0.00000000000E+00 0. -1.
         21    1    1    2  505  501  0.10624110756E+03 -0.20849160127E+02  0.89339056018E+03  0.89992697117E+03  0.00000000000E+00 0.  1.
          3    1    1    2  501    0 -0.13241096214E+03 -0.76764662969E+02 -0.57087487703E+03  0.59103604086E+03  0.00000000000E+00 0.  1.
<scales pt_clust_3="79.98612" pt_clust_4="47.76885" pt_clust_5="14000.00000" pt_clust_6="162.61929"></scales>
<clustering>
<clus scale="   47.769">  2  4  1 -1</clus>
<clus scale="   79.986">  1  3  2 -1</clus>
<clus scale="  162.619">  2  6  1 -1</clus>
<clus scale="   79.986">  1  3  2 -1</clus>
</clustering>
</event>
<event>
 6    0  0.3800129E+002  0.1100011E+03  0.7546771E-02  0.1260568E+00
          2   -1    0    0  504    0 -0.00000000000E+00  0.00000000000E+00  0.33590763785E+03  0.33590763785E+03  0.00000000000E+00 0.  1.
         21   -1    0    0  505  502  0.00000000000E+00 -0.00000000000E+00 -0.84908477483E+03  0.84908477483E+03  0.00000000000E+00 0.  1.
         21    1    1    2  503  502 -0.47181015837E+02  0.84480774531E+02 -0.30173293632E+02  0.10135816282E+03  0.00000000000E+00 0.  1.
         21    1    1    2  504  503 -0.45088785986E+02  0.76974677042E+01  0.21277210841E+02  0.50447689064E+02  0.00000000000E+00 0.  1.
         21    1    1    2  505  501  0.87437336441E+02  0.67148238501E+02 -0.74025532570E+03  0.74841974919E+03  0.00000000000E+00 0.  1.
          2    1    1    2  501    0  0.48324653810E+01 -0.15932648074E+03  0.23597427151E+03  0.28476681162E+03  0.00000000000E+00 0.  1.
<scales pt_clust_3="100.25704" pt_clust_4="45.74112" pt_clust_5="14000.00000" pt_clust_6="110.00110"></scales>
<clustering>
<clus scale="   45.741">  1  4  2 -1</clus>
<clus scale="  100.257">  1  3  2 -1</clus>
<clus scale="  110.001">  1  6  2 -1</clus>
<clus scale="  110.001">  2  3  1 -1</clus>
</clustering>
</event>
<event>
 6    0  0.3800129E+002  0.7491856E+02  0.7546771E-02  0.1344123E+00
         21   -1    0    0  504  502  0.00000000000E+00  0.00000000000E+00  0.47563517322E+02  0.47563517322E+02  0.00000000000E+00 0.  1.
          2   -1    0    0  503    0 -0.00000000000E+00 -0.00000000000E+00 -0.97009191412E+03  0.97009191412E+03  0.00000000000E+00 0.  1.
         21    1    1    2  503  505 -0.34634909081E+02 -0.51991371674E+02 -0.19820255486E+03  0.20781465880E+03  0.00000000000E+00 0. -1.
         21    1    1    2  504  501  0.41237289297E+02  0.19781601614E+02 -0.29142729927E+02  0.54232135294E+02  0.00000000000E+00 0. -1.
         21    1    1    2  505  502 -0.71212037730E+02 -0.19215524683E+02 -0.21423180225E+02  0.76807182981E+02  0.00000000000E+00 0.  1.
          2    1    1    2  501    0  0.64609657514E+02  0.51425294743E+02 -0.67375993178E+03  0.67880145437E+03  0.00000000000E+00 0.  1.
<scales pt_clust_3="14000.00000" pt_clust_4="45.73648" pt_clust_5="38.76760" pt_clust_6="74.91856"></scales>
<clustering>
<clus scale="   45.736">  1  4  2 -1</clus>
<clus scale="   38.768">  1  5  2 -1</clus>
<clus scale="   74.919">  2  6  1 -1</clus>
<clus scale="   45.736">  1  3  2 -1</clus>
</clustering>
</event>
<event>
 6    0  0.3800129E+002  0.1762681E+03  0.7546771E-02  0.1171464E+00
         -3   -1    0    0    0  501 -0.00000000000E+00  0.00000000000E+00  0.35078693083E+03  0.35078693083E+03  0.00000000000E+00 0. -1.
         21   -1    0    0  504  502  0.00000000000E+00 -0.00000000000E+00 -0.24246684568E+03  0.24246684568E+03  0.00000000000E+00 0.  1.
         21    1    1    2  503  501  0.65974901761E+02 -0.21484768851E+02  0.47846679490E+02  0.84282784086E+02  0.00000000000E+00 0. -1.
         21    1    1    2  504  503  0.23177496209E+02 -0.58077121248E+02  0.19165336331E+02  0.65402281762E+02  0.00000000000E+00 0.  1.
         21    1    1    2  505  502  0.97626976901E+02 -0.74768383878E+02 -0.10399634725E+03  0.16104837189E+03  0.00000000000E+00 0.  1.
         -3    1    1    2    0  505 -0.18677937487E+03  0.15433027398E+03  0.14530441657E+03  0.28252033877E+03  0.00000000000E+00 0. -1.
<scales pt_clust_3="57.24967" pt_clust_4="57.24967" pt_clust_5="122.96885" pt_clust_6="165.63114"></scales>
<clustering>
<clus scale="   57.250">  3  4 -1 -1</clus>
<clus scale="  122.969">  2  5  1 -1</clus>
<clus scale="  165.631">  2  6  1 -1</clus>
<clus scale="  122.969">  2  3  1 -1</clus>
</clustering>
</event>
<event>
 6    0  0.3800129E+002  0.9432887E+02  0.7546771E-02  0.1292695E+00
          2   -1    0    0  503    0 -0.00000000000E+00  0.00000000000E+00  0.33664537240E+04  0.33664537240E+04  0.00000000000E+00 0.  1.
         21   -1    0    0  505  502  0.00000000000E+00 -0.00000000000E+00 -0.79016835867E+02  0.79016835867E+02  0.00000000000E+00 0. -1.
         21    1    1    2  503  504  0.36373372739E+02  0.31528411214E+02  0.21296346370E+03  0.21833575023E+03  0.00000000000E+00 0. -1.
         21    1    1    2  504  502  0.58725846081E+02  0.44844550711E+02  0.86218689868E+02  0.11354920171E+03  0.00000000000E+00 0. -1.
         21    1    1    2  505  501 -0.29411203684E+02  0.51136617507E+02 -0.46702851192E+02  0.75240473561E+02  0.00000000000E+00 0. -1.
          2    1    1    2  501    0 -0.65688015136E+02 -0.12750957943E+03  0.30349575857E+04  0.30383451343E+04  0.00000000000E+00 0.  1.
<scales pt_clust_3="48.13588" pt_clust_4="94.32887" pt_clust_5="59.03332" pt_clust_6="14000.00000"></scales>
<clustering>
<clus scale="   48.136">  1  3  2 -1</clus>
<clus scale="   59.033">  2  5  1 -1</clus>
<clus scale="   94.329">  2  4  1 -1</clus>
<clus scale="   59.033">  2  3  1 -1</clus>
</clustering>
</event>
<event>
 6    0  0.3800129E+002  0.9511876E+02  0.7546771E-02  0.1290909E+00
          2   -1    0    0  503    0 -0.00000000000E+00  0.00000000000E+00  0.14418810639E+04  0.14418810639E+04  0.00000000000E+00 0. -1.
         21   -1    0    0  505  502  0.00000000000E+00 -0.00000000000E+00 -0.34337221125E+03  0.34337221125E+03  0.00000000000E+00 0. -1.
         21    1    1    2  503  504  0.36719020605E+01  0.42888727619E+02  0.55911145127E+03  0.56076603033E+03  0.00000000000E+00 0.  1.
         21    1    1    2  504  502  0.33438571012E+02  0.26310526289E+02 -0.20465981214E+02  0.47214809244E+02  0.00000000000E+00 0. -1.
         21    1    1    2  505  501  0.59205614014E+02 -0.49873581508E+02 -0.30101373598E+03  0.31080853932E+03  0.00000000000E+00 0. -1.
          2    1    1    2  501    0 -0.96316087086E+02 -0.19325672400E+02  0.86087711857E+03  0.86646389626E+03  0.00000000000E+00 0. -1.
<scales pt_clust_3="43.12339" pt_clust_4="42.54858" pt_clust_5="14000.00000" pt_clust_6="95.11876"></scales>
<clustering>
<clus scale="   42.549">  2  4  1 -1</clus>
<clus scale="   43.123">  1  3  2 -1</clus>
<clus scale="   95.119">  1  6  2 -1</clus>
<clus scale="   42.549">  2  3  1 -1</clus>
</clustering>
</event>
<event>
 6    0  0.3800129E+002  0.2448628E+03  0.7546771E-02  0.1116595E+00
          2   -1    0    0  505    0 -0.00000000000E+00  0.00000000000E+00  0.18982106780E+04  0.18982106780E+04  0.00000000000E+00 0. -1.
         21   -1    0    0  504  502  0.00000000000E+00 -0.00000000000E+00 -0.11538037981E+03  0.11538037981E+03  0.00000000000E+00 0. -1.
         21    1    1    2  503  501 -0.68699546613E+02  0.54211271783E+02  0.40373681503E+03  0.41311246108E+03  0.00000000000E+00 0. -1.
         21    1    1    2  504  503  0.29803165437E+02  0.30219048225E+02  0.26929553444E+02  0.50265499046E+02  0.00000000000E+00 0. -1.
         21    1    1    2  505  502  0.17374949035E+03 -0.14099304497E+03  0.36823138998E+02  0.22676831281E+03  0.00000000000E+00 0. -1.
          2    1    1    2  501    0 -0.13485310917E+03  0.56562724964E+02  0.13153407907E+04  0.13234447849E+04  0.00000000000E+00 0. -1.
<scales pt_clust_3="63.37789" pt_clust_4="42.44313" pt_clust_5="230.77931" pt_clust_6="63.37789"></scales>
<clustering>
<clus scale="   42.443">  2  4  1 -1</clus>
<clus scale="   63.378">  3  6 -1 -1</clus>
<clus scale="  230.779">  2  5  1 -1</clus>
<clus scale="   42.443">  2  3  1 -1</clus>
</clustering>
</event>
<event>
 6    0  0.3800129E+002  0.1454701E+03  0.7546771E-02  0.1206152E+00
          2   -1    0    0  504    0 -0.00000000000E+00  0.00000000000E+00  0.89076265959E+03  0.89076265959E+03  0.00000000000E+00 0.  1.
         21   -1    0    0  501  502  0.00000000000E+00 -0.00000000000E+00 -0.13124334708E+04  0.13124334708E+04  0.00000000000E+00 0. -1.
         21    1    1    2  503  502 -0.87460973632E+02 -0.31736794182E+02 -0.77476330403E+03  0.78032994515E+03  0.00000000000E+00 0. -1.
         21    1    1    2  504  505  0.58836317492E+02 -0.23073203432E+02  0.34746441709E+01  0.63294218731E+02  0.00000000000E+00 0. -1.
         21    1    1    2  505  503 -0.44038684172E+02  0.28313272750E+02 -0.50186256096E+03  0.50458604540E+03  0.00000000000E+00 0. -1.
          2    1    1    2  501    0  0.72663340312E+02  0.26496724864E+02  0.85148040959E+03  0.85498592115E+03  0.00000000000E+00 0.  1.
<scales pt_clust_3="47.03570" pt_clust_4="63.19877" pt_clust_5="47.03570" pt_clust_6="131.26282"></scales>
<clustering>
<clus scale="   47.036">  3  5 -1 -1</clus>
<clus scale="   63.199">  1  4  2 -1</clus>
<clus scale="  131.263">  1  6  2 -1</clus>
<clus scale="  145.470">  2  3  1 -1</clus>
</clustering>
</event>
<event>
 6    0  0.3800129E+002  0.1327013E+03  0.7546771E-02  0.1223502E+00
         21   -1    0    0  505  502  0.00000000000E+00  0.00000000000E+00  0.35480617927E+03  0.35480617927E+03  0.00000000000E+00 0. -1.
          1   -1    0    0  504    0 -0.00000000000E+00 -0.00000000000E+00 -0.10305554686E+04  0.10305554686E+04  0.00000000000E+00 0.  1.
         21    1    1    2  503  501 -0.58774800835E+02 -0.18421706992E+01  0.10859994309E+03  0.12349825280E+03  0.00000000000E+00 0. -1.
         21    1    1    2  504  502  0.66511756145E+02 -0.12911836191E+02 -0.36641253365E+03  0.37262403846E+03  0.00000000000E+00 0.  1.
         21    1    1    2  505  503 -0.50096647753E+02 -0.49665251085E+02  0.22802777991E+03  0.23869013321E+03  0.00000000000E+00 0. -1.
          1    1    1    2  501    0  0.42359692443E+02  0.64419257975E+02 -0.64596447866E+03  0.65054922337E+03  0.00000000000E+00 0.  1.
<scales pt_clust_3="52.89310" pt_clust_4="67.75344" pt_clust_5="52.89310" pt_clust_6="119.38776"></scales>
<clustering>
<clus scale="   52.893">  3  5 -1 -1</clus>
<clus scale="   67.753">  2  4  1 -1</clus>
<clus scale="  119.388">  2  6  1 -1</clus>
<clus scale="  132.701">  1  3  2 -1</clus>
</clustering>
</event>
<event>
 6    0  0.3800129E+002  0.5818133E+02  0.7546771E-02  0.1405626E+00
         21   -1    0    0  503  502  0.00000000000E+00  0.00000000000E+00  0.23175272643E+03  0.23175272643E+03  0.00000000000E+00 0.  1.
         -1   -1    0    0    0  501 -0.00000000000E+00 -0.00000000000E+00 -0.42320078561E+03  0.42320078561E+03  0.00000000000E+00 0. -1.
         21    1    1    2  503  504  0.46222292765E+02  0.73755625074E+02  0.18641772623E+03  0.20573760286E+03  0.00000000000E+00 0.  1.
         21    1    1    2  504  501 -0.40768329996E+02  0.24315730878E+02 -0.50470997828E+02  0.69286601306E+02  0.00000000000E+00 0. -1.
         21    1    1    2  505  502 -0.32025390709E+02 -0.20026719809E+02  0.44166639499E+01  0.38028963657E+02  0.00000000000E+00 0.  1.
         -1    1    1    2    0  505  0.26571427939E+02 -0.78044636142E+02 -0.33181145153E+03  0.34190034423E+03  0.00000000000E+00 0. -1.
<scales pt_clust_3="14000.00000" pt_clust_4="48.26309" pt_clust_5="37.77162" pt_clust_6="58.18133"></scales>
<clustering>
<clus scale="   37.772">  1  5  2 -1</clus>
<clus scale="   48.263">  2  4  1 -1</clus>
<clus scale="   58.181">  2  6  1 -1</clus>
<clus scale="   37.772">  1  3  2 -1</clus>
</clustering>
</event>
<event>
 6    0  0.3800129E+002  0.2625062E+03  0.7546771E-02  0.1105647E+00
          2   -1    0    0  505    0 -0.00000000000E+00  0.00000000000E+00  0.83206541602E+03  0.83206541602E+03  0.00000000000E+00 0.  1.
         21   -1    0    0  504  502  0.00000000000E+00 -0.00000000000E+00 -0.17503880509E+03  0.17503880509E+03  0.00000000000E+00 0.  1.
         21    1    1    2  503  501 -0.98935784500E+02  0.11681630674E+03  0.17784957827E+02  0.15411243850E+03  0.00000000000E+00 0.  1.
         21    1    1    2  504  503 -0.10108949078E+03  0.39843064541E+02 -0.32004967325E+02  0.11327344292E+03  0.00000000000E+00 0.  1.
         21    1    1    2  505  502  0.13604697551E+01 -0.31426513395E+02  0.29171051237E+03  0.29340160130E+03  0.00000000000E+00 0.  1.
          2    1    1    2  501    0  0.19866480552E+03 -0.12523285789E+03  0.37953610806E+03  0.44631673839E+03  0.00000000000E+00 0.  1.
<scales pt_clust_3="69.77138" pt_clust_4="69.77138" pt_clust_5="31.45595" pt_clust_6="249.33671"></scales>
<clustering>
<clus scale="   31.456">  1  5  2 -1</clus>
<clus scale="   69.771">  3  4 -1 -1</clus>
<clus scale="  249.337">  1  6  2 -1</clus>
<clus scale="  262.506">  2  3  1 -1</clus>
</clustering>
</event>
<event>
 6    0  0.3800129E+002  0.8721889E+02  0.7546771E-02  0.1309730E+00
          1   -1    0    0  505    0 -0.00000000000E+00  0.00000000000E+00  0.10640869752E+04  0.10640869752E+04  0.00000000000E+00 0.  1.
         21   -1    0    0  504  502  0.00000000000E+00 -0.00000000000E+00 -0.83357399893E+02  0.83357399893E+02  0.00000000000E+00 0.  1.
         21    1    1    2  503  502  0.69455720210E+02  0.51779708373E+01  0.83876366936E+02  0.10902363680E+03  0.00000000000E+00 0.  1.
         21    1    1    2  504  501  0.63933052295E+01  0.47346117517E+02 -0.55010282241E+02  0.72860554128E+02  0.00000000000E+00 0.  1.
         21    1    1    2  505  503  0.89952476875E+01  0.36377459076E+02  0.16854484733E+03  0.17266035900E+03  0.00000000000E+00 0.  1.
          1    1    1    2  501    0 -0.84844273127E+02 -0.88901547430E+02  0.78331864325E+03  0.79289982512E+03  0.00000000000E+00 0.  1.
<scales pt_clust_3="14000.00000" pt_clust_4="48.14797" pt_clust_5="37.47311" pt_clust_6="87.21889"></scales>
<clustering>
<clus scale="   37.473">  1  5  2 -1</clus>
<clus scale="   48.148">  2  4  1 -1</clus>
<clus scale="   87.219">  1  6  2 -1</clus>
<clus scale="   48.148">  2  3  1 -1</clus>
</clustering>
</event>
<event>
 6    0  0.3800129E+002  0.2282684E+03  0.7546771E-02  0.1127864E+00
         21   -1    0    0  503  502  0.00000000000E+00  0.00000000000E+00  0.10601057023E+04  0.10601057023E+04  0.00000000000E+00 0.  1.
         -2   -1    0    0    0  501 -0.00000000000E+00 -0.00000000000E+00 -0.47502666978E+03  0.47502666978E+03  0.00000000000E+00 0.  1.
         21    1    1    2  503  504 -0.57047853173E+02 -0.76109331762E+01  0.44263961018E+02  0.72606350276E+02  0.00000000000E+00 0. -1.
         21    1    1    2  504  501 -0.30541467311E+01 -0.34397684955E+02 -0.31139043798E+02  0.46499124628E+02  0.00000000000E+00 0. -1.
         21    1    1    2  505  502 -0.15206745716E+03 -0.87217258370E+02  0.94869304487E+03  0.96475377951E+03  0.00000000000E+00 0.  1.
         -2    1    1    2    0  505  0.21216945707E+03  0.12922587650E+03 -0.37673892958E+03  0.45127311767E+03  0.00000000000E+00 0.  1.
<scales pt_clust_3="57.80980" pt_clust_4="34.53301" pt_clust_5="228.26842" pt_clust_6="14000.00000"></scales>
<clustering>
<clus scale="   34.533">  2  4  1 -1</clus>
<clus scale="   57.810">  1  3  2 -1</clus>
<clus scale="  228.268">  1  5  2 -1</clus>
<clus scale="   57.810">  1  3  2 -1</clus>
</clustering>
</event>
<event>
 6    0  0.3800129E+002  0.6199384E+02  0.7546771E-02  0.1389650E+00
         21   -1    0    0  505  502  0.00000000000E+00  0.00000000000E+00  0.20390139325E+04  0.20390139325E+04  0.00000000000E+00 0.  1.
          2   -1    0    0  504    0 -0.00000000000E+00 -0.00000000000E+00 -0.35025276009E+02  0.35025276009E+02  0.00000000000E+00 0.  1.
         21    1    1    2  503  502 -0.45572609564E+02  0.13158830137E+01  0.64036646048E+03  0.64198738149E+03  0.00000000000E+00 0.  1.
         21    1    1    2  504  503 -0.48617948110E+02  0.53462655211E+02  0.18817610708E+03  0.20157432291E+03  0.00000000000E+00 0.  1.
         21    1    1    2  505  501  0.34665124408E+02 -0.64471446623E+02  0.11673318115E+04  0.11696246391E+04  0.00000000000E+00 0.  1.
          2    1    1    2  501    0  0.59525433266E+02  0.96929083988E+01  0.81142774236E+01  0.60852864984E+02  0.00000000000E+00 0.  1.
<scales pt_clust_3="45.59160" pt_clust_4="61.99384" pt_clust_5="14000.00000" pt_clust_6="59.20542"></scales>
<clustering>
<clus scale="   45.592">  1  3  2 -1</clus>
<clus scale="   59.205">  2  6  1 -1</clus>
<clus scale="   61.994">  2  4  1 -1</clus>
<clus scale="   45.592">  1  3  2 -1</clus>
</clustering>
</event>
<event>
 6    0  0.3800129E+002  0.2514759E+03  0.7546771E-02  0.1112376E+00
         21   -1    0    0  504  502  0.00000000000E+00  0.00000000000E+00  0.13771457569E+04  0.13771457569E+04  0.00000000000E+00 0.  1.
          2   -1    0    0  503    0 -0.00000000000E+00 -0.00000000000E+00 -0.15273954691E+04  0.15273954691E+04  0.00000000000E+00 0. -1.
         21    1    1    2  503  502  0.15781532342E+03 -0.19231665840E+03  0.12602810660E+04  0.12846010038E+04  0.00000000000E+00 0.  1.
         21    1    1    2  504  505  0.23216842407E+02  0.43373317180E+02  0.87811407190E+02  0.10065341349E+03  0.00000000000E+00 0. -1.
         21    1    1    2  505  501 -0.51731741628E+02  0.40960897830E+02 -0.21394827562E+03  0.22389245830E+03  0.00000000000E+00 0. -1.
          2    1    1    2  501    0 -0.12930042420E+03  0.10798244339E+03 -0.12843939098E+04  0.12953943505E+04  0.00000000000E+00 0. -1.
<scales pt_clust_3="234.50752" pt_clust_4="49.19620" pt_clust_5="56.84079" pt_clust_6="56.84079"></scales>
<clustering>
<clus scale="   49.196">  1  4  2 -1</clus>
<clus scale="   56.841">  5  6 -1 -1</clus>
<clus scale="  234.508">  1  3  2 -1</clus>
<clus scale="   49.196">  1  3  2 -1</clus>
</clustering>
</event>
<event>
 6    0  0.3800129E+002  0.8896897E+02  0.7546771E-02  0.1305368E+00
         21   -1    0    0  505  502  0.00000000000E+00  0.00000000000E+00  0.19801130411E+03  0.19801130411E+03  0.00000000000E+00 0.  1.
          1   -1    0    0  503    0 -0.00000000000E+00 -0.00000000000E+00 -0.61015454002E+03  0.61015454002E+03  0.00000000000E+00 0. -1.
         21    1    1    2  503  502  0.29380503192E+02 -0.19377908539E+02 -0.15853450703E+03  0.16239429555E+03  0.00000000000E+00 0. -1.
         21    1    1    2  504  501  0.15456552499E+02  0.70615311033E+02  0.99741324219E+02  0.12318181247E+03  0.00000000000E+00 0.  1.
         21    1    1    2  505  504  0.48689913835E+02 -0.67950192957E+01  0.70681769561E+02  0.86097575720E+02  0.00000000000E+00 0.  1.
          1    1    1    2  501    0 -0.93526969526E+02 -0.44442383198E+02 -0.42403182266E+03  0.43649216039E+03  0.00000000000E+00 0. -1.
<scales pt_clust_3="35.19542" pt_clust_4="14000.00000" pt_clust_5="49.70712" pt_clust_6="88.96897"></scales>
<clustering>
<clus scale="   35.195">  2  3  1 -1</clus>
<clus scale="   49.707">  1  5  2 -1</clus>
<clus scale="   88.969">  2  6  1 -1</clus>
<clus scale="   49.707">  1  3  2 -1</clus>
</clustering>
</event>
<event>
 6    0  0.3800129E+002  0.9174592E+02  0.7546771E-02  0.1298678E+00
         21   -1    0    0  503  502  0.00000000000E+00  0.00000000000E+00  0.73948119542E+02  0.73948119542E+02  0.00000000000E+00 0.  1.
          1   -1    0    0  504    0 -0.00000000000E+00 -0.00000000000E+00 -0.42270034067E+04  0.42270034067E+04  0.00000000000E+00 0. -1.
         21    1    1    2  503  501 -0.12059500742E+03 -0.46122358529E+02  0.38689754760E+01  0.12917196577E+03  0.00000000000E+00 0.  1.
         21    1    1    2  504  505  0.51594853582E+01  0.77395251352E+02 -0.21403456134E+04  0.21417506834E+04  0.00000000000E+00 0. -1.
         21    1    1    2  505  502  0.30391698710E+02  0.52808711149E+02 -0.18980488634E+03  0.19934470196E+03  0.00000000000E+00 0.  1.
          1    1    1    2  501    0  0.85043823351E+02 -0.84081603971E+02 -0.18267737629E+04  0.18306841751E+04  0.00000000000E+00 0. -1.
<scales pt_clust_3="14000.00000" pt_clust_4="78.12315" pt_clust_5="60.92959" pt_clust_6="91.74592"></scales>
<clustering>
<clus scale="   60.930">  1  5  2 -1</clus>
<clus scale="   78.123">  2  4  1 -1</clus>
<clus scale="   91.746">  2  6  1 -1</clus>
<clus scale="   60.930">  1  3  2 -1</clus>
</clustering>
</event>
<event>
 6    0  0.3800129E+002  0.1036240E+03  0.7546771E-02  0.1272855E+00
         -2   -1    0    0    0  501 -0.00000000000E+00  0.00000000000E+00  0.37624131195E+03  0.37624131195E+03  0.00000000000E+00 0. -1.
         21   -1    0    0  505  502  0.00000000000E+00 -0.00000000000E+00 -0.13339843377E+03  0.13339843377E+03  0.00000000000E+00 0.  1.
         21    1    1    2  503  502 -0.54458315101E+02  0.34401948926E+02  0.25221531099E+02  0.69176063812E+02  0.00000000000E+00 0.  1.
         21    1    1    2  504  501 -0.17962921849E+02 -0.27119928401E+02  0.48570179575E+02  0.58456987792E+02  0.00000000000E+00 0. -1.
         21    1    1    2  505  504  0.16495643029E+02  0.73379899814E+02 -0.82707535165E+02  0.11179111015E+03  0.00000000000E+00 0.  1.
         -2    1    1    2    0  503  0.55925593920E+02 -0.80661920339E+02  0.25175870267E+03  0.27021558396E+03  0.00000000000E+00 0. -1.
<scales pt_clust_3="64.69213" pt_clust_4="32.52933" pt_clust_5="103.62403" pt_clust_6="14000.00000"></scales>
<clustering>
<clus scale="   32.529">  1  4  2 -1</clus>
<clus scale="   64.692">  2  3  1 -1</clus>
<clus scale="  103.624">  2  5  1 -1</clus>
<clus scale="   64.692">  2  3  1 -1</clus>
</clustering>
</event>
<event>
 6    0  0.3800129E+002  0.6276315E+02  0.7546771E-02  0.1386589E+00
          2   -1    0    0  503    0 -0.00000000000E+00  0.00000000000E+00  0.62237916148E+03  0.62237916148E+03  0.00000000000E+00 0. -1.
         21   -1    0    0  504  502  0.00000000000E+00 -0.00000000000E+00 -0.85074860806E+02  0.85074860806E+02  0.00000000000E+00 0. -1.
         21    1    1    2  503  505 -0.39278441946E+02 -0.63782466431E+02  0.18973542447E+03  0.20398659349E+03  0.00000000000E+00 0. -1.
         21    1    1    2  504  501  0.19730250052E+02  0.65620864375E+02  0.60909531541E+02  0.91680704846E+02  0.00000000000E+00 0. -1.
         21    1    1    2  505  502 -0.26211357031E+02 -0.39634684606E+02 -0.50559712798E+02  0.69384638209E+02  0.00000000000E+00 0. -1.
          2    1    1    2  501    0  0.45759548925E+02  0.37796286662E+02  0.33721905747E+03  0.34240208574E+03  0.00000000000E+00 0. -1.
<scales pt_clust_3="14000.00000" pt_clust_4="41.49073" pt_clust_5="47.51782" pt_clust_6="62.76315"></scales>
<clustering>
<clus scale="   47.518">  2  5  1 -1</clus>
<clus scale="   41.491">  2  4  1 -1</clus>
<clus scale="   62.763">  1  6  2 -1</clus>
<clus scale="   47.518">  2  3  1 -1</clus>
</clustering>
</event>
<event>
 6    0  0.3800129E+002  0.1101471E+03  0.7546771E-02  0.1260298E+00
         21   -1    0    0  503  502  0.00000000000E+00  0.00000000000E+00  0.90773578227E+02  0.90773578227E+02  0.00000000000E+00 0. -1.
          2   -1    0    0  505    0 -0.00000000000E+00 -0.00000000000E+00 -0.18924208713E+04  0.18924208713E+04  0.00000000000E+00 0. -1.
         21    1    1    2  503  501 -0.59014062705E+01  0.36489942509E+02 -0.70075215704E+02  0.79226752781E+02  0.00000000000E+00 0. -1.
         21    1    1    2  504  502 -0.33716864705E+02  0.90109934444E+02  0.50575385254E+02  0.10869451157E+03  0.00000000000E+00 0. -1.
         21    1    1    2  505  504  0.10296232899E+02 -0.73892870939E+02 -0.22678482618E+03  0.23874154681E+03  0.00000000000E+00 0. -1.
          2    1    1    2  501    0  0.29322038076E+02 -0.52707006014E+02 -0.15553626364E+04  0.15565316383E+04  0.00000000000E+00 0. -1.
<scales pt_clust_3="36.96407" pt_clust_4="14000.00000" pt_clust_5="110.14705" pt_clust_6="60.07864"></scales>
<clustering>
<clus scale="   36.964">  1  3  2 -1</clus>
<clus scale="   60.079">  2  6  1 -1</clus>
<clus scale="  110.147">  2  5  1 -1</clus>
<clus scale="   36.964">  1  3  2 -1</clus>
</clustering>
</event>
<event>
 6    0  0.3800129E+002  0.1113480E+03  0.7546771E-02  0.1258094E+00
         21   -1    0    0  501  502  0.00000000000E+00  0.00000000000E+00  0.61642943348E+03  0.61642943348E+03  0.00000000000E+00 0.  1.
          2   -1    0    0  503    0 -0.00000000000E+00 -0.00000000000E+00 -0.27023460681E+04  0.27023460681E+04  0.00000000000E+00 0.  1.
         21    1    1    2  503  505 -0.18844226167E+02  0.80364644939E+02 -0.21113576894E+04  0.21129706277E+04  0.00000000000E+00 0.  1.
         21    1    1    2  504  502  0.81613728291E+01  0.45772579534E+02  0.11930602991E+03  0.12804556149E+03  0.00000000000E+00 0.  1.
         21    1    1    2  505  504  0.59499903542E+01  0.64679483494E+02  0.47412573230E+03  0.47855412233E+03  0.00000000000E+00 0.  1.
          2    1    1    2  501    0  0.47328629835E+01 -0.19081670797E+03 -0.56799070744E+03  0.59920519003E+03  0.00000000000E+00 0.  1.
<scales pt_clust_3="82.61431" pt_clust_4="46.49448" pt_clust_5="14000.00000" pt_clust_6="111.34798"></scales>
<clustering>
<clus scale="   46.494">  1  4  2 -1</clus>
<clus scale="   82.614">  2  3  1 -1</clus>
<clus scale="  111.348">  2  6  1 -1</clus>
<clus scale="   46.494">  1  3  2 -1</clus>
</clustering>
</event>
<event>
 6    0  0.3800129E+002  0.1883143E+03  0.7546771E-02  0.1159991E+00
         21   -1    0    0  503  502  0.00000000000E+00  0.00000000000E+00  0.97381664173E+02  0.97381664173E+02  0.00000000000E+00 0.  1.
          2   -1    0    0  504    0 -0.00000000000E+00 -0.00000000000E+00 -0.89827756966E+03  0.89827756966E+03  0.00000000000E+00 0.  1.
         21    1    1    2  503  505  0.40174724894E+02 -0.41399602169E+02  0.16580859077E+02  0.60023832498E+02  0.00000000000E+00 0.  1.
         21    1    1    2  504  502  0.45371280313E+02  0.31412198023E+02 -0.56495135437E+02  0.78974550267E+02  0.00000000000E+00 0. -1.
         21    1    1    2  505  501  0.90426401138E+02 -0.46240349939E+02 -0.34816205542E+02  0.10736513472E+03  0.00000000000E+00 0.  1.
          2    1    1    2  501    0 -0.17597240635E+03  0.56227754085E+02 -0.72616542359E+03  0.74929571635E+03  0.00000000000E+00 0.  1.
<scales pt_clust_3="40.92812" pt_clust_4="55.18405" pt_clust_5="40.92812" pt_clust_6="180.31406"></scales>
<clustering>
<clus scale="   40.928">  3  5 -1 -1</clus>
<clus scale="   55.184">  1  4  2 -1</clus>
<clus scale="  180.314">  2  6  1 -1</clus>
<clus scale="   55.184">  1  3  2 -1</clus>
</clustering>
</event>
<event>
 6    0  0.3800129E+002  0.1165068E+03  0.7546771E-02  0.1248974E+00
          1   -1    0    0  504    0 -0.00000000000E+00  0.00000000000E+00  0.92446045552E+03  0.92446045552E+03  0.00000000000E+00 0. -1.
         21   -1    0    0  505  502  0.00000000000E+00 -0.00000000000E+00 -0.22278140751E+04  0.22278140751E+04  0.00000000000E+00 0.  1.
         21    1    1    2  503  502 -0.29057833294E+02  0.61565672192E+02 -0.15494274465E+04  0.15509223390E+04  0.00000000000E+00 0.  1.
         21    1    1    2  504  503 -0.11255710664E+02  0.48186104538E+02 -0.59842164987E+03  0.60046403950E+03  0.00000000000E+00 0.  1.
         21    1    1    2  505  501 -0.46859036822E+02 -0.43107027199E+02 -0.61351461883E+02  0.88419381366E+02  0.00000000000E+00 0.  1.
          1    1    1    2  501    0  0.87172580780E+02 -0.66644749532E+02  0.90584693862E+03  0.91246877080E+03  0.00000000000E+00 0. -1.
<scales pt_clust_3="33.42391" pt_clust_4="33.42391" pt_clust_5="63.67091" pt_clust_6="109.71264"></scales>
<clustering>
<clus scale="   33.424">  3  4 -1 -1</clus>
<clus scale="   63.671">  2  5  1 -1</clus>
<clus scale="  109.713">  1  6  2 -1</clus>
<clus scale="   63.671">  2  3  1 -1</clus>
</clustering>
</event>
<event>
 6    0  0.3800129E+002  0.8846442E+02  0.7546771E-02  0.1306613E+00
          2   -1    0    0  504    0 -0.00000000000E+00  0.00000000000E+00  0.16660568084E+04  0.16660568084E+04  0.00000000000E+00 0.  1.
         21   -1    0    0  503  502  0.00000000000E+00 -0.00000000000E+00 -0.20211606739E+02  0.20211606739E+02  0.00000000000E+00 0.  1.
         21    1    1    2  503  505 -0.64929638658E+02  0.94866724477E+01  0.18432012043E+03  0.19565214470E+03  0.00000000000E+00 0.  1.
         21    1    1    2  504  502 -0.30147624425E+02 -0.36696514262E+02  0.24061035508E+03  0.24525263789E+03  0.00000000000E+00 0. -1.
         21    1    1    2  505  501  0.22732611094E+02  0.85283831893E+02  0.18155638369E+03  0.20187328711E+03  0.00000000000E+00 0.  1.
          2    1    1    2  501    0  0.72344651988E+02 -0.58073990079E+02  0.10393583425E+04  0.10434903455E+04  0.00000000000E+00 0.  1.
<scales pt_clust_3="69.10677" pt_clust_4="47.49225" pt_clust_5="14000.00000" pt_clust_6="88.46442"></scales>
<clustering>
<clus scale="   47.492">  1  4  2 -1</clus>
<clus scale="   69.107">  2  3  1 -1</clus>
<clus scale="   88.464">  1  6  2 -1</clus>
<clus scale="   69.107">  2  3  1 -1</clus>
</clustering>
</event>
<event>
 6    0  0.3800129E+002  0.1217604E+03  0.7546771E-02  0.1240221E+00
          2   -1    0    0  504    0 -0.00000000000E+00  0.00000000000E+00  0.10466220684E+04  0.10466220684E+04  0.00000000000E+00 0. -1.
         21   -1    0    0  503  502  0.00000000000E+00 -0.00000000000E+00 -0.11155389277E+03  0.11155389277E+03  0.00000000000E+00 0.  1.
         21    1    1    2  503  501 -0.11315071666E+01 -0.96764727634E+02  0.19760544134E+03  0.22002864193E+03  0.00000000000E+00 0.  1.
         21    1    1    2  504  505  0.39326843784E+02 -0.63407855817E+02 -0.61994165472E+02  0.97007388244E+02  0.00000000000E+00 0.  1.
         21    1    1    2  505  502 -0.42791311949E+02  0.25491294533E+02  0.26298154056E+02  0.56324909073E+02  0.00000000000E+00 0.  1.
          2    1    1    2  501    0  0.45959753323E+01  0.13468128892E+03  0.77315874571E+03  0.78481502192E+03  0.00000000000E+00 0. -1.
<scales pt_clust_3="14000.00000" pt_clust_4="42.61244" pt_clust_5="49.80866" pt_clust_6="121.76039"></scales>
<clustering>
<clus scale="   49.809">  2  5  1 -1</clus>
<clus scale="   42.612">  2  4  1 -1</clus>
<clus scale="  121.760">  1  6  2 -1</clus>
<clus scale="   49.809">  2  3  1 -1</clus>
</clustering>
</event>
<event>
 6    0  0.3800129E+002  0.1626653E+03  0.7546771E-02  0.1185720E+00
          2   -1    0    0  505    0 -0.00000000000E+00  0.00000000000E+00  0.16009852337E+04  0.16009852337E+04  0.00000000000E+00 0.  1.
         21   -1    0    0  503  502  0.00000000000E+00 -0.00000000000E+00 -0.64182293516E+02  0.64182293516E+02  0.00000000000E+00 0. -1.
         21    1    1    2  503  504  0.96034667243E+02  0.74126242312E+00  0.22352861940E+02  0.98604549689E+02  0.00000000000E+00 0. -1.
         21    1    1    2  504  501  0.42284353231E+02 -0.46047703875E+02  0.34388725856E+02  0.71350837601E+02  0.00000000000E+00 0. -1.
         21    1    1    2  505  502  0.32167711355E+02 -0.85402746849E+01  0.20730540996E+03  0.20996006988E+03  0.00000000000E+00 0.  1.
          2    1    1    2  501    0 -0.17048673183E+03  0.53846716137E+02  0.12727559424E+04  0.12852520701E+04  0.00000000000E+00 0.  1.
<scales pt_clust_3="54.07361" pt_clust_4="54.07361" pt_clust_5="33.28210" pt_clust_6="148.25518"></scales>
<clustering>
<clus scale="   33.282">  1  5  2 -1</clus>
<clus scale="   54.074">  3  4 -1 -1</clus>
<clus scale="  148.255">  1  6  2 -1</clus>
<clus scale="  162.665">  2  3  1 -1</clus>
</clustering>
</event>
<event>
 6    0  0.3800129E+002  0.1075872E+03  0.7546771E-02  0.1265104E+00
         21   -1    0    0  503  502  0.00000000000E+00  0.00000000000E+00  0.36929055057E+03  0.36929055057E+03  0.00000000000E+00 0.  1.
          2   -1    0    0  505    0 -0.00000000000E+00 -0.00000000000E+00 -0.33416358593E+03  0.33416358593E+03  0.00000000000E+00 0.  1.
         21    1    1    2  503  504  0.51395865029E+02  0.84696395357E+01  0.13317654218E+03  0.14300091301E+03  0.00000000000E+00 0.  1.
         21    1    1    2  504  501 -0.36859067709E+02  0.40902816769E+02  0.17085382837E+03  0.17950671843E+03  0.00000000000E+00 0. -1.
         21    1    1    2  505  502  0.96079422620E+02 -0.39436084707E+02 -0.16462199706E+02  0.10515447802E+03  0.00000000000E+00 0.  1.
          2    1    1    2  501    0 -0.11061621994E+03 -0.99363715970E+01 -0.25244120620E+03  0.27579202705E+03  0.00000000000E+00 0.  1.
<scales pt_clust_3="52.08906" pt_clust_4="47.36605" pt_clust_5="107.58720" pt_clust_6="14000.00000"></scales>
<clustering>
<clus scale="   52.089">  1  3  2 -1</clus>
<clus scale="   47.366">  1  4  2 -1</clus>
<clus scale="  107.587">  1  5  2 -1</clus>
<clus scale="   52.089">  1  3  2 -1</clus>
</clustering>
</event>
<event>
 6    0  0.3800129E+002  0.1610796E+03  0.7546771E-02  0.1187483E+00
          1   -1    0    0  503    0 -0.00000000000E+00  0.00000000000E+00  0.47902233185E+03  0.47902233185E+03  0.00000000000E+00 0.  1.
         21   -1    0    0  501  502  0.00000000000E+00 -0.00000000000E+00 -0.99668991248E+03  0.99668991248E+03  0.00000000000E+00 0. -1.
         21    1    1    2  503  505 -0.50115467819E+02  0.23903180897E+02  0.84634164229E+02  0.10122185498E+03  0.00000000000E+00 0. -1.
         21    1    1    2  504  502  0.96647520341E+02  0.51793739638E+02 -0.64034272625E+03  0.64966309863E+03  0.00000000000E+00 0. -1.
         21    1    1    2  505  504  0.50348555626E+02 -0.12886889637E+02 -0.33259123184E+03  0.33662735550E+03  0.00000000000E+00 0. -1.
          1    1    1    2  501    0 -0.96880608148E+02 -0.62810030898E+02  0.37063221323E+03  0.38819993521E+03  0.00000000000E+00 0.  1.
<scales pt_clust_3="55.52407" pt_clust_4="38.00123" pt_clust_5="38.00123" pt_clust_6="151.32693"></scales>
<clustering>
<clus scale="   38.001">  4  5 -1 -1</clus>
<clus scale="   55.524">  1  3  2 -1</clus>
<clus scale="  151.327">  1  6  2 -1</clus>
<clus scale="  161.080">  2  3  1 -1</clus>
</clustering>
</event>
<event>
 6    0  0.3800129E+002  0.1066552E+03  0.7546771E-02  0.1266892E+00
         21   -1    0    0  503  502  0.00000000000E+00  0.00000000000E+00  0.13416696000E+03  0.13416696000E+03  0.00000000000E+00 0. -1.
          1   -1    0    0  504    0 -0.00000000000E+00 -0.00000000000E+00 -0.20205790663E+04  0.20205790663E+04  0.00000000000E+00 0.  1.
         21    1    1    2  503  501  0.11504247980E+03  0.13850446106E+03 -0.14143515324E+03  0.22895886195E+03  0.00000000000E+00 0.  1.
         21    1    1    2  504  505 -0.33935690940E+02  0.32007031444E+01 -0.13066393233E+03  0.13503680547E+03  0.00000000000E+00 0. -1.
         21    1    1    2  505  502 -0.80807835770E+02 -0.53408889815E+02  0.60111654196E+02  0.11399924036E+03  0.00000000000E+00 0. -1.
          1    1    1    2  501    0 -0.29895309175E+00 -0.88296274393E+02 -0.16744246749E+04  0.16767511185E+04  0.00000000000E+00 0.  1.
<scales pt_clust_3="106.65520" pt_clust_4="34.08630" pt_clust_5="14000.00000" pt_clust_6="90.70854"></scales>
<clustering>
<clus scale="   34.086">  2  4  1 -1</clus>
<clus scale="   90.709">  2  6  1 -1</clus>
<clus scale="  106.655">  2  3  1 -1</clus>
<clus scale="  106.655">  1  3  2 -1</clus>
</clustering>
</event>
<event>
 6    0  0.3800129E+002  0.1469646E+03  0.7546771E-02  0.1204253E+00
         21   -1    0    0  503  502  0.00000000000E+00  0.00000000000E+00  0.96285776039E+03  0.96285776039E+03  0.00000000000E+00 0.  1.
          2   -1    0    0  505    0 -0.00000000000E+00 -0.00000000000E+00 -0.90159226220E+03  0.90159226220E+03  0.00000000000E+00 0.  1.
         21    1    1    2  503  501 -0.52443409796E+02  0.47819723555E+02  0.65541928356E+03  0.65925069166E+03  0.00000000000E+00 0.  1.
         21    1    1    2  504  502 -0.32020761160E+01 -0.68092488627E+02  0.23063422146E+03  0.24049736882E+03  0.00000000000E+00 0. -1.
         21    1    1    2  505  504 -0.53623725365E+02 -0.85651980067E+02  0.22772326310E+02  0.10358737595E+03  0.00000000000E+00 0.  1.
          2    1    1    2  501    0  0.10926921128E+03  0.10592474514E+03 -0.84756033314E+03  0.86111458615E+03  0.00000000000E+00 0.  1.
<scales pt_clust_3="57.01368" pt_clust_4="68.16774" pt_clust_5="14000.00000" pt_clust_6="146.96461"></scales>
<clustering>
<clus scale="   68.168">  1  4  2 -1</clus>
<clus scale="   57.014">  1  3  2 -1</clus>
<clus scale="  146.965">  2  6  1 -1</clus>
<clus scale="   68.168">  1  3  2 -1</clus>
</clustering>
</event>
<event>
 6    0  0.3800129E+002  0.2417742E+03  0.7546771E-02  0.1118617E+00
         21   -1    0    0  505  502  0.00000000000E+00  0.00000000000E+00  0.30212262226E+03  0.30212262226E+03  0.00000000000E+00 0.  1.
          2   -1    0    0  502    0 -0.00000000000E+00 -0.00000000000E+00 -0.44850649876E+03  0.44850649876E+03  0.00000000000E+00 0. -1.
         21    1    1    2  503  501 -0.11841389159E+03 -0.49843742762E+02 -0.34397627008E+02  0.13300167352E+03  0.00000000000E+00 0.  1.
         21    1    1    2  504  503 -0.51919780672E+02 -0.18364916591E+01  0.33432730414E+02  0.61780124551E+02  0.00000000000E+00 0.  1.
         21    1    1    2  505  504 -0.63173652556E+02 -0.46562596512E+02  0.14841310610E+03  0.16788518646E+03  0.00000000000E+00 0.  1.
          2    1    1    2  501    0  0.23350732482E+03  0.98242830934E+02 -0.29383208601E+03  0.38796213648E+03  0.00000000000E+00 0. -1.
<scales pt_clust_3="50.29100" pt_clust_4="50.29100" pt_clust_5="78.47921" pt_clust_6="228.47356"></scales>
<clustering>
<clus scale="   50.291">  3  4 -1 -1</clus>
<clus scale="   78.479">  1  5  2 -1</clus>
<clus scale="  228.474">  2  6  1 -1</clus>
<clus scale="   78.479">  1  3  2 -1</clus>
</clustering>
</event>
<event>
 6    0  0.3800129E+002  0.8965523E+02  0.7546771E-02  0.1303689E+00
         21   -1    0    0  503  502  0.00000000000E+00  0.00000000000E+00  0.21986490774E+03  0.21986490774E+03  0.00000000000E+00 0. -1.
          2   -1    0    0  505    0 -0.00000000000E+00 -0.00000000000E+00 -0.10370233574E+04  0.10370233574E+04  0.00000000000E+00 0. -1.
         21    1    1    2  503  501  0.35458023831E+02 -0.82561293456E+02  0.19065897934E+03  0.21077116746E+03  0.00000000000E+00 0. -1.
         21    1    1    2  504  502  0.50405687272E+02  0.26705006515E+02 -0.37234032226E+02  0.68119482074E+02  0.00000000000E+00 0.  1.
         21    1    1    2  505  504 -0.39167622558E+02 -0.56651313246E+01 -0.22808436288E+03  0.23149227408E+03  0.00000000000E+00 0.  1.
          2    1    1    2  501    0 -0.46696088545E+02  0.61521418265E+02 -0.74249903386E+03  0.74650534149E+03  0.00000000000E+00 0. -1.
<scales pt_clust_3="89.65523" pt_clust_4="54.61822" pt_clust_5="39.57520" pt_clust_6="14000.00000"></scales>
<clustering>
<clus scale="   39.575">  2  5  1 -1</clus>
<clus scale="   54.618">  2  4  1 -1</clus>
<clus scale="   89.655">  1  3  2 -1</clus>
<clus scale="   89.655">  1  3  2 -1</clus>
</clustering>
</event>
<event>
 6    0  0.3800129E+002  0.1002482E+03  0.7546771E-02  0.1279775E+00
          2   -1    0    0  503    0 -0.00000000000E+00  0.00000000000E+00  0.14789748728E+04  0.14789748728E+04  0.00000000000E+00 0. -1.
         21   -1    0    0  504  502  0.00000000000E+00 -0.00000000000E+00 -0.13118275752E+04  0.13118275752E+04  0.00000000000E+00 0.  1.
         21    1    1    2  503  505 -0.38389681446E+01  0.33811528600E+02  0.12528627795E+03  0.12982530025E+03  0.00000000000E+00 0.  1.
         21    1    1    2  504  501 -0.11500225899E+02  0.75042142199E+02 -0.15819939835E+03  0.17547258458E+03  0.00000000000E+00 0.  1.
         21    1    1    2  505  502 -0.24599875598E+02 -0.10609826268E+03 -0.11398273018E+04  0.11450188964E+04  0.00000000000E+00 0.  1.
          2    1    1    2  501    0  0.39939069642E+02 -0.27554081173E+01  0.13398877198E+04  0.13404856669E+04  0.00000000000E+00 0. -1.
<scales pt_clust_3="34.02877" pt_clust_4="14000.00000" pt_clust_5="100.24820" pt_clust_6="47.46186"></scales>
<clustering>
<clus scale="   34.029">  1  3  2 -1</clus>
<clus scale="   47.462">  1  6  2 -1</clus>
<clus scale="  100.248">  2  5  1 -1</clus>
<clus scale="  100.248">  2  3  1 -1</clus>
</clustering>
</event>
<event>
 6    0  0.3800129E+002  0.1255871E+03  0.7546771E-02  0.1234155E+00
         21   -1    0    0  505  502  0.00000000000E+00  0.00000000000E+00  0.86174758953E+03  0.86174758953E+03  0.00000000000E+00 0. -1.
          2   -1    0    0  504    0 -0.00000000000E+00 -0.00000000000E+00 -0.26539513651E+04  0.26539513651E+04  0.00000000000E+00 0.  1.
         21    1    1    2  503  502 -0.51616030461E+02 -0.58943692595E+02 -0.51522671031E+02  0.93771846135E+02  0.00000000000E+00 0. -1.
         21    1    1    2  504  503 -0.31843616105E+02 -0.82078900437E+02 -0.17917770104E+04  0.17939386324E+04  0.00000000000E+00 0.  1.
         21    1    1    2  505  501  0.63036841147E+02  0.11245489180E+03  0.83419732525E+03  0.84410006722E+03  0.00000000000E+00 0. -1.
          2    1    1    2  501    0  0.20422805420E+02  0.28567701234E+02 -0.78310141936E+03  0.78388840886E+03  0.00000000000E+00 0.  1.
<scales pt_clust_3="14000.00000" pt_clust_4="56.05532" pt_clust_5="125.58713" pt_clust_6="35.11701"></scales>
<clustering>
<clus scale="   35.117">  2  6  1 -1</clus>
<clus scale="   56.055">  2  4  1 -1</clus>
<clus scale="  125.587">  1  5  2 -1</clus>
<clus scale="  125.587">  1  3  2 -1</clus>
</clustering>
</event>
<event>
 6    0  0.3800129E+002  0.1705739E+03  0.7546771E-02  0.1177251E+00
          2   -1    0    0  504    0 -0.00000000000E+00  0.00000000000E+00  0.18462599785E+04  0.18462599785E+04  0.00000000000E+00 0.  1.
         21   -1    0    0  505  502  0.00000000000E+00 -0.00000000000E+00 -0.29413030778E+02  0.29413030778E+02  0.00000000000E+00 0.  1.
         21    1    1    2  503  501  0.10869758069E+03 -0.68591210100E+02  0.24583107790E+03  0.27740374369E+03  0.00000000000E+00 0.  1.
         21    1    1    2  504  502 -0.40040635054E+02  0.77053187024E+02  0.70308173828E+03  0.70842386803E+03  0.00000000000E+00 0.  1.
         21    1    1    2  505  503  0.61451916323E+02 -0.54811811350E+01  0.19807659446E+03  0.20746257166E+03  0.00000000000E+00 0.  1.
          2    1    1    2  501    0 -0.13010886196E+03 -0.29807957893E+01  0.66985753711E+03  0.68238282593E+03  0.00000000000E+00 0.  1.
<scales pt_clust_3="41.59140" pt_clust_4="86.83574" pt_clust_5="41.59140" pt_clust_6="159.66121"></scales>
<clustering>
<clus scale="   41.591">  3  5 -1 -1</clus>
<clus scale="   86.836">  1  4  2 -1</clus>
<clus scale="  159.661">  1  6  2 -1</clus>
<clus scale="  170.574">  2  3  1 -1</clus>
</clustering>
</event>
<event>
 6    0  0.3800129E+002  0.1217385E+03  0.7546771E-02  0.1240256E+00
         21   -1    0    0  505  502  0.00000000000E+00  0.00000000000E+00  0.20685592841E+03  0.20685592841E+03  0.00000000000E+00 0.  1.
          2   -1    0    0  504    0 -0.00000000000E+00 -0.00000000000E+00 -0.24150365085E+04  0.24150365085E+04  0.00000000000E+00 0.  1.
         21    1    1    2  503  501 -0.61558253007E+01  0.10063507880E+03 -0.64261794750E+03  0.65047916164E+03  0.00000000000E+00 0.  1.
         21    1    1    2  504  502  0.52557654594E+02  0.18281649965E+02  0.18793565301E+03  0.19600085575E+03  0.00000000000E+00 0.  1.
         21    1    1    2  505  503 -0.66186916987E+02  0.17073489445E+02 -0.13721533380E+03  0.15329794470E+03  0.00000000000E+00 0.  1.
          2    1    1    2  501    0  0.19785087694E+02 -0.13599021821E+03 -0.16162829518E+04  0.16221144749E+04  0.00000000000E+00 0.  1.
<scales pt_clust_3="121.73846" pt_clust_4="55.64644" pt_clust_5="46.42142" pt_clust_6="14000.00000"></scales>
<clustering>
<clus scale="   55.646">  1  4  2 -1</clus>
<clus scale="   46.421">  1  5  2 -1</clus>
<clus scale="  121.738">  1  3  2 -1</clus>
<clus scale="   55.646">  1  3  2 -1</clus>
</clustering>
</event>
<event>
 6    0  0.3800129E+002  0.1051520E+03  0.7546771E-02  0.1269820E+00
          2   -1    0    0  503    0 -0.00000000000E+00  0.00000000000E+00  0.94151945072E+03  0.94151945072E+03  0.00000000000E+00 0.  1.
         21   -1    0    0  504  502  0.00000000000E+00 -0.00000000000E+00 -0.69427642287E+03  0.69427642287E+03  0.00000000000E+00 0. -1.
         21    1    1    2  503  502  0.65216233500E+01 -0.31330412121E+02  0.62840268961E+02  0.70519683053E+02  0.00000000000E+00 0.  1.
         21    1    1    2  504  505  0.36899953171E+02 -0.25624480210E+02 -0.22052332434E+03  0.22505278738E+03  0.00000000000E+00 0.  1.
         21    1    1    2  505  501  0.68226404178E+02  0.36232534902E+02 -0.46072482332E+03  0.46715629251E+03  0.00000000000E+00 0. -1.
          2    1    1    2  501    0 -0.11164798070E+03  0.20722357429E+02  0.86565090654E+03  0.87306711064E+03  0.00000000000E+00 0.  1.
<scales pt_clust_3="32.00197" pt_clust_4="44.98477" pt_clust_5="14000.00000" pt_clust_6="105.15204"></scales>
<clustering>
<clus scale="   32.002">  1  3  2 -1</clus>
<clus scale="   44.985">  2  4  1 -1</clus>
<clus scale="  105.152">  1  6  2 -1</clus>
<clus scale="   44.985">  2  3  1 -1</clus>
</clustering>
</event>
<event>
 6    0  0.3800129E+002  0.1559932E+03  0.7546771E-02  0.1193296E+00
          1   -1    0    0  503    0 -0.00000000000E+00  0.00000000000E+00  0.85472558788E+03  0.85472558788E+03  0.00000000000E+00 0.  1.
         21   -1    0    0  501  502  0.00000000000E+00 -0.00000000000E+00 -0.81204479282E+02  0.81204479282E+02  0.00000000000E+00 0. -1.
         21    1    1    2  503  505 -0.21821726021E+02 -0.28037265183E+02  0.19069353658E+03  0.19397500060E+03  0.00000000000E+00 0.  1.
         21    1    1    2  504  502 -0.10992290685E+03  0.28791648187E+02 -0.64566197786E+01  0.11381428906E+03  0.00000000000E+00 0. -1.
         21    1    1    2  505  504 -0.31469821866E+02 -0.73831778247E+01  0.25507108608E+02  0.41176128917E+02  0.00000000000E+00 0. -1.
          1    1    1    2  501    0  0.16321445474E+03  0.66287948205E+01  0.56377708319E+03  0.58696464859E+03  0.00000000000E+00 0.  1.
<scales pt_clust_3="35.52852" pt_clust_4="30.21295" pt_clust_5="30.21295" pt_clust_6="145.34438"></scales>
<clustering>
<clus scale="   30.213">  4  5 -1 -1</clus>
<clus scale="   35.529">  1  3  2 -1</clus>
<clus scale="  145.344">  1  6  2 -1</clus>
<clus scale="  155.993">  2  3  1 -1</clus>
</clustering>
</event>
<event>
 6    0  0.3800129E+002  0.1764634E+03  0.7546771E-02  0.1171270E+00
         21   -1    0    0  505  502  0.00000000000E+00  0.00000000000E+00  0.14478025044E+03  0.14478025044E+03  0.00000000000E+00 0. -1.
          2   -1    0    0  504    0 -0.00000000000E+00 -0.00000000000E+00 -0.25392396300E+04  0.25392396300E+04  0.00000000000E+00 0.  1.
         21    1    1    2  503  501 -0.19553673636E+02  0.41516331540E+02  0.32155017244E+02  0.56034784475E+02  0.00000000000E+00 0. -1.
         21    1    1    2  504  502  0.54713960203E+02 -0.48401567017E+02 -0.93592086172E+03  0.93876737722E+03  0.00000000000E+00 0.  1.
         21    1    1    2  505  503  0.23532647996E+02  0.12880042529E+03  0.51795661157E+02  0.14080527544E+03  0.00000000000E+00 0. -1.
          2    1    1    2  501    0 -0.58692934563E+02 -0.12191518981E+03 -0.15424891963E+04  0.15484124433E+04  0.00000000000E+00 0.  1.
<scales pt_clust_3="30.61772" pt_clust_4="73.05018" pt_clust_5="30.61772" pt_clust_6="168.71471"></scales>
<clustering>
<clus scale="   30.618">  3  5 -1 -1</clus>
<clus scale="   73.050">  2  4  1 -1</clus>
<clus scale="  168.715">  2  6  1 -1</clus>
<clus scale="  176.463">  1  3  2 -1</clus>
</clustering>
</event>
<event>
 6    0  0.3800129E+002  0.1469047E+03  0.7546771E-02  0.1204329E+00
          1   -1    0    0  505    0 -0.00000000000E+00  0.00000000000E+00  0.25984979897E+04  0.25984979897E+04  0.00000000000E+00 0.  1.
         21   -1    0    0  503  502  0.00000000000E+00 -0.00000000000E+00 -0.88434261916E+02  0.88434261916E+02  0.00000000000E+00 0. -1.
         21    1    1    2  503  504 -0.13311185062E+02 -0.75164861296E+02 -0.59634006118E+02  0.96866705875E+02  0.00000000000E+00 0. -1.
         21    1    1    2  504  501  0.14855005579E+02  0.62991075142E+02  0.68257535856E+03  0.68563668721E+03  0.00000000000E+00 0. -1.
         21    1    1    2  505  502 -0.11963461063E+02 -0.57638572122E+02  0.10093190352E+03  0.11684424909E+03  0.00000000000E+00 0.  1.
          1    1    1    2  501    0  0.10419640545E+02  0.69812358277E+02  0.17861904718E+04  0.17875846095E+04  0.00000000000E+00 0.  1.
<scales pt_clust_3="133.55784" pt_clust_4="58.58478" pt_clust_5="58.86705" pt_clust_6="58.58478"></scales>
<clustering>
<clus scale="   58.585">  4  6 -1 -1</clus>
<clus scale="   58.867">  2  5  1 -1</clus>
<clus scale="  133.558">  2  3  1 -1</clus>
<clus scale="   58.867">  2  3  1 -1</clus>
</clustering>
</event>
<event>
 6    0  0.3800129E+002  0.9875596E+02  0.7546771E-02  0.1282934E+00
         -2   -1    0    0    0  501 -0.00000000000E+00  0.00000000000E+00  0.38275367435E+03  0.38275367435E+03  0.00000000000E+00 0.  1.
         21   -1    0    0  504  502  0.00000000000E+00 -0.00000000000E+00 -0.55470491585E+03  0.55470491585E+03  0.00000000000E+00 0. -1.
         21    1    1    2  503  505  0.62790257385E+02 -0.36966408596E+02  0.11001525154E+02  0.73689655601E+02  0.00000000000E+00 0.  1.
         21    1    1    2  504  501 -0.52409399651E+02  0.49678585916E+02 -0.51626415020E+02  0.88769329153E+02  0.00000000000E+00 0. -1.
         21    1    1    2  505  502  0.84488492051E+02 -0.60367226834E+02 -0.43817139900E+03  0.45030731980E+03  0.00000000000E+00 0. -1.
         -2    1    1    2    0  503 -0.94869349785E+02  0.47655049514E+02  0.30684504736E+03  0.32469228565E+03  0.00000000000E+00 0.  1.
<scales pt_clust_3="98.75596" pt_clust_4="72.21293" pt_clust_5="39.33264" pt_clust_6="14000.00000"></scales>
<clustering>
<clus scale="   72.213">  2  4  1 -1</clus>
<clus scale="   39.333">  2  5  1 -1</clus>
<clus scale="   98.756">  2  3  1 -1</clus>
<clus scale="   72.213">  2  3  1 -1</clus>
</clustering>
</event>
<event>
 6    0  0.3800129E+002  0.2336666E+03  0.7546771E-02  0.1124085E+00
         21   -1    0    0  501  502  0.00000000000E+00  0.00000000000E+00  0.22553090372E+03  0.22553090372E+03  0.00000000000E+00 0.  1.
          2   -1    0    0  505    0 -0.00000000000E+00 -0.00000000000E+00 -0.36688736156E+04  0.36688736156E+04  0.00000000000E+00 0. -1.
         21    1    1    2  503  502  0.18228391275E+02 -0.58746334082E+02  0.42038991763E+02  0.74502904944E+02  0.00000000000E+00 0.  1.
         21    1    1    2  504  503  0.12660665445E+03 -0.11558593855E+03  0.11295457466E+03  0.20530000019E+03  0.00000000000E+00 0.  1.
         21    1    1    2  505  504  0.68927317732E+02  0.18135620328E+02 -0.10913360440E+04  0.10936609332E+04  0.00000000000E+00 0.  1.
          2    1    1    2  501    0 -0.21376236346E+03  0.15619665231E+03 -0.25070002343E+04  0.25209406810E+04  0.00000000000E+00 0. -1.
<scales pt_clust_3="32.24423" pt_clust_4="32.24423" pt_clust_5="71.27325" pt_clust_6="227.38155"></scales>
<clustering>
<clus scale="   32.244">  3  4 -1 -1</clus>
<clus scale="   71.273">  2  5  1 -1</clus>
<clus scale="  227.382">  2  6  1 -1</clus>
<clus scale="  233.667">  1  3  2 -1</clus>
</clustering>
</event>
<event>
 6    0  0.3800129E+002  0.3815669E+03  0.7546771E-02  0.1050356E+00
          1   -1    0    0  503    0 -0.00000000000E+00  0.00000000000E+00  0.11016680114E+04  0.11016680114E+04  0.00000000000E+00 0.  1.
         21   -1    0    0  504  502  0.00000000000E+00 -0.00000000000E+00 -0.55912186194E+03  0.55912186194E+03  0.00000000000E+00 0.  1.
         21    1    1    2  503  505 -0.12505299260E+01 -0.36892452162E+02  0.55086892902E+02  0.66311255615E+02  0.00000000000E+00 0.  1.
         21    1    1    2  504  501  0.43157047930E+02 -0.59107061562E+02 -0.15972354100E+03  0.17569230223E+03  0.00000000000E+00 0.  1.
         21    1    1    2  505  502  0.30388994510E+03  0.22547863537E+03 -0.24664779274E+03  0.45169109733E+03  0.00000000000E+00 0.  1.
          1    1    1    2  501    0 -0.34579646311E+03 -0.12947912164E+03  0.89383059030E+03  0.96709521816E+03  0.00000000000E+00 0.  1.
<scales pt_clust_3="36.91364" pt_clust_4="73.40898" pt_clust_5="381.56693" pt_clust_6="14000.00000"></scales>
<clustering>
<clus scale="   36.914">  1  3  2 -1</clus>
<clus scale="   73.409">  2  4  1 -1</clus>
<clus scale="  381.567">  2  5  1 -1</clus>
<clus scale="   73.409">  2  3  1 -1</clus>
</clustering>
</event>
<event>
 6    0  0.3800129E+002  0.6743135E+02  0.7546771E-02  0.1369052E+00
          1   -1    0    0  505    0 -0.00000000000E+00  0.00000000000E+00  0.11117941613E+04  0.11117941613E+04  0.00000000000E+00 0. -1.
         21   -1    0    0  503  502  0.00000000000E+00 -0.00000000000E+00 -0.31718864420E+03  0.31718864420E+03  0.00000000000E+00 0.  1.
         21    1    1    2  503  501 -0.35393351728E+01 -0.35383545022E+02 -0.14392800537E+03  0.14825583591E+03  0.00000000000E+00 0.  1.
         21    1    1    2  504  502  0.22015874177E+02  0.99336066710E+02 -0.15209993434E+03  0.18299383293E+03  0.00000000000E+00 0.  1.
         21    1    1    2  505  504 -0.30699980073E+02  0.20619899283E+02  0.24216790377E+03  0.24497543272E+03  0.00000000000E+00 0. -1.
          1    1    1    2  501    0  0.12223441069E+02 -0.84572420971E+02  0.84846555300E+03  0.85275770388E+03  0.00000000000E+00 0. -1.
<scales pt_clust_3="35.56012" pt_clust_4="67.43135" pt_clust_5="36.84515" pt_clust_6="14000.00000"></scales>
<clustering>
<clus scale="   35.560">  2  3  1 -1</clus>
<clus scale="   36.845">  1  5  2 -1</clus>
<clus scale="   67.431">  2  4  1 -1</clus>
<clus scale="   35.560">  2  3  1 -1</clus>
</clustering>
</event>
<event>
 6    0  0.3800129E+002  0.1486310E+03  0.7546771E-02  0.1202165E+00
         21   -1    0    0  504  502  0.00000000000E+00  0.00000000000E+00  0.78525764370E+02  0.78525764370E+02  0.00000000000E+00 0. -1.
          1   -1    0    0  505    0 -0.00000000000E+00 -0.00000000000E+00 -0.12558282846E+04  0.12558282846E+04  0.00000000000E+00 0. -1.
         21    1    1    2  503  502 -0.71391244413E+02 -0.71506790970E+02 -0.16964109925E+03  0.19745387687E+03  0.00000000000E+00 0. -1.
         21    1    1    2  504  501  0.52304358978E+02 -0.34298866689E+02  0.26826835517E+02  0.68057603015E+02  0.00000000000E+00 0. -1.
         21    1    1    2  505  503 -0.35116740135E+02 -0.24709008839E+02 -0.25363509403E+02  0.49870112942E+02  0.00000000000E+00 0.  1.
          1    1    1    2  501    0  0.54203625571E+02  0.13051466650E+03 -0.10091247471E+04  0.10189724561E+04  0.00000000000E+00 0. -1.
<scales pt_clust_3="32.85975" pt_clust_4="62.54725" pt_clust_5="32.85975" pt_clust_6="139.82222"></scales>
<clustering>
<clus scale="   32.860">  3  5 -1 -1</clus>
<clus scale="   62.547">  1  4  2 -1</clus>
<clus scale="  139.822">  2  6  1 -1</clus>
<clus scale="   62.547">  1  3  2 -1</clus>
</clustering>
</event>
<event>
 6    0  0.3800129E+002  0.2181935E+03  0.7546771E-02  0.1135237E+00
         -1   -1    0    0    0  501 -0.00000000000E+00  0.00000000000E+00  0.42817581575E+03  0.42817581575E+03  0.00000000000E+00 0.  1.
         21   -1    0    0  504  502  0.00000000000E+00 -0.00000000000E+00 -0.79010121565E+03  0.79010121565E+03  0.00000000000E+00 0.  1.
         21    1    1    2  503  501 -0.63332402799E+02 -0.47071549149E+02  0.71676535795E+02  0.10660323526E+03  0.00000000000E+00 0.  1.
         21    1    1    2  504  503 -0.31124231664E+02 -0.29103485491E+01 -0.41650474481E+02  0.52076385722E+02  0.00000000000E+00 0.  1.
         21    1    1    2  505  502 -0.97390362161E+02 -0.17010785878E+03 -0.64444475990E+03  0.67359529009E+03  0.00000000000E+00 0.  1.
         -1    1    1    2    0  505  0.19184699662E+03  0.22008975648E+03  0.25249329868E+03  0.38600212033E+03  0.00000000000E+00 0.  1.
<scales pt_clust_3="79.53824" pt_clust_4="31.26001" pt_clust_5="14000.00000" pt_clust_6="218.19349"></scales>
<clustering>
<clus scale="   31.260">  2  4  1 -1</clus>
<clus scale="   79.538">  1  3  2 -1</clus>
<clus scale="  218.193">  1  6  2 -1</clus>
<clus scale="   31.260">  2  3  1 -1</clus>
</clustering>
</event>
<event>
 6    0  0.3800129E+002  0.9438081E+02  0.7546771E-02  0.1292577E+00
         21   -1    0    0  504  502  0.00000000000E+00  0.00000000000E+00  0.62583570474E+02  0.62583570474E+02  0.00000000000E+00 0. -1.
         -2   -1    0    0    0  501 -0.00000000000E+00 -0.00000000000E+00 -0.11311833695E+04  0.11311833695E+04  0.00000000000E+00 0.  1.
         21    1    1    2  503  502 -0.23452108170E+02  0.73745329220E+02 -0.21042479876E+02  0.80194519256E+02  0.00000000000E+00 0.  1.
         21    1    1    2  504  505 -0.33849527000E+02  0.99223398920E+01  0.98172555342E+01  0.36614502773E+02  0.00000000000E+00 0. -1.
         21    1    1    2  505  501  0.76727150307E+02  0.33978698259E+02 -0.37841727884E+03  0.38760965475E+03  0.00000000000E+00 0. -1.
         -2    1    1    2    0  503 -0.19425515136E+02 -0.11764636737E+03 -0.67895729587E+03  0.68934826322E+03  0.00000000000E+00 0.  1.
<scales pt_clust_3="14000.00000" pt_clust_4="35.27383" pt_clust_5="80.81367" pt_clust_6="94.38081"></scales>
<clustering>
<clus scale="   35.274">  1  4  2 -1</clus>
<clus scale="   80.814">  2  5  1 -1</clus>
<clus scale="   94.381">  2  6  1 -1</clus>
<clus scale="   35.274">  1  3  2 -1</clus>
</clustering>
</event>
<event>
 6    0  0.3800129E+002  0.1323515E+03  0.7546771E-02  0.1224008E+00
          1   -1    0    0  504    0 -0.00000000000E+00  0.00000000000E+00  0.33398668343E+03  0.33398668343E+03  0.00000000000E+00 0. -1.
         21   -1    0    0  501  502  0.00000000000E+00 -0.00000000000E+00 -0.12766879596E+03  0.12766879596E+03  0.00000000000E+00 0. -1.
         21    1    1    2  503  505  0.17316110327E+02  0.37371123475E+02 -0.35702179265E+02  0.54507743954E+02  0.00000000000E+00 0. -1.
         21    1    1    2  504  503 -0.35094536308E+02 -0.19009685364E+02  0.17238435253E+03  0.17694450998E+03  0.00000000000E+00 0. -1.
         21    1    1    2  505  502  0.92071545615E+02  0.32330611655E+02 -0.23873338552E+02  0.10046080955E+03  0.00000000000E+00 0. -1.
          1    1    1    2  501    0 -0.74293119635E+02 -0.50692049766E+02  0.93509052768E+02  0.12974241590E+03  0.00000000000E+00 0. -1.
<scales pt_clust_3="39.20751" pt_clust_4="39.91234" pt_clust_5="39.20751" pt_clust_6="117.79178"></scales>
<clustering>
<clus scale="   39.208">  3  5 -1 -1</clus>
<clus scale="   39.912">  1  4  2 -1</clus>
<clus scale="  117.792">  1  6  2 -1</clus>
<clus scale="  132.352">  2  3  1 -1</clus>
</clustering>
</event>
<event>
 6    0  0.3800129E+002  0.1018020E+03  0.7546771E-02  0.1276552E+00
          2   -1    0    0  505    0 -0.00000000000E+00  0.00000000000E+00  0.13777514351E+04  0.13777514351E+04  0.00000000000E+00 0.  1.
         21   -1    0    0  504  502  0.00000000000E+00 -0.00000000000E+00 -0.32497734551E+02  0.32497734551E+02  0.00000000000E+00 0.  1.
         21    1    1    2  503  502  0.75638574058E+01  0.45760496107E+02  0.18812132616E+02  0.50051286460E+02  0.00000000000E+00 0.  1.
         21    1    1    2  504  501 -0.23334767564E+02 -0.50348880616E+02  0.10016882024E+03  0.11451337784E+03  0.00000000000E+00 0.  1.
         21    1    1    2  505  503 -0.59996523102E+02 -0.76865110289E+02  0.76488543004E+03  0.77107557934E+03  0.00000000000E+00 0.  1.
          2    1    1    2  501    0  0.75767433260E+02  0.81453494799E+02  0.46138731762E+03  0.47460892598E+03  0.00000000000E+00 0.  1.
<scales pt_clust_3="46.38141" pt_clust_4="36.87608" pt_clust_5="14000.00000" pt_clust_6="101.80204"></scales>
<clustering>
<clus scale="   46.381">  2  3  1 -1</clus>
<clus scale="   36.876">  2  4  1 -1</clus>
<clus scale="  101.802">  2  6  1 -1</clus>
<clus scale="   46.381">  2  3  1 -1</clus>
</clustering>
</event>
<event>
 6    0  0.3800129E+002  0.1386979E+03  0.7546771E-02  0.1215092E+00
         -2   -1    0    0    0  501 -0.00000000000E+00  0.00000000000E+00  0.15131848567E+03  0.15131848567E+03  0.00000000000E+00 0. -1.
         21   -1    0    0  504  502  0.00000000000E+00 -0.00000000000E+00 -0.30465573930E+03  0.30465573930E+03  0.00000000000E+00 0. -1.
         21    1    1    2  503  505  0.13004184541E+02  0.39354142630E+02 -0.65231882896E+02  0.77285547833E+02  0.00000000000E+00 0. -1.
         21    1    1    2  504  503 -0.47471178136E+02  0.76341743552E+02 -0.11366808400E+03  0.14492069515E+03  0.00000000000E+00 0. -1.
         21    1    1    2  505  501  0.43197840645E+02  0.45367964313E+02  0.35783710561E+02  0.72144158210E+02  0.00000000000E+00 0.  1.
         -2    1    1    2    0  502 -0.87308470498E+01 -0.16106385049E+03 -0.10220997303E+02  0.16162382378E+03  0.00000000000E+00 0. -1.
<scales pt_clust_3="35.90969" pt_clust_4="35.90969" pt_clust_5="62.64428" pt_clust_6="128.21934"></scales>
<clustering>
<clus scale="   35.910">  3  4 -1 -1</clus>
<clus scale="   62.644">  1  5  2 -1</clus>
<clus scale="  128.219">  1  6  2 -1</clus>
<clus scale="  138.698">  2  3  1 -1</clus>
</clustering>
</event>
<event>
 6    0  0.3800129E+002  0.8355317E+02  0.7546771E-02  0.1319260E+00
         21   -1    0    0  501  502  0.00000000000E+00  0.00000000000E+00  0.43285826372E+02  0.43285826372E+02  0.00000000000E+00 0. -1.
          2   -1    0    0  503    0 -0.00000000000E+00 -0.00000000000E+00 -0.64825181146E+03  0.64825181146E+03  0.00000000000E+00 0. -1.
         21    1    1    2  503  504  0.42883400930E+02  0.15016021888E+02 -0.94724412463E+02  0.10505799020E+03  0.00000000000E+00 0. -1.
         21    1    1    2  504  505 -0.13854529124E+02 -0.61711151718E+02 -0.18516367707E+03  0.19566757914E+03  0.00000000000E+00 0. -1.
         21    1    1    2  505  502  0.55190958152E+02 -0.47950920710E+02 -0.51821893388E+02  0.89614961323E+02  0.00000000000E+00 0. -1.
          2    1    1    2  501    0 -0.84219829958E+02  0.94646050539E+02 -0.27325600217E+03  0.30119710716E+03  0.00000000000E+00 0. -1.
<scales pt_clust_3="45.43641" pt_clust_4="56.50642" pt_clust_5="14000.00000" pt_clust_6="83.55317"></scales>
<clustering>
<clus scale="   45.436">  2  3  1 -1</clus>
<clus scale="   56.506">  2  4  1 -1</clus>
<clus scale="   83.553">  2  6  1 -1</clus>
<clus scale="   83.553">  1  3  2 -1</clus>
</clustering>
</event>
<event>
 6    0  0.3800129E+002  0.6216661E+02  0.7546771E-02  0.1388958E+00
          2   -1    0    0  504    0 -0.00000000000E+00  0.00000000000E+00  0.11842541364E+04  0.11842541364E+04  0.00000000000E+00 0.  1.
         21   -1    0    0  503  502  0.00000000000E+00 -0.00000000000E+00 -0.14493921610E+04  0.14493921610E+04  0.00000000000E+00 0.  1.
         21    1    1    2  503  501  0.69648082271E+02  0.72523485901E+02 -0.10952172823E+03  0.14867925318E+03  0.00000000000E+00 0.  1.
         21    1    1    2  504  505  0.39161848605E+02 -0.14316502506E+02  0.49795428849E+02  0.64947650954E+02  0.00000000000E+00 0. -1.
         21    1    1    2  505  502 -0.27672383301E+02 -0.54279226522E+02 -0.13105170531E+04  0.13119325218E+04  0.00000000000E+00 0.  1.
          2    1    1    2  501    0 -0.81137547575E+02 -0.39277568736E+01  0.11051053280E+04  0.11080868715E+04  0.00000000000E+00 0.  1.
<scales pt_clust_3="14000.00000" pt_clust_4="41.69667" pt_clust_5="62.16661" pt_clust_6="46.31585"></scales>
<clustering>
<clus scale="   41.697">  1  4  2 -1</clus>
<clus scale="   46.316">  1  6  2 -1</clus>
<clus scale="   62.167">  2  5  1 -1</clus>
<clus scale="   62.167">  2  3  1 -1</clus>
</clustering>
</event>
<event>
 6    0  0.3800129E+002  0.4023926E+03  0.7546771E-02  0.1042954E+00
          2   -1    0    0  504    0 -0.00000000000E+00  0.00000000000E+00  0.13488403533E+04  0.13488403533E+04  0.00000000000E+00 0. -1.
         21   -1    0    0  501  502  0.00000000000E+00 -0.00000000000E+00 -0.20769009427E+03  0.20769009427E+03  0.00000000000E+00 0. -1.
         21    1    1    2  503  502 -0.22791573050E+03 -0.15955162531E+03  0.90677394387E+03  0.94849422067E+03  0.00000000000E+00 0. -1.
         21    1    1    2  504  505 -0.34586563499E+02  0.23671438845E+02  0.67064203565E+02  0.79083340796E+02  0.00000000000E+00 0. -1.
         21    1    1    2  505  503 -0.70081060737E+02 -0.12659620241E+02  0.14794325604E+03  0.16419143725E+03  0.00000000000E+00 0. -1.
          2    1    1    2  501    0  0.33258335473E+03  0.14853980671E+03  0.19368855573E+02  0.36476144888E+03  0.00000000000E+00 0. -1.
<scales pt_clust_3="89.02320" pt_clust_4="33.24364" pt_clust_5="89.02320" pt_clust_6="364.24684"></scales>
<clustering>
<clus scale="   33.244">  4  5 -1 -1</clus>
<clus scale="   89.023">  3  4 -1 -1</clus>
<clus scale="  364.247">  2  6  1 -1</clus>
<clus scale="  364.247">  2  3  1 -1</clus>
</clustering>
</event>
<event>
 6    0  0.3800129E+002  0.9394890E+02  0.7546771E-02  0.1293561E+00
          1   -1    0    0  505    0 -0.00000000000E+00  0.00000000000E+00  0.20755479270E+04  0.20755479270E+04  0.00000000000E+00 0.  1.
         21   -1    0    0  504  502  0.00000000000E+00 -0.00000000000E+00 -0.16328350152E+03  0.16328350152E+03  0.00000000000E+00 0.  1.
         21    1    1    2  503  501  0.61548468869E+02 -0.16391022103E+02  0.87934112188E+03  0.88164487650E+03  0.00000000000E+00 0.  1.
         21    1    1    2  504  503  0.31318264843E+02  0.15851907478E+02  0.18449750558E+02  0.39654885943E+02  0.00000000000E+00 0.  1.
         21    1    1    2  505  502 -0.12647630228E+03 -0.11103590102E+02 -0.12460783452E+03  0.17789507350E+03  0.00000000000E+00 0.  1.
          1    1    1    2  501    0  0.33609568569E+02  0.11642704727E+02  0.11390813876E+04  0.11396365926E+04  0.00000000000E+00 0.  1.
<scales pt_clust_3="14000.00000" pt_clust_4="35.10152" pt_clust_5="93.94890" pt_clust_6="35.63227"></scales>
<clustering>
<clus scale="   35.102">  2  4  1 -1</clus>
<clus scale="   35.632">  1  6  2 -1</clus>
<clus scale="   93.949">  2  5  1 -1</clus>
<clus scale="   35.102">  2  3  1 -1</clus>
</clustering>
</event>
<event>
 6    0  0.3800129E+002  0.1773232E+03  0.7546771E-02  0.1170419E+00
          2   -1    0    0  505    0 -0.00000000000E+00  0.00000000000E+00  0.23749556332E+04  0.23749556332E+04  0.00000000000E+00 0.  1.
         21   -1    0    0  503  502  0.00000000000E+00 -0.00000000000E+00 -0.69324450934E+02  0.69324450934E+02  0.00000000000E+00 0. -1.
         21    1    1    2  503  504  0.35655365846E+02  0.77613514772E+02  0.15060236428E+02  0.86729311712E+02  0.00000000000E+00 0. -1.
         21    1    1    2  504  501  0.58983077854E+02  0.19032734056E+02  0.10079968682E+02  0.62792150842E+02  0.00000000000E+00 0.  1.
         21    1    1    2  505  502  0.41542365884E+02  0.37139850025E+01  0.10930057438E+03  0.11698793702E+03  0.00000000000E+00 0.  1.
          2    1    1    2  501    0 -0.13618080958E+03 -0.10036023383E+03  0.21711904028E+04  0.21777706846E+04  0.00000000000E+00 0.  1.
<scales pt_clust_3="52.17729" pt_clust_4="52.17729" pt_clust_5="41.70805" pt_clust_6="167.37925"></scales>
<clustering>
<clus scale="   41.708">  2  5  1 -1</clus>
<clus scale="   52.177">  3  4 -1 -1</clus>
<clus scale="  167.379">  1  6  2 -1</clus>
<clus scale="   41.708">  2  3  1 -1</clus>
</clustering>
</event>
<event>
 6    0  0.3800129E+002  0.1932944E+03  0.7546771E-02  0.1155523E+00
          2   -1    0    0  505    0 -0.00000000000E+00  0.00000000000E+00  0.18750250306E+04  0.18750250306E+04  0.00000000000E+00 0.  1.
         21   -1    0    0  504  502  0.00000000000E+00 -0.00000000000E+00 -0.81420707638E+03  0.81420707638E+03  0.00000000000E+00 0.  1.
         21    1    1    2  503  501  0.32990283692E+02  0.92962121542E+02 -0.31918735612E+03  0.33408215033E+03  0.00000000000E+00 0.  1.
         21    1    1    2  504  503 -0.27777191238E+02  0.83886703981E+02 -0.44314126673E+03  0.45186583599E+03  0.00000000000E+00 0.  1.
         21    1    1    2  505  502 -0.52410209805E+02  0.12008615304E+03  0.12427151340E+04  0.12496033044E+04  0.00000000000E+00 0.  1.
          2    1    1    2  501    0  0.47197117352E+02 -0.29693497857E+03  0.58043144311E+03  0.65368081625E+03  0.00000000000E+00 0.  1.
<scales pt_clust_3="68.68740" pt_clust_4="68.68740" pt_clust_5="131.02486" pt_clust_6="179.15388"></scales>
<clustering>
<clus scale="   68.687">  3  4 -1 -1</clus>
<clus scale="  131.025">  1  5  2 -1</clus>
<clus scale="  179.154">  1  6  2 -1</clus>
<clus scale="  193.294">  2  3  1 -1</clus>
</clustering>
</event>
<event>
 6    0  0.3800129E+002  0.1898769E+03  0.7546771E-02  0.1158572E+00
          2   -1    0    0  505    0 -0.00000000000E+00  0.00000000000E+00  0.88765038973E+03  0.88765038973E+03  0.00000000000E+00 0. -1.
         21   -1    0    0  503  502  0.00000000000E+00 -0.00000000000E+00 -0.42752222673E+03  0.42752222673E+03  0.00000000000E+00 0. -1.
         21    1    1    2  503  501  0.15766763289E+03  0.72332113359E+02 -0.30538880176E+03  0.35121693770E+03  0.00000000000E+00 0. -1.
         21    1    1    2  504  502  0.32915155603E+01  0.31546430816E+02 -0.83174098408E+02  0.89016526656E+02  0.00000000000E+00 0.  1.
         21    1    1    2  505  504 -0.34536715346E+02  0.15235953613E+02  0.19123069909E+03  0.19492075124E+03  0.00000000000E+00 0.  1.
          2    1    1    2  501    0 -0.12642243310E+03 -0.11911449779E+03  0.65746036409E+03  0.68001840087E+03  0.00000000000E+00 0. -1.
<scales pt_clust_3="189.87690" pt_clust_4="31.71768" pt_clust_5="37.80098" pt_clust_6="14000.00000"></scales>
<clustering>
<clus scale="   31.718">  2  4  1 -1</clus>
<clus scale="   37.801">  1  5  2 -1</clus>
<clus scale="  189.877">  2  3  1 -1</clus>
<clus scale="   31.718">  2  3  1 -1</clus>
</clustering>
</event>
<event>
 6    0  0.3800129E+002  0.1787053E+03  0.7546771E-02  0.1169062E+00
          3   -1    0    0  503    0 -0.00000000000E+00  0.00000000000E+00  0.86025898349E+02  0.86025898349E+02  0.00000000000E+00 0. -1.
         21   -1    0    0  504  502  0.00000000000E+00 -0.00000000000E+00 -0.16718929297E+04  0.16718929297E+04  0.00000000000E+00 0. -1.
         21    1    1    2  503  502 -0.33860898365E+02 -0.36670924641E+02  0.43747981525E+02  0.66371703606E+02  0.00000000000E+00 0. -1.
         21    1    1    2  504  505 -0.35407147831E+02  0.77979579039E+01 -0.20115931449E+03  0.20440045028E+03  0.00000000000E+00 0.  1.
         21    1    1    2  505  501  0.36010094479E+02  0.18321494708E+03 -0.11660445404E+04  0.11808997900E+04  0.00000000000E+00 0. -1.
          3    1    1    2  501    0  0.33257951716E+02 -0.15434198034E+03 -0.26241115793E+03  0.30624688416E+03  0.00000000000E+00 0. -1.
<scales pt_clust_3="50.05451" pt_clust_4="36.25568" pt_clust_5="14000.00000" pt_clust_6="178.70533"></scales>
<clustering>
<clus scale="   36.256">  2  4  1 -1</clus>
<clus scale="   50.055">  1  3  2 -1</clus>
<clus scale="  178.705">  1  6  2 -1</clus>
<clus scale="   36.256">  2  3  1 -1</clus>
</clustering>
</event>
<event>
 6    0  0.3800129E+002  0.1077798E+03  0.7546771E-02  0.1264737E+00
          2   -1    0    0  505    0 -0.00000000000E+00  0.00000000000E+00  0.55886938641E+03  0.55886938641E+03  0.00000000000E+00 0.  1.
         21   -1    0    0  501  502  0.00000000000E+00 -0.00000000000E+00 -0.41275571986E+03  0.41275571986E+03  0.00000000000E+00 0. -1.
         21    1    1    2  503  504  0.54575707623E+02 -0.97540783083E+02  0.44628887492E+02  0.12035135988E+03  0.00000000000E+00 0.  1.
         21    1    1    2  504  502 -0.10371301177E+03  0.36524373390E+02 -0.35498550190E+03  0.37162497927E+03  0.00000000000E+00 0. -1.
         21    1    1    2  505  503 -0.33454984699E+02 -0.34089262218E+01  0.19671356657E+03  0.19956724193E+03  0.00000000000E+00 0. -1.
          2    1    1    2  501    0  0.82592288849E+02  0.64425335914E+02  0.25975671438E+03  0.28008152518E+03  0.00000000000E+00 0.  1.
<scales pt_clust_3="14000.00000" pt_clust_4="107.77984" pt_clust_5="33.62821" pt_clust_6="84.50758"></scales>
<clustering>
<clus scale="   33.628">  1  5  2 -1</clus>
<clus scale="   84.508">  1  6  2 -1</clus>
<clus scale="  107.780">  2  4  1 -1</clus>
<clus scale="  107.780">  2  3  1 -1</clus>
</clustering>
</event>
<event>
 6    0  0.3800129E+002  0.3047490E+03  0.7546771E-02  0.1082890E+00
         21   -1    0    0  505  502  0.00000000000E+00  0.00000000000E+00  0.22226532490E+03  0.22226532490E+03  0.00000000000E+00 0. -1.
          2   -1    0    0  503    0 -0.00000000000E+00 -0.00000000000E+00 -0.16973859180E+04  0.16973859180E+04  0.00000000000E+00 0. -1.
         21    1    1    2  503  502 -0.22682760283E+02 -0.47734765177E+02 -0.55280652426E+03  0.55532708261E+03  0.00000000000E+00 0. -1.
         21    1    1    2  504  501  0.24491954313E+03 -0.12980819128E+03  0.71981680153E+02  0.28638629752E+03  0.00000000000E+00 0. -1.
         21    1    1    2  505  504  0.31873047111E+01 -0.52103233021E+02 -0.27515997916E+02  0.59008778532E+02  0.00000000000E+00 0.  1.
          2    1    1    2  501    0 -0.22542408755E+03  0.22964618948E+03 -0.96677975104E+03  0.10189290842E+04  0.00000000000E+00 0. -1.
<scales pt_clust_3="53.12899" pt_clust_4="304.74897" pt_clust_5="52.20063" pt_clust_6="14000.00000"></scales>
<clustering>
<clus scale="   52.201">  1  5  2 -1</clus>
<clus scale="   53.129">  2  3  1 -1</clus>
<clus scale="  304.749">  1  4  2 -1</clus>
<clus scale="   52.201">  1  3  2 -1</clus>
</clustering>
</event>
<event>
 6    0  0.3800129E+002  0.9951388E+02  0.7546771E-02  0.1281322E+00
         -2   -1    0    0    0  501 -0.00000000000E+00  0.00000000000E+00  0.23261889390E+03  0.23261889390E+03  0.00000000000E+00 0. -1.
         21   -1    0    0  503  502  0.00000000000E+00 -0.00000000000E+00 -0.61382582562E+03  0.61382582562E+03  0.00000000000E+00 0.  1.
         21    1    1    2  503  505  0.71442616413E+02 -0.25964523911E+02 -0.52719629642E+03  0.53264823186E+03  0.00000000000E+00 0.  1.
         21    1    1    2  504  502 -0.29792579178E+02 -0.10164856205E+02 -0.29116440872E+02  0.42879939422E+02  0.00000000000E+00 0.  1.
         21    1    1    2  505  501  0.69345044566E+02 -0.26820217396E+02  0.37571955974E+02  0.83304928682E+02  0.00000000000E+00 0. -1.
         -2    1    1    2    0  504 -0.11099508180E+03  0.62949597512E+02  0.13753384959E+03  0.18761161956E+03  0.00000000000E+00 0. -1.
<scales pt_clust_3="56.49535" pt_clust_4="31.47891" pt_clust_5="14000.00000" pt_clust_6="99.51388"></scales>
<clustering>
<clus scale="   31.479">  2  4  1 -1</clus>
<clus scale="   56.495">  2  3  1 -1</clus>
<clus scale="   99.514">  2  6  1 -1</clus>
<clus scale="   31.479">  2  3  1 -1</clus>
</clustering>
</event>
<event>
 6    0  0.3800129E+002  0.1049451E+03  0.7546771E-02  0.1270228E+00
          2   -1    0    0  504    0 -0.00000000000E+00  0.00000000000E+00  0.25457005194E+04  0.25457005194E+04  0.00000000000E+00 0. -1.
         21   -1    0    0  505  502  0.00000000000E+00 -0.00000000000E+00 -0.55933895646E+03  0.55933895646E+03  0.00000000000E+00 0.  1.
         21    1    1    2  503  502 -0.22563630916E+02  0.57634701228E+02 -0.49687415542E+03  0.50071429234E+03  0.00000000000E+00 0.  1.
         21    1    1    2  504  503  0.10143479405E+03 -0.26197099904E+02  0.16450109613E+03  0.19502798803E+03  0.00000000000E+00 0.  1.
         21    1    1    2  505  501  0.35549965221E+01  0.47433279810E+02 -0.31011947137E+02  0.56782875051E+02  0.00000000000E+00 0.  1.
          2    1    1    2  501    0 -0.82426159655E+02 -0.78870881134E+02  0.23497465694E+04  0.23525143205E+04  0.00000000000E+00 0. -1.
<scales pt_clust_3="104.94514" pt_clust_4="104.52298" pt_clust_5="47.56631" pt_clust_6="14000.00000"></scales>
<clustering>
<clus scale="   47.566">  2  5  1 -1</clus>
<clus scale="  104.523">  1  4  2 -1</clus>
<clus scale="  104.945">  2  3  1 -1</clus>
<clus scale="   47.566">  2  3  1 -1</clus>
</clustering>
</event>
<event>
 6    0  0.3800129E+002  0.1771079E+03  0.7546771E-02  0.1170632E+00
         21   -1    0    0  501  502  0.00000000000E+00  0.00000000000E+00  0.52751967121E+03  0.52751967121E+03  0.00000000000E+00 0. -1.
          1   -1    0    0  503    0 -0.00000000000E+00 -0.00000000000E+00 -0.56788745533E+03  0.56788745533E+03  0.00000000000E+00 0. -1.
         21    1    1    2  503  505  0.53531148859E+02 -0.56906767191E+02 -0.91260882332E+01  0.78659071548E+02  0.00000000000E+00 0.  1.
         21    1    1    2  504  502  0.51468338692E+02 -0.18093976458E+02  0.42902846646E+03  0.43248330246E+03  0.00000000000E+00 0. -1.
         21    1    1    2  505  504  0.39248836100E+02 -0.31145131892E+02  0.32659186239E+02  0.59808969408E+02  0.00000000000E+00 0.  1.
          1    1    1    2  501    0 -0.14424832365E+03  0.10614587554E+03 -0.49292934858E+03  0.52445578314E+03  0.00000000000E+00 0. -1.
<scales pt_clust_3="38.05662" pt_clust_4="54.55623" pt_clust_5="38.05662" pt_clust_6="170.61328"></scales>
<clustering>
<clus scale="   38.057">  3  5 -1 -1</clus>
<clus scale="   54.556">  1  4  2 -1</clus>
<clus scale="  170.613">  2  6  1 -1</clus>
<clus scale="   54.556">  1  3  2 -1</clus>
</clustering>
</event>
<event>
 6    0  0.3800129E+002  0.9240428E+02  0.7546771E-02  0.1297132E+00
          2   -1    0    0  503    0 -0.00000000000E+00  0.00000000000E+00  0.12986267548E+04  0.12986267548E+04  0.00000000000E+00 0.  1.
         21   -1    0    0  504  502  0.00000000000E+00 -0.00000000000E+00 -0.72376116179E+02  0.72376116179E+02  0.00000000000E+00 0.  1.
         21    1    1    2  503  505  0.65134755900E+02 -0.88984535372E+00  0.19456971981E+03  0.20518456111E+03  0.00000000000E+00 0. -1.
         21    1    1    2  504  501  0.36380416170E+02  0.60880336486E+02  0.37595786908E+01  0.71021718392E+02  0.00000000000E+00 0.  1.
         21    1    1    2  505  502  0.33778613099E+02  0.40322862453E+01 -0.17816322820E+02  0.38401502498E+02  0.00000000000E+00 0.  1.
          2    1    1    2  501    0 -0.13529378517E+03 -0.64022777378E+02  0.10457376629E+04  0.10563950890E+04  0.00000000000E+00 0.  1.
<scales pt_clust_3="69.18584" pt_clust_4="92.40428" pt_clust_5="34.01844" pt_clust_6="14000.00000"></scales>
<clustering>
<clus scale="   34.018">  2  5  1 -1</clus>
<clus scale="   69.186">  1  3  2 -1</clus>
<clus scale="   92.404">  2  4  1 -1</clus>
<clus scale="   34.018">  2  3  1 -1</clus>
</clustering>
</event>
<event>
 6    0  0.3800129E+002  0.1202612E+03  0.7546771E-02  0.1242667E+00
         21   -1    0    0  505  502  0.00000000000E+00  0.00000000000E+00  0.82539026203E+02  0.82539026203E+02  0.00000000000E+00 0.  1.
          2   -1    0    0  503    0 -0.00000000000E+00 -0.00000000000E+00 -0.64071161020E+03  0.64071161020E+03  0.00000000000E+00 0.  1.
         21    1    1    2  503  502 -0.36229924721E+02 -0.40742779388E+01 -0.24775155259E+03  0.25041972566E+03  0.00000000000E+00 0.  1.
         21    1    1    2  504  501  0.38520029355E+02 -0.41522184109E+02 -0.68121454227E+01  0.57046382532E+02  0.00000000000E+00 0.  1.
         21    1    1    2  505  504  0.23907971346E+02 -0.55613741830E+02  0.29006660865E+02  0.67125745796E+02  0.00000000000E+00 0.  1.
          2    1    1    2  501    0 -0.26198075981E+02  0.10121020388E+03 -0.33261554685E+03  0.34865878242E+03  0.00000000000E+00 0.  1.
<scales pt_clust_3="36.45829" pt_clust_4="38.17860" pt_clust_5="38.17860" pt_clust_6="113.44283"></scales>
<clustering>
<clus scale="   36.458">  2  3  1 -1</clus>
<clus scale="   38.179">  4  5 -1 -1</clus>
<clus scale="  113.443">  2  6  1 -1</clus>
<clus scale="  120.261">  1  3  2 -1</clus>
</clustering>
</event>
<event>
 6    0  0.3800129E+002  0.8647687E+02  0.7546771E-02  0.1311615E+00
          2   -1    0    0  505    0 -0.00000000000E+00  0.00000000000E+00  0.17720312820E+03  0.17720312820E+03  0.00000000000E+00 0. -1.
         21   -1    0    0  503  502  0.00000000000E+00 -0.00000000000E+00 -0.37034725339E+03  0.37034725339E+03  0.00000000000E+00 0.  1.
         21    1    1    2  503  501 -0.25863321099E+02 -0.81387535271E+02 -0.25301651138E+03  0.26703969238E+03  0.00000000000E+00 0.  1.
         21    1    1    2  504  502 -0.43048734067E+02  0.25301839105E+02 -0.49512785457E+02  0.70319929540E+02  0.00000000000E+00 0.  1.
         21    1    1    2  505  504 -0.40050598208E+02  0.46049514625E+02  0.89884210640E+01  0.61687923674E+02  0.00000000000E+00 0.  1.
          2    1    1    2  501    0  0.10896265337E+03  0.10036181541E+02  0.10039675058E+03  0.14850283599E+03  0.00000000000E+00 0. -1.
<scales pt_clust_3="14000.00000" pt_clust_4="49.93372" pt_clust_5="65.06198" pt_clust_6="86.47687"></scales>
<clustering>
<clus scale="   49.934">  2  4  1 -1</clus>
<clus scale="   65.062">  1  5  2 -1</clus>
<clus scale="   86.477">  1  6  2 -1</clus>
<clus scale="   49.934">  2  3  1 -1</clus>
</clustering>
</event>
<event>
 6    0  0.3800129E+002  0.9560577E+02  0.7546771E-02  0.1289818E+00
          2   -1    0    0  505    0 -0.00000000000E+00  0.00000000000E+00  0.14190145589E+03  0.14190145589E+03  0.00000000000E+00 0. -1.
         21   -1    0    0  504  502  0.00000000000E+00 -0.00000000000E+00 -0.24968105940E+03  0.24968105940E+03  0.00000000000E+00 0. -1.
         21    1    1    2  503  501 -0.44854999318E+02 -0.16172603245E+02 -0.95351919380E+02  0.10660915809E+03  0.00000000000E+00 0. -1.
         21    1    1    2  504  503 -0.16246892194E+02 -0.44138464348E+02 -0.94986643660E+02  0.10599352817E+03  0.00000000000E+00 0. -1.
         21    1    1    2  505  502 -0.41208191512E+02  0.30749810083E+02  0.18171523656E+02  0.54533202179E+02  0.00000000000E+00 0. -1.
          2    1    1    2  501    0  0.10231008302E+03  0.29561257510E+02  0.64387435870E+02  0.12444662684E+03  0.00000000000E+00 0. -1.
<scales pt_clust_3="39.73066" pt_clust_4="39.73066" pt_clust_5="51.41659" pt_clust_6="86.83430"></scales>
<clustering>
<clus scale="   39.731">  3  4 -1 -1</clus>
<clus scale="   51.417">  1  5  2 -1</clus>
<clus scale="   86.834">  1  6  2 -1</clus>
<clus scale="   95.606">  2  3  1 -1</clus>
</clustering>
</event>
<event>
 6    0  0.3800129E+002  0.9209895E+02  0.7546771E-02  0.1297847E+00
          1   -1    0    0  503    0 -0.00000000000E+00  0.00000000000E+00  0.19547041422E+04  0.19547041422E+04  0.00000000000E+00 0. -1.
         21   -1    0    0  504  502  0.00000000000E+00 -0.00000000000E+00 -0.82692706505E+02  0.82692706505E+02  0.00000000000E+00 0.  1.
         21    1    1    2  503  505 -0.17067568058E+02  0.67478289841E+02  0.53209198490E+03  0.53662510365E+03  0.00000000000E+00 0.  1.
         21    1    1    2  504  501  0.86821809699E+01  0.44732855021E+02 -0.58327685620E+02  0.74017075695E+02  0.00000000000E+00 0.  1.
         21    1    1    2  505  502  0.29336011534E+02  0.97857483907E+01  0.92866353768E+01  0.32289379692E+02  0.00000000000E+00 0.  1.
          1    1    1    2  501    0 -0.20950624445E+02 -0.12199689325E+03  0.13889605011E+04  0.13944652897E+04  0.00000000000E+00 0. -1.
<scales pt_clust_3="92.09895" pt_clust_4="64.72970" pt_clust_5="30.92511" pt_clust_6="14000.00000"></scales>
<clustering>
<clus scale="   30.925">  2  5  1 -1</clus>
<clus scale="   64.730">  2  4  1 -1</clus>
<clus scale="   92.099">  1  3  2 -1</clus>
<clus scale="   30.925">  2  3  1 -1</clus>
</clustering>
</event>
<event>
 6    0  0.3800129E+002  0.1117804E+03  0.7546771E-02  0.1257308E+00
          1   -1    0    0  505    0 -0.00000000000E+00  0.00000000000E+00  0.39463020831E+04  0.39463020831E+04  0.00000000000E+00 0. -1.
         21   -1    0    0  504  502  0.00000000000E+00 -0.00000000000E+00 -0.32942408583E+03  0.32942408583E+03  0.00000000000E+00 0.  1.
         21    1    1    2  503  502  0.77619599398E+02  0.10187616440E+03 -0.29278360624E+03  0.31957126774E+03  0.00000000000E+00 0.  1.
         21    1    1    2  504  501  0.13479236266E+02 -0.37775319768E+02  0.18940076076E+01  0.40152856171E+02  0.00000000000E+00 0.  1.
         21    1    1    2  505  503  0.51496735891E+01  0.42736813863E+02  0.16657948624E+03  0.17205138660E+03  0.00000000000E+00 0.  1.
          1    1    1    2  501    0 -0.96248509253E+02 -0.10683765849E+03  0.37411881096E+04  0.37439506584E+04  0.00000000000E+00 0. -1.
<scales pt_clust_3="14000.00000" pt_clust_4="40.10816" pt_clust_5="42.72978" pt_clust_6="111.78044"></scales>
<clustering>
<clus scale="   40.108">  2  4  1 -1</clus>
<clus scale="   42.730">  1  5  2 -1</clus>
<clus scale="  111.780">  1  6  2 -1</clus>
<clus scale="   40.108">  2  3  1 -1</clus>
</clustering>
</event>
<event>
 6    0  0.3800129E+002  0.8678932E+02  0.7546771E-02  0.1310819E+00
         -1   -1    0    0    0  501 -0.00000000000E+00  0.00000000000E+00  0.31063214810E+03  0.31063214810E+03  0.00000000000E+00 0.  1.
         21   -1    0    0  505  502  0.00000000000E+00 -0.00000000000E+00 -0.18633684026E+04  0.18633684026E+04  0.00000000000E+00 0. -1.
         21    1    1    2  503  502 -0.59633305982E+02  0.34937554581E+02 -0.47983693963E+03  0.48478887418E+03  0.00000000000E+00 0. -1.
         21    1    1    2  504  503  0.58381461262E+02  0.52054500260E+02 -0.13562131853E+04  0.13584668821E+04  0.00000000000E+00 0. -1.
         21    1    1    2  505  501 -0.36614200317E+02  0.22296912714E+02  0.30146908934E+02  0.52407901119E+02  0.00000000000E+00 0. -1.
         -1    1    1    2    0  504  0.37866045036E+02 -0.10928896756E+03  0.25316696143E+03  0.27833689327E+03  0.00000000000E+00 0.  1.
<scales pt_clust_3="69.50814" pt_clust_4="14000.00000" pt_clust_5="42.86901" pt_clust_6="86.78932"></scales>
<clustering>
<clus scale="   42.869">  1  5  2 -1</clus>
<clus scale="   69.508">  2  3  1 -1</clus>
<clus scale="   86.789">  1  6  2 -1</clus>
<clus scale="   69.508">  2  3  1 -1</clus>
</clustering>
</event>
<event>
 6    0  0.3800129E+002  0.1146506E+03  0.7546771E-02  0.1252192E+00
         21   -1    0    0  505  502  0.00000000000E+00  0.00000000000E+00  0.12344916394E+03  0.12344916394E+03  0.00000000000E+00 0.  1.
         -1   -1    0    0    0  501 -0.00000000000E+00 -0.00000000000E+00 -0.12196635175E+04  0.12196635175E+04  0.00000000000E+00 0.  1.
         21    1    1    2  503  502  0.66817965614E+02  0.47699382266E+02  0.30241736299E+02  0.87489623452E+02  0.00000000000E+00 0. -1.
         21    1    1    2  504  501 -0.10197923706E+03  0.19431902398E+02 -0.27070672913E+03  0.28993015852E+03  0.00000000000E+00 0. -1.
         21    1    1    2  505  504 -0.51721435477E+02  0.24688570693E+02  0.34246769224E+02  0.66764313919E+02  0.00000000000E+00 0.  1.
         -1    1    1    2    0  503  0.86882706925E+02 -0.91819855358E+02 -0.88999612997E+03  0.89892858557E+03  0.00000000000E+00 0.  1.
<scales pt_clust_3="72.12367" pt_clust_4="114.65056" pt_clust_5="57.31171" pt_clust_6="14000.00000"></scales>
<clustering>
<clus scale="   57.312">  1  5  2 -1</clus>
<clus scale="   72.124">  1  3  2 -1</clus>
<clus scale="  114.651">  1  4  2 -1</clus>
<clus scale="   57.312">  1  3  2 -1</clus>
</clustering>
</event>
<event>
 6    0  0.3800129E+002  0.1947655E+03  0.7546771E-02  0.1154232E+00
         21   -1    0    0  503  502  0.00000000000E+00  0.00000000000E+00  0.58576996316E+02  0.58576996316E+02  0.00000000000E+00 0.  1.
         -3   -1    0    0    0  501 -0.00000000000E+00 -0.00000000000E+00 -0.24345210275E+04  0.24345210275E+04  0.00000000000E+00 0. -1.
         21    1    1    2  503  505 -0.51580537230E+01  0.11636408384E+03 -0.63672655935E+02  0.13274566901E+03  0.00000000000E+00 0.  1.
         21    1    1    2  504  501  0.50907269977E+02 -0.86125262960E+01 -0.12989790386E+04  0.13000047186E+04  0.00000000000E+00 0. -1.
         21    1    1    2  505  504  0.17090958346E+02  0.72129761862E+02 -0.85357051045E+02  0.11305144655E+03  0.00000000000E+00 0.  1.
         -3    1    1    2    0  502 -0.62840174599E+02 -0.17988131941E+03 -0.92793528562E+03  0.94729618964E+03  0.00000000000E+00 0. -1.
<scales pt_clust_3="40.15804" pt_clust_4="51.63067" pt_clust_5="40.15804" pt_clust_6="188.14772"></scales>
<clustering>
<clus scale="   40.158">  3  5 -1 -1</clus>
<clus scale="   51.631">  2  4  1 -1</clus>
<clus scale="  188.148">  2  6  1 -1</clus>
<clus scale="  194.766">  1  3  2 -1</clus>
</clustering>
</event>
<event>
 6    0  0.3800129E+002  0.8370039E+02  0.7546771E-02  0.1318867E+00
          2   -1    0    0  504    0 -0.00000000000E+00  0.00000000000E+00  0.32390622093E+04  0.32390622093E+04  0.00000000000E+00 0. -1.
         21   -1    0    0  505  502  0.00000000000E+00 -0.00000000000E+00 -0.39818426007E+02  0.39818426007E+02  0.00000000000E+00 0. -1.
         21    1    1    2  503  502  0.74349255087E+02 -0.37529881871E+01  0.17091840967E+03  0.18642692782E+03  0.00000000000E+00 0. -1.
         21    1    1    2  504  503 -0.56202683132E+02  0.73746495198E+02  0.16524036232E+04  0.16550030275E+04  0.00000000000E+00 0. -1.
         21    1    1    2  505  501 -0.99043225041E+02 -0.47986383083E+02  0.73520174317E+02  0.13235357728E+03  0.00000000000E+00 0. -1.
          2    1    1    2  501    0  0.80896653085E+02 -0.22007123928E+02  0.13024015761E+04  0.13050971027E+04  0.00000000000E+00 0. -1.
<scales pt_clust_3="74.44392" pt_clust_4="14000.00000" pt_clust_5="59.96379" pt_clust_6="83.70039"></scales>
<clustering>
<clus scale="   74.444">  2  3  1 -1</clus>
<clus scale="   59.964">  2  5  1 -1</clus>
<clus scale="   83.700">  2  6  1 -1</clus>
<clus scale="   74.444">  2  3  1 -1</clus>
</clustering>
</event>
<event>
 6    0  0.3800129E+002  0.9940461E+02  0.7546771E-02  0.1281553E+00
         21   -1    0    0  505  502  0.00000000000E+00  0.00000000000E+00  0.40321914783E+03  0.40321914783E+03  0.00000000000E+00 0. -1.
          2   -1    0    0  504    0 -0.00000000000E+00 -0.00000000000E+00 -0.13005084927E+03  0.13005084927E+03  0.00000000000E+00 0. -1.
         21    1    1    2  503  501  0.84385368245E+02 -0.49186107671E+02  0.16561966111E+03  0.19227593637E+03  0.00000000000E+00 0. -1.
         21    1    1    2  504  502 -0.38647824722E+02 -0.99651712318E+01 -0.25283233006E+00  0.39912691184E+02  0.00000000000E+00 0. -1.
         21    1    1    2  505  503 -0.24937569685E+02 -0.37208466221E+02  0.17574023347E+03  0.18135871085E+03  0.00000000000E+00 0. -1.
          2    1    1    2  501    0 -0.20799973838E+02  0.96359745123E+02 -0.67938763691E+02  0.11972265869E+03  0.00000000000E+00 0. -1.
<scales pt_clust_3="14000.00000" pt_clust_4="39.91189" pt_clust_5="45.55851" pt_clust_6="99.40461"></scales>
<clustering>
<clus scale="   39.912">  2  4  1 -1</clus>
<clus scale="   45.559">  1  5  2 -1</clus>
<clus scale="   99.405">  2  6  1 -1</clus>
<clus scale="   45.559">  1  3  2 -1</clus>
</clustering>
</event>
<event>
 6    0  0.3800129E+002  0.8549805E+02  0.7546771E-02  0.1314135E+00
         21   -1    0    0  503  502  0.00000000000E+00  0.00000000000E+00  0.70661334830E+02  0.70661334830E+02  0.00000000000E+00 0.  1.
          2   -1    0    0  504    0 -0.00000000000E+00 -0.00000000000E+00 -0.15330211561E+04  0.15330211561E+04  0.00000000000E+00 0. -1.
         21    1    1    2  503  505 -0.39016811865E+02 -0.53344898620E+01  0.46845191855E+02  0.61198369178E+02  0.00000000000E+00 0.  1.
         21    1    1    2  504  502 -0.39859700857E+02  0.85565571664E+01 -0.20547545414E+03  0.20948072150E+03  0.00000000000E+00 0.  1.
         21    1    1    2  505  501 -0.53454627659E+02 -0.17325521252E+01 -0.53012033234E+02  0.75303881856E+02  0.00000000000E+00 0.  1.
          2    1    1    2  501    0  0.13233114038E+03 -0.14895151793E+01 -0.12507175258E+04  0.12576995184E+04  0.00000000000E+00 0. -1.
<scales pt_clust_3="39.37980" pt_clust_4="45.25300" pt_clust_5="14000.00000" pt_clust_6="85.49805"></scales>
<clustering>
<clus scale="   39.380">  1  3  2 -1</clus>
<clus scale="   45.253">  2  4  1 -1</clus>
<clus scale="   85.498">  2  6  1 -1</clus>
<clus scale="   39.380">  1  3  2 -1</clus>
</clustering>
</event>
<event>
 6    0  0.3800129E+002  0.1808225E+03  0.7546771E-02  0.1167009E+00
         21   -1    0    0  501  502  0.00000000000E+00  0.00000000000E+00  0.68166796641E+02  0.68166796641E+02  0.00000000000E+00 0.  1.
          2   -1    0    0  505    0 -0.00000000000E+00 -0.00000000000E+00 -0.28769939417E+04  0.28769939417E+04  0.00000000000E+00 0.  1.
         21    1    1    2  503  504  0.81635543709E+02  0.75317559359E+02 -0.77809438823E+02  0.13561491627E+03  0.00000000000E+00 0.  1.
         21    1    1    2  504  502  0.49337378951E+02  0.21547547723E+02  0.13101341546E+02  0.55408653881E+02  0.00000000000E+00 0.  1.
         21    1    1    2  505  503 -0.63508917527E+01  0.45241755486E+02 -0.53388272899E+03  0.53583385352E+03  0.00000000000E+00 0.  1.
          2    1    1    2  501    0 -0.12462203091E+03 -0.14210686257E+03 -0.22102363188E+04  0.22183033147E+04  0.00000000000E+00 0.  1.
<scales pt_clust_3="52.63854" pt_clust_4="52.63854" pt_clust_5="45.68534" pt_clust_6="164.10561"></scales>
<clustering>
<clus scale="   45.685">  2  5  1 -1</clus>
<clus scale="   52.639">  3  4 -1 -1</clus>
<clus scale="  164.106">  2  6  1 -1</clus>
<clus scale="  180.822">  1  3  2 -1</clus>
</clustering>
</event>
<event>
 6    0  0.3800129E+002  0.1055047E+03  0.7546771E-02  0.1269128E+00
         21   -1    0    0  504  502  0.00000000000E+00  0.00000000000E+00  0.10167158063E+04  0.10167158063E+04  0.00000000000E+00 0.  1.
          3   -1    0    0  505    0 -0.00000000000E+00 -0.00000000000E+00 -0.52120906264E+02  0.52120906264E+02  0.00000000000E+00 0. -1.
         21    1    1    2  503  502 -0.32052896043E+02  0.89941010363E+02  0.55722161028E+03  0.56534299010E+03  0.00000000000E+00 0.  1.
         21    1    1    2  504  501  0.33154311714E+02  0.50133391774E+02  0.24836205185E+03  0.25553135650E+03  0.00000000000E+00 0. -1.
         21    1    1    2  505  503 -0.16073500356E+02 -0.48541087717E+02 -0.12803509294E+02  0.52711710849E+02  0.00000000000E+00 0.  1.
          3    1    1    2  501    0  0.14972084685E+02 -0.91533314420E+02  0.17181474722E+03  0.19525065513E+03  0.00000000000E+00 0. -1.
<scales pt_clust_3="14000.00000" pt_clust_4="51.02786" pt_clust_5="51.13311" pt_clust_6="105.50471"></scales>
<clustering>
<clus scale="   51.133">  2  5  1 -1</clus>
<clus scale="   51.028">  1  4  2 -1</clus>
<clus scale="  105.505">  2  6  1 -1</clus>
<clus scale="   51.028">  1  3  2 -1</clus>
</clustering>
</event>
<event>
 6    0  0.3800129E+002  0.9602026E+02  0.7546771E-02  0.1288895E+00
          2   -1    0    0  503    0 -0.00000000000E+00  0.00000000000E+00  0.16184966839E+04  0.16184966839E+04  0.00000000000E+00 0.  1.
         21   -1    0    0  504  502  0.00000000000E+00 -0.00000000000E+00 -0.37022649121E+03  0.37022649121E+03  0.00000000000E+00 0. -1.
         21    1    1    2  503  505 -0.37865847490E+02 -0.18402084763E+02  0.60136793948E+02  0.73409080610E+02  0.00000000000E+00 0.  1.
         21    1    1    2  504  501 -0.95122672111E+02 -0.53595832120E+02 -0.13154750641E+03  0.17095491339E+03  0.00000000000E+00 0. -1.
         21    1    1    2  505  502  0.96568904505E+02 -0.38340587444E+02 -0.19727270717E+03  0.22296204824E+03  0.00000000000E+00 0. -1.
          2    1    1    2  501    0  0.36419615096E+02  0.11033850433E+03  0.15169536123E+04  0.15213971329E+04  0.00000000000E+00 0.  1.
<scales pt_clust_3="42.10058" pt_clust_4="14000.00000" pt_clust_5="96.02026" pt_clust_6="92.32472"></scales>
<clustering>
<clus scale="   42.101">  1  3  2 -1</clus>
<clus scale="   92.325">  1  6  2 -1</clus>
<clus scale="   96.020">  2  5  1 -1</clus>
<clus scale="   96.020">  2  3  1 -1</clus>
</clustering>
</event>
<event>
 6    0  0.3800129E+002  0.1413812E+03  0.7546771E-02  0.1211482E+00
         21   -1    0    0  504  502  0.00000000000E+00  0.00000000000E+00  0.12864760335E+03  0.12864760335E+03  0.00000000000E+00 0. -1.
          3   -1    0    0  505    0 -0.00000000000E+00 -0.00000000000E+00 -0.38923360059E+03  0.38923360059E+03  0.00000000000E+00 0.  1.
         21    1    1    2  503  501  0.54180479777E+02  0.16173325361E+02  0.46958137253E+02  0.73499438748E+02  0.00000000000E+00 0. -1.
         21    1    1    2  504  503  0.84276282817E+02  0.69359292014E+01  0.12457057251E+02  0.85473839475E+02  0.00000000000E+00 0. -1.
         21    1    1    2  505  502 -0.26771402574E+02 -0.14426102925E+02 -0.16432978339E+03  0.16712001122E+03  0.00000000000E+00 0. -1.
          3    1    1    2  501    0 -0.11168536002E+03 -0.86831516377E+01 -0.15567140835E+03  0.19178791449E+03  0.00000000000E+00 0.  1.
<scales pt_clust_3="37.34748" pt_clust_4="37.34748" pt_clust_5="30.41086" pt_clust_6="133.97989"></scales>
<clustering>
<clus scale="   30.411">  2  5  1 -1</clus>
<clus scale="   37.347">  3  4 -1 -1</clus>
<clus scale="  133.980">  2  6  1 -1</clus>
<clus scale="  141.381">  1  3  2 -1</clus>
</clustering>
</event>
<event>
 6    0  0.3800129E+002  0.9503928E+02  0.7546771E-02  0.1291088E+00
         21   -1    0    0  505  502  0.00000000000E+00  0.00000000000E+00  0.81516927859E+02  0.81516927859E+02  0.00000000000E+00 0. -1.
          1   -1    0    0  503    0 -0.00000000000E+00 -0.00000000000E+00 -0.54654659677E+03  0.54654659677E+03  0.00000000000E+00 0.  1.
         21    1    1    2  503  504  0.81784660434E+02 -0.13487653832E+02 -0.23548042791E+03  0.24964310408E+03  0.00000000000E+00 0.  1.
         21    1    1    2  504  502  0.32176418181E+01  0.38896285884E+02  0.70576504738E+00  0.39035527136E+02  0.00000000000E+00 0. -1.
         21    1    1    2  505  501  0.32325262697E+02 -0.26490827978E+02  0.31632376748E+02  0.52414633778E+02  0.00000000000E+00 0. -1.
          1    1    1    2  501    0 -0.11732756495E+03  0.10821959256E+01 -0.26188738280E+03  0.28697025963E+03  0.00000000000E+00 0.  1.
<scales pt_clust_3="95.03928" pt_clust_4="39.02915" pt_clust_5="34.51870" pt_clust_6="14000.00000"></scales>
<clustering>
<clus scale="   39.029">  1  4  2 -1</clus>
<clus scale="   34.519">  1  5  2 -1</clus>
<clus scale="   95.039">  2  3  1 -1</clus>
<clus scale="   39.029">  1  3  2 -1</clus>
</clustering>
</event>
<event>
 6    0  0.3800129E+002  0.7834576E+02  0.7546771E-02  0.1333813E+00
         21   -1    0    0  505  502  0.00000000000E+00  0.00000000000E+00  0.44973080596E+03  0.44973080596E+03  0.00000000000E+00 0. -1.
          1   -1    0    0  503    0 -0.00000000000E+00 -0.00000000000E+00 -0.11559214443E+04  0.11559214443E+04  0.00000000000E+00 0.  1.
         21    1    1    2  503  504 -0.92330441738E+02  0.34844318063E+01  0.33716575307E+03  0.34959662009E+03  0.00000000000E+00 0. -1.
         21    1    1    2  504  502  0.39342014304E+02  0.57891440068E+02  0.80126090866E+02  0.10639268471E+03  0.00000000000E+00 0.  1.
         21    1    1    2  505  501 -0.34784098856E+01 -0.86139013908E+02 -0.14113073552E+03  0.16537809275E+03  0.00000000000E+00 0.  1.
          1    1    1    2  501    0  0.56466837320E+02  0.24763142034E+02 -0.98235174678E+03  0.98428485273E+03  0.00000000000E+00 0.  1.
<scales pt_clust_3="14000.00000" pt_clust_4="74.00981" pt_clust_5="78.34576" pt_clust_6="61.65806"></scales>
<clustering>
<clus scale="   61.658">  2  6  1 -1</clus>
<clus scale="   74.010">  1  4  2 -1</clus>
<clus scale="   78.346">  2  5  1 -1</clus>
<clus scale="   74.010">  1  3  2 -1</clus>
</clustering>
</event>
<event>
 6    0  0.3800129E+002  0.2124111E+03  0.7546771E-02  0.1139671E+00
         -1   -1    0    0    0  501 -0.00000000000E+00  0.00000000000E+00  0.17740472167E+04  0.17740472167E+04  0.00000000000E+00 0. -1.
         21   -1    0    0  503  502  0.00000000000E+00 -0.00000000000E+00 -0.64740631949E+02  0.64740631949E+02  0.00000000000E+00 0. -1.
         21    1    1    2  503  504 -0.54581246670E+02  0.20992342950E+02  0.13332097581E+02  0.59979461289E+02  0.00000000000E+00 0.  1.
         21    1    1    2  504  505 -0.97397583943E+02 -0.50927632540E+02  0.92285339923E+02  0.14351479742E+03  0.00000000000E+00 0. -1.
         21    1    1    2  505  501 -0.45822737194E+02 -0.46327786500E+02  0.12013094074E+03  0.13666539419E+03  0.00000000000E+00 0. -1.
         -1    1    1    2    0  502  0.19780156781E+03  0.76263076090E+02  0.14835582065E+04  0.14986281957E+04  0.00000000000E+00 0. -1.
<scales pt_clust_3="58.47898" pt_clust_4="44.96034" pt_clust_5="44.96034" pt_clust_6="204.22756"></scales>
<clustering>
<clus scale="   44.960">  4  5 -1 -1</clus>
<clus scale="   58.479">  2  3  1 -1</clus>
<clus scale="  204.228">  1  6  2 -1</clus>
<clus scale="   58.479">  2  3  1 -1</clus>
</clustering>
</event>
<event>
 6    0  0.3800129E+002  0.1110723E+03  0.7546771E-02  0.1258597E+00
         21   -1    0    0  503  502  0.00000000000E+00  0.00000000000E+00  0.10404189076E+02  0.10404189076E+02  0.00000000000E+00 0. -1.
          1   -1    0    0  505    0 -0.00000000000E+00 -0.00000000000E+00 -0.38655508807E+04  0.38655508807E+04  0.00000000000E+00 0. -1.
         21    1    1    2  503  504 -0.40375112976E+02 -0.15711258405E+02 -0.11107358870E+03  0.11922388810E+03  0.00000000000E+00 0.  1.
         21    1    1    2  504  501 -0.41246375675E+02 -0.70061062171E+02 -0.48260301833E+03  0.48940319701E+03  0.00000000000E+00 0. -1.
         21    1    1    2  505  502  0.67269810187E+00 -0.37707372297E+02 -0.11925395123E+04  0.11931356951E+04  0.00000000000E+00 0. -1.
          1    1    1    2  501    0  0.80948790549E+02  0.12347969287E+03 -0.20689305723E+04  0.20741922896E+04  0.00000000000E+00 0. -1.
<scales pt_clust_3="43.91287" pt_clust_4="111.07231" pt_clust_5="37.71337" pt_clust_6="14000.00000"></scales>
<clustering>
<clus scale="   37.713">  2  5  1 -1</clus>
<clus scale="   43.913">  1  3  2 -1</clus>
<clus scale="  111.072">  1  4  2 -1</clus>
<clus scale="   43.913">  1  3  2 -1</clus>
</clustering>
</event>
<event>
 6    0  0.3800129E+002  0.3788635E+03  0.7546771E-02  0.1051355E+00
         -2   -1    0    0    0  501 -0.00000000000E+00  0.00000000000E+00  0.29624525251E+03  0.29624525251E+03  0.00000000000E+00 0.  1.
         21   -1    0    0  504  502  0.00000000000E+00 -0.00000000000E+00 -0.97206061584E+03  0.97206061584E+03  0.00000000000E+00 0.  1.
         21    1    1    2  503  502 -0.18343647233E+03  0.14878663372E+03 -0.43830668694E+03  0.49789472137E+03  0.00000000000E+00 0.  1.
         21    1    1    2  504  501  0.17477400911E+02  0.51339796290E+02  0.10365707335E+03  0.11698727743E+03  0.00000000000E+00 0. -1.
         21    1    1    2  505  503 -0.11657700668E+03  0.69534019736E+02 -0.19244265135E+03  0.23549809435E+03  0.00000000000E+00 0.  1.
         -2    1    1    2    0  505  0.28253607809E+03 -0.26966044975E+03 -0.14872309839E+03  0.41792577520E+03  0.00000000000E+00 0.  1.
<scales pt_clust_3="36.73648" pt_clust_4="54.23315" pt_clust_5="36.73648" pt_clust_6="375.75162"></scales>
<clustering>
<clus scale="   36.736">  3  5 -1 -1</clus>
<clus scale="   54.233">  1  4  2 -1</clus>
<clus scale="  375.752">  1  6  2 -1</clus>
<clus scale="  378.864">  2  3  1 -1</clus>
</clustering>
</event>
<event>
 6    0  0.3800129E+002  0.1115261E+03  0.7546771E-02  0.1257770E+00
          2   -1    0    0  503    0 -0.00000000000E+00  0.00000000000E+00  0.14643855655E+04  0.14643855655E+04  0.00000000000E+00 0. -1.
         21   -1    0    0  505  502  0.00000000000E+00 -0.00000000000E+00 -0.12744459957E+03  0.12744459957E+03  0.00000000000E+00 0.  1.
         21    1    1    2  503  504 -0.20554222366E+02  0.30006804658E+02  0.15271273598E+03  0.15698427983E+03  0.00000000000E+00 0.  1.
         21    1    1    2  504  502 -0.28440426216E+02 -0.12658292291E+03  0.13513655179E+03  0.18733387800E+03  0.00000000000E+00 0. -1.
         21    1    1    2  505  501  0.32714681121E+01  0.10846535710E+03 -0.68888356729E+02  0.12853420513E+03  0.00000000000E+00 0.  1.
          2    1    1    2  501    0  0.45723180469E+02 -0.11889238846E+02  0.11179800349E+04  0.11189778021E+04  0.00000000000E+00 0. -1.
<scales pt_clust_3="36.37148" pt_clust_4="14000.00000" pt_clust_5="111.52606" pt_clust_6="31.34009"></scales>
<clustering>
<clus scale="   36.371">  1  3  2 -1</clus>
<clus scale="   31.340">  1  6  2 -1</clus>
<clus scale="  111.526">  2  5  1 -1</clus>
<clus scale="  111.526">  2  3  1 -1</clus>
</clustering>
</event>
<event>
 6    0  0.3800129E+002  0.8163194E+02  0.7546771E-02  0.1324483E+00
          1   -1    0    0  503    0 -0.00000000000E+00  0.00000000000E+00  0.19150622664E+04  0.19150622664E+04  0.00000000000E+00 0.  1.
         21   -1    0    0  504  502  0.00000000000E+00 -0.00000000000E+00 -0.17774859322E+02  0.17774859322E+02  0.00000000000E+00 0.  1.
         21    1    1    2  503  505 -0.12477311191E+02 -0.53701412422E+02  0.73470802500E+03  0.73677364705E+03  0.00000000000E+00 0.  1.
         21    1    1    2  504  501 -0.61105517617E+02 -0.28968866814E+02  0.14886427816E+03  0.16350428998E+03  0.00000000000E+00 0.  1.
         21    1    1    2  505  502  0.11003519913E+03  0.49086124573E+02  0.42464309693E+03  0.44140565520E+03  0.00000000000E+00 0.  1.
          1    1    1    2  501    0 -0.36452370323E+02  0.33584154662E+02  0.58907200694E+03  0.59115353345E+03  0.00000000000E+00 0.  1.
<scales pt_clust_3="47.95003" pt_clust_4="14000.00000" pt_clust_5="81.63194" pt_clust_6="49.56481"></scales>
<clustering>
<clus scale="   49.565">  1  6  2 -1</clus>
<clus scale="   47.950">  1  3  2 -1</clus>
<clus scale="   81.632">  1  5  2 -1</clus>
<clus scale="   81.632">  2  3  1 -1</clus>
</clustering>
</event>
<event>
 6    0  0.3800129E+002  0.7751312E+02  0.7546771E-02  0.1336261E+00
          2   -1    0    0  505    0 -0.00000000000E+00  0.00000000000E+00  0.31409697036E+03  0.31409697036E+03  0.00000000000E+00 0.  1.
         21   -1    0    0  504  502  0.00000000000E+00 -0.00000000000E+00 -0.21797473974E+03  0.21797473974E+03  0.00000000000E+00 0. -1.
         21    1    1    2  503  502 -0.42453877787E+02 -0.12021208143E+03 -0.11811530589E+03  0.17379442380E+03  0.00000000000E+00 0. -1.
         21    1    1    2  504  501 -0.26587448731E+01  0.63817064688E+02 -0.35390960901E+02  0.73021960965E+02  0.00000000000E+00 0. -1.
         21    1    1    2  505  503  0.26393460430E+02 -0.21196292077E+02  0.14279235172E+02  0.36739544205E+02  0.00000000000E+00 0.  1.
          2    1    1    2  501    0  0.18719162230E+02  0.77591308816E+02  0.23534926223E+03  0.24851578113E+03  0.00000000000E+00 0.  1.
<scales pt_clust_3="77.51312" pt_clust_4="62.44214" pt_clust_5="33.85111" pt_clust_6="14000.00000"></scales>
<clustering>
<clus scale="   33.851">  1  5  2 -1</clus>
<clus scale="   62.442">  2  4  1 -1</clus>
<clus scale="   77.513">  2  3  1 -1</clus>
<clus scale="   62.442">  2  3  1 -1</clus>
</clustering>
</event>
<event>
 6    0  0.3800129E+002  0.2220671E+03  0.7546771E-02  0.1132351E+00
          2   -1    0    0  503    0 -0.00000000000E+00  0.00000000000E+00  0.26634048526E+04  0.26634048526E+04  0.00000000000E+00 0.  1.
         21   -1    0    0  504  502  0.00000000000E+00 -0.00000000000E+00 -0.39466549544E+02  0.39466549544E+02  0.00000000000E+00 0.  1.
         21    1    1    2  503  505 -0.30287381290E+02  0.28361735450E+02  0.96833022530E+03  0.96921882912E+03  0.00000000000E+00 0.  1.
         21    1    1    2  504  501 -0.18617729592E+02 -0.55948344024E+02  0.19438866176E+03  0.20313490315E+03  0.00000000000E+00 0. -1.
         21    1    1    2  505  502  0.45184176685E+02  0.19863339777E+03  0.34026177676E+03  0.39657901262E+03  0.00000000000E+00 0.  1.
          2    1    1    2  501    0  0.37209341975E+01 -0.17104678919E+03  0.11209576392E+04  0.11339386573E+04  0.00000000000E+00 0.  1.
<scales pt_clust_3="41.49354" pt_clust_4="46.84028" pt_clust_5="208.40515" pt_clust_6="46.84028"></scales>
<clustering>
<clus scale="   41.494">  1  3  2 -1</clus>
<clus scale="   46.840">  4  6 -1 -1</clus>
<clus scale="  208.405">  2  5  1 -1</clus>
<clus scale="  208.405">  2  3  1 -1</clus>
</clustering>
</event>
<event>
 6    0  0.3800129E+002  0.1145884E+03  0.7546771E-02  0.1252301E+00
         21   -1    0    0  504  502  0.00000000000E+00  0.00000000000E+00  0.12322124821E+03  0.12322124821E+03  0.00000000000E+00 0. -1.
          2   -1    0    0  503    0 -0.00000000000E+00 -0.00000000000E+00 -0.27932724422E+04  0.27932724422E+04  0.00000000000E+00 0. -1.
         21    1    1    2  503  505 -0.69698177759E+02  0.36012348267E+02 -0.43890468539E+03  0.44586101878E+03  0.00000000000E+00 0. -1.
         21    1    1    2  504  501 -0.40087175758E+02 -0.85838780400E+01 -0.79711757290E+02  0.89636091351E+02  0.00000000000E+00 0.  1.
         21    1    1    2  505  502 -0.21463512110E+02 -0.89279994283E+02  0.93692159702E+02  0.13118620553E+03  0.00000000000E+00 0. -1.
          2    1    1    2  501    0  0.13124886563E+03  0.61851524056E+02 -0.22451269110E+04  0.22498103748E+04  0.00000000000E+00 0. -1.
<scales pt_clust_3="79.38732" pt_clust_4="40.99591" pt_clust_5="114.58839" pt_clust_6="14000.00000"></scales>
<clustering>
<clus scale="   40.996">  1  4  2 -1</clus>
<clus scale="   79.387">  2  3  1 -1</clus>
<clus scale="  114.588">  1  5  2 -1</clus>
<clus scale="   40.996">  1  3  2 -1</clus>
</clustering>
</event>
<event>
 6    0  0.3800129E+002  0.1488954E+03  0.7546771E-02  0.1201837E+00
         21   -1    0    0  501  502  0.00000000000E+00  0.00000000000E+00  0.47371377797E+02  0.47371377797E+02  0.00000000000E+00 0. -1.
          2   -1    0    0  505    0 -0.00000000000E+00 -0.00000000000E+00 -0.94066313150E+03  0.94066313150E+03  0.00000000000E+00 0.  1.
         21    1    1    2  503  504  0.29777503440E+02  0.11408640595E+02 -0.75746454376E+02  0.82185048166E+02  0.00000000000E+00 0. -1.
         21    1    1    2  504  502  0.98750745983E+02  0.58492383495E+02 -0.81469120691E+02  0.14074901913E+03  0.00000000000E+00 0. -1.
         21    1    1    2  505  503 -0.31224003601E+02  0.56182284902E+01 -0.47890157245E+03  0.47995126730E+03  0.00000000000E+00 0.  1.
          2    1    1    2  501    0 -0.97304245822E+02 -0.75519252581E+02 -0.25717460619E+03  0.28514917470E+03  0.00000000000E+00 0.  1.
<scales pt_clust_3="31.52569" pt_clust_4="31.52569" pt_clust_5="31.72543" pt_clust_6="136.35481"></scales>
<clustering>
<clus scale="   31.526">  3  4 -1 -1</clus>
<clus scale="   31.725">  2  5  1 -1</clus>
<clus scale="  136.355">  2  6  1 -1</clus>
<clus scale="  148.895">  1  3  2 -1</clus>
</clustering>
</event>
<event>
 6    0  0.3800129E+002  0.2232374E+03  0.7546771E-02  0.1131492E+00
          1   -1    0    0  504    0 -0.00000000000E+00  0.00000000000E+00  0.12910377083E+03  0.12910377083E+03  0.00000000000E+00 0.  1.
         21   -1    0    0  501  502  0.00000000000E+00 -0.00000000000E+00 -0.93203123567E+03  0.93203123567E+03  0.00000000000E+00 0.  1.
         21    1    1    2  503  502 -0.82401187952E+02  0.72749854422E+02 -0.40010370993E+03  0.41492827789E+03  0.00000000000E+00 0.  1.
         21    1    1    2  504  505  0.70015836256E+01 -0.37386765975E+02  0.54140553325E+02  0.66166395985E+02  0.00000000000E+00 0. -1.
         21    1    1    2  505  503 -0.71016277635E+02  0.95657434358E+02 -0.31744238341E+03  0.33906241789E+03  0.00000000000E+00 0.  1.
          1    1    1    2  501    0  0.14641588196E+03 -0.13102052280E+03 -0.13952192482E+03  0.24097791474E+03  0.00000000000E+00 0.  1.
<scales pt_clust_3="40.29766" pt_clust_4="38.03672" pt_clust_5="40.29766" pt_clust_6="219.32459"></scales>
<clustering>
<clus scale="   38.037">  1  4  2 -1</clus>
<clus scale="   40.298">  3  5 -1 -1</clus>
<clus scale="  219.325">  1  6  2 -1</clus>
<clus scale="  223.237">  2  3  1 -1</clus>
</clustering>
</event>
<event>
 6    0  0.3800129E+002  0.1758260E+03  0.7546771E-02  0.1171905E+00
         21   -1    0    0  501  502  0.00000000000E+00  0.00000000000E+00  0.37256729734E+02  0.37256729734E+02  0.00000000000E+00 0. -1.
          2   -1    0    0  503    0 -0.00000000000E+00 -0.00000000000E+00 -0.23585885920E+04  0.23585885920E+04  0.00000000000E+00 0. -1.
         21    1    1    2  503  505  0.13409722426E+02 -0.31317097063E+02 -0.26948028851E+03  0.27162512240E+03  0.00000000000E+00 0. -1.
         21    1    1    2  504  502 -0.46656536121E+02  0.31191113238E+02 -0.54675554913E+02  0.78352627351E+02  0.00000000000E+00 0. -1.
         21    1    1    2  505  504 -0.12107458585E+03  0.50726400686E+00 -0.15236653637E+03  0.19461468100E+03  0.00000000000E+00 0. -1.
          2    1    1    2  501    0  0.15432139955E+03 -0.38128018147E+00 -0.18448094825E+04  0.18512528910E+04  0.00000000000E+00 0. -1.
<scales pt_clust_3="34.06730" pt_clust_4="33.96165" pt_clust_5="33.96165" pt_clust_6="168.54844"></scales>
<clustering>
<clus scale="   34.067">  2  3  1 -1</clus>
<clus scale="   33.962">  4  5 -1 -1</clus>
<clus scale="  168.548">  2  6  1 -1</clus>
<clus scale="  175.826">  1  3  2 -1</clus>
</clustering>
</event>
<event>
 6    0  0.3800129E+002  0.1976438E+03  0.7546771E-02  0.1151742E+00
          3   -1    0    0  504    0 -0.00000000000E+00  0.00000000000E+00  0.59040191757E+03  0.59040191757E+03  0.00000000000E+00 0. -1.
         21   -1    0    0  505  502  0.00000000000E+00 -0.00000000000E+00 -0.35950674039E+03  0.35950674039E+03  0.00000000000E+00 0. -1.
         21    1    1    2  503  501  0.93430833291E+02  0.75318459026E+02 -0.13014568077E+03  0.17703132238E+03  0.00000000000E+00 0. -1.
         21    1    1    2  504  502  0.25909219128E+02 -0.19552996139E+02  0.15106643924E+02  0.35802485731E+02  0.00000000000E+00 0.  1.
         21    1    1    2  505  503  0.64098363169E+02  0.46561910601E+01 -0.17236763680E+03  0.18395891522E+03  0.00000000000E+00 0. -1.
          3    1    1    2  501    0 -0.18343841559E+03 -0.60421653947E+02  0.51830185082E+03  0.55311593463E+03  0.00000000000E+00 0. -1.
<scales pt_clust_3="63.78223" pt_clust_4="32.45932" pt_clust_5="63.78223" pt_clust_6="177.41144"></scales>
<clustering>
<clus scale="   32.459">  1  4  2 -1</clus>
<clus scale="   63.782">  3  5 -1 -1</clus>
<clus scale="  177.411">  1  6  2 -1</clus>
<clus scale="  197.644">  2  3  1 -1</clus>
</clustering>
</event>
<event>
 6    0  0.3800129E+002  0.1154905E+03  0.7546771E-02  0.1250727E+00
          3   -1    0    0  503    0 -0.00000000000E+00  0.00000000000E+00  0.51587691033E+03  0.51587691033E+03  0.00000000000E+00 0.  1.
         21   -1    0    0  501  502  0.00000000000E+00 -0.00000000000E+00 -0.14985561233E+03  0.14985561233E+03  0.00000000000E+00 0.  1.
         21    1    1    2  503  505 -0.28141835786E+02 -0.53184718055E+02  0.11157653072E+03  0.12676710679E+03  0.00000000000E+00 0.  1.
         21    1    1    2  504  502 -0.89602801617E+00  0.56880281729E+02 -0.37727270119E+02  0.68260649180E+02  0.00000000000E+00 0.  1.
         21    1    1    2  505  504 -0.29180865276E+02  0.50454927650E+02 -0.75021130675E+02  0.95002066663E+02  0.00000000000E+00 0.  1.
          3    1    1    2  501    0  0.58218729077E+02 -0.54150491324E+02  0.36719316807E+03  0.37570270002E+03  0.00000000000E+00 0.  1.
<scales pt_clust_3="60.17123" pt_clust_4="38.47921" pt_clust_5="38.47921" pt_clust_6="108.72451"></scales>
<clustering>
<clus scale="   38.479">  4  5 -1 -1</clus>
<clus scale="   60.171">  1  3  2 -1</clus>
<clus scale="  108.725">  1  6  2 -1</clus>
<clus scale="  115.491">  2  3  1 -1</clus>
</clustering>
</event>
<event>
 6    0  0.3800129E+002  0.1384265E+03  0.7546771E-02  0.1215462E+00
          1   -1    0    0  504    0 -0.00000000000E+00  0.00000000000E+00  0.96140944095E+02  0.96140944095E+02  0.00000000000E+00 0.  1.
         21   -1    0    0  503  502  0.00000000000E+00 -0.00000000000E+00 -0.74109739359E+03  0.74109739359E+03  0.00000000000E+00 0.  1.
         21    1    1    2  503  505  0.87125638985E+01  0.60919400941E+02 -0.31165033859E+03  0.31766809050E+03  0.00000000000E+00 0.  1.
         21    1    1    2  504  502  0.10268015613E+03  0.39025218604E+02 -0.12616844471E+03  0.16728615780E+03  0.00000000000E+00 0.  1.
         21    1    1    2  505  501  0.13239532748E+02  0.56969830677E+02 -0.12054918321E+03  0.13398862790E+03  0.00000000000E+00 0.  1.
          1    1    1    2  501    0 -0.12463225277E+03 -0.15691445022E+03 -0.86588482990E+02  0.21829546149E+03  0.00000000000E+00 0.  1.
<scales pt_clust_3="51.74839" pt_clust_4="109.84617" pt_clust_5="51.74839" pt_clust_6="127.84478"></scales>
<clustering>
<clus scale="   51.748">  3  5 -1 -1</clus>
<clus scale="  109.846">  1  4  2 -1</clus>
<clus scale="  127.845">  1  6  2 -1</clus>
<clus scale="  138.426">  2  3  1 -1</clus>
</clustering>
</event>
<event>
 6    0  0.3800129E+002  0.1857584E+03  0.7546771E-02  0.1162344E+00
          1   -1    0    0  503    0 -0.00000000000E+00  0.00000000000E+00  0.17040580002E+04  0.17040580002E+04  0.00000000000E+00 0. -1.
         21   -1    0    0  505  502  0.00000000000E+00 -0.00000000000E+00 -0.67590039221E+02  0.67590039221E+02  0.00000000000E+00 0.  1.
         21    1    1    2  503  502  0.12606972188E+03  0.66095629995E+02  0.48038067631E+02  0.15023269625E+03  0.00000000000E+00 0.  1.
         21    1    1    2  504  501 -0.44528206723E+02 -0.18385841635E+02  0.23016473430E+03  0.23515230231E+03  0.00000000000E+00 0. -1.
         21    1    1    2  505  504  0.51703712641E+02 -0.37265482851E+02  0.86236798336E+02  0.10723234354E+03  0.00000000000E+00 0. -1.
          1    1    1    2  501    0 -0.13324522780E+03 -0.10444305509E+02  0.12720283607E+04  0.12790306973E+04  0.00000000000E+00 0. -1.
<scales pt_clust_3="175.42713" pt_clust_4="36.67412" pt_clust_5="63.73374" pt_clust_6="36.67412"></scales>
<clustering>
<clus scale="   36.674">  4  6 -1 -1</clus>
<clus scale="   63.734">  2  5  1 -1</clus>
<clus scale="  175.427">  2  3  1 -1</clus>
<clus scale="   63.734">  2  3  1 -1</clus>
</clustering>
</event>
<event>
 6    0  0.3800129E+002  0.9374311E+02  0.7546771E-02  0.1294032E+00
         -2   -1    0    0    0  501 -0.00000000000E+00  0.00000000000E+00  0.32766316271E+03  0.32766316271E+03  0.00000000000E+00 0.  1.
         21   -1    0    0  503  502  0.00000000000E+00 -0.00000000000E+00 -0.28928585081E+03  0.28928585081E+03  0.00000000000E+00 0. -1.
         21    1    1    2  503  501  0.15076291367E+02  0.66463840290E+02  0.70793272643E+02  0.98267105783E+02  0.00000000000E+00 0.  1.
         21    1    1    2  504  505 -0.36709610596E+02  0.25393068872E+02 -0.40834956879E+02  0.60497083898E+02  0.00000000000E+00 0.  1.
         21    1    1    2  505  502  0.21904275419E+02  0.36198732710E+02 -0.20498619168E+03  0.20930715304E+03  0.00000000000E+00 0. -1.
         -2    1    1    2    0  504 -0.27095619016E+00 -0.12805564187E+03  0.21340518783E+03  0.24887767080E+03  0.00000000000E+00 0.  1.
<scales pt_clust_3="14000.00000" pt_clust_4="53.06141" pt_clust_5="42.31011" pt_clust_6="93.74311"></scales>
<clustering>
<clus scale="   42.310">  2  5  1 -1</clus>
<clus scale="   53.061">  2  4  1 -1</clus>
<clus scale="   93.743">  2  6  1 -1</clus>
<clus scale="   42.310">  2  3  1 -1</clus>
</clustering>
</event>
<event>
 6    0  0.3800129E+002  0.1032851E+03  0.7546771E-02  0.1273536E+00
         21   -1    0    0  501  502  0.00000000000E+00  0.00000000000E+00  0.12133110748E+03  0.12133110748E+03  0.00000000000E+00 0. -1.
          2   -1    0    0  503    0 -0.00000000000E+00 -0.00000000000E+00 -0.26566387846E+04  0.26566387846E+04  0.00000000000E+00 0.  1.
         21    1    1    2  503  504 -0.18412035977E+02  0.43492525900E+02 -0.17119897926E+03  0.17759418171E+03  0.00000000000E+00 0.  1.
         21    1    1    2  504  505 -0.73487320484E+02  0.37766899007E+00 -0.22642949545E+02  0.76897542677E+02  0.00000000000E+00 0. -1.
         21    1    1    2  505  502 -0.13462141711E+02 -0.69018384178E+02  0.76026362520E+02  0.10356048673E+03  0.00000000000E+00 0. -1.
          2    1    1    2  501    0  0.10536149817E+03  0.25148189288E+02 -0.24174921108E+04  0.24199176809E+04  0.00000000000E+00 0.  1.
<scales pt_clust_3="47.22926" pt_clust_4="103.28505" pt_clust_5="70.10198" pt_clust_6="14000.00000"></scales>
<clustering>
<clus scale="   47.229">  2  3  1 -1</clus>
<clus scale="   70.102">  1  5  2 -1</clus>
<clus scale="  103.285">  1  4  2 -1</clus>
<clus scale="   70.102">  1  3  2 -1</clus>
</clustering>
</event>
<event>
 6    0  0.3800129E+002  0.6635998E+02  0.7546771E-02  0.1372928E+00
         21   -1    0    0  505  502  0.00000000000E+00  0.00000000000E+00  0.27230375774E+03  0.27230375774E+03  0.00000000000E+00 0.  1.
          2   -1    0    0  503    0 -0.00000000000E+00 -0.00000000000E+00 -0.25936045483E+04  0.25936045483E+04  0.00000000000E+00 0.  1.
         21    1    1    2  503  504 -0.11533885840E+02  0.54395639518E+02 -0.19753839238E+03  0.20521533224E+03  0.00000000000E+00 0.  1.
         21    1    1    2  504  502 -0.51575790778E+02  0.91197836862E+01  0.24490507041E+02  0.57818834163E+02  0.00000000000E+00 0.  1.
         21    1    1    2  505  501  0.23351459673E+02  0.51097657498E+02  0.22226440002E+03  0.22925471595E+03  0.00000000000E+00 0.  1.
          2    1    1    2  501    0  0.39758216945E+02 -0.11461308070E+03 -0.23705173052E+04  0.23736194237E+04  0.00000000000E+00 0.  1.
<scales pt_clust_3="55.93662" pt_clust_4="52.37588" pt_clust_5="66.35998" pt_clust_6="14000.00000"></scales>
<clustering>
<clus scale="   52.376">  1  4  2 -1</clus>
<clus scale="   55.937">  2  3  1 -1</clus>
<clus scale="   66.360">  1  5  2 -1</clus>
<clus scale="   52.376">  1  3  2 -1</clus>
</clustering>
</event>
<event>
 6    0  0.3800129E+002  0.1771582E+03  0.7546771E-02  0.1170582E+00
         -1   -1    0    0    0  501 -0.00000000000E+00  0.00000000000E+00  0.66696614072E+03  0.66696614072E+03  0.00000000000E+00 0.  1.
         21   -1    0    0  504  502  0.00000000000E+00 -0.00000000000E+00 -0.23002440641E+03  0.23002440641E+03  0.00000000000E+00 0.  1.
         21    1    1    2  503  505  0.10601751594E+02  0.38617629303E+02 -0.78873156437E+02  0.88457296116E+02  0.00000000000E+00 0. -1.
         21    1    1    2  504  503  0.49086450741E+02  0.11788037448E+03 -0.95032436167E+02  0.15917420098E+03  0.00000000000E+00 0.  1.
         21    1    1    2  505  501  0.30741563064E+02  0.13765685456E+01  0.16452744558E+03  0.16738046179E+03  0.00000000000E+00 0. -1.
         -1    1    1    2    0  502 -0.90429765399E+02 -0.15787457233E+03  0.44631988133E+03  0.48197858825E+03  0.00000000000E+00 0.  1.
<scales pt_clust_3="30.72828" pt_clust_4="30.72828" pt_clust_5="30.77237" pt_clust_6="168.40769"></scales>
<clustering>
<clus scale="   30.772">  1  5  2 -1</clus>
<clus scale="   30.728">  3  4 -1 -1</clus>
<clus scale="  168.408">  1  6  2 -1</clus>
<clus scale="  177.158">  2  3  1 -1</clus>
</clustering>
</event>
<event>
 6    0  0.3800129E+002  0.1244653E+03  0.7546771E-02  0.1235907E+00
          1   -1    0    0  505    0 -0.00000000000E+00  0.00000000000E+00  0.37317695017E+03  0.37317695017E+03  0.00000000000E+00 0. -1.
         21   -1    0    0  504  502  0.00000000000E+00 -0.00000000000E+00 -0.24556362399E+03  0.24556362399E+03  0.00000000000E+00 0. -1.
         21    1    1    2  503  502  0.12813969294E+02 -0.90652795713E+02 -0.17702470226E+03  0.19929845055E+03  0.00000000000E+00 0. -1.
         21    1    1    2  504  501  0.40149400943E+02 -0.24797515909E+02 -0.14815834982E+02  0.49461097416E+02  0.00000000000E+00 0. -1.
         21    1    1    2  505  503  0.33492789069E+02 -0.33399558266E+01  0.28777164227E+02  0.44283714902E+02  0.00000000000E+00 0.  1.
          1    1    1    2  501    0 -0.86456159306E+02  0.11879026745E+03  0.29067669921E+03  0.32569731129E+03  0.00000000000E+00 0. -1.
<scales pt_clust_3="14000.00000" pt_clust_4="48.75247" pt_clust_5="33.65891" pt_clust_6="124.46530"></scales>
<clustering>
<clus scale="   33.659">  1  5  2 -1</clus>
<clus scale="   48.752">  2  4  1 -1</clus>
<clus scale="  124.465">  1  6  2 -1</clus>
<clus scale="   48.752">  2  3  1 -1</clus>
</clustering>
</event>
<event>
 6    0  0.3800129E+002  0.1011150E+03  0.7546771E-02  0.1277969E+00
         21   -1    0    0  505  502  0.00000000000E+00  0.00000000000E+00  0.90472463813E+02  0.90472463813E+02  0.00000000000E+00 0.  1.
          1   -1    0    0  504    0 -0.00000000000E+00 -0.00000000000E+00 -0.29723196171E+04  0.29723196171E+04  0.00000000000E+00 0. -1.
         21    1    1    2  503  501 -0.78627772140E+02  0.84734887638E+02 -0.31156995235E+02  0.11972086738E+03  0.00000000000E+00 0.  1.
         21    1    1    2  504  502 -0.31082301718E+02  0.33710265833E+02 -0.54398238698E+03  0.54591146612E+03  0.00000000000E+00 0. -1.
         21    1    1    2  505  503  0.58489756333E+02  0.12740741553E+02  0.22313267873E+02  0.63884740075E+02  0.00000000000E+00 0.  1.
          1    1    1    2  501    0  0.51220317525E+02 -0.13118589502E+03 -0.23290210390E+04  0.23332750074E+04  0.00000000000E+00 0. -1.
<scales pt_clust_3="101.11500" pt_clust_4="45.85293" pt_clust_5="59.66366" pt_clust_6="14000.00000"></scales>
<clustering>
<clus scale="   45.853">  2  4  1 -1</clus>
<clus scale="   59.664">  1  5  2 -1</clus>
<clus scale="  101.115">  1  3  2 -1</clus>
<clus scale="   59.664">  1  3  2 -1</clus>
</clustering>
</event>
<event>
 6    0  0.3800129E+002  0.9563810E+02  0.7546771E-02  0.1289745E+00
          1   -1    0    0  503    0 -0.00000000000E+00  0.00000000000E+00  0.14008812875E+03  0.14008812875E+03  0.00000000000E+00 0. -1.
         21   -1    0    0  505  502  0.00000000000E+00 -0.00000000000E+00 -0.33599948461E+03  0.33599948461E+03  0.00000000000E+00 0. -1.
         21    1    1    2  503  504  0.30907501977E+01 -0.86981702697E+02  0.35300447968E+02  0.93922792588E+02  0.00000000000E+00 0. -1.
         21    1    1    2  504  502 -0.76262226726E+02  0.31090007077E+02 -0.85573444349E+02  0.11876586270E+03  0.00000000000E+00 0. -1.
         21    1    1    2  505  501  0.33687141347E+02 -0.61232920550E+02 -0.11737786192E+03  0.13660840574E+03  0.00000000000E+00 0. -1.
          1    1    1    2  501    0  0.39484335181E+02  0.11712461617E+03 -0.28260497567E+02  0.12679055233E+03  0.00000000000E+00 0. -1.
<scales pt_clust_3="14000.00000" pt_clust_4="59.80596" pt_clust_5="69.88772" pt_clust_6="95.63810"></scales>
<clustering>
<clus scale="   69.888">  2  5  1 -1</clus>
<clus scale="   59.806">  2  4  1 -1</clus>
<clus scale="   95.638">  2  6  1 -1</clus>
<clus scale="   69.888">  2  3  1 -1</clus>
</clustering>
</event>
<event>
 6    0  0.3800129E+002  0.1333964E+03  0.7546771E-02  0.1222501E+00
         -1   -1    0    0    0  501 -0.00000000000E+00  0.00000000000E+00  0.17917802082E+03  0.17917802082E+03  0.00000000000E+00 0.  1.
         21   -1    0    0  505  502  0.00000000000E+00 -0.00000000000E+00 -0.20242811338E+04  0.20242811338E+04  0.00000000000E+00 0. -1.
         21    1    1    2  503  501 -0.92005109911E+02 -0.46856023317E+02  0.32555522801E+02  0.10826028467E+03  0.00000000000E+00 0.  1.
         21    1    1    2  504  503 -0.48037706174E+02  0.31045441332E+02 -0.60012477531E+03  0.60284424736E+03  0.00000000000E+00 0. -1.
         21    1    1    2  505  504 -0.61292229262E+02  0.34043789242E+02 -0.12880171782E+04  0.12899240165E+04  0.00000000000E+00 0. -1.
         -1    1    1    2    0  502  0.20133504535E+03 -0.18233207257E+02  0.10483317741E+02  0.20243060609E+03  0.00000000000E+00 0.  1.
<scales pt_clust_3="103.24934" pt_clust_4="32.59096" pt_clust_5="32.59096" pt_clust_6="128.42344"></scales>
<clustering>
<clus scale="   32.591">  4  5 -1 -1</clus>
<clus scale="  103.249">  1  3  2 -1</clus>
<clus scale="  128.423">  1  6  2 -1</clus>
<clus scale="  133.396">  2  3  1 -1</clus>
</clustering>
</event>
<event>
 6    0  0.3800129E+002  0.1127534E+03  0.7546771E-02  0.1255554E+00
         21   -1    0    0  505  502  0.00000000000E+00  0.00000000000E+00  0.21150483536E+03  0.21150483536E+03  0.00000000000E+00 0.  1.
          1   -1    0    0  504    0 -0.00000000000E+00 -0.00000000000E+00 -0.29602375555E+04  0.29602375555E+04  0.00000000000E+00 0. -1.
         21    1    1    2  503  502  0.34400237672E+02  0.13513007210E+02  0.16954937363E+03  0.17353088432E+03  0.00000000000E+00 0.  1.
         21    1    1    2  504  503 -0.13721579271E+02  0.62321637363E+02  0.79834083548E+01  0.64311764323E+02  0.00000000000E+00 0. -1.
         21    1    1    2  505  501  0.20382458422E+02  0.31243436732E+02 -0.12902849607E+03  0.13431288006E+03  0.00000000000E+00 0.  1.
          1    1    1    2  501    0 -0.41061116823E+02 -0.10707808130E+03 -0.27972370061E+04  0.27995868622E+04  0.00000000000E+00 0. -1.
<scales pt_clust_3="36.95914" pt_clust_4="14000.00000" pt_clust_5="39.32054" pt_clust_6="112.75339"></scales>
<clustering>
<clus scale="   36.959">  1  3  2 -1</clus>
<clus scale="   39.321">  1  5  2 -1</clus>
<clus scale="  112.753">  2  6  1 -1</clus>
<clus scale="   36.959">  1  3  2 -1</clus>
</clustering>
</event>
<event>
 6    0  0.3800129E+002  0.6892089E+02  0.7546771E-02  0.1363802E+00
         21   -1    0    0  503  502  0.00000000000E+00  0.00000000000E+00  0.10255672749E+03  0.10255672749E+03  0.00000000000E+00 0. -1.
          1   -1    0    0  505    0 -0.00000000000E+00 -0.00000000000E+00 -0.13774461417E+04  0.13774461417E+04  0.00000000000E+00 0.  1.
         21    1    1    2  503  501 -0.58828907290E+02  0.83095042165E+01 -0.49604771067E+01  0.59619581736E+02  0.00000000000E+00 0.  1.
         21    1    1    2  504  502  0.60556209568E+02 -0.51803194789E+02  0.50064104703E+02  0.94111848815E+02  0.00000000000E+00 0. -1.
         21    1    1    2  505  504 -0.35661136216E+02 -0.29808319250E+02 -0.38490182210E+03  0.38769790455E+03  0.00000000000E+00 0.  1.
          1    1    1    2  501    0  0.33933833937E+02  0.73302009822E+02 -0.93509121970E+03  0.93857353409E+03  0.00000000000E+00 0.  1.
<scales pt_clust_3="68.92089" pt_clust_4="14000.00000" pt_clust_5="46.47852" pt_clust_6="45.12773"></scales>
<clustering>
<clus scale="   46.479">  2  5  1 -1</clus>
<clus scale="   45.128">  2  6  1 -1</clus>
<clus scale="   68.921">  2  3  1 -1</clus>
<clus scale="   68.921">  1  3  2 -1</clus>
</clustering>
</event>
<event>
 6    0  0.3800129E+002  0.1337709E+03  0.7546771E-02  0.1221965E+00
         21   -1    0    0  505  502  0.00000000000E+00  0.00000000000E+00  0.40004156435E+02  0.40004156435E+02  0.00000000000E+00 0.  1.
          2   -1    0    0  504    0 -0.00000000000E+00 -0.00000000000E+00 -0.18963055638E+04  0.18963055638E+04  0.00000000000E+00 0. -1.
         21    1    1    2  503  502  0.47299866089E+00 -0.30771566597E+02 -0.50535073566E+02  0.59168460339E+02  0.00000000000E+00 0.  1.
         21    1    1    2  504  503 -0.87946677880E+02 -0.89458542395E+02 -0.67482756224E+03  0.68638887499E+03  0.00000000000E+00 0.  1.
         21    1    1    2  505  501  0.40624613496E+02 -0.18766301249E+02  0.53204806551E+01  0.45064851034E+02  0.00000000000E+00 0.  1.
          2    1    1    2  501    0  0.46849065723E+02  0.13899641024E+03 -0.11362592522E+04  0.11456875339E+04  0.00000000000E+00 0. -1.
<scales pt_clust_3="30.77520" pt_clust_4="133.77087" pt_clust_5="57.59285" pt_clust_6="14000.00000"></scales>
<clustering>
<clus scale="   30.775">  1  3  2 -1</clus>
<clus scale="   57.593">  1  5  2 -1</clus>
<clus scale="  133.771">  1  4  2 -1</clus>
<clus scale="   30.775">  1  3  2 -1</clus>
</clustering>
</event>
<event>
 6    0  0.3800129E+002  0.1689974E+03  0.7546771E-02  0.1178897E+00
          2   -1    0    0  505    0 -0.00000000000E+00  0.00000000000E+00  0.24529849531E+04  0.24529849531E+04  0.00000000000E+00 0. -1.
         21   -1    0    0  504  502  0.00000000000E+00 -0.00000000000E+00 -0.87671924087E+03  0.87671924087E+03  0.00000000000E+00 0. -1.
         21    1    1    2  503  502 -0.49649117977E+02  0.18982040912E+02 -0.11216402284E+03  0.12412139547E+03  0.00000000000E+00 0. -1.
         21    1    1    2  504  501 -0.66230201220E+02  0.10468618083E+03 -0.74741592029E+03  0.75761216589E+03  0.00000000000E+00 0. -1.
         21    1    1    2  505  503  0.32455225550E+02  0.11005397473E+02  0.82986399030E+02  0.89784201634E+02  0.00000000000E+00 0. -1.
          2    1    1    2  501    0  0.83424093647E+02 -0.13467361922E+03  0.23528592564E+04  0.23581864310E+04  0.00000000000E+00 0. -1.
<scales pt_clust_3="53.08742" pt_clust_4="14000.00000" pt_clust_5="34.27040" pt_clust_6="168.99736"></scales>
<clustering>
<clus scale="   34.270">  1  5  2 -1</clus>
<clus scale="   53.087">  2  3  1 -1</clus>
<clus scale="  168.997">  1  6  2 -1</clus>
<clus scale="   53.087">  2  3  1 -1</clus>
</clustering>
</event>
<event>
 6    0  0.3800129E+002  0.8394504E+02  0.7546771E-02  0.1318215E+00
         21   -1    0    0  504  502  0.00000000000E+00  0.00000000000E+00  0.18698736363E+04  0.18698736363E+04  0.00000000000E+00 0.  1.
          2   -1    0    0  503    0 -0.00000000000E+00 -0.00000000000E+00 -0.72079744005E+03  0.72079744005E+03  0.00000000000E+00 0. -1.
         21    1    1    2  503  502  0.37076427433E+02  0.58872292980E+02  0.81477878011E+03  0.81774388953E+03  0.00000000000E+00 0.  1.
         21    1    1    2  504  505 -0.94601968146E+02 -0.77226621046E+02  0.10445941090E+04  0.10517082941E+04  0.00000000000E+00 0.  1.
         21    1    1    2  505  501  0.27316752965E+02  0.20031408338E+02 -0.50977917792E+02  0.61206293916E+02  0.00000000000E+00 0.  1.
          2    1    1    2  501    0  0.30208787748E+02 -0.16770802726E+01 -0.65931877504E+03  0.66001259880E+03  0.00000000000E+00 0. -1.
<scales pt_clust_3="14000.00000" pt_clust_4="83.94504" pt_clust_5="58.05897" pt_clust_6="30.25530"></scales>
<clustering>
<clus scale="   30.255">  2  6  1 -1</clus>
<clus scale="   58.059">  2  5  1 -1</clus>
<clus scale="   83.945">  2  4  1 -1</clus>
<clus scale="   83.945">  1  3  2 -1</clus>
</clustering>
</event>
<event>
 6    0  0.3800129E+002  0.9463981E+02  0.7546771E-02  0.1291989E+00
          2   -1    0    0  505    0 -0.00000000000E+00  0.00000000000E+00  0.83961477790E+03  0.83961477790E+03  0.00000000000E+00 0. -1.
         21   -1    0    0  503  502  0.00000000000E+00 -0.00000000000E+00 -0.55367090493E+02  0.55367090493E+02  0.00000000000E+00 0. -1.
         21    1    1    2  503  501  0.13974498306E+02 -0.87896940749E+02  0.14524896776E+02  0.90178331224E+02  0.00000000000E+00 0. -1.
         21    1    1    2  504  502  0.32221702564E+02 -0.19753632959E+02  0.10798568152E+03  0.11440870397E+03  0.00000000000E+00 0. -1.
         21    1    1    2  505  504  0.28664303286E+02 -0.19660686558E+02  0.26108381588E+03  0.26338744046E+03  0.00000000000E+00 0. -1.
          2    1    1    2  501    0 -0.74860504156E+02  0.12731126027E+03  0.40065329323E+03  0.42700739274E+03  0.00000000000E+00 0. -1.
<scales pt_clust_3="94.63981" pt_clust_4="80.73186" pt_clust_5="34.00101" pt_clust_6="14000.00000"></scales>
<clustering>
<clus scale="   34.001">  4  5 -1 -1</clus>
<clus scale="   80.732">  1  4  2 -1</clus>
<clus scale="   94.640">  2  3  1 -1</clus>
<clus scale="   94.640">  2  3  1 -1</clus>
</clustering>
</event>
<event>
 6    0  0.3800129E+002  0.1412170E+03  0.7546771E-02  0.1211701E+00
         21   -1    0    0  505  502  0.00000000000E+00  0.00000000000E+00  0.11366039698E+03  0.11366039698E+03  0.00000000000E+00 0.  1.
          2   -1    0    0  504    0 -0.00000000000E+00 -0.00000000000E+00 -0.48854030087E+03  0.48854030087E+03  0.00000000000E+00 0.  1.
         21    1    1    2  503  501 -0.13174354593E+02 -0.14418915264E+03 -0.14093846590E+02  0.14547409346E+03  0.00000000000E+00 0.  1.
         21    1    1    2  504  502  0.30438038502E+02 -0.29139008941E+01 -0.97135329784E+02  0.10183436207E+03  0.00000000000E+00 0.  1.
         21    1    1    2  505  503  0.35589790902E+02  0.67984619421E+01  0.14404071813E+02  0.38991404002E+02  0.00000000000E+00 0. -1.
          2    1    1    2  501    0 -0.52853474811E+02  0.14030459159E+03 -0.27805479932E+03  0.31590083831E+03  0.00000000000E+00 0.  1.
<scales pt_clust_3="141.21702" pt_clust_4="30.57720" pt_clust_5="37.16174" pt_clust_6="14000.00000"></scales>
<clustering>
<clus scale="   30.577">  2  4  1 -1</clus>
<clus scale="   37.162">  1  5  2 -1</clus>
<clus scale="  141.217">  1  3  2 -1</clus>
<clus scale="   37.162">  1  3  2 -1</clus>
</clustering>
</event>
<event>
 6    0  0.3800129E+002  0.1876861E+03  0.7546771E-02  0.1160565E+00
          1   -1    0    0  505    0 -0.00000000000E+00  0.00000000000E+00  0.24249840424E+04  0.24249840424E+04  0.00000000000E+00 0. -1.
         21   -1    0    0  503  502  0.00000000000E+00 -0.00000000000E+00 -0.86877699356E+02  0.86877699356E+02  0.00000000000E+00 0.  1.
         21    1    1    2  503  501 -0.26244307878E+02 -0.45714622392E+02  0.81131890921E+01  0.53333050107E+02  0.00000000000E+00 0. -1.
         21    1    1    2  504  502 -0.35701070762E+02 -0.66397368305E+01 -0.41623543454E+02  0.55237414208E+02  0.00000000000E+00 0.  1.
         21    1    1    2  505  504  0.17357714900E+03 -0.97232082575E+02  0.10669722544E+04  0.10853630251E+04  0.00000000000E+00 0.  1.
          1    1    1    2  501    0 -0.11163177036E+03  0.14958644180E+03  0.13046444430E+04  0.13179282523E+04  0.00000000000E+00 0. -1.
<scales pt_clust_3="68.51004" pt_clust_4="36.31326" pt_clust_5="14000.00000" pt_clust_6="187.68612"></scales>
<clustering>
<clus scale="   36.313">  2  4  1 -1</clus>
<clus scale="   68.510">  2  3  1 -1</clus>
<clus scale="  187.686">  1  6  2 -1</clus>
<clus scale="   36.313">  2  3  1 -1</clus>
</clustering>
</event>
<event>
 6    0  0.3800129E+002  0.1360779E+03  0.7546771E-02  0.1218706E+00
         21   -1    0    0  503  502  0.00000000000E+00  0.00000000000E+00  0.38768343811E+02  0.38768343811E+02  0.00000000000E+00 0. -1.
          1   -1    0    0  504    0 -0.00000000000E+00 -0.00000000000E+00 -0.33303535410E+04  0.33303535410E+04  0.00000000000E+00 0. -1.
         21    1    1    2  503  501 -0.68971313654E+02 -0.70838746814E+02 -0.53013223784E+02  0.11218543601E+03  0.00000000000E+00 0. -1.
         21    1    1    2  504  505 -0.65135024619E+02 -0.73617707350E+02 -0.66282312681E+03  0.67007211231E+03  0.00000000000E+00 0. -1.
         21    1    1    2  505  502  0.32047050466E+02  0.15027747351E+02 -0.10874757240E+03  0.11436293603E+03  0.00000000000E+00 0. -1.
          1    1    1    2  501    0  0.10205928781E+03  0.12942870681E+03 -0.24670012742E+04  0.24725014004E+04  0.00000000000E+00 0. -1.
<scales pt_clust_3="72.34988" pt_clust_4="14000.00000" pt_clust_5="35.39557" pt_clust_6="136.07788"></scales>
<clustering>
<clus scale="   35.396">  1  5  2 -1</clus>
<clus scale="   72.350">  1  3  2 -1</clus>
<clus scale="  136.078">  2  6  1 -1</clus>
<clus scale="   35.396">  1  3  2 -1</clus>
</clustering>
</event>
<event>
 6    0  0.3800129E+002  0.2460129E+03  0.7546771E-02  0.1115851E+00
          2   -1    0    0  503    0 -0.00000000000E+00  0.00000000000E+00  0.14119044409E+04  0.14119044409E+04  0.00000000000E+00 0.  1.
         21   -1    0    0  501  502  0.00000000000E+00 -0.00000000000E+00 -0.54317883715E+02  0.54317883715E+02  0.00000000000E+00 0.  1.
         21    1    1    2  503  504  0.26206352815E+01 -0.35030559631E+02  0.24751841288E+03  0.24999874510E+03  0.00000000000E+00 0.  1.
         21    1    1    2  504  505 -0.61083257094E+02 -0.86297877422E+02  0.26576609364E+03  0.28602465711E+03  0.00000000000E+00 0.  1.
         21    1    1    2  505  502 -0.94579379710E+02 -0.76208144315E+02  0.15448302104E+03  0.19651448831E+03  0.00000000000E+00 0.  1.
          2    1    1    2  501    0  0.15304200152E+03  0.19753658137E+03  0.68981902967E+03  0.73368443415E+03  0.00000000000E+00 0.  1.
<scales pt_clust_3="35.12845" pt_clust_4="71.02389" pt_clust_5="71.02389" pt_clust_6="234.36451"></scales>
<clustering>
<clus scale="   35.128">  1  3  2 -1</clus>
<clus scale="   71.024">  4  5 -1 -1</clus>
<clus scale="  234.365">  1  6  2 -1</clus>
<clus scale="  246.013">  2  3  1 -1</clus>
</clustering>
</event>
<event>
 6    0  0.3800129E+002  0.1925145E+03  0.7546771E-02  0.1156213E+00
         21   -1    0    0  501  502  0.00000000000E+00  0.00000000000E+00  0.35796613730E+02  0.35796613730E+02  0.00000000000E+00 0. -1.
          2   -1    0    0  503    0 -0.00000000000E+00 -0.00000000000E+00 -0.23972848494E+04  0.23972848494E+04  0.00000000000E+00 0. -1.
         21    1    1    2  503  504  0.77118652251E+02 -0.62910092177E+02 -0.99954674819E+03  0.10044892573E+04  0.00000000000E+00 0. -1.
         21    1    1    2  504  505  0.86096101803E+02  0.25122988943E+02 -0.24296585607E+03  0.25899056070E+03  0.00000000000E+00 0. -1.
         21    1    1    2  505  502  0.59183772444E+02  0.63092554692E+02 -0.13388159405E+03  0.15939783751E+03  0.00000000000E+00 0.  1.
          2    1    1    2  501    0 -0.22239852650E+03 -0.25305451458E+02 -0.98509403738E+03  0.10102038076E+04  0.00000000000E+00 0. -1.
<scales pt_clust_3="99.52370" pt_clust_4="63.24236" pt_clust_5="63.24236" pt_clust_6="181.42550"></scales>
<clustering>
<clus scale="   63.242">  4  5 -1 -1</clus>
<clus scale="   99.524">  2  3  1 -1</clus>
<clus scale="  181.426">  2  6  1 -1</clus>
<clus scale="  192.515">  1  3  2 -1</clus>
</clustering>
</event>
<event>
 6    0  0.3800129E+002  0.1263186E+03  0.7546771E-02  0.1233023E+00
         21   -1    0    0  503  502  0.00000000000E+00  0.00000000000E+00  0.28412311218E+04  0.28412311218E+04  0.00000000000E+00 0. -1.
         -3   -1    0    0    0  501 -0.00000000000E+00 -0.00000000000E+00 -0.10245885505E+03  0.10245885505E+03  0.00000000000E+00 0.  1.
         21    1    1    2  503  504 -0.39415125923E+02 -0.58044026559E+01  0.13511538714E+03  0.14086664291E+03  0.00000000000E+00 0.  1.
         21    1    1    2  504  501 -0.53524074445E+02  0.35515702118E+01  0.54092306491E+02  0.76180166826E+02  0.00000000000E+00 0.  1.
         21    1    1    2  505  502 -0.45223964575E+02  0.98636811708E+02  0.25557661166E+04  0.25580685820E+04  0.00000000000E+00 0. -1.
         -3    1    1    2    0  505  0.13816316494E+03 -0.96383979264E+02 -0.62015434505E+01  0.16857458512E+03  0.00000000000E+00 0.  1.
<scales pt_clust_3="39.84022" pt_clust_4="54.58054" pt_clust_5="126.31856" pt_clust_6="14000.00000"></scales>
<clustering>
<clus scale="   39.840">  1  3  2 -1</clus>
<clus scale="   54.581">  2  4  1 -1</clus>
<clus scale="  126.319">  1  5  2 -1</clus>
<clus scale="   39.840">  1  3  2 -1</clus>
</clustering>
</event>
<event>
 6    0  0.3800129E+002  0.8953927E+02  0.7546771E-02  0.1303971E+00
          2   -1    0    0  504    0 -0.00000000000E+00  0.00000000000E+00  0.39869005939E+03  0.39869005939E+03  0.00000000000E+00 0. -1.
         21   -1    0    0  503  502  0.00000000000E+00 -0.00000000000E+00 -0.58186712555E+03  0.58186712555E+03  0.00000000000E+00 0. -1.
         21    1    1    2  503  505  0.57673908115E+02  0.37057490029E+02 -0.52232887176E+03  0.52680830244E+03  0.00000000000E+00 0. -1.
         21    1    1    2  504  502 -0.37406198094E+02  0.15603417868E+02 -0.80816983758E+01  0.41328006892E+02  0.00000000000E+00 0. -1.
         21    1    1    2  505  501  0.57686001111E+02  0.10278328042E+02  0.85331164437E+01  0.59212607000E+02  0.00000000000E+00 0. -1.
          2    1    1    2  501    0 -0.77953711132E+02 -0.62939235938E+02  0.33870038753E+03  0.35320826861E+03  0.00000000000E+00 0. -1.
<scales pt_clust_3="56.41044" pt_clust_4="40.53012" pt_clust_5="14000.00000" pt_clust_6="89.53927"></scales>
<clustering>
<clus scale="   40.530">  2  4  1 -1</clus>
<clus scale="   56.410">  2  3  1 -1</clus>
<clus scale="   89.539">  1  6  2 -1</clus>
<clus scale="   40.530">  2  3  1 -1</clus>
</clustering>
</event>
<event>
 6    0  0.3800129E+002  0.8346431E+02  0.7546771E-02  0.1319498E+00
         -2   -1    0    0    0  501 -0.00000000000E+00  0.00000000000E+00  0.46654015847E+03  0.46654015847E+03  0.00000000000E+00 0. -1.
         21   -1    0    0  504  502  0.00000000000E+00 -0.00000000000E+00 -0.95924091545E+03  0.95924091545E+03  0.00000000000E+00 0.  1.
         21    1    1    2  503  501 -0.83862518502E+02 -0.34471240390E+02 -0.29304989122E+03  0.30675629932E+03  0.00000000000E+00 0. -1.
         21    1    1    2  504  503  0.64202048482E+02  0.13139364844E+02 -0.63241487726E+03  0.63580116618E+03  0.00000000000E+00 0.  1.
         21    1    1    2  505  502  0.17906644977E+02 -0.66148994923E+02  0.36955519867E+02  0.77859154325E+02  0.00000000000E+00 0. -1.
         -2    1    1    2    0  505  0.17538250433E+01  0.87480870468E+02  0.39580849163E+03  0.40536445410E+03  0.00000000000E+00 0. -1.
<scales pt_clust_3="33.26918" pt_clust_4="65.53279" pt_clust_5="14000.00000" pt_clust_6="83.46431"></scales>
<clustering>
<clus scale="   65.533">  2  4  1 -1</clus>
<clus scale="   33.269">  2  3  1 -1</clus>
<clus scale="   83.464">  1  6  2 -1</clus>
<clus scale="   65.533">  2  3  1 -1</clus>
</clustering>
</event>
<event>
 6    0  0.3800129E+002  0.9900073E+02  0.7546771E-02  0.1282411E+00
         21   -1    0    0  505  502  0.00000000000E+00  0.00000000000E+00  0.13762638686E+02  0.13762638686E+02  0.00000000000E+00 0.  1.
          1   -1    0    0  503    0 -0.00000000000E+00 -0.00000000000E+00 -0.28553203691E+04  0.28553203691E+04  0.00000000000E+00 0. -1.
         21    1    1    2  503  504 -0.13850262296E+02  0.28604860503E+02 -0.55810504689E+03  0.55900922280E+03  0.00000000000E+00 0.  1.
         21    1    1    2  504  502 -0.27209943584E+02  0.15052980984E+02 -0.37710137053E+02  0.48877681030E+02  0.00000000000E+00 0.  1.
         21    1    1    2  505  501 -0.75915100414E+02 -0.57495304025E+01 -0.24220246097E+03  0.25388617858E+03  0.00000000000E+00 0.  1.
          1    1    1    2  501    0  0.11697530629E+03 -0.37908311085E+02 -0.20035400855E+04  0.20073099254E+04  0.00000000000E+00 0. -1.
<scales pt_clust_3="33.20070" pt_clust_4="31.09619" pt_clust_5="99.00073" pt_clust_6="14000.00000"></scales>
<clustering>
<clus scale="   31.096">  1  4  2 -1</clus>
<clus scale="   33.201">  2  3  1 -1</clus>
<clus scale="   99.001">  1  5  2 -1</clus>
<clus scale="   31.096">  1  3  2 -1</clus>
</clustering>
</event>
<event>
 6    0  0.3800129E+002  0.1353670E+03  0.7546771E-02  0.1219703E+00
         21   -1    0    0  501  502  0.00000000000E+00  0.00000000000E+00  0.90220612476E+03  0.90220612476E+03  0.00000000000E+00 0. -1.
          1   -1    0    0  503    0 -0.00000000000E+00 -0.00000000000E+00 -0.16728845987E+03  0.16728845987E+03  0.00000000000E+00 0. -1.
         21    1    1    2  503  505 -0.39973005570E+02  0.35911770025E+02  0.19371716766E+02  0.57120572573E+02  0.00000000000E+00 0.  1.
         21    1    1    2  504  502  0.37425557076E+02 -0.70939061507E+02  0.55962164135E+03  0.56534007839E+03  0.00000000000E+00 0. -1.
         21    1    1    2  505  504  0.48569187901E+02 -0.27125448408E+02  0.28835671153E+03  0.29367388214E+03  0.00000000000E+00 0. -1.
          1    1    1    2  501    0 -0.46021739407E+02  0.62152739890E+02 -0.13243240475E+03  0.15336005152E+03  0.00000000000E+00 0. -1.
<scales pt_clust_3="53.73543" pt_clust_4="35.58751" pt_clust_5="35.58751" pt_clust_6="128.44561"></scales>
<clustering>
<clus scale="   35.588">  4  5 -1 -1</clus>
<clus scale="   53.735">  2  3  1 -1</clus>
<clus scale="  128.446">  2  6  1 -1</clus>
<clus scale="  135.367">  1  3  2 -1</clus>
</clustering>
</event>
<event>
 6    0  0.4231231E+002  0.1629929E+03  0.7546771E-02  0.1185359E+00
         21   -1    0    0  504  502  0.00000000000E+00  0.00000000000E+00  0.63240963816E+03  0.63240963816E+03  0.00000000000E+00 0. -1.
          1   -1    0    0  503    0 -0.00000000000E+00 -0.00000000000E+00 -0.18357492244E+04  0.18357492244E+04  0.00000000000E+00 0.  1.
         21    1    1    2  503  505 -0.76164194520E+00 -0.35298159882E+02 -0.25657080888E+02  0.43644312221E+02  0.00000000000E+00 0.  1.
         21    1    1    2  504  501  0.62806200198E+02  0.12670715773E+03  0.55577373881E+03  0.57348388936E+03  0.00000000000E+00 0. -1.
         21    1    1    2  505  502 -0.12911270120E+02  0.29282193178E+02  0.51873944735E+02  0.60951241790E+02  0.00000000000E+00 0.  1.
          1    1    1    2  501    0 -0.49133288133E+02 -0.12069119102E+03 -0.17853301889E+04  0.17900794192E+04  0.00000000000E+00 0.  1.
<scales pt_clust_3="34.85426" pt_clust_4="14000.00000" pt_clust_5="32.00231" pt_clust_6="162.99287"></scales>
<clustering>
<clus scale="   32.002">  1  5  2 -1</clus>
<clus scale="   34.854">  2  3  1 -1</clus>
<clus scale="  162.993">  2  6  1 -1</clus>
<clus scale="   32.002">  1  3  2 -1</clus>
</clustering>
</event>
<event>
 6    0  0.3800129E+002  0.9624733E+02  0.7546771E-02  0.1288391E+00
         21   -1    0    0  501  502  0.00000000000E+00  0.00000000000E+00  0.28992762571E+03  0.28992762571E+03  0.00000000000E+00 0.  1.
          1   -1    0    0  503    0 -0.00000000000E+00 -0.00000000000E+00 -0.20464156986E+03  0.20464156986E+03  0.00000000000E+00 0.  1.
         21    1    1    2  503  505 -0.29376523707E+02 -0.32140900904E+02 -0.55702115416E+02  0.70701791475E+02  0.00000000000E+00 0.  1.
         21    1    1    2  504  502 -0.70473508854E+02  0.66948380378E+02  0.23835237295E+03  0.25741106188E+03  0.00000000000E+00 0.  1.
         21    1    1    2  505  504  0.37408914317E+02  0.24471784147E+02 -0.14591873064E+02  0.47023588221E+02  0.00000000000E+00 0.  1.
          1    1    1    2  501    0  0.62441118245E+02 -0.59279263621E+02 -0.82772328619E+02  0.11943275400E+03  0.00000000000E+00 0.  1.
<scales pt_clust_3="43.54328" pt_clust_4="96.24733" pt_clust_5="35.59314" pt_clust_6="14000.00000"></scales>
<clustering>
<clus scale="   43.543">  2  3  1 -1</clus>
<clus scale="   35.593">  2  5  1 -1</clus>
<clus scale="   96.247">  1  4  2 -1</clus>
<clus scale="   96.247">  1  3  2 -1</clus>
</clustering>
</event>
<event>
 6    0  0.3800129E+002  0.1421312E+03  0.7546771E-02  0.1210490E+00
          2   -1    0    0  504    0 -0.00000000000E+00  0.00000000000E+00  0.76013262134E+03  0.76013262134E+03  0.00000000000E+00 0. -1.
         21   -1    0    0  501  502  0.00000000000E+00 -0.00000000000E+00 -0.59561521467E+02  0.59561521467E+02  0.00000000000E+00 0. -1.
         21    1    1    2  503  505 -0.61162056517E+02  0.73396423753E+01  0.39820306108E+02  0.73350693836E+02  0.00000000000E+00 0. -1.
         21    1    1    2  504  503 -0.22557361527E+02 -0.41025934679E+02  0.17769759013E+03  0.18376178986E+03  0.00000000000E+00 0. -1.
         21    1    1    2  505  502 -0.57547178527E+02  0.53228163549E+02  0.24143385560E+02  0.82023278510E+02  0.00000000000E+00 0. -1.
          2    1    1    2  501    0  0.14126659657E+03 -0.19541871245E+02  0.45890981807E+03  0.48055838060E+03  0.00000000000E+00 0. -1.
<scales pt_clust_3="42.41535" pt_clust_4="46.81839" pt_clust_5="42.41535" pt_clust_6="133.83535"></scales>
<clustering>
<clus scale="   42.415">  3  5 -1 -1</clus>
<clus scale="   46.818">  1  4  2 -1</clus>
<clus scale="  133.835">  1  6  2 -1</clus>
<clus scale="  142.131">  2  3  1 -1</clus>
</clustering>
</event>
<event>
 6    0  0.3800129E+002  0.1240773E+03  0.7546771E-02  0.1236518E+00
          2   -1    0    0  505    0 -0.00000000000E+00  0.00000000000E+00  0.30076295430E+03  0.30076295430E+03  0.00000000000E+00 0.  1.
         21   -1    0    0  503  502  0.00000000000E+00 -0.00000000000E+00 -0.76414458649E+03  0.76414458649E+03  0.00000000000E+00 0.  1.
         21    1    1    2  503  504 -0.13595555864E+02  0.52241048045E+02 -0.37940071391E+03  0.38322169557E+03  0.00000000000E+00 0. -1.
         21    1    1    2  504  501 -0.79322707616E+02  0.38822114551E+02 -0.35623900710E+03  0.36702244986E+03  0.00000000000E+00 0.  1.
         21    1    1    2  505  502  0.52055347368E+02 -0.31775854017E+02  0.43690398264E+02  0.75022096669E+02  0.00000000000E+00 0. -1.
          2    1    1    2  501    0  0.40862916112E+02 -0.59287308579E+02  0.22856769056E+03  0.23964129869E+03  0.00000000000E+00 0.  1.
<scales pt_clust_3="53.98117" pt_clust_4="14000.00000" pt_clust_5="59.41856" pt_clust_6="124.07728"></scales>
<clustering>
<clus scale="   53.981">  2  3  1 -1</clus>
<clus scale="   59.419">  1  5  2 -1</clus>
<clus scale="  124.077">  1  6  2 -1</clus>
<clus scale="   53.981">  2  3  1 -1</clus>
</clustering>
</event>
<event>
 6    0  0.3800129E+002  0.1101624E+03  0.7546771E-02  0.1260269E+00
         21   -1    0    0  505  502  0.00000000000E+00  0.00000000000E+00  0.95384691317E+03  0.95384691317E+03  0.00000000000E+00 0.  1.
         -1   -1    0    0    0  501 -0.00000000000E+00 -0.00000000000E+00 -0.27318700053E+03  0.27318700053E+03  0.00000000000E+00 0.  1.
         21    1    1    2  503  502 -0.78162494520E+02  0.28897100964E+02  0.38196326657E+03  0.39094802085E+03  0.00000000000E+00 0.  1.
         21    1    1    2  504  501 -0.15878433033E+02  0.25492847212E+02 -0.28783345617E+01  0.30171090541E+02  0.00000000000E+00 0. -1.
         21    1    1    2  505  504  0.79887995426E+01  0.58406264473E+02  0.53203251570E+03  0.53528843665E+03  0.00000000000E+00 0.  1.
         -1    1    1    2    0  503  0.86052128011E+02 -0.11279621265E+03 -0.23045753507E+03  0.27062636566E+03  0.00000000000E+00 0.  1.
<scales pt_clust_3="110.16244" pt_clust_4="30.03348" pt_clust_5="59.09677" pt_clust_6="14000.00000"></scales>
<clustering>
<clus scale="   30.033">  2  4  1 -1</clus>
<clus scale="   59.097">  1  5  2 -1</clus>
<clus scale="  110.162">  1  3  2 -1</clus>
<clus scale="   59.097">  1  3  2 -1</clus>
</clustering>
</event>
<event>
 6    0  0.3800129E+002  0.9220405E+02  0.7546771E-02  0.1297600E+00
          2   -1    0    0  505    0 -0.00000000000E+00  0.00000000000E+00  0.16863637375E+04  0.16863637375E+04  0.00000000000E+00 0.  1.
         21   -1    0    0  501  502  0.00000000000E+00 -0.00000000000E+00 -0.23174107800E+04  0.23174107800E+04  0.00000000000E+00 0. -1.
         21    1    1    2  503  502 -0.17181036928E+02 -0.27783404430E+02 -0.13046196816E+04  0.13050285895E+04  0.00000000000E+00 0. -1.
         21    1    1    2  504  503  0.10591908348E+03  0.51000099234E+02 -0.99324543978E+03  0.10001781671E+04  0.00000000000E+00 0. -1.
         21    1    1    2  505  504  0.54168717854E+02  0.51214366847E+02  0.10676010548E+03  0.13021091155E+03  0.00000000000E+00 0.  1.
          2    1    1    2  501    0 -0.14290676441E+03 -0.74431061651E+02  0.15600579735E+04  0.15683568493E+04  0.00000000000E+00 0.  1.
<scales pt_clust_3="32.66658" pt_clust_4="14000.00000" pt_clust_5="74.18084" pt_clust_6="92.20405"></scales>
<clustering>
<clus scale="   32.667">  2  3  1 -1</clus>
<clus scale="   74.181">  1  5  2 -1</clus>
<clus scale="   92.204">  1  6  2 -1</clus>
<clus scale="   32.667">  2  3  1 -1</clus>
</clustering>
</event>
<event>
 6    0  0.3800129E+002  0.2501292E+03  0.7546771E-02  0.1113223E+00
          2   -1    0    0  503    0 -0.00000000000E+00  0.00000000000E+00  0.32704740250E+03  0.32704740250E+03  0.00000000000E+00 0.  1.
         21   -1    0    0  501  502  0.00000000000E+00 -0.00000000000E+00 -0.50011470938E+03  0.50011470938E+03  0.00000000000E+00 0. -1.
         21    1    1    2  503  504  0.19846185307E+02 -0.50662766876E+02  0.13565217799E+03  0.14615779285E+03  0.00000000000E+00 0.  1.
         21    1    1    2  504  505 -0.57545786134E+02 -0.11864998326E+03 -0.13308261462E+03  0.18735078954E+03  0.00000000000E+00 0. -1.
         21    1    1    2  505  502 -0.90297494246E+02 -0.50199640322E+02 -0.21308019244E+03  0.23680542596E+03  0.00000000000E+00 0. -1.
          2    1    1    2  501    0  0.12799709507E+03  0.21951239046E+03  0.37443322187E+02  0.25684810353E+03  0.00000000000E+00 0.  1.
<scales pt_clust_3="54.41128" pt_clust_4="85.67803" pt_clust_5="85.67803" pt_clust_6="229.89705"></scales>
<clustering>
<clus scale="   54.411">  1  3  2 -1</clus>
<clus scale="   85.678">  4  5 -1 -1</clus>
<clus scale="  229.897">  1  6  2 -1</clus>
<clus scale="  250.129">  2  3  1 -1</clus>
</clustering>
</event>
<event>
 6    0  0.3800129E+002  0.1430546E+03  0.7546771E-02  0.1209277E+00
         21   -1    0    0  505  502  0.00000000000E+00  0.00000000000E+00  0.13151786374E+04  0.13151786374E+04  0.00000000000E+00 0.  1.
         -2   -1    0    0    0  501 -0.00000000000E+00 -0.00000000000E+00 -0.83039153796E+02  0.83039153796E+02  0.00000000000E+00 0.  1.
         21    1    1    2  503  501  0.47006254722E+02 -0.74538924387E+02  0.53170527036E+03  0.53895837850E+03  0.00000000000E+00 0.  1.
         21    1    1    2  504  502 -0.11147203340E+03  0.42066623617E+02  0.10704851999E+03  0.16017178492E+03  0.00000000000E+00 0.  1.
         21    1    1    2  505  503  0.25475409667E+02 -0.50981632779E+02  0.60371330481E+03  0.60639745859E+03  0.00000000000E+00 0.  1.
         -2    1    1    2    0  504  0.38990369010E+02  0.83453933549E+02 -0.10327611565E+02  0.92690169171E+02  0.00000000000E+00 0.  1.
<scales pt_clust_3="32.72263" pt_clust_4="137.14578" pt_clust_5="32.72263" pt_clust_6="92.11302"></scales>
<clustering>
<clus scale="   32.723">  3  5 -1 -1</clus>
<clus scale="   92.113">  2  6  1 -1</clus>
<clus scale="  137.146">  2  4  1 -1</clus>
<clus scale="  143.055">  1  3  2 -1</clus>
</clustering>
</event>
<event>
 6    0  0.3800129E+002  0.1109249E+03  0.7546771E-02  0.1258867E+00
          2   -1    0    0  503    0 -0.00000000000E+00  0.00000000000E+00  0.11938397370E+04  0.11938397370E+04  0.00000000000E+00 0. -1.
         21   -1    0    0  505  502  0.00000000000E+00 -0.00000000000E+00 -0.13140962481E+03  0.13140962481E+03  0.00000000000E+00 0.  1.
         21    1    1    2  503  504  0.36938685743E+01  0.36565010199E+02  0.90569936086E+03  0.90644469048E+03  0.00000000000E+00 0. -1.
         21    1    1    2  504  502  0.11836414686E+03  0.27524330071E+01 -0.70853664497E+02  0.13797785664E+03  0.00000000000E+00 0.  1.
         21    1    1    2  505  501 -0.15647538521E+02  0.27902428024E+02  0.18992530947E+02  0.37203590998E+02  0.00000000000E+00 0. -1.
          2    1    1    2  501    0 -0.10641047691E+03 -0.67219871230E+02  0.20859188485E+03  0.24362322367E+03  0.00000000000E+00 0. -1.
<scales pt_clust_3="36.83096" pt_clust_4="14000.00000" pt_clust_5="31.99048" pt_clust_6="110.92490"></scales>
<clustering>
<clus scale="   31.990">  2  5  1 -1</clus>
<clus scale="   36.831">  1  3  2 -1</clus>
<clus scale="  110.925">  1  6  2 -1</clus>
<clus scale="   31.990">  2  3  1 -1</clus>
</clustering>
</event>
<event>
 6    0  0.3800129E+002  0.1304392E+03  0.7546771E-02  0.1226805E+00
          1   -1    0    0  502    0 -0.00000000000E+00  0.00000000000E+00  0.13077397572E+03  0.13077397572E+03  0.00000000000E+00 0.  1.
         21   -1    0    0  505  502  0.00000000000E+00 -0.00000000000E+00 -0.79201247714E+03  0.79201247714E+03  0.00000000000E+00 0.  1.
         21    1    1    2  503  501 -0.53984673171E+02  0.69454701803E+02 -0.90705317282E+02  0.12635566914E+03  0.00000000000E+00 0.  1.
         21    1    1    2  504  503 -0.15896753330E+02  0.44112747815E+02 -0.37833090808E+03  0.38122554649E+03  0.00000000000E+00 0.  1.
         21    1    1    2  505  504 -0.31515999190E+02 -0.21874261176E+01 -0.25139316787E+03  0.25337041636E+03  0.00000000000E+00 0.  1.
          1    1    1    2  501    0  0.10139742569E+03 -0.11138002350E+03  0.59190891807E+02  0.16183482087E+03  0.00000000000E+00 0.  1.
<scales pt_clust_3="14000.00000" pt_clust_4="57.11686" pt_clust_5="31.59182" pt_clust_6="130.43925"></scales>
<clustering>
<clus scale="   31.592">  2  5  1 -1</clus>
<clus scale="   57.117">  2  4  1 -1</clus>
<clus scale="  130.439">  1  6  2 -1</clus>
<clus scale="   31.592">  2  3  1 -1</clus>
</clustering>
</event>
<event>
 6    0  0.3800129E+002  0.8894841E+02  0.7546771E-02  0.1305418E+00
         21   -1    0    0  505  502  0.00000000000E+00  0.00000000000E+00  0.14025630225E+04  0.14025630225E+04  0.00000000000E+00 0.  1.
          2   -1    0    0  503    0 -0.00000000000E+00 -0.00000000000E+00 -0.75627393150E+03  0.75627393150E+03  0.00000000000E+00 0.  1.
         21    1    1    2  503  504  0.64757627519E+02 -0.74392809492E+02 -0.27372241904E+03  0.29094982920E+03  0.00000000000E+00 0.  1.
         21    1    1    2  504  502  0.35674194548E+02  0.12393140679E+02  0.92096619348E+02  0.99539064632E+02  0.00000000000E+00 0.  1.
         21    1    1    2  505  501 -0.10264006986E+00  0.75484052171E+02  0.12915682905E+04  0.12937721985E+04  0.00000000000E+00 0.  1.
          2    1    1    2  501    0 -0.10032918200E+03 -0.13484383358E+02 -0.46365339978E+03  0.47457586167E+03  0.00000000000E+00 0.  1.
<scales pt_clust_3="88.94841" pt_clust_4="37.76557" pt_clust_5="94.53626" pt_clust_6="14000.00000"></scales>
<clustering>
<clus scale="   37.766">  1  4  2 -1</clus>
<clus scale="   94.536">  1  5  2 -1</clus>
<clus scale="   88.948">  1  3  2 -1</clus>
<clus scale="   37.766">  1  3  2 -1</clus>
</clustering>
</event>
<event>
 6    0  0.3800129E+002  0.9784690E+02  0.7546771E-02  0.1284890E+00
         21   -1    0    0  505  502  0.00000000000E+00  0.00000000000E+00  0.14015932582E+03  0.14015932582E+03  0.00000000000E+00 0.  1.
          1   -1    0    0  503    0 -0.00000000000E+00 -0.00000000000E+00 -0.29142586893E+03  0.29142586893E+03  0.00000000000E+00 0.  1.
         21    1    1    2  503  504 -0.36526456273E+02 -0.22316898381E+02 -0.27025559111E+02  0.50622196776E+02  0.00000000000E+00 0.  1.
         21    1    1    2  504  502  0.10122928771E+02 -0.70697927692E+02  0.37902763907E+02  0.80853510614E+02  0.00000000000E+00 0.  1.
         21    1    1    2  505  501  0.84555360993E+02  0.21376026750E+01  0.21360930072E+02  0.87237994884E+02  0.00000000000E+00 0.  1.
          1    1    1    2  501    0 -0.58151833491E+02  0.90877223398E+02 -0.18350467798E+03  0.21287149248E+03  0.00000000000E+00 0.  1.
<scales pt_clust_3="42.80451" pt_clust_4="72.93363" pt_clust_5="14000.00000" pt_clust_6="97.84690"></scales>
<clustering>
<clus scale="   42.805">  2  3  1 -1</clus>
<clus scale="   72.934">  1  4  2 -1</clus>
<clus scale="   97.847">  2  6  1 -1</clus>
<clus scale="   72.934">  1  3  2 -1</clus>
</clustering>
</event>
<event>
 6    0  0.3800129E+002  0.1209245E+03  0.7546771E-02  0.1241580E+00
         21   -1    0    0  503  502  0.00000000000E+00  0.00000000000E+00  0.36212529346E+02  0.36212529346E+02  0.00000000000E+00 0.  1.
          1   -1    0    0  505    0 -0.00000000000E+00 -0.00000000000E+00 -0.22925777733E+04  0.22925777733E+04  0.00000000000E+00 0. -1.
         21    1    1    2  503  504  0.52201547409E+01 -0.71744455500E+02 -0.34749563693E+02  0.79887728014E+02  0.00000000000E+00 0.  1.
         21    1    1    2  504  501 -0.26384034822E+02 -0.37345260314E+02 -0.41375882533E+02  0.61666436712E+02  0.00000000000E+00 0.  1.
         21    1    1    2  505  502 -0.14999820678E+02 -0.28273732480E+02 -0.32804510810E+03  0.32960277838E+03  0.00000000000E+00 0. -1.
          1    1    1    2  501    0  0.36163700759E+02  0.13736344829E+03 -0.18521946896E+04  0.18576333595E+04  0.00000000000E+00 0. -1.
<scales pt_clust_3="34.82108" pt_clust_4="34.82108" pt_clust_5="32.00623" pt_clust_6="112.82159"></scales>
<clustering>
<clus scale="   32.006">  2  5  1 -1</clus>
<clus scale="   34.821">  3  4 -1 -1</clus>
<clus scale="  112.822">  2  6  1 -1</clus>
<clus scale="  120.924">  1  3  2 -1</clus>
</clustering>
</event>
<event>
 6    0  0.3800129E+002  0.7180244E+02  0.7546771E-02  0.1354069E+00
          1   -1    0    0  503    0 -0.00000000000E+00  0.00000000000E+00  0.10554769520E+03  0.10554769520E+03  0.00000000000E+00 0. -1.
         21   -1    0    0  504  502  0.00000000000E+00 -0.00000000000E+00 -0.85102541245E+03  0.85102541245E+03  0.00000000000E+00 0. -1.
         21    1    1    2  503  505  0.36623414661E+02 -0.11216005108E+01  0.52344286055E+02  0.63894105923E+02  0.00000000000E+00 0. -1.
         21    1    1    2  504  501  0.39332352466E+02  0.35603631042E+02 -0.37045190632E+03  0.37423156920E+03  0.00000000000E+00 0. -1.
         21    1    1    2  505  502 -0.92799661289E+02 -0.84689608176E+02 -0.44518543664E+03  0.46257343186E+03  0.00000000000E+00 0. -1.
          1    1    1    2  501    0  0.16843894162E+02  0.50207577645E+02  0.17815339650E+02  0.55874000666E+02  0.00000000000E+00 0. -1.
<scales pt_clust_3="36.64059" pt_clust_4="54.11466" pt_clust_5="71.80244" pt_clust_6="14000.00000"></scales>
<clustering>
<clus scale="   36.641">  1  3  2 -1</clus>
<clus scale="   54.115">  2  4  1 -1</clus>
<clus scale="   71.802">  2  5  1 -1</clus>
<clus scale="   54.115">  2  3  1 -1</clus>
</clustering>
</event>
<event>
 6    0  0.3800129E+002  0.1011275E+03  0.7546771E-02  0.1277943E+00
          2   -1    0    0  503    0 -0.00000000000E+00  0.00000000000E+00  0.78459123715E+03  0.78459123715E+03  0.00000000000E+00 0. -1.
         21   -1    0    0  505  502  0.00000000000E+00 -0.00000000000E+00 -0.22643793375E+03  0.22643793375E+03  0.00000000000E+00 0. -1.
         21    1    1    2  503  504 -0.36112471516E+02  0.60115227655E+01  0.13810316485E+03  0.14287313655E+03  0.00000000000E+00 0. -1.
         21    1    1    2  504  502  0.35416774219E+02  0.46015632023E+02 -0.13771929250E+03  0.14946032856E+03  0.00000000000E+00 0. -1.
         21    1    1    2  505  501 -0.42168858687E+02  0.58207530549E+02 -0.57571285750E+02  0.92091162434E+02  0.00000000000E+00 0. -1.
          2    1    1    2  501    0  0.42864555984E+02 -0.11023468534E+03  0.61534071680E+03  0.62660454336E+03  0.00000000000E+00 0. -1.
<scales pt_clust_3="36.60941" pt_clust_4="57.91050" pt_clust_5="101.12749" pt_clust_6="14000.00000"></scales>
<clustering>
<clus scale="   36.609">  1  3  2 -1</clus>
<clus scale="   57.911">  2  4  1 -1</clus>
<clus scale="  101.127">  2  5  1 -1</clus>
<clus scale="   57.911">  2  3  1 -1</clus>
</clustering>
</event>
<event>
 6    0  0.3800129E+002  0.2848372E+03  0.7546771E-02  0.1093076E+00
         21   -1    0    0  505  502  0.00000000000E+00  0.00000000000E+00  0.14923875165E+03  0.14923875165E+03  0.00000000000E+00 0. -1.
          1   -1    0    0  503    0 -0.00000000000E+00 -0.00000000000E+00 -0.16611678981E+04  0.16611678981E+04  0.00000000000E+00 0. -1.
         21    1    1    2  503  502  0.14482704762E+03  0.25423321402E+03 -0.21648905097E+03  0.36397377656E+03  0.00000000000E+00 0. -1.
         21    1    1    2  504  501 -0.68354972431E+02  0.67657509022E+02 -0.37516630897E+03  0.38729794754E+03  0.00000000000E+00 0. -1.
         21    1    1    2  505  504 -0.14951444612E+02 -0.29255969190E+03 -0.24916709812E+03  0.38457634067E+03  0.00000000000E+00 0. -1.
          1    1    1    2  501    0 -0.61520630578E+02 -0.29331031144E+02 -0.67110668838E+03  0.67455858497E+03  0.00000000000E+00 0. -1.
<scales pt_clust_3="14000.00000" pt_clust_4="107.95521" pt_clust_5="284.83721" pt_clust_6="68.15495"></scales>
<clustering>
<clus scale="   68.155">  2  6  1 -1</clus>
<clus scale="  107.955">  2  4  1 -1</clus>
<clus scale="  284.837">  2  5  1 -1</clus>
<clus scale="  284.837">  1  3  2 -1</clus>
</clustering>
</event>
<event>
 6    0  0.3800129E+002  0.2175434E+03  0.7546771E-02  0.1135728E+00
         21   -1    0    0  501  502  0.00000000000E+00  0.00000000000E+00  0.49389973677E+02  0.49389973677E+02  0.00000000000E+00 0. -1.
          2   -1    0    0  505    0 -0.00000000000E+00 -0.00000000000E+00 -0.25179900977E+04  0.25179900977E+04  0.00000000000E+00 0. -1.
         21    1    1    2  503  502  0.10210817002E+03 -0.23659999821E+01 -0.22327347471E+03  0.24552539757E+03  0.00000000000E+00 0. -1.
         21    1    1    2  504  503  0.11833799870E+03 -0.47274066014E+02 -0.50616285613E+03  0.52195742755E+03  0.00000000000E+00 0. -1.
         21    1    1    2  505  504 -0.31497322160E+02  0.47690711887E+01 -0.14570693039E+04  0.14574175043E+04  0.00000000000E+00 0. -1.
          2    1    1    2  501    0 -0.18894884656E+03  0.44870994808E+02 -0.28209448926E+03  0.34247974198E+03  0.00000000000E+00 0. -1.
<scales pt_clust_3="70.60904" pt_clust_4="70.60904" pt_clust_5="31.85632" pt_clust_6="203.55157"></scales>
<clustering>
<clus scale="   31.856">  2  5  1 -1</clus>
<clus scale="   70.609">  3  4 -1 -1</clus>
<clus scale="  203.552">  1  6  2 -1</clus>
<clus scale="  203.552">  1  3  2 -1</clus>
</clustering>
</event>
<event>
 6    0  0.3800129E+002  0.7309616E+02  0.7546771E-02  0.1349870E+00
         21   -1    0    0  503  502  0.00000000000E+00  0.00000000000E+00  0.51835160384E+02  0.51835160384E+02  0.00000000000E+00 0. -1.
         -2   -1    0    0    0  501 -0.00000000000E+00 -0.00000000000E+00 -0.10125558259E+04  0.10125558259E+04  0.00000000000E+00 0. -1.
         21    1    1    2  503  504  0.60963794566E+02 -0.29451651999E+02  0.23931600976E+00  0.67705548706E+02  0.00000000000E+00 0. -1.
         21    1    1    2  504  505  0.40888833124E+02 -0.14928663386E+02 -0.10273643435E+03  0.11157749149E+03  0.00000000000E+00 0. -1.
         21    1    1    2  505  501 -0.80545718601E+01 -0.33073012212E+02 -0.58546555264E+03  0.58645427238E+03  0.00000000000E+00 0.  1.
         -2    1    1    2    0  502 -0.93798055830E+02  0.77453327597E+02 -0.27275799450E+03  0.29865367367E+03  0.00000000000E+00 0. -1.
<scales pt_clust_3="14000.00000" pt_clust_4="45.28201" pt_clust_5="34.03969" pt_clust_6="73.09616"></scales>
<clustering>
<clus scale="   34.040">  2  5  1 -1</clus>
<clus scale="   45.282">  2  4  1 -1</clus>
<clus scale="   73.096">  2  6  1 -1</clus>
<clus scale="   73.096">  1  3  2 -1</clus>
</clustering>
</event>
<event>
 6    0  0.3800129E+002  0.8610714E+02  0.7546771E-02  0.1312562E+00
          2   -1    0    0  505    0 -0.00000000000E+00  0.00000000000E+00  0.62024611362E+03  0.62024611362E+03  0.00000000000E+00 0. -1.
         21   -1    0    0  504  502  0.00000000000E+00 -0.00000000000E+00 -0.25068403035E+03  0.25068403035E+03  0.00000000000E+00 0. -1.
         21    1    1    2  503  502 -0.22906585849E+02 -0.63550792621E+02 -0.18556041611E+03  0.19747425894E+03  0.00000000000E+00 0. -1.
         21    1    1    2  504  501  0.42124703868E+02  0.23821956461E+02 -0.19419224321E+02  0.52144822934E+02  0.00000000000E+00 0. -1.
         21    1    1    2  505  503 -0.34470303931E+02  0.11731450599E+03  0.17173531364E+03  0.21081725053E+03  0.00000000000E+00 0. -1.
          2    1    1    2  501    0  0.15252185912E+02 -0.77585669829E+02  0.40280641007E+03  0.41049381156E+03  0.00000000000E+00 0. -1.
<scales pt_clust_3="44.77982" pt_clust_4="48.39397" pt_clust_5="14000.00000" pt_clust_6="86.10714"></scales>
<clustering>
<clus scale="   48.394">  2  4  1 -1</clus>
<clus scale="   44.780">  2  3  1 -1</clus>
<clus scale="   86.107">  1  6  2 -1</clus>
<clus scale="   48.394">  2  3  1 -1</clus>
</clustering>
</event>
<event>
 6    0  0.3800129E+002  0.1086022E+03  0.7546771E-02  0.1263180E+00
         -3   -1    0    0    0  501 -0.00000000000E+00  0.00000000000E+00  0.23019445180E+03  0.23019445180E+03  0.00000000000E+00 0. -1.
         21   -1    0    0  504  502  0.00000000000E+00 -0.00000000000E+00 -0.19182679870E+03  0.19182679870E+03  0.00000000000E+00 0. -1.
         21    1    1    2  503  501 -0.13319860060E+02  0.29981686447E+02  0.96933336895E+02  0.10233470573E+03  0.00000000000E+00 0.  1.
         21    1    1    2  504  503 -0.41488417856E+02  0.78734597094E+02 -0.45324060370E+02  0.99873400083E+02  0.00000000000E+00 0. -1.
         21    1    1    2  505  502  0.43428157774E+02  0.30641265550E+02 -0.52374333141E+02  0.74618783252E+02  0.00000000000E+00 0. -1.
         -3    1    1    2    0  505  0.11380120141E+02 -0.13935754909E+03  0.39132709714E+02  0.14519436144E+03  0.00000000000E+00 0. -1.
<scales pt_clust_3="32.80732" pt_clust_4="108.60221" pt_clust_5="53.76494" pt_clust_6="14000.00000"></scales>
<clustering>
<clus scale="   32.807">  1  3  2 -1</clus>
<clus scale="   53.765">  2  5  1 -1</clus>
<clus scale="  108.602">  2  4  1 -1</clus>
<clus scale="   53.765">  2  3  1 -1</clus>
</clustering>
</event>
<event>
 6    0  0.3800129E+002  0.1421355E+03  0.7546771E-02  0.1210484E+00
         -3   -1    0    0    0  501 -0.00000000000E+00  0.00000000000E+00  0.14127690852E+04  0.14127690852E+04  0.00000000000E+00 0. -1.
         21   -1    0    0  503  502  0.00000000000E+00 -0.00000000000E+00 -0.63750135441E+03  0.63750135441E+03  0.00000000000E+00 0.  1.
         21    1    1    2  503  505 -0.52944093736E+02  0.17891758514E+02 -0.56198644675E+03  0.56475831859E+03  0.00000000000E+00 0.  1.
         21    1    1    2  504  502 -0.90754411716E+02 -0.44870707973E+02 -0.16697661466E+02  0.10260875001E+03  0.00000000000E+00 0.  1.
         21    1    1    2  505  501 -0.40233787237E+02  0.33219518337E+01  0.75083380102E+03  0.75191833982E+03  0.00000000000E+00 0. -1.
         -3    1    1    2    0  504  0.18393229269E+03  0.23656997625E+02  0.60311803803E+03  0.63098503123E+03  0.00000000000E+00 0. -1.
<scales pt_clust_3="55.96763" pt_clust_4="142.13550" pt_clust_5="40.37069" pt_clust_6="14000.00000"></scales>
<clustering>
<clus scale="   40.371">  1  5  2 -1</clus>
<clus scale="   55.968">  2  3  1 -1</clus>
<clus scale="  142.135">  2  4  1 -1</clus>
<clus scale="   55.968">  2  3  1 -1</clus>
</clustering>
</event>
<event>
 6    0  0.3800129E+002  0.7778958E+02  0.7546771E-02  0.1335444E+00
         21   -1    0    0  505  502  0.00000000000E+00  0.00000000000E+00  0.73803953174E+03  0.73803953174E+03  0.00000000000E+00 0.  1.
          2   -1    0    0  502    0 -0.00000000000E+00 -0.00000000000E+00 -0.11068375803E+04  0.11068375803E+04  0.00000000000E+00 0. -1.
         21    1    1    2  503  501 -0.42523500397E+02  0.55368193408E+02 -0.12031185484E+03  0.13910006234E+03  0.00000000000E+00 0. -1.
         21    1    1    2  504  503  0.62686049386E+02 -0.39703682438E+02  0.20927366152E+03  0.22203916005E+03  0.00000000000E+00 0.  1.
         21    1    1    2  505  504 -0.20288567161E+02  0.65882887790E+02  0.50894861067E+03  0.51359601747E+03  0.00000000000E+00 0.  1.
          2    1    1    2  501    0  0.12601817141E+00 -0.81547398760E+02 -0.96670846586E+03  0.97014187214E+03  0.00000000000E+00 0. -1.
<scales pt_clust_3="77.78958" pt_clust_4="49.08750" pt_clust_5="68.93606" pt_clust_6="14000.00000"></scales>
<clustering>
<clus scale="   68.936">  1  5  2 -1</clus>
<clus scale="   49.088">  1  4  2 -1</clus>
<clus scale="   77.790">  1  3  2 -1</clus>
<clus scale="   68.936">  1  3  2 -1</clus>
</clustering>
</event>
<event>
 6    0  0.3800129E+002  0.1556260E+03  0.7546771E-02  0.1193725E+00
         -4   -1    0    0    0  501 -0.00000000000E+00  0.00000000000E+00  0.80679284613E+03  0.80679284613E+03  0.00000000000E+00 0.  1.
         21   -1    0    0  505  502  0.00000000000E+00 -0.00000000000E+00 -0.74247389153E+02  0.74247389153E+02  0.00000000000E+00 0.  1.
         21    1    1    2  503  504  0.34475685555E+02 -0.74329446943E+02  0.16171069484E+02  0.83516124584E+02  0.00000000000E+00 0.  1.
         21    1    1    2  504  501  0.10194474717E+02  0.45387092694E+02  0.22239059840E+03  0.22720363939E+03  0.00000000000E+00 0.  1.
         21    1    1    2  505  503  0.73598927520E+02 -0.22619020259E+02  0.20649331290E+02  0.79717106648E+02  0.00000000000E+00 0.  1.
         -4    1    1    2    0  502 -0.11826908779E+03  0.51561374507E+02  0.47333445780E+03  0.49060336466E+03  0.00000000000E+00 0.  1.
<scales pt_clust_3="64.04800" pt_clust_4="46.51791" pt_clust_5="64.04800" pt_clust_6="141.45405"></scales>
<clustering>
<clus scale="   46.518">  1  4  2 -1</clus>
<clus scale="   64.048">  3  5 -1 -1</clus>
<clus scale="  141.454">  1  6  2 -1</clus>
<clus scale="  155.626">  2  3  1 -1</clus>
</clustering>
</event>
<event>
 6    0  0.3800129E+002  0.9008670E+02  0.7546771E-02  0.1302642E+00
         21   -1    0    0  505  502  0.00000000000E+00  0.00000000000E+00  0.51474510552E+02  0.51474510552E+02  0.00000000000E+00 0. -1.
          2   -1    0    0  503    0 -0.00000000000E+00 -0.00000000000E+00 -0.26180620027E+04  0.26180620027E+04  0.00000000000E+00 0.  1.
         21    1    1    2  503  504  0.24234629290E+02  0.39428696631E+02 -0.54442442002E+03  0.54638803838E+03  0.00000000000E+00 0.  1.
         21    1    1    2  504  502  0.22499899323E+02  0.32198783827E+02  0.17766745977E+02  0.43112230424E+02  0.00000000000E+00 0. -1.
         21    1    1    2  505  501  0.62048834405E+02  0.54401538934E+01 -0.36536358200E+02  0.72211900653E+02  0.00000000000E+00 0. -1.
          2    1    1    2  501    0 -0.10878336302E+03 -0.77067634352E+02 -0.20033934600E+04  0.20078243438E+04  0.00000000000E+00 0.  1.
<scales pt_clust_3="48.11149" pt_clust_4="39.28113" pt_clust_5="14000.00000" pt_clust_6="90.08670"></scales>
<clustering>
<clus scale="   39.281">  1  4  2 -1</clus>
<clus scale="   48.111">  2  3  1 -1</clus>
<clus scale="   90.087">  2  6  1 -1</clus>
<clus scale="   39.281">  1  3  2 -1</clus>
</clustering>
</event>
<event>
 6    0  0.3800129E+002  0.1005456E+03  0.7546771E-02  0.1279153E+00
          2   -1    0    0  505    0 -0.00000000000E+00  0.00000000000E+00  0.20678154079E+04  0.20678154079E+04  0.00000000000E+00 0.  1.
         21   -1    0    0  503  502  0.00000000000E+00 -0.00000000000E+00 -0.98980126012E+02  0.98980126012E+02  0.00000000000E+00 0. -1.
         21    1    1    2  503  501  0.41266436034E+02 -0.30675187384E+02  0.10854058892E+02  0.52551845433E+02  0.00000000000E+00 0. -1.
         21    1    1    2  504  502  0.26422548647E+02 -0.45564419996E+02 -0.64517055459E+02  0.83286961115E+02  0.00000000000E+00 0. -1.
         21    1    1    2  505  504  0.35173876069E+02 -0.12694369080E+02  0.20528443239E+03  0.20866251878E+03  0.00000000000E+00 0.  1.
          2    1    1    2  501    0 -0.10286286075E+03  0.88933976460E+02  0.18172138460E+04  0.18222942085E+04  0.00000000000E+00 0.  1.
<scales pt_clust_3="52.02901" pt_clust_4="14000.00000" pt_clust_5="37.39450" pt_clust_6="100.54562"></scales>
<clustering>
<clus scale="   37.394">  1  5  2 -1</clus>
<clus scale="   52.029">  2  3  1 -1</clus>
<clus scale="  100.546">  1  6  2 -1</clus>
<clus scale="   52.029">  2  3  1 -1</clus>
</clustering>
</event>
<event>
 6    0  0.3800129E+002  0.2020621E+03  0.7546771E-02  0.1148011E+00
          1   -1    0    0  505    0 -0.00000000000E+00  0.00000000000E+00  0.32227242095E+03  0.32227242095E+03  0.00000000000E+00 0.  1.
         21   -1    0    0  501  502  0.00000000000E+00 -0.00000000000E+00 -0.52652401708E+03  0.52652401708E+03  0.00000000000E+00 0.  1.
         21    1    1    2  503  504  0.10198920598E+03  0.10990068026E+02 -0.34474250476E+02  0.10821762184E+03  0.00000000000E+00 0.  1.
         21    1    1    2  504  502 -0.45375531986E+02 -0.19783970981E+03 -0.18587982738E+03  0.27522863206E+03  0.00000000000E+00 0.  1.
         21    1    1    2  505  503  0.36561873430E+02 -0.19352410182E+02  0.18080624032E+03  0.18547825454E+03  0.00000000000E+00 0.  1.
          1    1    1    2  501    0 -0.93175547423E+02  0.20620205197E+03 -0.16470375859E+03  0.27987192958E+03  0.00000000000E+00 0.  1.
<scales pt_clust_3="111.83239" pt_clust_4="202.06210" pt_clust_5="41.36770" pt_clust_6="14000.00000"></scales>
<clustering>
<clus scale="   41.368">  1  5  2 -1</clus>
<clus scale="  111.832">  1  3  2 -1</clus>
<clus scale="  202.062">  2  4  1 -1</clus>
<clus scale="  202.062">  2  3  1 -1</clus>
</clustering>
</event>
<event>
 6    0  0.3800129E+002  0.1164140E+03  0.7546771E-02  0.1249133E+00
          1   -1    0    0  504    0 -0.00000000000E+00  0.00000000000E+00  0.89773869671E+02  0.89773869671E+02  0.00000000000E+00 0. -1.
         21   -1    0    0  505  502  0.00000000000E+00 -0.00000000000E+00 -0.19880916742E+04  0.19880916742E+04  0.00000000000E+00 0.  1.
         21    1    1    2  503  501  0.32612781180E+02  0.74781761544E+02 -0.67647428317E+02  0.10598150741E+03  0.00000000000E+00 0.  1.
         21    1    1    2  504  502 -0.68580261641E+02 -0.56118546068E+01 -0.64351255783E+03  0.64718093087E+03  0.00000000000E+00 0.  1.
         21    1    1    2  505  503 -0.12344023711E+02 -0.98066417704E+02 -0.12421088842E+04  0.12460352633E+04  0.00000000000E+00 0.  1.
          1    1    1    2  501    0  0.48311504172E+02  0.28896510767E+02  0.54951065833E+02  0.78667842262E+02  0.00000000000E+00 0. -1.
<scales pt_clust_3="116.41401" pt_clust_4="64.80585" pt_clust_5="14000.00000" pt_clust_6="56.29396"></scales>
<clustering>
<clus scale="   56.294">  1  6  2 -1</clus>
<clus scale="   64.806">  2  4  1 -1</clus>
<clus scale="  116.414">  1  3  2 -1</clus>
<clus scale="   64.806">  2  3  1 -1</clus>
</clustering>
</event>
<event>
 6    0  0.3800129E+002  0.1496757E+03  0.7546771E-02  0.1200872E+00
         -3   -1    0    0    0  501 -0.00000000000E+00  0.00000000000E+00  0.10312124025E+03  0.10312124025E+03  0.00000000000E+00 0. -1.
         21   -1    0    0  503  502  0.00000000000E+00 -0.00000000000E+00 -0.92408031519E+03  0.92408031519E+03  0.00000000000E+00 0.  1.
         21    1    1    2  503  504 -0.10331009764E+03  0.11873603636E+02 -0.73076116843E+03  0.73812319028E+03  0.00000000000E+00 0.  1.
         21    1    1    2  504  505 -0.33920497992E+02  0.16867436857E+02 -0.10951723496E+03  0.11588414630E+03  0.00000000000E+00 0.  1.
         21    1    1    2  505  501  0.22184937081E+02 -0.50028955632E+02  0.11586828978E+02  0.55940347163E+02  0.00000000000E+00 0.  1.
         -3    1    1    2    0  502  0.11504565855E+03  0.21287915139E+02  0.77324994640E+01  0.11725387171E+03  0.00000000000E+00 0. -1.
<scales pt_clust_3="36.22632" pt_clust_4="36.22632" pt_clust_5="54.72721" pt_clust_6="137.11444"></scales>
<clustering>
<clus scale="   36.226">  3  4 -1 -1</clus>
<clus scale="   54.727">  1  5  2 -1</clus>
<clus scale="  137.114">  1  6  2 -1</clus>
<clus scale="  149.676">  2  3  1 -1</clus>
</clustering>
</event>
<event>
 6    0  0.3800129E+002  0.1193582E+03  0.7546771E-02  0.1244160E+00
          2   -1    0    0  503    0 -0.00000000000E+00  0.00000000000E+00  0.42333269649E+04  0.42333269649E+04  0.00000000000E+00 0. -1.
         21   -1    0    0  501  502  0.00000000000E+00 -0.00000000000E+00 -0.28330523718E+03  0.28330523718E+03  0.00000000000E+00 0. -1.
         21    1    1    2  503  505  0.14123839106E+02 -0.30004776029E+02  0.28431594532E+03  0.28624347360E+03  0.00000000000E+00 0. -1.
         21    1    1    2  504  502  0.61753313861E+01  0.86990016021E+02 -0.16224614344E+03  0.18419882916E+03  0.00000000000E+00 0. -1.
         21    1    1    2  505  504 -0.89869801882E+02 -0.14236039698E+00 -0.90012190070E+02  0.12719589584E+03  0.00000000000E+00 0. -1.
          2    1    1    2  501    0  0.69570631389E+02 -0.56842879594E+02  0.39179641159E+04  0.39189940035E+04  0.00000000000E+00 0. -1.
<scales pt_clust_3="33.16277" pt_clust_4="87.12851" pt_clust_5="14000.00000" pt_clust_6="119.35818"></scales>
<clustering>
<clus scale="   33.163">  1  3  2 -1</clus>
<clus scale="   87.129">  2  4  1 -1</clus>
<clus scale="  119.358">  1  6  2 -1</clus>
<clus scale="   87.129">  2  3  1 -1</clus>
</clustering>
</event>
<event>
 6    0  0.3800129E+002  0.1985286E+03  0.7546771E-02  0.1150986E+00
         21   -1    0    0  504  502  0.00000000000E+00  0.00000000000E+00  0.33156016635E+03  0.33156016635E+03  0.00000000000E+00 0.  1.
         -1   -1    0    0    0  501 -0.00000000000E+00 -0.00000000000E+00 -0.54745497715E+03  0.54745497715E+03  0.00000000000E+00 0. -1.
         21    1    1    2  503  501 -0.65945101765E+02 -0.67960540227E+02 -0.13305382649E+03  0.16331170264E+03  0.00000000000E+00 0.  1.
         21    1    1    2  504  505  0.21947069603E+01 -0.13941774903E+03  0.20655199015E+03  0.24921045347E+03  0.00000000000E+00 0.  1.
         21    1    1    2  505  503 -0.15737259348E+02 -0.43642517388E+02  0.27931572212E+02  0.54152593493E+02  0.00000000000E+00 0.  1.
         -1    1    1    2    0  502  0.79487654152E+02  0.25102080664E+03 -0.31732454667E+03  0.41234039391E+03  0.00000000000E+00 0. -1.
<scales pt_clust_3="94.69631" pt_clust_4="33.39659" pt_clust_5="33.39659" pt_clust_6="189.89853"></scales>
<clustering>
<clus scale="   33.397">  4  5 -1 -1</clus>
<clus scale="   94.696">  2  3  1 -1</clus>
<clus scale="  189.899">  2  6  1 -1</clus>
<clus scale="  198.529">  1  3  2 -1</clus>
</clustering>
</event>
<event>
 6    0  0.3800129E+002  0.1671151E+03  0.7546771E-02  0.1180890E+00
          2   -1    0    0  504    0 -0.00000000000E+00  0.00000000000E+00  0.31493088890E+04  0.31493088890E+04  0.00000000000E+00 0.  1.
         21   -1    0    0  505  502  0.00000000000E+00 -0.00000000000E+00 -0.50698008907E+02  0.50698008907E+02  0.00000000000E+00 0. -1.
         21    1    1    2  503  502  0.14097466958E+03  0.92466071728E+02  0.13307571913E+03  0.21478589084E+03  0.00000000000E+00 0. -1.
         21    1    1    2  504  503  0.15349259995E+02 -0.29698538630E+02  0.27698813308E+03  0.27899825957E+03  0.00000000000E+00 0.  1.
         21    1    1    2  505  501  0.20890431287E+02 -0.51527414304E+02  0.12835692274E+03  0.13988203658E+03  0.00000000000E+00 0. -1.
          2    1    1    2  501    0 -0.17721436086E+03 -0.11240118794E+02  0.25601901052E+04  0.25663407110E+04  0.00000000000E+00 0.  1.
<scales pt_clust_3="167.11513" pt_clust_4="33.43057" pt_clust_5="57.15626" pt_clust_6="14000.00000"></scales>
<clustering>
<clus scale="   33.431">  1  4  2 -1</clus>
<clus scale="   57.156">  2  5  1 -1</clus>
<clus scale="  167.115">  2  3  1 -1</clus>
<clus scale="   57.156">  2  3  1 -1</clus>
</clustering>
</event>
<event>
 6    0  0.3800129E+002  0.7784269E+02  0.7546771E-02  0.1335287E+00
         -2   -1    0    0    0  501 -0.00000000000E+00  0.00000000000E+00  0.20517189103E+03  0.20517189103E+03  0.00000000000E+00 0.  1.
         21   -1    0    0  503  502  0.00000000000E+00 -0.00000000000E+00 -0.28462067482E+03  0.28462067482E+03  0.00000000000E+00 0. -1.
         21    1    1    2  503  505  0.25574014903E+02 -0.77160546158E+02 -0.16978976862E+03  0.18824543992E+03  0.00000000000E+00 0. -1.
         21    1    1    2  504  502  0.46372232011E+02  0.78697789195E+02 -0.55635348891E+02  0.10695334484E+03  0.00000000000E+00 0.  1.
         21    1    1    2  505  501 -0.24243106047E+02 -0.44488987274E+02  0.10976432608E+03  0.12089336400E+03  0.00000000000E+00 0.  1.
         -2    1    1    2    0  504 -0.47703140868E+02  0.42951744236E+02  0.36212007634E+02  0.73700417085E+02  0.00000000000E+00 0.  1.
<scales pt_clust_3="14000.00000" pt_clust_4="77.84269" pt_clust_5="50.66555" pt_clust_6="64.48254"></scales>
<clustering>
<clus scale="   50.666">  1  5  2 -1</clus>
<clus scale="   64.483">  1  6  2 -1</clus>
<clus scale="   77.843">  1  4  2 -1</clus>
<clus scale="   77.843">  2  3  1 -1</clus>
</clustering>
</event>
<event>
 6    0  0.3800129E+002  0.9938166E+02  0.7546771E-02  0.1281602E+00
         -2   -1    0    0    0  501 -0.00000000000E+00  0.00000000000E+00  0.64541654656E+03  0.64541654656E+03  0.00000000000E+00 0.  1.
         21   -1    0    0  504  502  0.00000000000E+00 -0.00000000000E+00 -0.19846921168E+03  0.19846921168E+03  0.00000000000E+00 0.  1.
         21    1    1    2  503  502  0.95864737978E+01 -0.42836034870E+02 -0.12642230569E+02  0.45679890073E+02  0.00000000000E+00 0.  1.
         21    1    1    2  504  505 -0.45723871155E+02  0.13530651086E+03 -0.13213319222E+03  0.19457056499E+03  0.00000000000E+00 0.  1.
         21    1    1    2  505  501 -0.17132763944E+02 -0.25455569761E+02  0.22323411533E+03  0.22533305989E+03  0.00000000000E+00 0. -1.
         -2    1    1    2    0  503  0.53270161301E+02 -0.67014906228E+02  0.36848864233E+03  0.37830224328E+03  0.00000000000E+00 0.  1.
<scales pt_clust_3="44.73179" pt_clust_4="99.38166" pt_clust_5="30.68416" pt_clust_6="14000.00000"></scales>
<clustering>
<clus scale="   30.684">  1  5  2 -1</clus>
<clus scale="   44.732">  2  3  1 -1</clus>
<clus scale="   99.382">  2  4  1 -1</clus>
<clus scale="   44.732">  2  3  1 -1</clus>
</clustering>
</event>
<event>
 6    0  0.3800129E+002  0.1903115E+03  0.7546771E-02  0.1158181E+00
         -3   -1    0    0    0  501 -0.00000000000E+00  0.00000000000E+00  0.23786040005E+03  0.23786040005E+03  0.00000000000E+00 0.  1.
         21   -1    0    0  504  502  0.00000000000E+00 -0.00000000000E+00 -0.13766319843E+04  0.13766319843E+04  0.00000000000E+00 0. -1.
         21    1    1    2  503  502 -0.88084234806E+02 -0.75915734209E+02 -0.27195482228E+03  0.29577264323E+03  0.00000000000E+00 0. -1.
         21    1    1    2  504  505 -0.49758756405E+02 -0.78714949167E+02 -0.10291048678E+04  0.10333096370E+04  0.00000000000E+00 0. -1.
         21    1    1    2  505  501 -0.17697138342E+02  0.24372414774E+02  0.10008996152E+02  0.31739302314E+02  0.00000000000E+00 0.  1.
         -3    1    1    2    0  503  0.15554012955E+03  0.13025826860E+03  0.15227910967E+03  0.25367080179E+03  0.00000000000E+00 0.  1.
<scales pt_clust_3="14000.00000" pt_clust_4="93.01586" pt_clust_5="30.11982" pt_clust_6="190.31149"></scales>
<clustering>
<clus scale="   30.120">  1  5  2 -1</clus>
<clus scale="   93.016">  2  4  1 -1</clus>
<clus scale="  190.311">  1  6  2 -1</clus>
<clus scale="   93.016">  2  3  1 -1</clus>
</clustering>
</event>
<event>
 6    0  0.3800129E+002  0.7628094E+02  0.7546771E-02  0.1339950E+00
         21   -1    0    0  505  502  0.00000000000E+00  0.00000000000E+00  0.12174003137E+03  0.12174003137E+03  0.00000000000E+00 0. -1.
          1   -1    0    0  503    0 -0.00000000000E+00 -0.00000000000E+00 -0.28337474514E+03  0.28337474514E+03  0.00000000000E+00 0. -1.
         21    1    1    2  503  502 -0.48864755634E+02 -0.42090741392E+02 -0.13114354552E+03  0.14614384827E+03  0.00000000000E+00 0. -1.
         21    1    1    2  504  501 -0.46411944982E+02 -0.14379051101E+02  0.18219081285E+02  0.51891816990E+02  0.00000000000E+00 0. -1.
         21    1    1    2  505  504 -0.92985776644E+01 -0.30524333024E+02  0.34995167264E+02  0.47358844844E+02  0.00000000000E+00 0. -1.
          1    1    1    2  501    0  0.10457527828E+03  0.86994125517E+02 -0.83705416791E+02  0.15972026641E+03  0.00000000000E+00 0. -1.
<scales pt_clust_3="14000.00000" pt_clust_4="57.54261" pt_clust_5="31.90922" pt_clust_6="76.28094"></scales>
<clustering>
<clus scale="   31.909">  1  5  2 -1</clus>
<clus scale="   57.543">  1  4  2 -1</clus>
<clus scale="   76.281">  1  6  2 -1</clus>
<clus scale="   31.909">  1  3  2 -1</clus>
</clustering>
</event>
<event>
 6    0  0.3800129E+002  0.1315803E+03  0.7546771E-02  0.1225129E+00
         21   -1    0    0  504  502  0.00000000000E+00  0.00000000000E+00  0.48282381257E+03  0.48282381257E+03  0.00000000000E+00 0. -1.
          1   -1    0    0  503    0 -0.00000000000E+00 -0.00000000000E+00 -0.77942080395E+03  0.77942080395E+03  0.00000000000E+00 0.  1.
         21    1    1    2  503  505  0.12781988075E+02  0.45855515701E+02 -0.88343690939E+02  0.10035295346E+03  0.00000000000E+00 0.  1.
         21    1    1    2  504  501  0.62658151020E+01 -0.40135235326E+02  0.20367006303E+03  0.20768146794E+03  0.00000000000E+00 0. -1.
         21    1    1    2  505  502 -0.10067496985E+03 -0.54331607108E+02  0.25556133171E+03  0.27999815598E+03  0.00000000000E+00 0. -1.
          1    1    1    2  501    0  0.81627166675E+02  0.48611326732E+02 -0.66748469518E+03  0.67421203914E+03  0.00000000000E+00 0.  1.
<scales pt_clust_3="46.80389" pt_clust_4="40.62139" pt_clust_5="14000.00000" pt_clust_6="131.58032"></scales>
<clustering>
<clus scale="   40.621">  1  4  2 -1</clus>
<clus scale="   46.804">  2  3  1 -1</clus>
<clus scale="  131.580">  2  6  1 -1</clus>
<clus scale="   40.621">  1  3  2 -1</clus>
</clustering>
</event>
<event>
 6    0  0.3800129E+002  0.1059403E+03  0.7546771E-02  0.1268278E+00
         21   -1    0    0  503  502  0.00000000000E+00  0.00000000000E+00  0.75972106152E+03  0.75972106152E+03  0.00000000000E+00 0.  1.
          2   -1    0    0  505    0 -0.00000000000E+00 -0.00000000000E+00 -0.12172075987E+04  0.12172075987E+04  0.00000000000E+00 0. -1.
         21    1    1    2  503  501 -0.44066156352E+02 -0.73653307079E+02  0.68360022309E+03  0.68896727120E+03  0.00000000000E+00 0.  1.
         21    1    1    2  504  502 -0.35341248977E+02  0.45668463833E+02  0.14813520585E-01  0.57746105389E+02  0.00000000000E+00 0.  1.
         21    1    1    2  505  504  0.13161696884E+03  0.11575033374E+03 -0.14109732088E+03  0.22501026689E+03  0.00000000000E+00 0.  1.
          2    1    1    2  501    0 -0.52209563512E+02 -0.87765490492E+02 -0.10000042529E+04  0.10052050168E+04  0.00000000000E+00 0. -1.
<scales pt_clust_3="83.15484" pt_clust_4="57.74610" pt_clust_5="105.94033" pt_clust_6="14000.00000"></scales>
<clustering>
<clus scale="   57.746">  1  4  2 -1</clus>
<clus scale="   83.155">  1  3  2 -1</clus>
<clus scale="  105.940">  1  5  2 -1</clus>
<clus scale="   57.746">  1  3  2 -1</clus>
</clustering>
</event>
<event>
 6    0  0.3800129E+002  0.1548780E+03  0.7546771E-02  0.1194604E+00
         21   -1    0    0  503  502  0.00000000000E+00  0.00000000000E+00  0.10208321969E+03  0.10208321969E+03  0.00000000000E+00 0.  1.
          1   -1    0    0  502    0 -0.00000000000E+00 -0.00000000000E+00 -0.33901035220E+03  0.33901035220E+03  0.00000000000E+00 0.  1.
         21    1    1    2  503  504 -0.10013733683E+03  0.90615884166E+01 -0.22092452764E+02  0.10294500998E+03  0.00000000000E+00 0.  1.
         21    1    1    2  504  505 -0.44463183448E+02  0.56326303233E+00  0.26976709938E+02  0.52009949304E+02  0.00000000000E+00 0.  1.
         21    1    1    2  505  501  0.45979479390E+02 -0.29209814841E+01 -0.12439952421E+03  0.13265702500E+03  0.00000000000E+00 0.  1.
          1    1    1    2  501    0  0.98621040885E+02 -0.67038699648E+01 -0.11741186547E+03  0.15348158760E+03  0.00000000000E+00 0.  1.
<scales pt_clust_3="36.33486" pt_clust_4="36.33486" pt_clust_5="33.44989" pt_clust_6="152.97894"></scales>
<clustering>
<clus scale="   33.450">  5  6 -1 -1</clus>
<clus scale="   36.335">  3  4 -1 -1</clus>
<clus scale="  152.979">  2  5  1 -1</clus>
<clus scale="  154.878">  1  3  2 -1</clus>
</clustering>
</event>
<event>
 6    0  0.3800129E+002  0.1057147E+03  0.7546771E-02  0.1268718E+00
         21   -1    0    0  501  502  0.00000000000E+00  0.00000000000E+00  0.42145621043E+03  0.42145621043E+03  0.00000000000E+00 0.  1.
          4   -1    0    0  505    0 -0.00000000000E+00 -0.00000000000E+00 -0.27673260837E+03  0.27673260837E+03  0.00000000000E+00 0. -1.
         21    1    1    2  503  504 -0.81498806043E+02 -0.32986164165E+02  0.21987934788E+03  0.23680597551E+03  0.00000000000E+00 0.  1.
         21    1    1    2  504  502 -0.83775075777E+01 -0.31633609016E+02  0.16980231058E+03  0.17292684156E+03  0.00000000000E+00 0.  1.
         21    1    1    2  505  503  0.55911527687E+02 -0.49859657356E+01 -0.38822605724E+02  0.68250666647E+02  0.00000000000E+00 0. -1.
          4    1    1    2  501    0  0.33964785934E+02  0.69605738917E+02 -0.20613545068E+03  0.22020533509E+03  0.00000000000E+00 0. -1.
<scales pt_clust_3="105.71473" pt_clust_4="32.72412" pt_clust_5="55.84003" pt_clust_6="14000.00000"></scales>
<clustering>
<clus scale="   32.724">  1  4  2 -1</clus>
<clus scale="   55.840">  2  5  1 -1</clus>
<clus scale="  105.715">  1  3  2 -1</clus>
<clus scale="   32.724">  1  3  2 -1</clus>
</clustering>
</event>
<event>
 6    0  0.3800129E+002  0.1001901E+03  0.7546771E-02  0.1279897E+00
          2   -1    0    0  504    0 -0.00000000000E+00  0.00000000000E+00  0.32491972760E+03  0.32491972760E+03  0.00000000000E+00 0.  1.
         21   -1    0    0  503  502  0.00000000000E+00 -0.00000000000E+00 -0.33055905260E+03  0.33055905260E+03  0.00000000000E+00 0.  1.
         21    1    1    2  503  501  0.15811401198E+01 -0.48191303812E+02 -0.46473994771E+02  0.66968156292E+02  0.00000000000E+00 0.  1.
         21    1    1    2  504  505 -0.32010973349E+02  0.10982053022E+02  0.55566369771E+02  0.65060966431E+02  0.00000000000E+00 0. -1.
         21    1    1    2  505  502 -0.38101040210E+02 -0.47759119794E+02 -0.25358131298E+03  0.26083731536E+03  0.00000000000E+00 0.  1.
          2    1    1    2  501    0  0.68530873439E+02  0.84968370584E+02  0.23884961298E+03  0.26261234212E+03  0.00000000000E+00 0.  1.
<scales pt_clust_3="47.76724" pt_clust_4="33.84240" pt_clust_5="14000.00000" pt_clust_6="100.19012"></scales>
<clustering>
<clus scale="   33.842">  1  4  2 -1</clus>
<clus scale="   47.767">  2  3  1 -1</clus>
<clus scale="  100.190">  1  6  2 -1</clus>
<clus scale="   47.767">  2  3  1 -1</clus>
</clustering>
</event>
<event>
 6    0  0.3800129E+002  0.1477760E+03  0.7546771E-02  0.1203233E+00
         21   -1    0    0  504  502  0.00000000000E+00  0.00000000000E+00  0.13560421622E+03  0.13560421622E+03  0.00000000000E+00 0.  1.
          2   -1    0    0  505    0 -0.00000000000E+00 -0.00000000000E+00 -0.48754056455E+03  0.48754056455E+03  0.00000000000E+00 0. -1.
         21    1    1    2  503  501 -0.54108076969E+02 -0.44784334985E+02  0.15645459219E+02  0.71959023392E+02  0.00000000000E+00 0.  1.
         21    1    1    2  504  503 -0.29280623080E+02 -0.80414283919E+02  0.36650424998E+02  0.93097076209E+02  0.00000000000E+00 0.  1.
         21    1    1    2  505  502  0.71977032365E+02  0.12812443624E+01 -0.24864983619E+03  0.25886111298E+03  0.00000000000E+00 0. -1.
          2    1    1    2  501    0  0.11411667684E+02  0.12391737454E+03 -0.15558239636E+03  0.19922756819E+03  0.00000000000E+00 0. -1.
<scales pt_clust_3="39.28372" pt_clust_4="39.28372" pt_clust_5="71.98844" pt_clust_6="141.27086"></scales>
<clustering>
<clus scale="   39.284">  3  4 -1 -1</clus>
<clus scale="   71.988">  2  5  1 -1</clus>
<clus scale="  141.271">  2  6  1 -1</clus>
<clus scale="  147.776">  1  3  2 -1</clus>
</clustering>
</event>
<event>
 6    0  0.3800129E+002  0.6159214E+02  0.7546771E-02  0.1391269E+00
         21   -1    0    0  503  502  0.00000000000E+00  0.00000000000E+00  0.55622686759E+02  0.55622686759E+02  0.00000000000E+00 0. -1.
          1   -1    0    0  504    0 -0.00000000000E+00 -0.00000000000E+00 -0.20482501611E+04  0.20482501611E+04  0.00000000000E+00 0.  1.
         21    1    1    2  503  501  0.49295676304E+02  0.38927197731E+01 -0.99591094781E+02  0.11119174038E+03  0.00000000000E+00 0. -1.
         21    1    1    2  504  505  0.25452120726E+02  0.51737475333E+02 -0.47499032506E+03  0.47847715275E+03  0.00000000000E+00 0. -1.
         21    1    1    2  505  502 -0.90313341613E+02  0.10465471221E+02  0.35501107478E+01  0.90986971856E+02  0.00000000000E+00 0. -1.
          1    1    1    2  501    0  0.15565544583E+02 -0.66095666327E+02 -0.14215961653E+04  0.14232169829E+04  0.00000000000E+00 0.  1.
<scales pt_clust_3="49.44914" pt_clust_4="61.59214" pt_clust_5="45.78854" pt_clust_6="14000.00000"></scales>
<clustering>
<clus scale="   49.449">  1  3  2 -1</clus>
<clus scale="   45.789">  1  5  2 -1</clus>
<clus scale="   61.592">  1  4  2 -1</clus>
<clus scale="   49.449">  1  3  2 -1</clus>
</clustering>
</event>
<event>
 6    0  0.3800129E+002  0.9656202E+02  0.7546771E-02  0.1287696E+00
         21   -1    0    0  501  502  0.00000000000E+00  0.00000000000E+00  0.39224177048E+02  0.39224177048E+02  0.00000000000E+00 0.  1.
          1   -1    0    0  505    0 -0.00000000000E+00 -0.00000000000E+00 -0.23831756195E+04  0.23831756195E+04  0.00000000000E+00 0. -1.
         21    1    1    2  503  502 -0.45832518303E+01  0.11210382525E+03 -0.75075109957E+02  0.13499831839E+03  0.00000000000E+00 0.  1.
         21    1    1    2  504  503 -0.19208359104E+02 -0.71044771996E+02 -0.16267082383E+03  0.17854444156E+03  0.00000000000E+00 0.  1.
         21    1    1    2  505  504  0.43398833561E+02 -0.33673748412E+01 -0.44856047494E+03  0.45066761327E+03  0.00000000000E+00 0.  1.
          1    1    1    2  501    0 -0.19607222626E+02 -0.37691678415E+02 -0.16576450337E+04  0.16581894233E+04  0.00000000000E+00 0. -1.
<scales pt_clust_3="14000.00000" pt_clust_4="96.56202" pt_clust_5="41.12006" pt_clust_6="42.48654"></scales>
<clustering>
<clus scale="   42.487">  2  6  1 -1</clus>
<clus scale="   41.120">  2  5  1 -1</clus>
<clus scale="   96.562">  2  4  1 -1</clus>
<clus scale="   96.562">  1  3  2 -1</clus>
</clustering>
</event>
<event>
 6    0  0.3800129E+002  0.1055495E+03  0.7546771E-02  0.1269041E+00
         21   -1    0    0  504  502  0.00000000000E+00  0.00000000000E+00  0.44808987482E+03  0.44808987482E+03  0.00000000000E+00 0. -1.
          1   -1    0    0  503    0 -0.00000000000E+00 -0.00000000000E+00 -0.10751859678E+04  0.10751859678E+04  0.00000000000E+00 0.  1.
         21    1    1    2  503  505  0.51548336321E+02  0.23756692833E+02 -0.78694139042E+03  0.78898565474E+03  0.00000000000E+00 0. -1.
         21    1    1    2  504  501 -0.27291572076E+02 -0.12658298114E+02  0.49527687828E+02  0.57948721117E+02  0.00000000000E+00 0. -1.
         21    1    1    2  505  502  0.51659811392E+01 -0.92316501667E+02  0.38107830371E+03  0.39213479494E+03  0.00000000000E+00 0. -1.
          1    1    1    2  501    0 -0.29422745385E+02  0.81218106948E+02 -0.27076069406E+03  0.28420667179E+03  0.00000000000E+00 0.  1.
<scales pt_clust_3="56.68126" pt_clust_4="30.08426" pt_clust_5="105.54953" pt_clust_6="14000.00000"></scales>
<clustering>
<clus scale="   30.084">  1  4  2 -1</clus>
<clus scale="   56.681">  2  3  1 -1</clus>
<clus scale="  105.550">  1  5  2 -1</clus>
<clus scale="   30.084">  1  3  2 -1</clus>
</clustering>
</event>
<event>
 6    0  0.3800129E+002  0.1130698E+03  0.7546771E-02  0.1254988E+00
         21   -1    0    0  503  502  0.00000000000E+00  0.00000000000E+00  0.30489786931E+03  0.30489786931E+03  0.00000000000E+00 0.  1.
         -1   -1    0    0    0  501 -0.00000000000E+00 -0.00000000000E+00 -0.24616760193E+03  0.24616760193E+03  0.00000000000E+00 0.  1.
         21    1    1    2  503  504  0.14570887301E+02 -0.10755336399E+03  0.87451139839E+02  0.13938342341E+03  0.00000000000E+00 0.  1.
         21    1    1    2  504  501  0.47543938400E+02 -0.21240561655E+02 -0.30891278467E+02  0.60546334516E+02  0.00000000000E+00 0.  1.
         21    1    1    2  505  502  0.55666861331E+02  0.23810331512E+02  0.13302492103E+03  0.14615526317E+03  0.00000000000E+00 0.  1.
         -1    1    1    2    0  505 -0.11778168703E+03  0.10498359414E+03 -0.13085451503E+03  0.20498045014E+03  0.00000000000E+00 0.  1.
<scales pt_clust_3="113.06983" pt_clust_4="52.07291" pt_clust_5="61.71611" pt_clust_6="14000.00000"></scales>
<clustering>
<clus scale="   52.073">  2  4  1 -1</clus>
<clus scale="   61.716">  1  5  2 -1</clus>
<clus scale="  113.070">  1  3  2 -1</clus>
<clus scale="   61.716">  1  3  2 -1</clus>
</clustering>
</event>
<event>
 6    0  0.3800129E+002  0.2116608E+03  0.7546771E-02  0.1140258E+00
         21   -1    0    0  503  502  0.00000000000E+00  0.00000000000E+00  0.11105329734E+03  0.11105329734E+03  0.00000000000E+00 0. -1.
          2   -1    0    0  505    0 -0.00000000000E+00 -0.00000000000E+00 -0.15209930731E+04  0.15209930731E+04  0.00000000000E+00 0.  1.
         21    1    1    2  503  501  0.46830950016E+02 -0.62753264521E+01 -0.44326564707E+02  0.64787050714E+02  0.00000000000E+00 0. -1.
         21    1    1    2  504  502 -0.21617821180E+03 -0.11935335360E+03 -0.86521768577E+02  0.26165675743E+03  0.00000000000E+00 0. -1.
         21    1    1    2  505  504 -0.37879759793E+01  0.39720736410E+02 -0.54615500489E+03  0.54761060529E+03  0.00000000000E+00 0.  1.
          2    1    1    2  501    0  0.17313523776E+03  0.85907943642E+02 -0.73293643756E+03  0.75799195697E+03  0.00000000000E+00 0.  1.
<scales pt_clust_3="46.79445" pt_clust_4="14000.00000" pt_clust_5="39.90095" pt_clust_6="211.66075"></scales>
<clustering>
<clus scale="   39.901">  2  5  1 -1</clus>
<clus scale="   46.794">  1  3  2 -1</clus>
<clus scale="  211.661">  2  6  1 -1</clus>
<clus scale="   46.794">  1  3  2 -1</clus>
</clustering>
</event>
<event>
 6    0  0.3800129E+002  0.9482419E+02  0.7546771E-02  0.1291573E+00
         21   -1    0    0  503  502  0.00000000000E+00  0.00000000000E+00  0.12978876245E+04  0.12978876245E+04  0.00000000000E+00 0. -1.
         -1   -1    0    0    0  501 -0.00000000000E+00 -0.00000000000E+00 -0.11649514655E+03  0.11649514655E+03  0.00000000000E+00 0. -1.
         21    1    1    2  503  504  0.21316802184E+02 -0.48554921351E+02  0.84506094103E+02  0.99766058272E+02  0.00000000000E+00 0.  1.
         21    1    1    2  504  501 -0.26027621564E+02 -0.16865088607E+02 -0.11693702856E+02  0.33145301092E+02  0.00000000000E+00 0. -1.
         21    1    1    2  505  502 -0.85413430934E+02  0.42435733795E+02  0.11674878287E+04  0.11713769998E+04  0.00000000000E+00 0. -1.
         -1    1    1    2    0  505  0.90124250314E+02  0.22984276163E+02 -0.58907741988E+02  0.11009441181E+03  0.00000000000E+00 0. -1.
<scales pt_clust_3="53.48968" pt_clust_4="31.01400" pt_clust_5="94.82419" pt_clust_6="14000.00000"></scales>
<clustering>
<clus scale="   31.014">  2  4  1 -1</clus>
<clus scale="   53.490">  2  3  1 -1</clus>
<clus scale="   94.824">  1  5  2 -1</clus>
<clus scale="   94.824">  1  3  2 -1</clus>
</clustering>
</event>
<event>
 6    0  0.3800129E+002  0.1262611E+03  0.7546771E-02  0.1233112E+00
          2   -1    0    0  505    0 -0.00000000000E+00  0.00000000000E+00  0.10655301223E+04  0.10655301223E+04  0.00000000000E+00 0. -1.
         21   -1    0    0  503  502  0.00000000000E+00 -0.00000000000E+00 -0.13518501281E+03  0.13518501281E+03  0.00000000000E+00 0. -1.
         21    1    1    2  503  501  0.42522571971E+02  0.21626082934E+02  0.11499807578E+02  0.49072417552E+02  0.00000000000E+00 0. -1.
         21    1    1    2  504  502  0.29462507809E+02  0.33426782948E+02 -0.88770739595E+02  0.99325894876E+02  0.00000000000E+00 0. -1.
         21    1    1    2  505  504 -0.45828177088E+02  0.85018568515E+02  0.12345226988E+03  0.15674451106E+03  0.00000000000E+00 0. -1.
          2    1    1    2  501    0 -0.26156902693E+02 -0.14007143440E+03  0.88416377161E+03  0.89557231161E+03  0.00000000000E+00 0. -1.
<scales pt_clust_3="67.04072" pt_clust_4="44.55771" pt_clust_5="126.26106" pt_clust_6="14000.00000"></scales>
<clustering>
<clus scale="   44.558">  2  4  1 -1</clus>
<clus scale="   67.041">  2  3  1 -1</clus>
<clus scale="  126.261">  2  5  1 -1</clus>
<clus scale="   44.558">  2  3  1 -1</clus>
</clustering>
</event>
<event>
 6    0  0.3800129E+002  0.7210467E+02  0.7546771E-02  0.1353079E+00
          2   -1    0    0  504    0 -0.00000000000E+00  0.00000000000E+00  0.22808952088E+04  0.22808952088E+04  0.00000000000E+00 0. -1.
         21   -1    0    0  501  502  0.00000000000E+00 -0.00000000000E+00 -0.51353172630E+03  0.51353172630E+03  0.00000000000E+00 0.  1.
         21    1    1    2  503  505 -0.54376388263E+02 -0.26200076373E+02 -0.46646832957E+03  0.47035724518E+03  0.00000000000E+00 0.  1.
         21    1    1    2  504  503  0.12649280967E+03 -0.41530612869E+02  0.90851652024E+03  0.91821973963E+03  0.00000000000E+00 0. -1.
         21    1    1    2  505  502 -0.12109361162E+02  0.51157681474E+02 -0.22078091485E+02  0.57019182081E+02  0.00000000000E+00 0.  1.
          2    1    1    2  501    0 -0.60007060245E+02  0.16573007767E+02  0.13473933833E+04  0.13488307682E+04  0.00000000000E+00 0. -1.
<scales pt_clust_3="14000.00000" pt_clust_4="72.10467" pt_clust_5="52.57133" pt_clust_6="62.29200"></scales>
<clustering>
<clus scale="   52.571">  2  5  1 -1</clus>
<clus scale="   62.292">  1  6  2 -1</clus>
<clus scale="   72.105">  1  4  2 -1</clus>
<clus scale="   52.571">  2  3  1 -1</clus>
</clustering>
</event>
<event>
 6    0  0.3800129E+002  0.1543921E+03  0.7546771E-02  0.1195178E+00
          1   -1    0    0  503    0 -0.00000000000E+00  0.00000000000E+00  0.64135395376E+03  0.64135395376E+03  0.00000000000E+00 0. -1.
         21   -1    0    0  504  502  0.00000000000E+00 -0.00000000000E+00 -0.50861570124E+03  0.50861570124E+03  0.00000000000E+00 0. -1.
         21    1    1    2  503  505  0.27432339236E+02  0.35497859769E+02  0.11638167402E+03  0.12472900758E+03  0.00000000000E+00 0.  1.
         21    1    1    2  504  501  0.35392829330E+02 -0.13921597579E+03 -0.26301951963E+03  0.29968818460E+03  0.00000000000E+00 0. -1.
         21    1    1    2  505  502 -0.12083923249E+02  0.17677649707E+03 -0.18298401899E+03  0.25471376547E+03  0.00000000000E+00 0. -1.
          1    1    1    2  501    0 -0.50741245316E+02 -0.73058381047E+02  0.46236011712E+03  0.47083869735E+03  0.00000000000E+00 0. -1.
<scales pt_clust_3="44.86236" pt_clust_4="154.39213" pt_clust_5="14000.00000" pt_clust_6="48.85180"></scales>
<clustering>
<clus scale="   44.862">  1  3  2 -1</clus>
<clus scale="   48.852">  1  6  2 -1</clus>
<clus scale="  154.392">  2  4  1 -1</clus>
<clus scale="  154.392">  2  3  1 -1</clus>
</clustering>
</event>
<event>
 6    0  0.3800129E+002  0.9812625E+02  0.7546771E-02  0.1284286E+00
         -2   -1    0    0    0  501 -0.00000000000E+00  0.00000000000E+00  0.69754434122E+03  0.69754434122E+03  0.00000000000E+00 0. -1.
         21   -1    0    0  505  502  0.00000000000E+00 -0.00000000000E+00 -0.11025545046E+03  0.11025545046E+03  0.00000000000E+00 0. -1.
         21    1    1    2  503  504  0.92951109588E+01  0.73467432229E+02  0.76310223756E+01  0.74445249604E+02  0.00000000000E+00 0. -1.
         21    1    1    2  504  501 -0.45510770098E+02 -0.90839762909E+02  0.61664958603E+03  0.62496384269E+03  0.00000000000E+00 0. -1.
         21    1    1    2  505  503  0.51793951249E+02  0.45794985291E+02 -0.29237598640E+02  0.75064180793E+02  0.00000000000E+00 0. -1.
         -2    1    1    2    0  502 -0.15578292110E+02 -0.28422654611E+02 -0.77541190037E+01  0.33326518596E+02  0.00000000000E+00 0. -1.
<scales pt_clust_3="14000.00000" pt_clust_4="98.12625" pt_clust_5="51.80233" pt_clust_6="32.41189"></scales>
<clustering>
<clus scale="   32.412">  2  6  1 -1</clus>
<clus scale="   51.802">  2  5  1 -1</clus>
<clus scale="   98.126">  1  4  2 -1</clus>
<clus scale="   32.412">  2  3  1 -1</clus>
</clustering>
</event>
<event>
 6    0  0.3800129E+002  0.1723337E+03  0.7546771E-02  0.1175436E+00
         -2   -1    0    0    0  501 -0.00000000000E+00  0.00000000000E+00  0.50571799654E+03  0.50571799654E+03  0.00000000000E+00 0.  1.
         21   -1    0    0  505  502  0.00000000000E+00 -0.00000000000E+00 -0.42899372153E+03  0.42899372153E+03  0.00000000000E+00 0.  1.
         21    1    1    2  503  501  0.25240017459E+02 -0.19084862874E+02  0.29619695913E+03  0.29788240813E+03  0.00000000000E+00 0.  1.
         21    1    1    2  504  503 -0.42661386856E+02 -0.80462645857E+02 -0.23734047636E+03  0.25421395128E+03  0.00000000000E+00 0.  1.
         21    1    1    2  505  504  0.23558697008E+02 -0.73328112591E+02 -0.13260079027E+03  0.15334599402E+03  0.00000000000E+00 0.  1.
         -2    1    1    2    0  502 -0.61373276117E+01  0.17287562132E+03  0.15046858252E+03  0.22926936464E+03  0.00000000000E+00 0.  1.
<scales pt_clust_3="31.64317" pt_clust_4="66.99615" pt_clust_5="66.99615" pt_clust_6="156.41879"></scales>
<clustering>
<clus scale="   31.643">  1  3  2 -1</clus>
<clus scale="   66.996">  4  5 -1 -1</clus>
<clus scale="  156.419">  1  6  2 -1</clus>
<clus scale="  172.334">  2  3  1 -1</clus>
</clustering>
</event>
<event>
 6    0  0.3800129E+002  0.1231647E+03  0.7546771E-02  0.1237966E+00
          2   -1    0    0  504    0 -0.00000000000E+00  0.00000000000E+00  0.99662696664E+03  0.99662696664E+03  0.00000000000E+00 0.  1.
         21   -1    0    0  501  502  0.00000000000E+00 -0.00000000000E+00 -0.16408581744E+03  0.16408581744E+03  0.00000000000E+00 0.  1.
         21    1    1    2  503  505 -0.64772262982E+02 -0.91727522441E+02 -0.10491549406E+03  0.15367708131E+03  0.00000000000E+00 0.  1.
         21    1    1    2  504  503 -0.28338671395E+02 -0.15834345523E+02  0.49731831829E+03  0.49837668133E+03  0.00000000000E+00 0.  1.
         21    1    1    2  505  502 -0.43738834534E+02  0.39219570121E+02  0.20847154534E+02  0.62336700097E+02  0.00000000000E+00 0. -1.
          2    1    1    2  501    0  0.13684976891E+03  0.68342297844E+02  0.41929117043E+03  0.44632232134E+03  0.00000000000E+00 0.  1.
<scales pt_clust_3="123.16472" pt_clust_4="32.46239" pt_clust_5="59.68028" pt_clust_6="14000.00000"></scales>
<clustering>
<clus scale="   32.462">  1  4  2 -1</clus>
<clus scale="   59.680">  2  5  1 -1</clus>
<clus scale="  123.165">  2  3  1 -1</clus>
<clus scale="   59.680">  2  3  1 -1</clus>
</clustering>
</event>
<event>
 6    0  0.3800129E+002  0.1002016E+03  0.7546771E-02  0.1279873E+00
         21   -1    0    0  503  502  0.00000000000E+00  0.00000000000E+00  0.30941563522E+03  0.30941563522E+03  0.00000000000E+00 0. -1.
          2   -1    0    0  504    0 -0.00000000000E+00 -0.00000000000E+00 -0.58428173508E+03  0.58428173508E+03  0.00000000000E+00 0. -1.
         21    1    1    2  503  505  0.97222387836E+02  0.24040923454E+02  0.26626374081E+03  0.28447590121E+03  0.00000000000E+00 0. -1.
         21    1    1    2  504  502  0.41825017526E+02  0.47549838920E+01 -0.22295452239E+02  0.47634327469E+02  0.00000000000E+00 0. -1.
         21    1    1    2  505  501 -0.84641852943E+02 -0.76556318222E+02 -0.16629137748E+03  0.20168771741E+03  0.00000000000E+00 0. -1.
          2    1    1    2  501    0 -0.54405552420E+02  0.47760410876E+02 -0.35254301095E+03  0.35989942421E+03  0.00000000000E+00 0. -1.
<scales pt_clust_3="100.20160" pt_clust_4="42.09444" pt_clust_5="14000.00000" pt_clust_6="57.70146"></scales>
<clustering>
<clus scale="   42.094">  2  4  1 -1</clus>
<clus scale="   57.701">  2  6  1 -1</clus>
<clus scale="  100.202">  1  3  2 -1</clus>
<clus scale="  100.202">  1  3  2 -1</clus>
</clustering>
</event>
<event>
 6    0  0.3800129E+002  0.1503810E+03  0.7546771E-02  0.1200006E+00
         21   -1    0    0  505  502  0.00000000000E+00  0.00000000000E+00  0.63938780851E+02  0.63938780851E+02  0.00000000000E+00 0.  1.
          1   -1    0    0  504    0 -0.00000000000E+00 -0.00000000000E+00 -0.12913376144E+04  0.12913376144E+04  0.00000000000E+00 0. -1.
         21    1    1    2  503  502  0.34757969714E+02 -0.14702195286E+02 -0.32944145088E+02  0.50095785257E+02  0.00000000000E+00 0.  1.
         21    1    1    2  504  503 -0.45682821566E+02 -0.10138027447E+03 -0.21630728564E+03  0.24321538204E+03  0.00000000000E+00 0. -1.
         21    1    1    2  505  501 -0.37287593605E+00 -0.59695023735E+02  0.79828875269E+01  0.60227579966E+02  0.00000000000E+00 0.  1.
          1    1    1    2  501    0  0.11297727788E+02  0.17577749349E+03 -0.98613029036E+03  0.10017376480E+04  0.00000000000E+00 0. -1.
<scales pt_clust_3="37.73952" pt_clust_4="14000.00000" pt_clust_5="71.89911" pt_clust_6="150.38104"></scales>
<clustering>
<clus scale="   37.740">  1  3  2 -1</clus>
<clus scale="   71.899">  1  5  2 -1</clus>
<clus scale="  150.381">  2  6  1 -1</clus>
<clus scale="   37.740">  1  3  2 -1</clus>
</clustering>
</event>
<event>
 6    0  0.3800129E+002  0.1001926E+03  0.7546771E-02  0.1279891E+00
         21   -1    0    0  505  502  0.00000000000E+00  0.00000000000E+00  0.55889748404E+03  0.55889748404E+03  0.00000000000E+00 0. -1.
          3   -1    0    0  504    0 -0.00000000000E+00 -0.00000000000E+00 -0.60458602753E+02  0.60458602753E+02  0.00000000000E+00 0.  1.
         21    1    1    2  503  501  0.13293875237E+02  0.75159447595E+02  0.36559896604E+03  0.37348128956E+03  0.00000000000E+00 0. -1.
         21    1    1    2  504  502  0.50083502187E+01  0.31758695976E+02  0.54839385032E+02  0.63569304642E+02  0.00000000000E+00 0.  1.
         21    1    1    2  505  503 -0.39754552088E+02 -0.43484507985E+01  0.65540595887E+02  0.76778272612E+02  0.00000000000E+00 0.  1.
          3    1    1    2  501    0  0.21452326632E+02 -0.10256969277E+03  0.12459934327E+02  0.10552721998E+03  0.00000000000E+00 0.  1.
<scales pt_clust_3="100.19264" pt_clust_4="32.15118" pt_clust_5="39.04172" pt_clust_6="14000.00000"></scales>
<clustering>
<clus scale="   32.151">  1  4  2 -1</clus>
<clus scale="   39.042">  1  5  2 -1</clus>
<clus scale="  100.193">  1  3  2 -1</clus>
<clus scale="   32.151">  1  3  2 -1</clus>
</clustering>
</event>
<event>
 6    0  0.3800129E+002  0.9459906E+02  0.7546771E-02  0.1292082E+00
         21   -1    0    0  505  502  0.00000000000E+00  0.00000000000E+00  0.18751753503E+04  0.18751753503E+04  0.00000000000E+00 0.  1.
          2   -1    0    0  504    0 -0.00000000000E+00 -0.00000000000E+00 -0.19087449910E+04  0.19087449910E+04  0.00000000000E+00 0. -1.
         21    1    1    2  503  502 -0.45423795713E+02  0.77937462985E+02  0.14475540803E+03  0.17056288432E+03  0.00000000000E+00 0.  1.
         21    1    1    2  504  503  0.21373849695E+02 -0.43861426243E+02 -0.35183102190E+03  0.35519816178E+03  0.00000000000E+00 0. -1.
         21    1    1    2  505  501  0.92850994437E+02 -0.29338160118E+02  0.17136788527E+04  0.17164431959E+04  0.00000000000E+00 0.  1.
          2    1    1    2  501    0 -0.68801048419E+02 -0.47378766239E+01 -0.15401728795E+04  0.15417160992E+04  0.00000000000E+00 0. -1.
<scales pt_clust_3="14000.00000" pt_clust_4="48.79207" pt_clust_5="94.59906" pt_clust_6="67.75614"></scales>
<clustering>
<clus scale="   48.792">  2  4  1 -1</clus>
<clus scale="   67.756">  2  6  1 -1</clus>
<clus scale="   94.599">  1  5  2 -1</clus>
<clus scale="   94.599">  1  3  2 -1</clus>
</clustering>
</event>
<event>
 6    0  0.3800129E+002  0.1152925E+03  0.7546771E-02  0.1251071E+00
          1   -1    0    0  504    0 -0.00000000000E+00  0.00000000000E+00  0.27345770612E+04  0.27345770612E+04  0.00000000000E+00 0. -1.
         21   -1    0    0  501  502  0.00000000000E+00 -0.00000000000E+00 -0.20821339794E+03  0.20821339794E+03  0.00000000000E+00 0. -1.
         21    1    1    2  503  505  0.57309195348E+00  0.83881277838E+02  0.66509998618E+02  0.10705128267E+03  0.00000000000E+00 0.  1.
         21    1    1    2  504  503 -0.82585752012E-01  0.36480786601E+02  0.22328828982E+04  0.22331808910E+04  0.00000000000E+00 0. -1.
         21    1    1    2  505  502  0.35431369640E+02  0.31926586135E+02 -0.16963046388E+03  0.17620778398E+03  0.00000000000E+00 0. -1.
          1    1    1    2  501    0 -0.35921875841E+02 -0.15228865057E+03  0.39660123028E+03  0.42635050148E+03  0.00000000000E+00 0. -1.
<scales pt_clust_3="115.29251" pt_clust_4="36.48088" pt_clust_5="47.85375" pt_clust_6="14000.00000"></scales>
<clustering>
<clus scale="   36.481">  1  4  2 -1</clus>
<clus scale="   47.854">  2  5  1 -1</clus>
<clus scale="  115.293">  2  3  1 -1</clus>
<clus scale="   47.854">  2  3  1 -1</clus>
</clustering>
</event>
<event>
 6    0  0.3800129E+002  0.2532746E+03  0.7546771E-02  0.1111253E+00
          1   -1    0    0  504    0 -0.00000000000E+00  0.00000000000E+00  0.85283313745E+03  0.85283313745E+03  0.00000000000E+00 0. -1.
         21   -1    0    0  503  502  0.00000000000E+00 -0.00000000000E+00 -0.27318263182E+03  0.27318263182E+03  0.00000000000E+00 0. -1.
         21    1    1    2  503  501  0.17612772086E+03  0.75106825067E+02 -0.14690880270E+03  0.24133836317E+03  0.00000000000E+00 0. -1.
         21    1    1    2  504  505  0.20387517932E+02  0.24525150145E+02  0.23629049345E+03  0.23843307483E+03  0.00000000000E+00 0.  1.
         21    1    1    2  505  502  0.38190639681E+02  0.71464000649E+02  0.56158579190E+01  0.81222941390E+02  0.00000000000E+00 0. -1.
          1    1    1    2  501    0 -0.23470587847E+03 -0.17109597586E+03  0.48465295695E+03  0.56502138989E+03  0.00000000000E+00 0. -1.
<scales pt_clust_3="14000.00000" pt_clust_4="31.89254" pt_clust_5="83.23363" pt_clust_6="253.27458"></scales>
<clustering>
<clus scale="   31.893">  1  4  2 -1</clus>
<clus scale="   83.234">  2  5  1 -1</clus>
<clus scale="  253.275">  1  6  2 -1</clus>
<clus scale="   83.234">  2  3  1 -1</clus>
</clustering>
</event>
<event>
 6    0  0.3800129E+002  0.1177016E+03  0.7546771E-02  0.1246938E+00
          1   -1    0    0  505    0 -0.00000000000E+00  0.00000000000E+00  0.30824838246E+03  0.30824838246E+03  0.00000000000E+00 0. -1.
         21   -1    0    0  504  502  0.00000000000E+00 -0.00000000000E+00 -0.90129590345E+03  0.90129590345E+03  0.00000000000E+00 0. -1.
         21    1    1    2  503  502 -0.40039716285E+02 -0.97449836585E+02 -0.75588909581E+03  0.76319589536E+03  0.00000000000E+00 0. -1.
         21    1    1    2  504  501  0.86713518239E+02 -0.14286850032E+02 -0.88882991656E+02  0.12499413800E+03  0.00000000000E+00 0. -1.
         21    1    1    2  505  503 -0.61854651167E+02 -0.49707344438E+01  0.26993118411E+02  0.67670780352E+02  0.00000000000E+00 0. -1.
          1    1    1    2  501    0  0.15180849213E+02  0.11670742106E+03  0.22473144807E+03  0.25368347220E+03  0.00000000000E+00 0. -1.
<scales pt_clust_3="14000.00000" pt_clust_4="83.72146" pt_clust_5="62.05406" pt_clust_6="117.70161"></scales>
<clustering>
<clus scale="   62.054">  1  5  2 -1</clus>
<clus scale="   83.721">  2  4  1 -1</clus>
<clus scale="  117.702">  1  6  2 -1</clus>
<clus scale="   83.721">  2  3  1 -1</clus>
</clustering>
</event>
<event>
 6    0  0.3800129E+002  0.9666152E+02  0.7546771E-02  0.1287477E+00
         21   -1    0    0  505  502  0.00000000000E+00  0.00000000000E+00  0.52466394218E+02  0.52466394218E+02  0.00000000000E+00 0. -1.
          1   -1    0    0  504    0 -0.00000000000E+00 -0.00000000000E+00 -0.32847490004E+04  0.32847490004E+04  0.00000000000E+00 0. -1.
         21    1    1    2  503  501 -0.10352715065E+02 -0.38809067281E+02 -0.10442184114E+02  0.41501344816E+02  0.00000000000E+00 0. -1.
         21    1    1    2  504  502 -0.63762102263E+02 -0.23377307150E+02 -0.40864551559E+03  0.41425024030E+03  0.00000000000E+00 0.  1.
         21    1    1    2  505  503  0.12756441204E+02 -0.32129184516E+02  0.23971496067E+02  0.42067135790E+02  0.00000000000E+00 0. -1.
          1    1    1    2  501    0  0.61358376124E+02  0.94315558948E+02 -0.28371664026E+04  0.28393966737E+04  0.00000000000E+00 0. -1.
<scales pt_clust_3="64.46623" pt_clust_4="14000.00000" pt_clust_5="34.56894" pt_clust_6="96.66152"></scales>
<clustering>
<clus scale="   34.569">  1  5  2 -1</clus>
<clus scale="   64.466">  1  3  2 -1</clus>
<clus scale="   96.662">  2  6  1 -1</clus>
<clus scale="   34.569">  1  3  2 -1</clus>
</clustering>
</event>
