<event>
 5    0  0.5510933E-005  0.2931370E+03  0.7546771E-02  0.1088723E+00
         21   -1    0    0  502  501  0.00000000000E+00  0.00000000000E+00  0.21789480833E+04  0.21789480833E+04  0.00000000000E+00 0. -1.
         21   -1    0    0  501  502 -0.00000000000E+00 -0.00000000000E+00 -0.39436147653E+02  0.39436147653E+02  0.00000000000E+00 0. -1.
         25    1    1    2    0    0  0.24263328608E+01 -0.15883308541E+03  0.12881597593E+04  0.13039226977E+04  0.12500000000E+03 0.  0.
         25    1    1    2    0    0 -0.71507438269E+02  0.62286254724E+02  0.33117211224E+03  0.36645990119E+03  0.12500000000E+03 0.  0.
         25    1    1    2    0    0  0.69081105408E+02  0.96546830688E+02  0.52018006406E+03  0.54800163201E+03  0.12500000000E+03 0.  0.
</event>
<event>
 5    0  0.5510933E-005  0.2059959E+03  0.7546771E-02  0.1144777E+00
         21   -1    0    0  502  501  0.00000000000E+00  0.00000000000E+00  0.64743523764E+02  0.64743523764E+02  0.00000000000E+00 0.  1.
         21   -1    0    0  501  502 -0.00000000000E+00 -0.00000000000E+00 -0.65542159516E+03  0.65542159516E+03  0.00000000000E+00 0.  1.
         25    1    1    2    0    0  0.15439879532E+02  0.14715577500E+02 -0.23412069266E+03  0.26625633670E+03  0.12500000000E+03 0.  0.
         25    1    1    2    0    0  0.26646589862E+02 -0.18941793885E+02 -0.26019266337E+03  0.29050654791E+03  0.12500000000E+03 0.  0.
         25    1    1    2    0    0 -0.42086469394E+02  0.42262163856E+01 -0.96364715360E+02  0.16340223431E+03  0.12500000000E+03 0.  0.
</event>
<event>
 5    0  0.5727881E-005  0.3322264E+03  0.7546771E-02  0.1070156E+00
         21   -1    0    0  502  501  0.00000000000E+00  0.00000000000E+00  0.69751850739E+03  0.69751850739E+03  0.00000000000E+00 0.  1.
         21   -1    0    0  501  502 -0.00000000000E+00 -0.00000000000E+00 -0.15823863225E+03  0.15823863225E+03  0.00000000000E+00 0.  1.
         25    1    1    2    0    0  0.97537176288E+02  0.48723086703E+02  0.23463282500E+03  0.28734126488E+03  0.12500000000E+03 0.  0.
         25    1    1    2    0    0  0.41249865603E+02  0.12548768332E+03  0.24674044126E+03  0.30652007346E+03  0.12500000000E+03 0.  0.
         25    1    1    2    0    0 -0.13878704189E+03 -0.17421077002E+03  0.57906608869E+02  0.26189580130E+03  0.12500000000E+03 0.  0.
</event>
<event>
 5    0  0.5510933E-005  0.2252091E+03  0.7546771E-02  0.1130058E+00
         21   -1    0    0  502  501  0.00000000000E+00  0.00000000000E+00  0.67135232724E+02  0.67135232724E+02  0.00000000000E+00 0. -1.
         21   -1    0    0  501  502 -0.00000000000E+00 -0.00000000000E+00 -0.75547702832E+03  0.75547702832E+03  0.00000000000E+00 0. -1.
         25    1    1    2    0    0 -0.20880921006E+02 -0.71677733607E+02 -0.12164511622E+03  0.18972676315E+03  0.12500000000E+03 0.  0.
         25    1    1    2    0    0  0.34169393998E+01  0.89950694340E+02 -0.29782767110E+03  0.33530452511E+03  0.12500000000E+03 0.  0.
         25    1    1    2    0    0  0.17463981606E+02 -0.18272960733E+02 -0.26886900828E+03  0.29758097278E+03  0.12500000000E+03 0.  0.
</event>
<event>
 5    0  0.5510933E-005  0.3018915E+03  0.7546771E-02  0.1084299E+00
         21   -1    0    0  502  501  0.00000000000E+00  0.00000000000E+00  0.58030834558E+03  0.58030834558E+03  0.00000000000E+00 0.  1.
         21   -1    0    0  501  502 -0.00000000000E+00 -0.00000000000E+00 -0.15705185690E+03  0.15705185690E+03  0.00000000000E+00 0.  1.
         25    1    1    2    0    0 -0.17314200879E+03 -0.38527511007E+02  0.16552632292E+03  0.27292212789E+03  0.12500000000E+03 0.  0.
         25    1    1    2    0    0  0.68672022589E+02 -0.80719502175E+02  0.19130973350E+03  0.25190454313E+03  0.12500000000E+03 0.  0.
         25    1    1    2    0    0  0.10446998620E+03  0.11924701318E+03  0.66420432260E+02  0.21253353145E+03  0.12500000000E+03 0.  0.
</event>
<event>
 5    0  0.5510933E-005  0.2830605E+03  0.7546771E-02  0.1094029E+00
         21   -1    0    0  502  501  0.00000000000E+00  0.00000000000E+00  0.68070462228E+03  0.68070462228E+03  0.00000000000E+00 0.  1.
         21   -1    0    0  501  502 -0.00000000000E+00 -0.00000000000E+00 -0.11770632993E+03  0.11770632993E+03  0.00000000000E+00 0.  1.
         25    1    1    2    0    0  0.34690777622E+02 -0.76086561203E+02  0.15554687352E+03  0.21636183746E+03  0.12500000000E+03 0.  0.
         25    1    1    2    0    0 -0.14579064284E+03  0.22635836042E+02  0.77557679309E+02  0.20834463332E+03  0.12500000000E+03 0.  0.
         25    1    1    2    0    0  0.11109986522E+03  0.53450725162E+02  0.32989373952E+03  0.37370448144E+03  0.12500000000E+03 0.  0.
</event>
<event>
 5    0  0.5510933E-005  0.4672748E+03  0.7546771E-02  0.1022692E+00
         21   -1    0    0  502  501  0.00000000000E+00  0.00000000000E+00  0.12054987491E+03  0.12054987491E+03  0.00000000000E+00 0. -1.
         21   -1    0    0  501  502 -0.00000000000E+00 -0.00000000000E+00 -0.18112480356E+04  0.18112480356E+04  0.00000000000E+00 0. -1.
         25    1    1    2    0    0  0.79197076944E+02 -0.13630024824E+03 -0.36774615525E+03  0.41918035422E+03  0.12500000000E+03 0.  0.
         25    1    1    2    0    0  0.57019633501E+02 -0.20317110595E+03 -0.92846139816E+03  0.96031000451E+03  0.12500000000E+03 0.  0.
         25    1    1    2    0    0 -0.13621671045E+03  0.33947135419E+03 -0.39449060730E+03  0.55230755179E+03  0.12500000000E+03 0.  0.
</event>
<event>
 5    0  0.5510933E-005  0.2856651E+03  0.7546771E-02  0.1092634E+00
         21   -1    0    0  502  501  0.00000000000E+00  0.00000000000E+00  0.30768294534E+03  0.30768294534E+03  0.00000000000E+00 0. -1.
         21   -1    0    0  501  502 -0.00000000000E+00 -0.00000000000E+00 -0.26522278857E+03  0.26522278857E+03  0.00000000000E+00 0. -1.
         25    1    1    2    0    0 -0.11416519223E+03  0.25564702671E+02 -0.37641521619E+02  0.17529725979E+03  0.12500000000E+03 0.  0.
         25    1    1    2    0    0  0.12062001658E+03  0.10849275140E+03  0.58104044348E+02  0.21288716607E+03  0.12500000000E+03 0.  0.
         25    1    1    2    0    0 -0.64548243513E+01 -0.13405745407E+03  0.21997634041E+02  0.18472130807E+03  0.12500000000E+03 0.  0.
</event>
<event>
 5    0  0.8267005E-005  0.5874034E+03  0.7546771E-02  0.9931890E-01
         21   -1    0    0  502  501  0.00000000000E+00  0.00000000000E+00  0.34133680182E+03  0.34133680182E+03  0.00000000000E+00 0.  1.
         21   -1    0    0  501  502 -0.00000000000E+00 -0.00000000000E+00 -0.10108572389E+04  0.10108572389E+04  0.00000000000E+00 0.  1.
         25    1    1    2    0    0  0.86973777084E+02  0.11512072143E+03  0.18954782366E+03  0.26901783557E+03  0.12500000000E+03 0.  0.
         25    1    1    2    0    0 -0.40614322218E+02  0.24242904356E+03 -0.40634293106E+03  0.49108140054E+03  0.12500000000E+03 0.  0.
         25    1    1    2    0    0 -0.46359454866E+02 -0.35754976499E+03 -0.45272532969E+03  0.59209480461E+03  0.12500000000E+03 0.  0.
</event>
<event>
 5    0  0.5510933E-005  0.3558444E+03  0.7546771E-02  0.1060241E+00
         21   -1    0    0  502  501  0.00000000000E+00  0.00000000000E+00  0.83524191597E+03  0.83524191597E+03  0.00000000000E+00 0.  1.
         21   -1    0    0  501  502 -0.00000000000E+00 -0.00000000000E+00 -0.15160310234E+03  0.15160310234E+03  0.00000000000E+00 0.  1.
         25    1    1    2    0    0  0.10405824242E+03  0.46355368410E+01  0.27619384568E+03  0.32055833543E+03  0.12500000000E+03 0.  0.
         25    1    1    2    0    0 -0.21893743048E+03 -0.15832986409E+03  0.24430246840E+03  0.38511120523E+03  0.12500000000E+03 0.  0.
         25    1    1    2    0    0  0.11487918806E+03  0.15369432725E+03  0.16314249954E+03  0.28117547765E+03  0.12500000000E+03 0.  0.
</event>
<event>
 5    0  0.5510933E-005  0.3393085E+03  0.7546771E-02  0.1067091E+00
         21   -1    0    0  502  501  0.00000000000E+00  0.00000000000E+00  0.27012110965E+03  0.27012110965E+03  0.00000000000E+00 0.  1.
         21   -1    0    0  501  502 -0.00000000000E+00 -0.00000000000E+00 -0.42621709414E+03  0.42621709414E+03  0.00000000000E+00 0.  1.
         25    1    1    2    0    0 -0.93084340699E+02  0.15048204090E+03 -0.11296755146E+03  0.24432807207E+03  0.12500000000E+03 0.  0.
         25    1    1    2    0    0 -0.22760493260E+02 -0.16719370533E+03  0.96455025175E+02  0.23108515105E+03  0.12500000000E+03 0.  0.
         25    1    1    2    0    0  0.11584483396E+03  0.16711664430E+02 -0.13958345820E+03  0.22092498068E+03  0.12500000000E+03 0.  0.
</event>
<event>
 5    0  0.5510933E-005  0.5309540E+03  0.7546771E-02  0.1006001E+00
         21   -1    0    0  502  501  0.00000000000E+00  0.00000000000E+00  0.29830319792E+04  0.29830319792E+04  0.00000000000E+00 0.  1.
         21   -1    0    0  501  502 -0.00000000000E+00 -0.00000000000E+00 -0.94505222480E+02  0.94505222480E+02  0.00000000000E+00 0.  1.
         25    1    1    2    0    0 -0.18400711475E+03  0.23812984125E+03  0.41806771216E+03  0.53006608223E+03  0.12500000000E+03 0.  0.
         25    1    1    2    0    0  0.26768943481E+03 -0.31021461984E+02  0.72744016832E+03  0.78575706367E+03  0.12500000000E+03 0.  0.
         25    1    1    2    0    0 -0.83682320054E+02 -0.20710837927E+03  0.17430188763E+04  0.17617140558E+04  0.12500000000E+03 0.  0.
</event>
<event>
 5    0  0.5510933E-005  0.3066276E+03  0.7546771E-02  0.1081974E+00
         21   -1    0    0  502  501  0.00000000000E+00  0.00000000000E+00  0.13332745088E+03  0.13332745088E+03  0.00000000000E+00 0. -1.
         21   -1    0    0  501  502 -0.00000000000E+00 -0.00000000000E+00 -0.70518487470E+03  0.70518487470E+03  0.00000000000E+00 0. -1.
         25    1    1    2    0    0  0.12293502700E+03 -0.10742547579E+03 -0.25901030541E+03  0.33070317812E+03  0.12500000000E+03 0.  0.
         25    1    1    2    0    0  0.26147429054E+02  0.18122672896E+02 -0.30604537243E+00  0.12898532080E+03  0.12500000000E+03 0.  0.
         25    1    1    2    0    0 -0.14908245606E+03  0.89302802892E+02 -0.31254107303E+03  0.37882382666E+03  0.12500000000E+03 0.  0.
</event>
<event>
 5    0  0.5510933E-005  0.4095074E+03  0.7546771E-02  0.1040536E+00
         21   -1    0    0  502  501  0.00000000000E+00  0.00000000000E+00  0.39391750943E+03  0.39391750943E+03  0.00000000000E+00 0. -1.
         21   -1    0    0  501  502 -0.00000000000E+00 -0.00000000000E+00 -0.42571437555E+03  0.42571437555E+03  0.00000000000E+00 0. -1.
         25    1    1    2    0    0 -0.30130886713E+03 -0.14861950754E+03 -0.28633981488E+02  0.35961047862E+03  0.12500000000E+03 0.  0.
         25    1    1    2    0    0  0.48180044938E+02  0.79316818411E+02 -0.54267622850E+02  0.16487100807E+03  0.12500000000E+03 0.  0.
         25    1    1    2    0    0  0.25312882219E+03  0.69302689131E+02  0.51104738219E+02  0.29515039830E+03  0.12500000000E+03 0.  0.
</event>
<event>
 5    0  0.5510933E-005  0.3736990E+03  0.7546771E-02  0.1053288E+00
         21   -1    0    0  502  501  0.00000000000E+00  0.00000000000E+00  0.85093143881E+03  0.85093143881E+03  0.00000000000E+00 0. -1.
         21   -1    0    0  501  502 -0.00000000000E+00 -0.00000000000E+00 -0.16411542783E+03  0.16411542783E+03  0.00000000000E+00 0. -1.
         25    1    1    2    0    0 -0.68498528534E+01 -0.22463353812E+03  0.10619054535E+03  0.27822397247E+03  0.12500000000E+03 0.  0.
         25    1    1    2    0    0  0.12692631884E+03  0.21559752061E+03  0.37305645489E+03  0.46624961109E+03  0.12500000000E+03 0.  0.
         25    1    1    2    0    0 -0.12007646598E+03  0.90360175093E+01  0.20756901074E+03  0.27057328308E+03  0.12500000000E+03 0.  0.
</event>
<event>
 5    0  0.5510933E-005  0.2464864E+03  0.7546771E-02  0.1115546E+00
         21   -1    0    0  502  501  0.00000000000E+00  0.00000000000E+00  0.59510135661E+03  0.59510135661E+03  0.00000000000E+00 0.  1.
         21   -1    0    0  501  502 -0.00000000000E+00 -0.00000000000E+00 -0.10209275946E+03  0.10209275946E+03  0.00000000000E+00 0.  1.
         25    1    1    2    0    0  0.35796031437E+02  0.94477321455E+02  0.70938000098E+02  0.17568300998E+03  0.12500000000E+03 0.  0.
         25    1    1    2    0    0 -0.53363252689E+02  0.15173327634E+02  0.15810514821E+03  0.20904569955E+03  0.12500000000E+03 0.  0.
         25    1    1    2    0    0  0.17567221252E+02 -0.10965064909E+03  0.26396544884E+03  0.31246540654E+03  0.12500000000E+03 0.  0.
</event>
<event>
 5    0  0.5510933E-005  0.2115103E+03  0.7546771E-02  0.1140376E+00
         21   -1    0    0  502  501  0.00000000000E+00  0.00000000000E+00  0.40095071774E+03  0.40095071774E+03  0.00000000000E+00 0. -1.
         21   -1    0    0  501  502 -0.00000000000E+00 -0.00000000000E+00 -0.11157627976E+03  0.11157627976E+03  0.00000000000E+00 0. -1.
         25    1    1    2    0    0 -0.14236220531E+02  0.10372407546E+02  0.50161188323E+01  0.12633454896E+03  0.12500000000E+03 0.  0.
         25    1    1    2    0    0  0.34522611363E+02 -0.18432596865E+01  0.18011090606E+03  0.22194627004E+03  0.12500000000E+03 0.  0.
         25    1    1    2    0    0 -0.20286390832E+02 -0.85291478591E+01  0.10424741309E+03  0.16424617850E+03  0.12500000000E+03 0.  0.
</event>
<event>
 5    0  0.5510933E-005  0.6008393E+03  0.7546771E-02  0.9903666E-01
         21   -1    0    0  502  501  0.00000000000E+00  0.00000000000E+00  0.16004699707E+04  0.16004699707E+04  0.00000000000E+00 0.  1.
         21   -1    0    0  501  502 -0.00000000000E+00 -0.00000000000E+00 -0.22556363041E+03  0.22556363041E+03  0.00000000000E+00 0.  1.
         25    1    1    2    0    0 -0.20828141009E+03  0.24234713408E+03  0.29295255964E+03  0.45117566577E+03  0.12500000000E+03 0.  0.
         25    1    1    2    0    0  0.42216643917E+03 -0.12147632414E+03  0.30179854047E+03  0.54743799532E+03  0.12500000000E+03 0.  0.
         25    1    1    2    0    0 -0.21388502908E+03 -0.12087080994E+03  0.78015524015E+03  0.82741993999E+03  0.12500000000E+03 0.  0.
</event>
<event>
 5    0  0.5510933E-005  0.2881353E+03  0.7546771E-02  0.1091327E+00
         21   -1    0    0  502  501  0.00000000000E+00  0.00000000000E+00  0.12010492742E+03  0.12010492742E+03  0.00000000000E+00 0.  1.
         21   -1    0    0  501  502 -0.00000000000E+00 -0.00000000000E+00 -0.69124532627E+03  0.69124532627E+03  0.00000000000E+00 0.  1.
         25    1    1    2    0    0 -0.17318471149E+03 -0.11395615592E+03 -0.23750029289E+03  0.33913174267E+03  0.12500000000E+03 0.  0.
         25    1    1    2    0    0  0.77811640406E+02  0.74062828594E+02 -0.11952079363E+03  0.20359315822E+03  0.12500000000E+03 0.  0.
         25    1    1    2    0    0  0.95373071087E+02  0.39893327326E+02 -0.21411931234E+03  0.26862535280E+03  0.12500000000E+03 0.  0.
</event>
<event>
 5    0  0.5510933E-005  0.3347924E+03  0.7546771E-02  0.1069036E+00
         21   -1    0    0  502  501  0.00000000000E+00  0.00000000000E+00  0.16440143612E+04  0.16440143612E+04  0.00000000000E+00 0. -1.
         21   -1    0    0  501  502 -0.00000000000E+00 -0.00000000000E+00 -0.68178198742E+02  0.68178198742E+02  0.00000000000E+00 0. -1.
         25    1    1    2    0    0  0.78324371231E+02 -0.11515467942E+03  0.15194270109E+03  0.24105371131E+03  0.12500000000E+03 0.  0.
         25    1    1    2    0    0  0.42986994938E+02  0.99899732905E+02  0.40889395484E+03  0.44118828709E+03  0.12500000000E+03 0.  0.
         25    1    1    2    0    0 -0.12131136617E+03  0.15254946514E+02  0.10149995065E+04  0.10299505615E+04  0.12500000000E+03 0.  0.
</event>
<event>
 5    0  0.5510933E-005  0.2698591E+03  0.7546771E-02  0.1101360E+00
         21   -1    0    0  502  501  0.00000000000E+00  0.00000000000E+00  0.83410186356E+02  0.83410186356E+02  0.00000000000E+00 0. -1.
         21   -1    0    0  501  502 -0.00000000000E+00 -0.00000000000E+00 -0.87308229286E+03  0.87308229286E+03  0.00000000000E+00 0. -1.
         25    1    1    2    0    0 -0.37114118104E+02  0.11092289419E+01 -0.64551957498E+02  0.14550135177E+03  0.12500000000E+03 0.  0.
         25    1    1    2    0    0 -0.15093328730E+02 -0.81346705578E+02 -0.57219282818E+03  0.59150209442E+03  0.12500000000E+03 0.  0.
         25    1    1    2    0    0  0.52207446834E+02  0.80237476636E+02 -0.15292732082E+03  0.21948903302E+03  0.12500000000E+03 0.  0.
</event>
<event>
 5    0  0.5510933E-005  0.3398735E+03  0.7546771E-02  0.1066850E+00
         21   -1    0    0  502  501  0.00000000000E+00  0.00000000000E+00  0.61086010069E+03  0.61086010069E+03  0.00000000000E+00 0.  1.
         21   -1    0    0  501  502 -0.00000000000E+00 -0.00000000000E+00 -0.18910061344E+03  0.18910061344E+03  0.00000000000E+00 0.  1.
         25    1    1    2    0    0 -0.19318944292E+03 -0.12547387932E+03  0.31002415463E+03  0.40596284522E+03  0.12500000000E+03 0.  0.
         25    1    1    2    0    0  0.16849669645E+03  0.17023301618E+02  0.63779735516E+02  0.21994041051E+03  0.12500000000E+03 0.  0.
         25    1    1    2    0    0  0.24692746472E+02  0.10845057770E+03  0.47955597103E+02  0.17405745840E+03  0.12500000000E+03 0.  0.
</event>
<event>
 5    0  0.5510933E-005  0.3702704E+03  0.7546771E-02  0.1054590E+00
         21   -1    0    0  502  501  0.00000000000E+00  0.00000000000E+00  0.21975028127E+03  0.21975028127E+03  0.00000000000E+00 0.  1.
         21   -1    0    0  501  502 -0.00000000000E+00 -0.00000000000E+00 -0.62389084124E+03  0.62389084124E+03  0.00000000000E+00 0.  1.
         25    1    1    2    0    0  0.24192984328E+03 -0.16391011339E+02 -0.42257318998E+02  0.27606049216E+03  0.12500000000E+03 0.  0.
         25    1    1    2    0    0 -0.62296163545E+02 -0.94132547067E+02 -0.60251305691E+02  0.17887696399E+03  0.12500000000E+03 0.  0.
         25    1    1    2    0    0 -0.17963367974E+03  0.11052355841E+03 -0.30163193528E+03  0.38870366636E+03  0.12500000000E+03 0.  0.
</event>
<event>
 5    0  0.5510933E-005  0.3206188E+03  0.7546771E-02  0.1075365E+00
         21   -1    0    0  502  501  0.00000000000E+00  0.00000000000E+00  0.24245142004E+03  0.24245142004E+03  0.00000000000E+00 0. -1.
         21   -1    0    0  501  502 -0.00000000000E+00 -0.00000000000E+00 -0.42398766326E+03  0.42398766326E+03  0.00000000000E+00 0. -1.
         25    1    1    2    0    0  0.88610710937E+02  0.10573412503E+03 -0.47450702157E+02  0.19211489381E+03  0.12500000000E+03 0.  0.
         25    1    1    2    0    0 -0.10614814191E+03 -0.61140018207E+02 -0.24457633758E+03  0.30074593058E+03  0.12500000000E+03 0.  0.
         25    1    1    2    0    0  0.17537430975E+02 -0.44594106826E+02  0.11049079652E+03  0.17357825891E+03  0.12500000000E+03 0.  0.
</event>
<event>
 5    0  0.5510933E-005  0.4458154E+03  0.7546771E-02  0.1028977E+00
         21   -1    0    0  502  501  0.00000000000E+00  0.00000000000E+00  0.16723616315E+03  0.16723616315E+03  0.00000000000E+00 0. -1.
         21   -1    0    0  501  502 -0.00000000000E+00 -0.00000000000E+00 -0.11884471955E+04  0.11884471955E+04  0.00000000000E+00 0. -1.
         25    1    1    2    0    0  0.86511596625E+02  0.24545713678E+03 -0.68036824893E+03  0.73909364528E+03  0.12500000000E+03 0.  0.
         25    1    1    2    0    0 -0.14048389037E+03 -0.30246348308E+03 -0.29371517572E+03  0.46164216282E+03  0.12500000000E+03 0.  0.
         25    1    1    2    0    0  0.53972293743E+02  0.57006346297E+02 -0.47127607704E+02  0.15494755054E+03  0.12500000000E+03 0.  0.
</event>
<event>
 5    0  0.5510933E-005  0.2067126E+03  0.7546771E-02  0.1144196E+00
         21   -1    0    0  502  501  0.00000000000E+00  0.00000000000E+00  0.11215250705E+04  0.11215250705E+04  0.00000000000E+00 0.  1.
         21   -1    0    0  501  502 -0.00000000000E+00 -0.00000000000E+00 -0.38100012168E+02  0.38100012168E+02  0.00000000000E+00 0.  1.
         25    1    1    2    0    0 -0.81552419531E+01  0.43067343678E+02  0.36823570364E+03  0.39133596500E+03  0.12500000000E+03 0.  0.
         25    1    1    2    0    0  0.55060939122E+02 -0.46267431867E+02  0.42609934615E+03  0.44984223352E+03  0.12500000000E+03 0.  0.
         25    1    1    2    0    0 -0.46905697169E+02  0.32000881897E+01  0.28909000859E+03  0.31844688420E+03  0.12500000000E+03 0.  0.
</event>
<event>
 5    0  0.5510933E-005  0.2864424E+03  0.7546771E-02  0.1092221E+00
         21   -1    0    0  502  501  0.00000000000E+00  0.00000000000E+00  0.40192325952E+02  0.40192325952E+02  0.00000000000E+00 0. -1.
         21   -1    0    0  501  502 -0.00000000000E+00 -0.00000000000E+00 -0.20414163058E+04  0.20414163058E+04  0.00000000000E+00 0. -1.
         25    1    1    2    0    0  0.88654211425E+02  0.10910961705E+03 -0.43352741506E+03  0.47258385218E+03  0.12500000000E+03 0.  0.
         25    1    1    2    0    0 -0.36899846481E+02  0.31831247351E+02 -0.99314797307E+03  0.10021690094E+04  0.12500000000E+03 0.  0.
         25    1    1    2    0    0 -0.51754364944E+02 -0.14094086440E+03 -0.57454859169E+03  0.60685577015E+03  0.12500000000E+03 0.  0.
</event>
<event>
 5    0  0.5510933E-005  0.2462152E+03  0.7546771E-02  0.1115720E+00
         21   -1    0    0  502  501  0.00000000000E+00  0.00000000000E+00  0.13579652873E+03  0.13579652873E+03  0.00000000000E+00 0.  1.
         21   -1    0    0  501  502 -0.00000000000E+00 -0.00000000000E+00 -0.44641732607E+03  0.44641732607E+03  0.00000000000E+00 0.  1.
         25    1    1    2    0    0 -0.89245066918E+02  0.44650952823E+02 -0.91770057107E+02  0.18440480725E+03  0.12500000000E+03 0.  0.
         25    1    1    2    0    0  0.82600361072E+02  0.67313387299E+02 -0.10902670319E+03  0.19714394174E+03  0.12500000000E+03 0.  0.
         25    1    1    2    0    0  0.66447058463E+01 -0.11196434012E+03 -0.10982403704E+03  0.20066510580E+03  0.12500000000E+03 0.  0.
</event>
<event>
 5    0  0.5510933E-005  0.2210359E+03  0.7546771E-02  0.1133113E+00
         21   -1    0    0  502  501  0.00000000000E+00  0.00000000000E+00  0.27061325403E+03  0.27061325403E+03  0.00000000000E+00 0. -1.
         21   -1    0    0  501  502 -0.00000000000E+00 -0.00000000000E+00 -0.18054135014E+03  0.18054135014E+03  0.00000000000E+00 0. -1.
         25    1    1    2    0    0  0.45005107533E+02 -0.26583704979E+02  0.10361570919E+03  0.17056778202E+03  0.12500000000E+03 0.  0.
         25    1    1    2    0    0 -0.75350253311E+02  0.85098677935E+01  0.16891357116E+02  0.14717471410E+03  0.12500000000E+03 0.  0.
         25    1    1    2    0    0  0.30345145778E+02  0.18073837186E+02 -0.30435162418E+02  0.13341210805E+03  0.12500000000E+03 0.  0.
</event>
<event>
 5    0  0.5510933E-005  0.4290948E+03  0.7546771E-02  0.1034146E+00
         21   -1    0    0  502  501  0.00000000000E+00  0.00000000000E+00  0.28619666795E+03  0.28619666795E+03  0.00000000000E+00 0. -1.
         21   -1    0    0  501  502 -0.00000000000E+00 -0.00000000000E+00 -0.64334192802E+03  0.64334192802E+03  0.00000000000E+00 0. -1.
         25    1    1    2    0    0  0.49606495145E+02  0.14661842765E+03 -0.22692243953E+02  0.20024411508E+03  0.12500000000E+03 0.  0.
         25    1    1    2    0    0 -0.20581647909E+01  0.14840605036E+03 -0.35515900008E+03  0.40471163458E+03  0.12500000000E+03 0.  0.
         25    1    1    2    0    0 -0.47548330354E+02 -0.29502447802E+03  0.20705983970E+02  0.32458284631E+03  0.12500000000E+03 0.  0.
</event>
<event>
 5    0  0.5510933E-005  0.3476036E+03  0.7546771E-02  0.1063603E+00
         21   -1    0    0  502  501  0.00000000000E+00  0.00000000000E+00  0.16565682742E+03  0.16565682742E+03  0.00000000000E+00 0.  1.
         21   -1    0    0  501  502 -0.00000000000E+00 -0.00000000000E+00 -0.72938891861E+03  0.72938891861E+03  0.00000000000E+00 0.  1.
         25    1    1    2    0    0  0.61034422945E+01  0.42537285383E+02  0.63219329086E+02  0.14652083888E+03  0.12500000000E+03 0.  0.
         25    1    1    2    0    0 -0.89617629068E+02 -0.14006535115E+03 -0.45441554354E+03  0.49976805445E+03  0.12500000000E+03 0.  0.
         25    1    1    2    0    0  0.83514186774E+02  0.97528065769E+02 -0.17253587673E+03  0.24875685270E+03  0.12500000000E+03 0.  0.
</event>
<event>
 5    0  0.5510933E-005  0.3295685E+03  0.7546771E-02  0.1071328E+00
         21   -1    0    0  502  501  0.00000000000E+00  0.00000000000E+00  0.28834580002E+03  0.28834580002E+03  0.00000000000E+00 0.  1.
         21   -1    0    0  501  502 -0.00000000000E+00 -0.00000000000E+00 -0.37668451603E+03  0.37668451603E+03  0.00000000000E+00 0.  1.
         25    1    1    2    0    0 -0.43900179962E+02  0.29900860786E+02 -0.18822979728E+01  0.13583015248E+03  0.12500000000E+03 0.  0.
         25    1    1    2    0    0 -0.60413561825E+02 -0.21355046260E+03 -0.11987297205E+03  0.28151044023E+03  0.12500000000E+03 0.  0.
         25    1    1    2    0    0  0.10431374179E+03  0.18364960181E+03  0.33416554009E+02  0.24768972335E+03  0.12500000000E+03 0.  0.
</event>
<event>
 5    0  0.5510933E-005  0.2935453E+03  0.7546771E-02  0.1088513E+00
         21   -1    0    0  502  501  0.00000000000E+00  0.00000000000E+00  0.34698132783E+03  0.34698132783E+03  0.00000000000E+00 0. -1.
         21   -1    0    0  501  502 -0.00000000000E+00 -0.00000000000E+00 -0.24833853545E+03  0.24833853545E+03  0.00000000000E+00 0. -1.
         25    1    1    2    0    0 -0.74909015929E+02  0.36850733750E+02  0.87038500506E+02  0.17369524408E+03  0.12500000000E+03 0.  0.
         25    1    1    2    0    0 -0.56545077936E+02 -0.14895306064E+03  0.40244898345E+02  0.20646794413E+03  0.12500000000E+03 0.  0.
         25    1    1    2    0    0  0.13145409387E+03  0.11210232689E+03 -0.28640606463E+02  0.21515667507E+03  0.12500000000E+03 0.  0.
</event>
<event>
 5    0  0.5510933E-005  0.2788241E+03  0.7546771E-02  0.1096333E+00
         21   -1    0    0  502  501  0.00000000000E+00  0.00000000000E+00  0.25409043064E+03  0.25409043064E+03  0.00000000000E+00 0.  1.
         21   -1    0    0  501  502 -0.00000000000E+00 -0.00000000000E+00 -0.30596541026E+03  0.30596541026E+03  0.00000000000E+00 0.  1.
         25    1    1    2    0    0  0.58266106861E+02  0.19956011645E+02  0.76852620536E+02  0.15913675532E+03  0.12500000000E+03 0.  0.
         25    1    1    2    0    0 -0.86803393895E+02 -0.35341639666E+02 -0.19970985863E+03  0.25356042341E+03  0.12500000000E+03 0.  0.
         25    1    1    2    0    0  0.28537287034E+02  0.15385628021E+02  0.70982258467E+02  0.14735866217E+03  0.12500000000E+03 0.  0.
</event>
<event>
 5    0  0.5510933E-005  0.3864826E+03  0.7546771E-02  0.1048563E+00
         21   -1    0    0  502  501  0.00000000000E+00  0.00000000000E+00  0.10895714846E+04  0.10895714846E+04  0.00000000000E+00 0. -1.
         21   -1    0    0  501  502 -0.00000000000E+00 -0.00000000000E+00 -0.13708949987E+03  0.13708949987E+03  0.00000000000E+00 0. -1.
         25    1    1    2    0    0  0.16747252710E+03 -0.65545963111E+02  0.96808570966E+02  0.23945818012E+03  0.12500000000E+03 0.  0.
         25    1    1    2    0    0 -0.13291704237E+01 -0.46947079592E+02  0.67919727073E+03  0.69219919644E+03  0.12500000000E+03 0.  0.
         25    1    1    2    0    0 -0.16614335667E+03  0.11249304270E+03  0.17647614303E+03  0.29500360792E+03  0.12500000000E+03 0.  0.
</event>
<event>
 5    0  0.5510933E-005  0.4513907E+03  0.7546771E-02  0.1027308E+00
         21   -1    0    0  502  501  0.00000000000E+00  0.00000000000E+00  0.20387210008E+04  0.20387210008E+04  0.00000000000E+00 0. -1.
         21   -1    0    0  501  502 -0.00000000000E+00 -0.00000000000E+00 -0.99941853845E+02  0.99941853845E+02  0.00000000000E+00 0. -1.
         25    1    1    2    0    0  0.18876268969E+03  0.20665077329E+03  0.37588632564E+03  0.48502724142E+03  0.12500000000E+03 0.  0.
         25    1    1    2    0    0 -0.29214018604E+03 -0.70905937356E+02  0.10328398666E+04  0.10829389320E+04  0.12500000000E+03 0.  0.
         25    1    1    2    0    0  0.10337749636E+03 -0.13574483593E+03  0.53005295469E+03  0.57069668127E+03  0.12500000000E+03 0.  0.
</event>
<event>
 5    0  0.5510933E-005  0.3034921E+03  0.7546771E-02  0.1083508E+00
         21   -1    0    0  502  501  0.00000000000E+00  0.00000000000E+00  0.17868723653E+04  0.17868723653E+04  0.00000000000E+00 0. -1.
         21   -1    0    0  501  502 -0.00000000000E+00 -0.00000000000E+00 -0.51546744703E+02  0.51546744703E+02  0.00000000000E+00 0. -1.
         25    1    1    2    0    0 -0.36389457892E+02  0.48528141535E+00  0.89047002714E+03  0.89993682966E+03  0.12500000000E+03 0.  0.
         25    1    1    2    0    0 -0.10541796909E+03 -0.48447932282E+02  0.19051864691E+03  0.25570002966E+03  0.12500000000E+03 0.  0.
         25    1    1    2    0    0  0.14180742698E+03  0.47962650866E+02  0.65433694652E+03  0.68278225065E+03  0.12500000000E+03 0.  0.
</event>
<event>
 5    0  0.5510933E-005  0.4652619E+03  0.7546771E-02  0.1023266E+00
         21   -1    0    0  502  501  0.00000000000E+00  0.00000000000E+00  0.11352603166E+04  0.11352603166E+04  0.00000000000E+00 0. -1.
         21   -1    0    0  501  502 -0.00000000000E+00 -0.00000000000E+00 -0.19067750664E+03  0.19067750664E+03  0.00000000000E+00 0. -1.
         25    1    1    2    0    0 -0.45668379553E+02  0.11036245769E+03  0.30239607748E+03  0.34833010297E+03  0.12500000000E+03 0.  0.
         25    1    1    2    0    0  0.67857566791E+02 -0.28036364595E+03  0.69164917434E+03  0.75974469640E+03  0.12500000000E+03 0.  0.
         25    1    1    2    0    0 -0.22189187238E+02  0.17000118826E+03 -0.49462441810E+02  0.21786302392E+03  0.12500000000E+03 0.  0.
</event>
<event>
 5    0  0.5510933E-005  0.4192800E+03  0.7546771E-02  0.1037301E+00
         21   -1    0    0  502  501  0.00000000000E+00  0.00000000000E+00  0.46118887247E+03  0.46118887247E+03  0.00000000000E+00 0. -1.
         21   -1    0    0  501  502 -0.00000000000E+00 -0.00000000000E+00 -0.38117942308E+03  0.38117942308E+03  0.00000000000E+00 0. -1.
         25    1    1    2    0    0  0.19616488363E+02 -0.13782039958E+03  0.12685803378E+03  0.22604696390E+03  0.12500000000E+03 0.  0.
         25    1    1    2    0    0  0.18751114686E+03  0.25693751951E+03 -0.56938212988E+02  0.34647406718E+03  0.12500000000E+03 0.  0.
         25    1    1    2    0    0 -0.20712763523E+03 -0.11911711994E+03  0.10089628595E+02  0.26984726447E+03  0.12500000000E+03 0.  0.
</event>
<event>
 5    0  0.5510933E-005  0.3464080E+03  0.7546771E-02  0.1064099E+00
         21   -1    0    0  502  501  0.00000000000E+00  0.00000000000E+00  0.47708199376E+03  0.47708199376E+03  0.00000000000E+00 0.  1.
         21   -1    0    0  501  502 -0.00000000000E+00 -0.00000000000E+00 -0.25152588492E+03  0.25152588492E+03  0.00000000000E+00 0.  1.
         25    1    1    2    0    0  0.19245966596E+03  0.15109123392E+03  0.11417402552E+03  0.29753990000E+03  0.12500000000E+03 0.  0.
         25    1    1    2    0    0 -0.85452260723E+02 -0.17283790922E+03 -0.24685790169E+01  0.22979583462E+03  0.12500000000E+03 0.  0.
         25    1    1    2    0    0 -0.10700740523E+03  0.21746675300E+02  0.11385066234E+03  0.20127214406E+03  0.12500000000E+03 0.  0.
</event>
<event>
 5    0  0.5510933E-005  0.5338643E+03  0.7546771E-02  0.1005299E+00
         21   -1    0    0  502  501  0.00000000000E+00  0.00000000000E+00  0.26987461681E+03  0.26987461681E+03  0.00000000000E+00 0. -1.
         21   -1    0    0  501  502 -0.00000000000E+00 -0.00000000000E+00 -0.10560869800E+04  0.10560869800E+04  0.00000000000E+00 0. -1.
         25    1    1    2    0    0 -0.37499936656E+03  0.32735748661E+01 -0.10852041460E+03  0.40992306790E+03  0.12500000000E+03 0.  0.
         25    1    1    2    0    0  0.22685894489E+03  0.42027935740E+02 -0.62918623735E+02  0.26984269764E+03  0.12500000000E+03 0.  0.
         25    1    1    2    0    0  0.14814042167E+03 -0.45301510606E+02 -0.61477332491E+03  0.64619583132E+03  0.12500000000E+03 0.  0.
</event>
<event>
 5    0  0.5510933E-005  0.3273979E+03  0.7546771E-02  0.1072294E+00
         21   -1    0    0  502  501  0.00000000000E+00  0.00000000000E+00  0.12846569189E+03  0.12846569189E+03  0.00000000000E+00 0.  1.
         21   -1    0    0  501  502 -0.00000000000E+00 -0.00000000000E+00 -0.83438145955E+03  0.83438145955E+03  0.00000000000E+00 0.  1.
         25    1    1    2    0    0  0.14920957623E+02 -0.34014120779E+02  0.36326082024E+02  0.13536683354E+03  0.12500000000E+03 0.  0.
         25    1    1    2    0    0 -0.12155964882E+03  0.84506497154E+02 -0.38199734335E+03  0.42832822299E+03  0.12500000000E+03 0.  0.
         25    1    1    2    0    0  0.10663869119E+03 -0.50492376375E+02 -0.36024450632E+03  0.39915209490E+03  0.12500000000E+03 0.  0.
</event>
<event>
 5    0  0.5510933E-005  0.2799260E+03  0.7546771E-02  0.1095729E+00
         21   -1    0    0  502  501  0.00000000000E+00  0.00000000000E+00  0.29611438863E+03  0.29611438863E+03  0.00000000000E+00 0.  1.
         21   -1    0    0  501  502 -0.00000000000E+00 -0.00000000000E+00 -0.26462264922E+03  0.26462264922E+03  0.00000000000E+00 0.  1.
         25    1    1    2    0    0 -0.14521110763E+02  0.82970874121E+02 -0.22558884757E+02  0.15241040611E+03  0.12500000000E+03 0.  0.
         25    1    1    2    0    0 -0.24087948001E+02 -0.94945344188E+02 -0.11365729682E+03  0.19528909018E+03  0.12500000000E+03 0.  0.
         25    1    1    2    0    0  0.38609058764E+02  0.11974470067E+02  0.16770792098E+03  0.21303754156E+03  0.12500000000E+03 0.  0.
</event>
<event>
 5    0  0.5510933E-005  0.4637386E+03  0.7546771E-02  0.1023702E+00
         21   -1    0    0  502  501  0.00000000000E+00  0.00000000000E+00  0.33490688594E+03  0.33490688594E+03  0.00000000000E+00 0. -1.
         21   -1    0    0  501  502 -0.00000000000E+00 -0.00000000000E+00 -0.64212923875E+03  0.64212923875E+03  0.00000000000E+00 0. -1.
         25    1    1    2    0    0 -0.54785738538E+02 -0.73711899786E+02 -0.16468982191E+03  0.22623584764E+03  0.12500000000E+03 0.  0.
         25    1    1    2    0    0 -0.16995387245E+03 -0.16714261524E+03  0.13609080455E+03  0.30160682962E+03  0.12500000000E+03 0.  0.
         25    1    1    2    0    0  0.22473961099E+03  0.24085451502E+03 -0.27862333545E+03  0.44919344743E+03  0.12500000000E+03 0.  0.
</event>
<event>
 5    0  0.5510933E-005  0.4863282E+03  0.7546771E-02  0.1017410E+00
         21   -1    0    0  502  501  0.00000000000E+00  0.00000000000E+00  0.12294845328E+03  0.12294845328E+03  0.00000000000E+00 0. -1.
         21   -1    0    0  501  502 -0.00000000000E+00 -0.00000000000E+00 -0.19236929356E+04  0.19236929356E+04  0.00000000000E+00 0. -1.
         25    1    1    2    0    0  0.26509780829E+03 -0.96110608115E+02 -0.94570716283E+03  0.99473671631E+03  0.12500000000E+03 0.  0.
         25    1    1    2    0    0 -0.87665024320E+02 -0.16840578951E+03 -0.16240859459E+03  0.27936932192E+03  0.12500000000E+03 0.  0.
         25    1    1    2    0    0 -0.17743278397E+03  0.26451639763E+03 -0.69262872486E+03  0.77253535061E+03  0.12500000000E+03 0.  0.
</event>
<event>
 5    0  0.5510933E-005  0.9816222E+03  0.7546771E-02  0.9328934E-01
         21   -1    0    0  502  501  0.00000000000E+00  0.00000000000E+00  0.46031610239E+03  0.46031610239E+03  0.00000000000E+00 0.  1.
         21   -1    0    0  501  502 -0.00000000000E+00 -0.00000000000E+00 -0.20933053061E+04  0.20933053061E+04  0.00000000000E+00 0.  1.
         25    1    1    2    0    0 -0.39920146031E+03  0.22195831380E+03  0.28756931598E+03  0.55402925056E+03  0.12500000000E+03 0.  0.
         25    1    1    2    0    0  0.21187784828E+03 -0.20600906748E+03 -0.13071604029E+04  0.13459662988E+04  0.12500000000E+03 0.  0.
         25    1    1    2    0    0  0.18732361203E+03 -0.15949246327E+02 -0.61339811678E+03  0.65362585915E+03  0.12500000000E+03 0.  0.
</event>
<event>
 5    0  0.5510933E-005  0.3482322E+03  0.7546771E-02  0.1063343E+00
         21   -1    0    0  502  501  0.00000000000E+00  0.00000000000E+00  0.74363976976E+03  0.74363976976E+03  0.00000000000E+00 0.  1.
         21   -1    0    0  501  502 -0.00000000000E+00 -0.00000000000E+00 -0.16307046085E+03  0.16307046085E+03  0.00000000000E+00 0.  1.
         25    1    1    2    0    0 -0.98152048752E+02  0.79310670813E+02  0.43765740747E+03  0.47232723137E+03  0.12500000000E+03 0.  0.
         25    1    1    2    0    0 -0.25663953640E+02 -0.93701170836E+02 -0.56468690971E+02  0.16808408905E+03  0.12500000000E+03 0.  0.
         25    1    1    2    0    0  0.12381600239E+03  0.14390500023E+02  0.19938059241E+03  0.26629891019E+03  0.12500000000E+03 0.  0.
</event>
<event>
 5    0  0.5510933E-005  0.2560587E+03  0.7546771E-02  0.1109535E+00
         21   -1    0    0  502  501  0.00000000000E+00  0.00000000000E+00  0.26966618708E+03  0.26966618708E+03  0.00000000000E+00 0. -1.
         21   -1    0    0  501  502 -0.00000000000E+00 -0.00000000000E+00 -0.24313792637E+03  0.24313792637E+03  0.00000000000E+00 0. -1.
         25    1    1    2    0    0  0.11468198758E+03 -0.65851552842E+02  0.11238544584E+02  0.18231755311E+03  0.12500000000E+03 0.  0.
         25    1    1    2    0    0  0.15077195366E+02  0.46895968626E+02  0.54729691376E+02  0.14507547281E+03  0.12500000000E+03 0.  0.
         25    1    1    2    0    0 -0.12975918295E+03  0.18955584215E+02 -0.39439975254E+02  0.18541108753E+03  0.12500000000E+03 0.  0.
</event>
<event>
 5    0  0.7437781E-005  0.2943709E+03  0.7546771E-02  0.1088089E+00
         21   -1    0    0  502  501  0.00000000000E+00  0.00000000000E+00  0.54522011342E+03  0.54522011342E+03  0.00000000000E+00 0.  1.
         21   -1    0    0  501  502 -0.00000000000E+00 -0.00000000000E+00 -0.15893440910E+03  0.15893440910E+03  0.00000000000E+00 0.  1.
         25    1    1    2    0    0 -0.82528604124E+02  0.42266158274E+02  0.82032373561E+02  0.17593097779E+03  0.12500000000E+03 0.  0.
         25    1    1    2    0    0  0.10564629521E+03 -0.15589793349E+03  0.66423243091E+02  0.23558937281E+03  0.12500000000E+03 0.  0.
         25    1    1    2    0    0 -0.23117691089E+02  0.11363177521E+03  0.23783008767E+03  0.29263417193E+03  0.12500000000E+03 0.  0.
</event>
<event>
 5    0  0.5510933E-005  0.4247561E+03  0.7546771E-02  0.1035529E+00
         21   -1    0    0  502  501  0.00000000000E+00  0.00000000000E+00  0.13574914708E+03  0.13574914708E+03  0.00000000000E+00 0.  1.
         21   -1    0    0  501  502 -0.00000000000E+00 -0.00000000000E+00 -0.13290523469E+04  0.13290523469E+04  0.00000000000E+00 0.  1.
         25    1    1    2    0    0 -0.14189650894E+03 -0.23501235228E+03 -0.15579495971E+03  0.33950330550E+03  0.12500000000E+03 0.  0.
         25    1    1    2    0    0 -0.13707408471E+02 -0.10166855685E+01 -0.26843352327E+03  0.29642955843E+03  0.12500000000E+03 0.  0.
         25    1    1    2    0    0  0.15560391741E+03  0.23602903785E+03 -0.76907471687E+03  0.82886863009E+03  0.12500000000E+03 0.  0.
</event>
<event>
 5    0  0.5836772E-005  0.2878165E+03  0.7546771E-02  0.1091495E+00
         21   -1    0    0  502  501  0.00000000000E+00  0.00000000000E+00  0.63039599471E+03  0.63039599471E+03  0.00000000000E+00 0. -1.
         21   -1    0    0  501  502 -0.00000000000E+00 -0.00000000000E+00 -0.13140680933E+03  0.13140680933E+03  0.00000000000E+00 0. -1.
         25    1    1    2    0    0  0.32642649366E+02  0.13113144460E+03  0.19090155157E+03  0.26519690932E+03  0.12500000000E+03 0.  0.
         25    1    1    2    0    0  0.95225027176E+02 -0.40291154664E+02  0.50011462290E+02  0.16975667676E+03  0.12500000000E+03 0.  0.
         25    1    1    2    0    0 -0.12786767654E+03 -0.90840289937E+02  0.25807617152E+03  0.32684921797E+03  0.12500000000E+03 0.  0.
</event>
<event>
 5    0  0.5510933E-005  0.3475620E+03  0.7546771E-02  0.1063620E+00
         21   -1    0    0  502  501  0.00000000000E+00  0.00000000000E+00  0.67554038329E+03  0.67554038329E+03  0.00000000000E+00 0. -1.
         21   -1    0    0  501  502 -0.00000000000E+00 -0.00000000000E+00 -0.17881886897E+03  0.17881886897E+03  0.00000000000E+00 0. -1.
         25    1    1    2    0    0 -0.11898977537E+03 -0.11332729856E+03  0.20262327652E+03  0.28927985659E+03  0.12500000000E+03 0.  0.
         25    1    1    2    0    0  0.16194817929E+02 -0.34356607453E+02  0.31886427833E+03  0.34458972213E+03  0.12500000000E+03 0.  0.
         25    1    1    2    0    0  0.10279495744E+03  0.14768390601E+03 -0.24766040537E+02  0.22048967353E+03  0.12500000000E+03 0.  0.
</event>
<event>
 5    0  0.5510933E-005  0.2697195E+03  0.7546771E-02  0.1101440E+00
         21   -1    0    0  502  501  0.00000000000E+00  0.00000000000E+00  0.10713502998E+04  0.10713502998E+04  0.00000000000E+00 0.  1.
         21   -1    0    0  501  502 -0.00000000000E+00 -0.00000000000E+00 -0.67903666564E+02  0.67903666564E+02  0.00000000000E+00 0.  1.
         25    1    1    2    0    0  0.32788965833E+02  0.91767635188E+02  0.64511222486E+03  0.66429752205E+03  0.12500000000E+03 0.  0.
         25    1    1    2    0    0 -0.39693221998E+02  0.25316792806E+02  0.10908591229E+03  0.17245645286E+03  0.12500000000E+03 0.  0.
         25    1    1    2    0    0  0.69042561655E+01 -0.11708442799E+03  0.24924849612E+03  0.30249999148E+03  0.12500000000E+03 0.  0.
</event>
<event>
 5    0  0.5510933E-005  0.3475462E+03  0.7546771E-02  0.1063627E+00
         21   -1    0    0  502  501  0.00000000000E+00  0.00000000000E+00  0.35900004788E+03  0.35900004788E+03  0.00000000000E+00 0. -1.
         21   -1    0    0  501  502 -0.00000000000E+00 -0.00000000000E+00 -0.33645781311E+03  0.33645781311E+03  0.00000000000E+00 0. -1.
         25    1    1    2    0    0 -0.62634145522E+02 -0.10036443578E+03 -0.16297120287E+03  0.23702461712E+03  0.12500000000E+03 0.  0.
         25    1    1    2    0    0  0.10095069243E+02  0.15171125197E+03 -0.29572437819E+02  0.19904206459E+03  0.12500000000E+03 0.  0.
         25    1    1    2    0    0  0.52539076279E+02 -0.51346816194E+02  0.21508587546E+03  0.25939117929E+03  0.12500000000E+03 0.  0.
</event>
<event>
 5    0  0.5510933E-005  0.2191247E+03  0.7546771E-02  0.1134537E+00
         21   -1    0    0  502  501  0.00000000000E+00  0.00000000000E+00  0.92695296017E+03  0.92695296017E+03  0.00000000000E+00 0. -1.
         21   -1    0    0  501  502 -0.00000000000E+00 -0.00000000000E+00 -0.51799430041E+02  0.51799430041E+02  0.00000000000E+00 0. -1.
         25    1    1    2    0    0 -0.12109930273E+02 -0.49411883935E+02  0.19392349695E+03  0.23626152322E+03  0.12500000000E+03 0.  0.
         25    1    1    2    0    0 -0.32932568497E+02  0.22883012339E+02  0.49548555252E+03  0.51258084151E+03  0.12500000000E+03 0.  0.
         25    1    1    2    0    0  0.45042498769E+02  0.26528871595E+02  0.18574448066E+03  0.22991002548E+03  0.12500000000E+03 0.  0.
</event>
<event>
 5    0  0.5510933E-005  0.3518978E+03  0.7546771E-02  0.1061839E+00
         21   -1    0    0  502  501  0.00000000000E+00  0.00000000000E+00  0.82450352538E+03  0.82450352538E+03  0.00000000000E+00 0. -1.
         21   -1    0    0  501  502 -0.00000000000E+00 -0.00000000000E+00 -0.15018988053E+03  0.15018988053E+03  0.00000000000E+00 0. -1.
         25    1    1    2    0    0  0.13638986427E+03 -0.31881568641E+02  0.17190628163E+03  0.25454940416E+03  0.12500000000E+03 0.  0.
         25    1    1    2    0    0 -0.25815403852E+03 -0.61152336641E+02  0.18683404089E+03  0.34772844967E+03  0.12500000000E+03 0.  0.
         25    1    1    2    0    0  0.12176417425E+03  0.93033905281E+02  0.31557332233E+03  0.37241555207E+03  0.12500000000E+03 0.  0.
</event>
<event>
 5    0  0.5927135E-005  0.4972429E+03  0.7546771E-02  0.1014501E+00
         21   -1    0    0  502  501  0.00000000000E+00  0.00000000000E+00  0.12332610944E+04  0.12332610944E+04  0.00000000000E+00 0.  1.
         21   -1    0    0  501  502 -0.00000000000E+00 -0.00000000000E+00 -0.20048509206E+03  0.20048509206E+03  0.00000000000E+00 0.  1.
         25    1    1    2    0    0  0.21698076304E+03 -0.13025882406E+03  0.17142782509E+03  0.33024311044E+03  0.12500000000E+03 0.  0.
         25    1    1    2    0    0 -0.10470684156E+03  0.24286915691E+03  0.89978829016E+02  0.30605577877E+03  0.12500000000E+03 0.  0.
         25    1    1    2    0    0 -0.11227392148E+03 -0.11261033285E+03  0.77136934821E+03  0.79744729723E+03  0.12500000000E+03 0.  0.
</event>
<event>
 5    0  0.5510933E-005  0.2456676E+03  0.7546771E-02  0.1116074E+00
         21   -1    0    0  502  501  0.00000000000E+00  0.00000000000E+00  0.20068745112E+03  0.20068745112E+03  0.00000000000E+00 0.  1.
         21   -1    0    0  501  502 -0.00000000000E+00 -0.00000000000E+00 -0.30072907946E+03  0.30072907946E+03  0.00000000000E+00 0.  1.
         25    1    1    2    0    0 -0.12555668956E+02  0.36411602707E+02  0.54371143516E+02  0.14164981780E+03  0.12500000000E+03 0.  0.
         25    1    1    2    0    0 -0.79341552218E+02  0.18681266062E+02 -0.12018916856E+03  0.19161030204E+03  0.12500000000E+03 0.  0.
         25    1    1    2    0    0  0.91897221174E+02 -0.55092868769E+02 -0.34223603297E+02  0.16815641073E+03  0.12500000000E+03 0.  0.
</event>
<event>
 5    0  0.5510933E-005  0.2658194E+03  0.7546771E-02  0.1103696E+00
         21   -1    0    0  502  501  0.00000000000E+00  0.00000000000E+00  0.30865168034E+03  0.30865168034E+03  0.00000000000E+00 0.  1.
         21   -1    0    0  501  502 -0.00000000000E+00 -0.00000000000E+00 -0.22893103563E+03  0.22893103563E+03  0.00000000000E+00 0.  1.
         25    1    1    2    0    0  0.46999081205E+02 -0.10107835592E+03 -0.31947973142E+02  0.17050343298E+03  0.12500000000E+03 0.  0.
         25    1    1    2    0    0 -0.12004918243E+03  0.10731472583E+03  0.52096742837E+02  0.21039802089E+03  0.12500000000E+03 0.  0.
         25    1    1    2    0    0  0.73050101224E+02 -0.62363699111E+01  0.59571875010E+02  0.15668126209E+03  0.12500000000E+03 0.  0.
</event>
<event>
 5    0  0.5510933E-005  0.3399387E+03  0.7546771E-02  0.1066822E+00
         21   -1    0    0  502  501  0.00000000000E+00  0.00000000000E+00  0.79537663044E+03  0.79537663044E+03  0.00000000000E+00 0.  1.
         21   -1    0    0  501  502 -0.00000000000E+00 -0.00000000000E+00 -0.14528757489E+03  0.14528757489E+03  0.00000000000E+00 0.  1.
         25    1    1    2    0    0  0.24196418050E+02  0.61401092932E+02 -0.47814040827E+02  0.14922045222E+03  0.12500000000E+03 0.  0.
         25    1    1    2    0    0 -0.15937893272E+02  0.58985613220E+02  0.53668196301E+03  0.55442388876E+03  0.12500000000E+03 0.  0.
         25    1    1    2    0    0 -0.82585247778E+01 -0.12038670615E+03  0.16122113337E+03  0.23701986435E+03  0.12500000000E+03 0.  0.
</event>
<event>
 5    0  0.5510933E-005  0.2902716E+03  0.7546771E-02  0.1090207E+00
         21   -1    0    0  502  501  0.00000000000E+00  0.00000000000E+00  0.80091877868E+02  0.80091877868E+02  0.00000000000E+00 0.  1.
         21   -1    0    0  501  502 -0.00000000000E+00 -0.00000000000E+00 -0.10520117557E+04  0.10520117557E+04  0.00000000000E+00 0.  1.
         25    1    1    2    0    0 -0.10156638390E+03  0.11874140485E+03 -0.32757065903E+03  0.38385256052E+03  0.12500000000E+03 0.  0.
         25    1    1    2    0    0 -0.48677509448E+02 -0.10181726232E+03 -0.40606652246E+03  0.43960354354E+03  0.12500000000E+03 0.  0.
         25    1    1    2    0    0  0.15024389334E+03 -0.16924142531E+02 -0.23828269631E+03  0.30864752947E+03  0.12500000000E+03 0.  0.
</event>
<event>
 5    0  0.5510933E-005  0.2246179E+03  0.7546771E-02  0.1130486E+00
         21   -1    0    0  502  501  0.00000000000E+00  0.00000000000E+00  0.64439562377E+02  0.64439562377E+02  0.00000000000E+00 0.  1.
         21   -1    0    0  501  502 -0.00000000000E+00 -0.00000000000E+00 -0.78295371822E+03  0.78295371822E+03  0.00000000000E+00 0.  1.
         25    1    1    2    0    0  0.21503472094E+02 -0.38965312414E+02 -0.91740712392E+02  0.16131352452E+03  0.12500000000E+03 0.  0.
         25    1    1    2    0    0 -0.64464385589E+02  0.17444306844E+02 -0.26870637901E+03  0.30378953071E+03  0.12500000000E+03 0.  0.
         25    1    1    2    0    0  0.42960913495E+02  0.21521005569E+02 -0.35806706444E+03  0.38229022536E+03  0.12500000000E+03 0.  0.
</event>
<event>
 5    0  0.5510933E-005  0.3162934E+03  0.7546771E-02  0.1077368E+00
         21   -1    0    0  502  501  0.00000000000E+00  0.00000000000E+00  0.26606798854E+03  0.26606798854E+03  0.00000000000E+00 0. -1.
         21   -1    0    0  501  502 -0.00000000000E+00 -0.00000000000E+00 -0.37599985928E+03  0.37599985928E+03  0.00000000000E+00 0. -1.
         25    1    1    2    0    0  0.10459717224E+03  0.52277140044E+02 -0.93195662376E+02  0.19489458509E+03  0.12500000000E+03 0.  0.
         25    1    1    2    0    0 -0.16712558705E+03  0.63630351765E+02  0.90597429354E+02  0.23624706923E+03  0.12500000000E+03 0.  0.
         25    1    1    2    0    0  0.62528414813E+02 -0.11590749181E+03 -0.10733363772E+03  0.21092619350E+03  0.12500000000E+03 0.  0.
</event>
<event>
 5    0  0.5510933E-005  0.4580760E+03  0.7546771E-02  0.1025341E+00
         21   -1    0    0  502  501  0.00000000000E+00  0.00000000000E+00  0.94534211772E+03  0.94534211772E+03  0.00000000000E+00 0. -1.
         21   -1    0    0  501  502 -0.00000000000E+00 -0.00000000000E+00 -0.22196577576E+03  0.22196577576E+03  0.00000000000E+00 0. -1.
         25    1    1    2    0    0 -0.19616033797E+02  0.32277026702E+02  0.77949271542E+02  0.15207788849E+03  0.12500000000E+03 0.  0.
         25    1    1    2    0    0  0.37889623308E+03 -0.27223588004E+02  0.37727081196E+03  0.54978336165E+03  0.12500000000E+03 0.  0.
         25    1    1    2    0    0 -0.35928019929E+03 -0.50534386982E+01  0.26815625847E+03  0.46544664334E+03  0.12500000000E+03 0.  0.
</event>
<event>
 5    0  0.5510933E-005  0.2926495E+03  0.7546771E-02  0.1088974E+00
         21   -1    0    0  502  501  0.00000000000E+00  0.00000000000E+00  0.96200815201E+03  0.96200815201E+03  0.00000000000E+00 0. -1.
         21   -1    0    0  501  502 -0.00000000000E+00 -0.00000000000E+00 -0.89026019350E+02  0.89026019350E+02  0.00000000000E+00 0. -1.
         25    1    1    2    0    0  0.77675396966E+02  0.46634232531E+02  0.18782254835E+03  0.24312656911E+03  0.12500000000E+03 0.  0.
         25    1    1    2    0    0  0.12855221683E+03  0.12687693755E+02  0.28578496466E+03  0.33761619637E+03  0.12500000000E+03 0.  0.
         25    1    1    2    0    0 -0.20622761379E+03 -0.59321926286E+02  0.39937461965E+03  0.47029140589E+03  0.12500000000E+03 0.  0.
</event>
<event>
 5    0  0.5510933E-005  0.3761403E+03  0.7546771E-02  0.1052370E+00
         21   -1    0    0  502  501  0.00000000000E+00  0.00000000000E+00  0.25753864774E+03  0.25753864774E+03  0.00000000000E+00 0.  1.
         21   -1    0    0  501  502 -0.00000000000E+00 -0.00000000000E+00 -0.54936023101E+03  0.54936023101E+03  0.00000000000E+00 0.  1.
         25    1    1    2    0    0 -0.10547521468E+03  0.88973188910E+02  0.94560726043E+02  0.20882523834E+03  0.12500000000E+03 0.  0.
         25    1    1    2    0    0  0.23147445345E+03 -0.73636147646E+02 -0.27689948078E+03  0.38897432729E+03  0.12500000000E+03 0.  0.
         25    1    1    2    0    0 -0.12599923877E+03 -0.15337041264E+02 -0.10948282853E+03  0.20909931312E+03  0.12500000000E+03 0.  0.
</event>
<event>
 5    0  0.5510933E-005  0.2965348E+03  0.7546771E-02  0.1086986E+00
         21   -1    0    0  502  501  0.00000000000E+00  0.00000000000E+00  0.13333353630E+04  0.13333353630E+04  0.00000000000E+00 0. -1.
         21   -1    0    0  501  502 -0.00000000000E+00 -0.00000000000E+00 -0.65949558888E+02  0.65949558888E+02  0.00000000000E+00 0. -1.
         25    1    1    2    0    0  0.11213968902E+03  0.62632899731E+02  0.73565708897E+03  0.75717537106E+03  0.12500000000E+03 0.  0.
         25    1    1    2    0    0 -0.94469597577E+02 -0.94401167217E+02  0.14306866264E+03  0.23222774913E+03  0.12500000000E+03 0.  0.
         25    1    1    2    0    0 -0.17670091444E+02  0.31768267486E+02  0.38866005248E+03  0.40988180167E+03  0.12500000000E+03 0.  0.
</event>
<event>
 5    0  0.5510933E-005  0.2821714E+03  0.7546771E-02  0.1094509E+00
         21   -1    0    0  502  501  0.00000000000E+00  0.00000000000E+00  0.15963917593E+04  0.15963917593E+04  0.00000000000E+00 0. -1.
         21   -1    0    0  501  502 -0.00000000000E+00 -0.00000000000E+00 -0.49875426362E+02  0.49875426362E+02  0.00000000000E+00 0. -1.
         25    1    1    2    0    0 -0.48189398157E+02 -0.32380735333E+02  0.31722129564E+03  0.34586858851E+03  0.12500000000E+03 0.  0.
         25    1    1    2    0    0  0.12856905894E+03  0.14808460406E+03  0.75762722450E+03  0.79251691729E+03  0.12500000000E+03 0.  0.
         25    1    1    2    0    0 -0.80379660787E+02 -0.11570386873E+03  0.47166781281E+03  0.50788167987E+03  0.12500000000E+03 0.  0.
</event>
<event>
 5    0  0.5510933E-005  0.3665168E+03  0.7546771E-02  0.1056033E+00
         21   -1    0    0  502  501  0.00000000000E+00  0.00000000000E+00  0.38900825209E+03  0.38900825209E+03  0.00000000000E+00 0.  1.
         21   -1    0    0  501  502 -0.00000000000E+00 -0.00000000000E+00 -0.34532569448E+03  0.34532569448E+03  0.00000000000E+00 0.  1.
         25    1    1    2    0    0 -0.11388073529E+03 -0.24176624163E+02 -0.42794823309E+02  0.17609579191E+03  0.12500000000E+03 0.  0.
         25    1    1    2    0    0  0.74071865882E+02 -0.53182912511E+02 -0.18852014771E+03  0.24388503355E+03  0.12500000000E+03 0.  0.
         25    1    1    2    0    0  0.39808869411E+02  0.77359536674E+02  0.27499752863E+03  0.31435312111E+03  0.12500000000E+03 0.  0.
</event>
<event>
 5    0  0.5510933E-005  0.2302630E+03  0.7546771E-02  0.1126455E+00
         21   -1    0    0  502  501  0.00000000000E+00  0.00000000000E+00  0.98967704906E+02  0.98967704906E+02  0.00000000000E+00 0.  1.
         21   -1    0    0  501  502 -0.00000000000E+00 -0.00000000000E+00 -0.53574086348E+03  0.53574086348E+03  0.00000000000E+00 0.  1.
         25    1    1    2    0    0 -0.34675362421E+02  0.48606310128E+01 -0.21767137731E+03  0.25344000275E+03  0.12500000000E+03 0.  0.
         25    1    1    2    0    0  0.14451418547E+02  0.55566555455E+02 -0.21960700892E+02  0.13929737243E+03  0.12500000000E+03 0.  0.
         25    1    1    2    0    0  0.20223943873E+02 -0.60427186468E+02 -0.19714108037E+03  0.24197119320E+03  0.12500000000E+03 0.  0.
</event>
<event>
 5    0  0.5510933E-005  0.4359726E+03  0.7546771E-02  0.1031990E+00
         21   -1    0    0  502  501  0.00000000000E+00  0.00000000000E+00  0.70480443209E+03  0.70480443209E+03  0.00000000000E+00 0.  1.
         21   -1    0    0  501  502 -0.00000000000E+00 -0.00000000000E+00 -0.26968059174E+03  0.26968059174E+03  0.00000000000E+00 0.  1.
         25    1    1    2    0    0  0.26807456490E+03  0.12934219301E+02  0.49268402496E+02  0.30013937072E+03  0.12500000000E+03 0.  0.
         25    1    1    2    0    0 -0.23701595368E+03 -0.18621742652E+03  0.16564026739E+03  0.36594424496E+03  0.12500000000E+03 0.  0.
         25    1    1    2    0    0 -0.31058611216E+02  0.17328320722E+03  0.22021517047E+03  0.30840140814E+03  0.12500000000E+03 0.  0.
</event>
<event>
 5    0  0.5510933E-005  0.3051454E+03  0.7546771E-02  0.1082696E+00
         21   -1    0    0  502  501  0.00000000000E+00  0.00000000000E+00  0.14836891307E+03  0.14836891307E+03  0.00000000000E+00 0.  1.
         21   -1    0    0  501  502 -0.00000000000E+00 -0.00000000000E+00 -0.62758235883E+03  0.62758235883E+03  0.00000000000E+00 0.  1.
         25    1    1    2    0    0 -0.80200822068E+02  0.80696669558E+02 -0.36449026861E+03  0.40177391684E+03  0.12500000000E+03 0.  0.
         25    1    1    2    0    0  0.97012303947E+02 -0.84850189134E+02  0.30141201614E+02  0.18205612801E+03  0.12500000000E+03 0.  0.
         25    1    1    2    0    0 -0.16811481879E+02  0.41535195753E+01 -0.14486437876E+03  0.19212122705E+03  0.12500000000E+03 0.  0.
</event>
<event>
 5    0  0.5510933E-005  0.2581592E+03  0.7546771E-02  0.1108254E+00
         21   -1    0    0  502  501  0.00000000000E+00  0.00000000000E+00  0.11283889496E+03  0.11283889496E+03  0.00000000000E+00 0. -1.
         21   -1    0    0  501  502 -0.00000000000E+00 -0.00000000000E+00 -0.59063133517E+03  0.59063133517E+03  0.00000000000E+00 0. -1.
         25    1    1    2    0    0  0.34088053968E+02  0.84056136815E+02 -0.21837327556E+03  0.26746834773E+03  0.12500000000E+03 0.  0.
         25    1    1    2    0    0  0.91026725653E+02 -0.77219187370E+02 -0.14089896875E+03  0.22299369291E+03  0.12500000000E+03 0.  0.
         25    1    1    2    0    0 -0.12511477962E+03 -0.68369494446E+01 -0.11852019589E+03  0.21300818950E+03  0.12500000000E+03 0.  0.
</event>
<event>
 5    0  0.5510933E-005  0.3606912E+03  0.7546771E-02  0.1058311E+00
         21   -1    0    0  502  501  0.00000000000E+00  0.00000000000E+00  0.29259062544E+03  0.29259062544E+03  0.00000000000E+00 0. -1.
         21   -1    0    0  501  502 -0.00000000000E+00 -0.00000000000E+00 -0.44464217248E+03  0.44464217248E+03  0.00000000000E+00 0. -1.
         25    1    1    2    0    0  0.14851932780E+03  0.28450163400E+02 -0.63279837096E+02  0.20614737522E+03  0.12500000000E+03 0.  0.
         25    1    1    2    0    0  0.11382669410E+03  0.99841740562E+02  0.14973377397E+02  0.19691137976E+03  0.12500000000E+03 0.  0.
         25    1    1    2    0    0 -0.26234602190E+03 -0.12829190396E+03 -0.10374508733E+03  0.33417404294E+03  0.12500000000E+03 0.  0.
</event>
<event>
 5    0  0.5673252E-005  0.5444410E+03  0.7546771E-02  0.1002789E+00
         21   -1    0    0  502  501  0.00000000000E+00  0.00000000000E+00  0.47795400499E+03  0.47795400499E+03  0.00000000000E+00 0. -1.
         21   -1    0    0  501  502 -0.00000000000E+00 -0.00000000000E+00 -0.62017673039E+03  0.62017673039E+03  0.00000000000E+00 0. -1.
         25    1    1    2    0    0  0.79058003423E+02 -0.37682624759E+03 -0.60174385862E+02  0.40926048611E+03  0.12500000000E+03 0.  0.
         25    1    1    2    0    0 -0.21223257605E+03  0.55305310431E+02  0.10627384227E+03  0.27389865507E+03  0.12500000000E+03 0.  0.
         25    1    1    2    0    0  0.13317457262E+03  0.32152093716E+03 -0.18832218181E+03  0.41497159419E+03  0.12500000000E+03 0.  0.
</event>
<event>
 5    0  0.5510933E-005  0.2845333E+03  0.7546771E-02  0.1093238E+00
         21   -1    0    0  502  501  0.00000000000E+00  0.00000000000E+00  0.54246462625E+03  0.54246462625E+03  0.00000000000E+00 0.  1.
         21   -1    0    0  501  502 -0.00000000000E+00 -0.00000000000E+00 -0.14924331026E+03  0.14924331026E+03  0.00000000000E+00 0.  1.
         25    1    1    2    0    0 -0.48453819503E+02  0.81585553643E+02  0.65567235247E+01  0.15707312250E+03  0.12500000000E+03 0.  0.
         25    1    1    2    0    0 -0.61866039461E+02  0.40674180168E+02  0.24215476908E+03  0.28239286103E+03  0.12500000000E+03 0.  0.
         25    1    1    2    0    0  0.11031985896E+03 -0.12225973381E+03  0.14450982338E+03  0.25224195299E+03  0.12500000000E+03 0.  0.
</event>
<event>
 5    0  0.5510933E-005  0.4436954E+03  0.7546771E-02  0.1029619E+00
         21   -1    0    0  502  501  0.00000000000E+00  0.00000000000E+00  0.12013973872E+04  0.12013973872E+04  0.00000000000E+00 0. -1.
         21   -1    0    0  501  502 -0.00000000000E+00 -0.00000000000E+00 -0.16386385254E+03  0.16386385254E+03  0.00000000000E+00 0. -1.
         25    1    1    2    0    0 -0.17581798115E+03 -0.16500624772E+03  0.64803917943E+03  0.70265126653E+03  0.12500000000E+03 0.  0.
         25    1    1    2    0    0 -0.78741932106E+02 -0.23305552138E+02  0.58059863782E+01  0.14967347831E+03  0.12500000000E+03 0.  0.
         25    1    1    2    0    0  0.25455991326E+03  0.18831179986E+03  0.38368836888E+03  0.51293649492E+03  0.12500000000E+03 0.  0.
</event>
<event>
 5    0  0.5510933E-005  0.2349049E+03  0.7546771E-02  0.1123234E+00
         21   -1    0    0  502  501  0.00000000000E+00  0.00000000000E+00  0.19527438893E+03  0.19527438893E+03  0.00000000000E+00 0.  1.
         21   -1    0    0  501  502 -0.00000000000E+00 -0.00000000000E+00 -0.28257832343E+03  0.28257832343E+03  0.00000000000E+00 0.  1.
         25    1    1    2    0    0  0.87439214476E+02 -0.18856432215E+02 -0.80339090914E+02  0.17343745499E+03  0.12500000000E+03 0.  0.
         25    1    1    2    0    0  0.20141783102E+02 -0.34093017654E+02 -0.25074369769E+01  0.13114614946E+03  0.12500000000E+03 0.  0.
         25    1    1    2    0    0 -0.10758099758E+03  0.52949449869E+02 -0.44574066064E+01  0.17326910791E+03  0.12500000000E+03 0.  0.
</event>
<event>
 5    0  0.5510933E-005  0.2914082E+03  0.7546771E-02  0.1089616E+00
         21   -1    0    0  502  501  0.00000000000E+00  0.00000000000E+00  0.37805441704E+03  0.37805441704E+03  0.00000000000E+00 0.  1.
         21   -1    0    0  501  502 -0.00000000000E+00 -0.00000000000E+00 -0.22462035818E+03  0.22462035818E+03  0.00000000000E+00 0.  1.
         25    1    1    2    0    0 -0.67560549378E+02  0.10737992703E+03  0.11332712346E+03  0.21109929766E+03  0.12500000000E+03 0.  0.
         25    1    1    2    0    0  0.89450077598E+01  0.27800019658E+02  0.12622712985E+03  0.18003094891E+03  0.12500000000E+03 0.  0.
         25    1    1    2    0    0  0.58615541618E+02 -0.13517994669E+03 -0.86120194447E+02  0.21154452864E+03  0.12500000000E+03 0.  0.
</event>
<event>
 5    0  0.5510933E-005  0.3395324E+03  0.7546771E-02  0.1066995E+00
         21   -1    0    0  502  501  0.00000000000E+00  0.00000000000E+00  0.20009735986E+03  0.20009735986E+03  0.00000000000E+00 0. -1.
         21   -1    0    0  501  502 -0.00000000000E+00 -0.00000000000E+00 -0.57613076928E+03  0.57613076928E+03  0.00000000000E+00 0. -1.
         25    1    1    2    0    0 -0.19525164465E+03 -0.37378023190E+02 -0.36794386658E+03  0.43649514352E+03  0.12500000000E+03 0.  0.
         25    1    1    2    0    0  0.40237576085E+02 -0.16183776335E+02 -0.16590374196E+02  0.13334623227E+03  0.12500000000E+03 0.  0.
         25    1    1    2    0    0  0.15501406857E+03  0.53561799524E+02  0.85008313576E+01  0.20638675334E+03  0.12500000000E+03 0.  0.
</event>
<event>
 5    0  0.5510933E-005  0.3062933E+03  0.7546771E-02  0.1082136E+00
         21   -1    0    0  502  501  0.00000000000E+00  0.00000000000E+00  0.26663962776E+03  0.26663962776E+03  0.00000000000E+00 0. -1.
         21   -1    0    0  501  502 -0.00000000000E+00 -0.00000000000E+00 -0.35184410851E+03  0.35184410851E+03  0.00000000000E+00 0. -1.
         25    1    1    2    0    0  0.62088944986E+02 -0.27597076407E+01 -0.73912419010E+02  0.15795790186E+03  0.12500000000E+03 0.  0.
         25    1    1    2    0    0 -0.19302477253E+03 -0.43536517660E+02  0.86636768709E+02  0.24956947104E+03  0.12500000000E+03 0.  0.
         25    1    1    2    0    0  0.13093582755E+03  0.46296225301E+02 -0.97928830447E+02  0.21095636337E+03  0.12500000000E+03 0.  0.
</event>
<event>
 5    0  0.5510933E-005  0.2640155E+03  0.7546771E-02  0.1104754E+00
         21   -1    0    0  502  501  0.00000000000E+00  0.00000000000E+00  0.50316269526E+02  0.50316269526E+02  0.00000000000E+00 0.  1.
         21   -1    0    0  501  502 -0.00000000000E+00 -0.00000000000E+00 -0.13853215066E+04  0.13853215066E+04  0.00000000000E+00 0.  1.
         25    1    1    2    0    0 -0.58078051733E+01 -0.54238296322E+02 -0.30867453034E+03  0.33746183350E+03  0.12500000000E+03 0.  0.
         25    1    1    2    0    0  0.96608418954E+02 -0.59771154111E+01 -0.19780843493E+03  0.25322339831E+03  0.12500000000E+03 0.  0.
         25    1    1    2    0    0 -0.90800613781E+02  0.60215411734E+02 -0.82852227183E+03  0.84495254434E+03  0.12500000000E+03 0.  0.
</event>
<event>
 5    0  0.5510933E-005  0.2278011E+03  0.7546771E-02  0.1128197E+00
         21   -1    0    0  502  501  0.00000000000E+00  0.00000000000E+00  0.40958091892E+03  0.40958091892E+03  0.00000000000E+00 0. -1.
         21   -1    0    0  501  502 -0.00000000000E+00 -0.00000000000E+00 -0.12669861647E+03  0.12669861647E+03  0.00000000000E+00 0. -1.
         25    1    1    2    0    0 -0.29403442977E+02  0.38463111869E+02  0.44323519669E+02  0.14118621685E+03  0.12500000000E+03 0.  0.
         25    1    1    2    0    0  0.11839752619E+02 -0.99697347080E+02  0.67752272719E+02  0.17405490862E+03  0.12500000000E+03 0.  0.
         25    1    1    2    0    0  0.17563690358E+02  0.61234235211E+02  0.17080651006E+03  0.22103840992E+03  0.12500000000E+03 0.  0.
</event>
<event>
 5    0  0.5510933E-005  0.5138047E+03  0.7546771E-02  0.1010237E+00
         21   -1    0    0  502  501  0.00000000000E+00  0.00000000000E+00  0.19488800170E+04  0.19488800170E+04  0.00000000000E+00 0. -1.
         21   -1    0    0  501  502 -0.00000000000E+00 -0.00000000000E+00 -0.13546000631E+03  0.13546000631E+03  0.00000000000E+00 0. -1.
         25    1    1    2    0    0  0.12033729401E+03 -0.14299128937E+03  0.15385552636E+04  0.15548970617E+04  0.12500000000E+03 0.  0.
         25    1    1    2    0    0 -0.81124309800E+02  0.66059966536E+02 -0.50258113558E+02  0.17057535226E+03  0.12500000000E+03 0.  0.
         25    1    1    2    0    0 -0.39212984209E+02  0.76931322831E+02  0.32512286065E+03  0.35886760941E+03  0.12500000000E+03 0.  0.
</event>
<event>
 5    0  0.5510933E-005  0.6361853E+03  0.7546771E-02  0.9833052E-01
         21   -1    0    0  502  501  0.00000000000E+00  0.00000000000E+00  0.17768550445E+03  0.17768550445E+03  0.00000000000E+00 0.  1.
         21   -1    0    0  501  502 -0.00000000000E+00 -0.00000000000E+00 -0.22777983074E+04  0.22777983074E+04  0.00000000000E+00 0.  1.
         25    1    1    2    0    0 -0.38956034237E+03 -0.20138191350E+03 -0.31300659004E+03  0.55309136753E+03  0.12500000000E+03 0.  0.
         25    1    1    2    0    0  0.10417789591E+03 -0.29029683404E+02 -0.16095979333E+03  0.23071370047E+03  0.12500000000E+03 0.  0.
         25    1    1    2    0    0  0.28538244645E+03  0.23041159691E+03 -0.16261464195E+04  0.16716787438E+04  0.12500000000E+03 0.  0.
</event>
<event>
 5    0  0.5738033E-005  0.3195289E+03  0.7546771E-02  0.1075866E+00
         21   -1    0    0  502  501  0.00000000000E+00  0.00000000000E+00  0.80613261297E+03  0.80613261297E+03  0.00000000000E+00 0. -1.
         21   -1    0    0  501  502 -0.00000000000E+00 -0.00000000000E+00 -0.12665250359E+03  0.12665250359E+03  0.00000000000E+00 0. -1.
         25    1    1    2    0    0  0.78950486055E+02 -0.42879604930E+01  0.31818198488E+03  0.35087938292E+03  0.12500000000E+03 0.  0.
         25    1    1    2    0    0  0.14873874187E+03 -0.40158537222E+01  0.18138035016E+03  0.26582545371E+03  0.12500000000E+03 0.  0.
         25    1    1    2    0    0 -0.22768922793E+03  0.83038142152E+01  0.17991777433E+03  0.31608027993E+03  0.12500000000E+03 0.  0.
</event>
<event>
 5    0  0.5510933E-005  0.2962414E+03  0.7546771E-02  0.1087135E+00
         21   -1    0    0  502  501  0.00000000000E+00  0.00000000000E+00  0.33716916914E+03  0.33716916914E+03  0.00000000000E+00 0. -1.
         21   -1    0    0  501  502 -0.00000000000E+00 -0.00000000000E+00 -0.26028163501E+03  0.26028163501E+03  0.00000000000E+00 0. -1.
         25    1    1    2    0    0  0.16077185693E+02 -0.27167606781E+02  0.91974987280E+02  0.15836967211E+03  0.12500000000E+03 0.  0.
         25    1    1    2    0    0 -0.17844879105E+03  0.30599052219E+02  0.46928682472E+02  0.22496127280E+03  0.12500000000E+03 0.  0.
         25    1    1    2    0    0  0.16237160536E+03 -0.34314454378E+01 -0.62016135625E+02  0.21411985924E+03  0.12500000000E+03 0.  0.
</event>
<event>
 5    0  0.5510933E-005  0.2495915E+03  0.7546771E-02  0.1113563E+00
         21   -1    0    0  502  501  0.00000000000E+00  0.00000000000E+00  0.11723630657E+03  0.11723630657E+03  0.00000000000E+00 0.  1.
         21   -1    0    0  501  502 -0.00000000000E+00 -0.00000000000E+00 -0.53137056401E+03  0.53137056401E+03  0.00000000000E+00 0.  1.
         25    1    1    2    0    0 -0.12819195113E+03  0.16302500219E+02 -0.81142487030E+02  0.19725123839E+03  0.12500000000E+03 0.  0.
         25    1    1    2    0    0  0.39311644668E+02 -0.15408575918E+02 -0.76529804165E+02  0.15252750750E+03  0.12500000000E+03 0.  0.
         25    1    1    2    0    0  0.88880306457E+02 -0.89392430112E+00 -0.25646196624E+03  0.29882812469E+03  0.12500000000E+03 0.  0.
</event>
<event>
 5    0  0.5510933E-005  0.3073624E+03  0.7546771E-02  0.1081617E+00
         21   -1    0    0  502  501  0.00000000000E+00  0.00000000000E+00  0.68723859993E+02  0.68723859993E+02  0.00000000000E+00 0.  1.
         21   -1    0    0  501  502 -0.00000000000E+00 -0.00000000000E+00 -0.13746557913E+04  0.13746557913E+04  0.00000000000E+00 0.  1.
         25    1    1    2    0    0 -0.12278721659E+03  0.88214975392E+02 -0.19880317687E+03  0.27929605364E+03  0.12500000000E+03 0.  0.
         25    1    1    2    0    0  0.41824923086E+02 -0.14738086198E+02 -0.83362346876E+03  0.84410877441E+03  0.12500000000E+03 0.  0.
         25    1    1    2    0    0  0.80962293508E+02 -0.73476889195E+02 -0.27350528566E+03  0.31997482322E+03  0.12500000000E+03 0.  0.
</event>
<event>
 5    0  0.5510933E-005  0.4227628E+03  0.7546771E-02  0.1036171E+00
         21   -1    0    0  502  501  0.00000000000E+00  0.00000000000E+00  0.19083426450E+04  0.19083426450E+04  0.00000000000E+00 0.  1.
         21   -1    0    0  501  502 -0.00000000000E+00 -0.00000000000E+00 -0.93656327471E+02  0.93656327471E+02  0.00000000000E+00 0.  1.
         25    1    1    2    0    0  0.94306024575E+02  0.19889791932E+03  0.21200702914E+03  0.33019083722E+03  0.12500000000E+03 0.  0.
         25    1    1    2    0    0 -0.16788622999E+03 -0.18609212781E+03  0.13620826116E+04  0.13905790545E+04  0.12500000000E+03 0.  0.
         25    1    1    2    0    0  0.73580205413E+02 -0.12805791506E+02  0.24059667679E+03  0.28122908066E+03  0.12500000000E+03 0.  0.
</event>
<event>
 5    0  0.5975636E-005  0.3477977E+03  0.7546771E-02  0.1063523E+00
         21   -1    0    0  502  501  0.00000000000E+00  0.00000000000E+00  0.35553605026E+03  0.35553605026E+03  0.00000000000E+00 0.  1.
         21   -1    0    0  501  502 -0.00000000000E+00 -0.00000000000E+00 -0.34022777156E+03  0.34022777156E+03  0.00000000000E+00 0.  1.
         25    1    1    2    0    0 -0.18149927226E+03  0.78608747399E+02  0.84443932808E+02  0.24875107796E+03  0.12500000000E+03 0.  0.
         25    1    1    2    0    0  0.10002217074E+03 -0.16371601190E+03  0.54490998846E+02  0.23537552156E+03  0.12500000000E+03 0.  0.
         25    1    1    2    0    0  0.81477101521E+02  0.85107264502E+02 -0.12362665295E+03  0.21163722230E+03  0.12500000000E+03 0.  0.
</event>
<event>
 5    0  0.5510933E-005  0.4079074E+03  0.7546771E-02  0.1041076E+00
         21   -1    0    0  502  501  0.00000000000E+00  0.00000000000E+00  0.13316576717E+04  0.13316576717E+04  0.00000000000E+00 0.  1.
         21   -1    0    0  501  502 -0.00000000000E+00 -0.00000000000E+00 -0.12494835799E+03  0.12494835799E+03  0.00000000000E+00 0.  1.
         25    1    1    2    0    0  0.14791640526E+03  0.11488762756E+02  0.14629739401E+03  0.24297979774E+03  0.12500000000E+03 0.  0.
         25    1    1    2    0    0 -0.83878274692E+02 -0.24227722076E+03  0.74834372087E+03  0.80086025075E+03  0.12500000000E+03 0.  0.
         25    1    1    2    0    0 -0.64038130570E+02  0.23078845801E+03  0.31206819882E+03  0.41276598120E+03  0.12500000000E+03 0.  0.
</event>
<event>
 5    0  0.5510933E-005  0.3045575E+03  0.7546771E-02  0.1082984E+00
         21   -1    0    0  502  501  0.00000000000E+00  0.00000000000E+00  0.20248708213E+03  0.20248708213E+03  0.00000000000E+00 0.  1.
         21   -1    0    0  501  502 -0.00000000000E+00 -0.00000000000E+00 -0.45808002349E+03  0.45808002349E+03  0.00000000000E+00 0. -1.
         25    1    1    2    0    0  0.21496366654E+03 -0.71132753871E+02 -0.12575926285E+03  0.28759283510E+03  0.12500000000E+03 0.  0.
         25    1    1    2    0    0 -0.12871615784E+03  0.57588570760E+02 -0.30217070719E+02  0.19084644124E+03  0.12500000000E+03 0.  0.
         25    1    1    2    0    0 -0.86247508709E+02  0.13544183111E+02 -0.99616607792E+02  0.18212782929E+03  0.12500000000E+03 0.  0.
</event>
<event>
 5    0  0.5510933E-005  0.2861087E+03  0.7546771E-02  0.1092399E+00
         21   -1    0    0  502  501  0.00000000000E+00  0.00000000000E+00  0.69815593636E+03  0.69815593636E+03  0.00000000000E+00 0. -1.
         21   -1    0    0  501  502 -0.00000000000E+00 -0.00000000000E+00 -0.11724914449E+03  0.11724914449E+03  0.00000000000E+00 0. -1.
         25    1    1    2    0    0  0.63458428600E+02 -0.42207772108E+02 -0.23454232273E+01  0.14642052177E+03  0.12500000000E+03 0.  0.
         25    1    1    2    0    0  0.97741371725E+01 -0.53461949025E+02  0.15235623940E+03  0.20442880774E+03  0.12500000000E+03 0.  0.
         25    1    1    2    0    0 -0.73232565772E+02  0.95669721134E+02  0.43089597569E+03  0.46455575133E+03  0.12500000000E+03 0.  0.
</event>
<event>
 5    0  0.5510933E-005  0.3344654E+03  0.7546771E-02  0.1069178E+00
         21   -1    0    0  502  501  0.00000000000E+00  0.00000000000E+00  0.22968442259E+03  0.22968442259E+03  0.00000000000E+00 0. -1.
         21   -1    0    0  501  502 -0.00000000000E+00 -0.00000000000E+00 -0.48704698368E+03  0.48704698368E+03  0.00000000000E+00 0. -1.
         25    1    1    2    0    0 -0.18121929400E+03 -0.16619324542E+03 -0.17352471737E+03  0.32587797544E+03  0.12500000000E+03 0.  0.
         25    1    1    2    0    0  0.26968554695E+02  0.47654037393E+02  0.18996678956E+02  0.13778274215E+03  0.12500000000E+03 0.  0.
         25    1    1    2    0    0  0.15425073930E+03  0.11853920803E+03 -0.10283452267E+03  0.25307068868E+03  0.12500000000E+03 0.  0.
</event>
<event>
 5    0  0.5510933E-005  0.2909012E+03  0.7546771E-02  0.1089880E+00
         21   -1    0    0  502  501  0.00000000000E+00  0.00000000000E+00  0.15254503600E+03  0.15254503600E+03  0.00000000000E+00 0. -1.
         21   -1    0    0  501  502 -0.00000000000E+00 -0.00000000000E+00 -0.55474444535E+03  0.55474444535E+03  0.00000000000E+00 0. -1.
         25    1    1    2    0    0  0.10383224338E+03  0.93052777262E+02 -0.17197297723E+03  0.25424330674E+03  0.12500000000E+03 0.  0.
         25    1    1    2    0    0 -0.17830084134E+03 -0.40249372261E+01 -0.15067633252E+03  0.26483154519E+03  0.12500000000E+03 0.  0.
         25    1    1    2    0    0  0.74468597966E+02 -0.89027840036E+02 -0.79550099591E+02  0.18821462942E+03  0.12500000000E+03 0.  0.
</event>
<event>
 5    0  0.5510933E-005  0.2642150E+03  0.7546771E-02  0.1104637E+00
         21   -1    0    0  502  501  0.00000000000E+00  0.00000000000E+00  0.35161187226E+03  0.35161187226E+03  0.00000000000E+00 0. -1.
         21   -1    0    0  501  502 -0.00000000000E+00 -0.00000000000E+00 -0.19854151862E+03  0.19854151862E+03  0.00000000000E+00 0. -1.
         25    1    1    2    0    0  0.71433762592E+02 -0.12794911407E+03  0.55715118790E+02  0.20050668989E+03  0.12500000000E+03 0.  0.
         25    1    1    2    0    0 -0.13569510318E+02  0.10084666720E+03  0.12815931071E+03  0.20592229315E+03  0.12500000000E+03 0.  0.
         25    1    1    2    0    0 -0.57864252273E+02  0.27102446874E+02 -0.30804075859E+02  0.14372440783E+03  0.12500000000E+03 0.  0.
</event>
<event>
 5    0  0.5510933E-005  0.3496442E+03  0.7546771E-02  0.1062761E+00
         21   -1    0    0  502  501  0.00000000000E+00  0.00000000000E+00  0.64489226875E+03  0.64489226875E+03  0.00000000000E+00 0. -1.
         21   -1    0    0  501  502 -0.00000000000E+00 -0.00000000000E+00 -0.18956823255E+03  0.18956823255E+03  0.00000000000E+00 0. -1.
         25    1    1    2    0    0  0.62138320459E+01 -0.12577539082E+03 -0.35237364367E+02  0.18089978577E+03  0.12500000000E+03 0.  0.
         25    1    1    2    0    0 -0.81627143638E+02  0.18936553278E+03  0.16816545872E+03  0.29398455247E+03  0.12500000000E+03 0.  0.
         25    1    1    2    0    0  0.75413311592E+02 -0.63590141951E+02  0.32239594185E+03  0.35957616306E+03  0.12500000000E+03 0.  0.
</event>
<event>
 5    0  0.5510933E-005  0.3383079E+03  0.7546771E-02  0.1067519E+00
         21   -1    0    0  502  501  0.00000000000E+00  0.00000000000E+00  0.59238924830E+02  0.59238924830E+02  0.00000000000E+00 0.  1.
         21   -1    0    0  501  502 -0.00000000000E+00 -0.00000000000E+00 -0.19320441037E+04  0.19320441037E+04  0.00000000000E+00 0.  1.
         25    1    1    2    0    0  0.49816100798E+02  0.14896755689E+02 -0.68383230819E+02  0.15167341061E+03  0.12500000000E+03 0.  0.
         25    1    1    2    0    0  0.67015116617E+02 -0.20946102074E+02 -0.12787165874E+04  0.12867287499E+04  0.12500000000E+03 0.  0.
         25    1    1    2    0    0 -0.11683121741E+03  0.60493463857E+01 -0.52570536065E+03  0.55288086797E+03  0.12500000000E+03 0.  0.
</event>
<event>
 5    0  0.5510933E-005  0.3912079E+03  0.7546771E-02  0.1046867E+00
         21   -1    0    0  502  501  0.00000000000E+00  0.00000000000E+00  0.13492551769E+03  0.13492551769E+03  0.00000000000E+00 0.  1.
         21   -1    0    0  501  502 -0.00000000000E+00 -0.00000000000E+00 -0.11342819776E+04  0.11342819776E+04  0.00000000000E+00 0.  1.
         25    1    1    2    0    0 -0.22836579595E+03  0.76177911883E+02 -0.26724031519E+03  0.38078392440E+03  0.12500000000E+03 0.  0.
         25    1    1    2    0    0  0.21997591806E+03 -0.14336079370E+03 -0.24268394016E+03  0.37876406444E+03  0.12500000000E+03 0.  0.
         25    1    1    2    0    0  0.83898778953E+01  0.67182881822E+02 -0.48943220451E+03  0.50965950641E+03  0.12500000000E+03 0.  0.
</event>
<event>
 5    0  0.5510933E-005  0.2671970E+03  0.7546771E-02  0.1102895E+00
         21   -1    0    0  502  501  0.00000000000E+00  0.00000000000E+00  0.10769292994E+04  0.10769292994E+04  0.00000000000E+00 0.  1.
         21   -1    0    0  501  502 -0.00000000000E+00 -0.00000000000E+00 -0.66294241065E+02  0.66294241065E+02  0.00000000000E+00 0.  1.
         25    1    1    2    0    0 -0.69825774819E+02 -0.84588994876E+02  0.47904965369E+03  0.50709418019E+03  0.12500000000E+03 0.  0.
         25    1    1    2    0    0  0.13457899942E+03  0.15069003277E+02  0.35393969036E+03  0.39904496784E+03  0.12500000000E+03 0.  0.
         25    1    1    2    0    0 -0.64753224605E+02  0.69519991599E+02  0.17764571426E+03  0.23708439241E+03  0.12500000000E+03 0.  0.
</event>
<event>
 5    0  0.5510933E-005  0.3607624E+03  0.7546771E-02  0.1058282E+00
         21   -1    0    0  502  501  0.00000000000E+00  0.00000000000E+00  0.34381710762E+03  0.34381710762E+03  0.00000000000E+00 0. -1.
         21   -1    0    0  501  502 -0.00000000000E+00 -0.00000000000E+00 -0.37854293536E+03  0.37854293536E+03  0.00000000000E+00 0. -1.
         25    1    1    2    0    0  0.19794894128E+03  0.40441453233E+02  0.12332004728E+03  0.26767915225E+03  0.12500000000E+03 0.  0.
         25    1    1    2    0    0 -0.54740311391E+02  0.11278033632E+03 -0.10149621461E+03  0.20406466508E+03  0.12500000000E+03 0.  0.
         25    1    1    2    0    0 -0.14320862988E+03 -0.15322178955E+03 -0.56549660405E+02  0.25061622565E+03  0.12500000000E+03 0.  0.
</event>
<event>
 5    0  0.5510933E-005  0.3189299E+03  0.7546771E-02  0.1076143E+00
         21   -1    0    0  502  501  0.00000000000E+00  0.00000000000E+00  0.84303345061E+03  0.84303345061E+03  0.00000000000E+00 0.  1.
         21   -1    0    0  501  502 -0.00000000000E+00 -0.00000000000E+00 -0.12065506573E+03  0.12065506573E+03  0.00000000000E+00 0.  1.
         25    1    1    2    0    0  0.32203487235E+02 -0.67110788746E+02  0.28844372836E+02  0.14831695925E+03  0.12500000000E+03 0.  0.
         25    1    1    2    0    0 -0.42020453725E+02 -0.28371721948E+02  0.36559475440E+02  0.13975789202E+03  0.12500000000E+03 0.  0.
         25    1    1    2    0    0  0.98169664901E+01  0.95482510694E+02  0.65697453660E+03  0.67561366507E+03  0.12500000000E+03 0.  0.
</event>
<event>
 5    0  0.5510933E-005  0.2191547E+03  0.7546771E-02  0.1134515E+00
         21   -1    0    0  502  501  0.00000000000E+00  0.00000000000E+00  0.20304843074E+04  0.20304843074E+04  0.00000000000E+00 0.  1.
         21   -1    0    0  501  502 -0.00000000000E+00 -0.00000000000E+00 -0.23653845468E+02  0.23653845468E+02  0.00000000000E+00 0.  1.
         25    1    1    2    0    0 -0.62064576699E+02  0.25058098755E+02  0.65422518607E+03  0.66941430675E+03  0.12500000000E+03 0.  0.
         25    1    1    2    0    0  0.45360528481E+02  0.48061271904E+02  0.49422494186E+03  0.51405326238E+03  0.12500000000E+03 0.  0.
         25    1    1    2    0    0  0.16704048217E+02 -0.73119370659E+02  0.85838033396E+03  0.87067058370E+03  0.12500000000E+03 0.  0.
</event>
<event>
 5    0  0.5510933E-005  0.3542668E+03  0.7546771E-02  0.1060877E+00
         21   -1    0    0  502  501  0.00000000000E+00  0.00000000000E+00  0.52927223218E+02  0.52927223218E+02  0.00000000000E+00 0. -1.
         21   -1    0    0  501  502 -0.00000000000E+00 -0.00000000000E+00 -0.23712737774E+04  0.23712737774E+04  0.00000000000E+00 0. -1.
         25    1    1    2    0    0  0.54362076879E+02  0.67364369062E+02 -0.89678123443E+03  0.90957945010E+03  0.12500000000E+03 0.  0.
         25    1    1    2    0    0 -0.90561432466E+02 -0.24049465415E+03 -0.59373523401E+03  0.65892759833E+03  0.12500000000E+03 0.  0.
         25    1    1    2    0    0  0.36199355587E+02  0.17313028509E+03 -0.82783008571E+03  0.85569395216E+03  0.12500000000E+03 0.  0.
</event>
<event>
 5    0  0.5510933E-005  0.2950711E+03  0.7546771E-02  0.1087731E+00
         21   -1    0    0  502  501  0.00000000000E+00  0.00000000000E+00  0.67578126772E+02  0.67578126772E+02  0.00000000000E+00 0.  1.
         21   -1    0    0  501  502 -0.00000000000E+00 -0.00000000000E+00 -0.12883896465E+04  0.12883896465E+04  0.00000000000E+00 0.  1.
         25    1    1    2    0    0  0.11667220338E+03  0.13612290926E+03 -0.28647574131E+03  0.36032651835E+03  0.12500000000E+03 0.  0.
         25    1    1    2    0    0 -0.23127725812E+02 -0.13140789386E+03 -0.41898247446E+03  0.45713700372E+03  0.12500000000E+03 0.  0.
         25    1    1    2    0    0 -0.93544477572E+02 -0.47150153981E+01 -0.51535330394E+03  0.53850425118E+03  0.12500000000E+03 0.  0.
</event>
<event>
 5    0  0.5510933E-005  0.3163984E+03  0.7546771E-02  0.1077319E+00
         21   -1    0    0  502  501  0.00000000000E+00  0.00000000000E+00  0.10934427171E+04  0.10934427171E+04  0.00000000000E+00 0.  1.
         21   -1    0    0  501  502 -0.00000000000E+00 -0.00000000000E+00 -0.91552960557E+02  0.91552960557E+02  0.00000000000E+00 0.  1.
         25    1    1    2    0    0  0.87089865168E+02 -0.55560609520E+02  0.27170060146E+03  0.31641403695E+03  0.12500000000E+03 0.  0.
         25    1    1    2    0    0  0.77760157280E+02  0.17717307164E+03  0.36391289846E+03  0.43069076731E+03  0.12500000000E+03 0.  0.
         25    1    1    2    0    0 -0.16485002245E+03 -0.12161246212E+03  0.36627625662E+03  0.43789087340E+03  0.12500000000E+03 0.  0.
</event>
<event>
 5    0  0.5510933E-005  0.4731979E+03  0.7546771E-02  0.1021021E+00
         21   -1    0    0  502  501  0.00000000000E+00  0.00000000000E+00  0.89464795863E+02  0.89464795863E+02  0.00000000000E+00 0.  1.
         21   -1    0    0  501  502 -0.00000000000E+00 -0.00000000000E+00 -0.25028423380E+04  0.25028423380E+04  0.00000000000E+00 0.  1.
         25    1    1    2    0    0  0.13663523584E+03 -0.14831719054E+03 -0.80196163505E+03  0.83632209153E+03  0.12500000000E+03 0.  0.
         25    1    1    2    0    0  0.14582173415E+03  0.16590090343E+03 -0.23723606529E+03  0.34740903642E+03  0.12500000000E+03 0.  0.
         25    1    1    2    0    0 -0.28245696999E+03 -0.17583712884E+02 -0.13741798418E+04  0.14085760059E+04  0.12500000000E+03 0.  0.
</event>
<event>
 5    0  0.5510933E-005  0.3545648E+03  0.7546771E-02  0.1060757E+00
         21   -1    0    0  502  501  0.00000000000E+00  0.00000000000E+00  0.34837955957E+03  0.34837955957E+03  0.00000000000E+00 0. -1.
         21   -1    0    0  501  502 -0.00000000000E+00 -0.00000000000E+00 -0.36085988874E+03  0.36085988874E+03  0.00000000000E+00 0. -1.
         25    1    1    2    0    0 -0.56903130997E+02 -0.25147867588E+03 -0.13805660005E+03  0.31806306852E+03  0.12500000000E+03 0.  0.
         25    1    1    2    0    0 -0.59217117568E+01  0.77395500147E+02  0.49465412585E+02  0.15523194631E+03  0.12500000000E+03 0.  0.
         25    1    1    2    0    0  0.62824842753E+02  0.17408317574E+03  0.76110858284E+02  0.23594443348E+03  0.12500000000E+03 0.  0.
</event>
<event>
 5    0  0.5510933E-005  0.2307285E+03  0.7546771E-02  0.1126128E+00
         21   -1    0    0  502  501  0.00000000000E+00  0.00000000000E+00  0.41503084990E+03  0.41503084990E+03  0.00000000000E+00 0. -1.
         21   -1    0    0  501  502 -0.00000000000E+00 -0.00000000000E+00 -0.12826917256E+03  0.12826917256E+03  0.00000000000E+00 0. -1.
         25    1    1    2    0    0 -0.92279172909E+01 -0.10837942697E+03  0.16914004705E+03  0.23677966586E+03  0.12500000000E+03 0.  0.
         25    1    1    2    0    0 -0.13438730424E+02  0.47029282268E+02  0.21821455418E+02  0.13599091434E+03  0.12500000000E+03 0.  0.
         25    1    1    2    0    0  0.22666647715E+02  0.61350144704E+02  0.95800174864E+02  0.17052944226E+03  0.12500000000E+03 0.  0.
</event>
<event>
 5    0  0.5510933E-005  0.2475833E+03  0.7546771E-02  0.1114842E+00
         21   -1    0    0  502  501  0.00000000000E+00  0.00000000000E+00  0.10813084014E+04  0.10813084014E+04  0.00000000000E+00 0.  1.
         21   -1    0    0  501  502 -0.00000000000E+00 -0.00000000000E+00 -0.56688260963E+02  0.56688260963E+02  0.00000000000E+00 0.  1.
         25    1    1    2    0    0  0.10266464348E+03  0.46139876766E+02  0.38017662907E+03  0.41572609557E+03  0.12500000000E+03 0.  0.
         25    1    1    2    0    0  0.31113642480E+01 -0.22860234113E+00  0.43426008705E+03  0.45190325962E+03  0.12500000000E+03 0.  0.
         25    1    1    2    0    0 -0.10577600773E+03 -0.45911274425E+02  0.21018342432E+03  0.27036730717E+03  0.12500000000E+03 0.  0.
</event>
<event>
 5    0  0.5510933E-005  0.3062640E+03  0.7546771E-02  0.1082151E+00
         21   -1    0    0  502  501  0.00000000000E+00  0.00000000000E+00  0.62092231736E+02  0.62092231736E+02  0.00000000000E+00 0.  1.
         21   -1    0    0  501  502 -0.00000000000E+00 -0.00000000000E+00 -0.15106175096E+04  0.15106175096E+04  0.00000000000E+00 0.  1.
         25    1    1    2    0    0  0.42063131013E+02  0.15738365416E+03 -0.42930549517E+03  0.47588562677E+03  0.12500000000E+03 0.  0.
         25    1    1    2    0    0 -0.72382269662E+02 -0.13358896012E+03 -0.89521577341E+03  0.91658141166E+03  0.12500000000E+03 0.  0.
         25    1    1    2    0    0  0.30319138648E+02 -0.23794694044E+02 -0.12400400929E+03  0.18024270291E+03  0.12500000000E+03 0.  0.
</event>
<event>
 5    0  0.5510933E-005  0.2689073E+03  0.7546771E-02  0.1101907E+00
         21   -1    0    0  502  501  0.00000000000E+00  0.00000000000E+00  0.17215351996E+04  0.17215351996E+04  0.00000000000E+00 0. -1.
         21   -1    0    0  501  502 -0.00000000000E+00 -0.00000000000E+00 -0.42003858109E+02  0.42003858109E+02  0.00000000000E+00 0. -1.
         25    1    1    2    0    0  0.88438120299E+02 -0.32383616159E+01  0.24622737725E+03  0.28997363572E+03  0.12500000000E+03 0.  0.
         25    1    1    2    0    0 -0.10266115340E+03  0.75243444331E+02  0.54345060783E+03  0.57198291188E+03  0.12500000000E+03 0.  0.
         25    1    1    2    0    0  0.14223033105E+02 -0.72005082715E+02  0.88985335643E+03  0.90158251012E+03  0.12500000000E+03 0.  0.
</event>
<event>
 5    0  0.5510933E-005  0.5154523E+03  0.7546771E-02  0.1009823E+00
         21   -1    0    0  502  501  0.00000000000E+00  0.00000000000E+00  0.67486095822E+03  0.67486095822E+03  0.00000000000E+00 0. -1.
         21   -1    0    0  501  502 -0.00000000000E+00 -0.00000000000E+00 -0.39369743901E+03  0.39369743901E+03  0.00000000000E+00 0. -1.
         25    1    1    2    0    0  0.20576190161E+03 -0.25959665771E+03  0.17839159723E+03  0.39645547897E+03  0.12500000000E+03 0.  0.
         25    1    1    2    0    0 -0.34647651604E+03  0.22271593454E+03  0.17839295739E+03  0.46593713193E+03  0.12500000000E+03 0.  0.
         25    1    1    2    0    0  0.14071461442E+03  0.36880723163E+02 -0.75621035408E+02  0.20616578632E+03  0.12500000000E+03 0.  0.
</event>
<event>
 5    0  0.5510933E-005  0.4048779E+03  0.7546771E-02  0.1042104E+00
         21   -1    0    0  502  501  0.00000000000E+00  0.00000000000E+00  0.48672825829E+03  0.48672825829E+03  0.00000000000E+00 0.  1.
         21   -1    0    0  501  502 -0.00000000000E+00 -0.00000000000E+00 -0.33679186421E+03  0.33679186421E+03  0.00000000000E+00 0.  1.
         25    1    1    2    0    0 -0.85538498912E+02  0.46122616377E+02  0.22207463416E+03  0.27273847120E+03  0.12500000000E+03 0.  0.
         25    1    1    2    0    0  0.26816649144E+03 -0.71191529013E+02  0.29932897307E+02  0.30578175105E+03  0.12500000000E+03 0.  0.
         25    1    1    2    0    0 -0.18262799252E+03  0.25068912636E+02 -0.10207113738E+03  0.24499990025E+03  0.12500000000E+03 0.  0.
</event>
<event>
 5    0  0.5510933E-005  0.4593358E+03  0.7546771E-02  0.1024974E+00
         21   -1    0    0  502  501  0.00000000000E+00  0.00000000000E+00  0.35596618607E+03  0.35596618607E+03  0.00000000000E+00 0.  1.
         21   -1    0    0  501  502 -0.00000000000E+00 -0.00000000000E+00 -0.59272297897E+03  0.59272297897E+03  0.00000000000E+00 0.  1.
         25    1    1    2    0    0 -0.80327383301E+02 -0.61837718568E+02 -0.42476087455E+01  0.16099513696E+03  0.12500000000E+03 0.  0.
         25    1    1    2    0    0 -0.70132306094E+02  0.44153637193E+02  0.23603307396E+03  0.27965102545E+03  0.12500000000E+03 0.  0.
         25    1    1    2    0    0  0.15045968939E+03  0.17684081375E+02 -0.46854225812E+03  0.50804300262E+03  0.12500000000E+03 0.  0.
</event>
<event>
 5    0  0.5510933E-005  0.2759832E+03  0.7546771E-02  0.1097903E+00
         21   -1    0    0  502  501  0.00000000000E+00  0.00000000000E+00  0.84540320763E+02  0.84540320763E+02  0.00000000000E+00 0.  1.
         21   -1    0    0  501  502 -0.00000000000E+00 -0.00000000000E+00 -0.90095173129E+03  0.90095173129E+03  0.00000000000E+00 0.  1.
         25    1    1    2    0    0  0.11272794729E+03  0.11687430339E+03 -0.33599746306E+03  0.39355620701E+03  0.12500000000E+03 0.  0.
         25    1    1    2    0    0 -0.77280459948E+01 -0.93837794755E+02 -0.34410112771E+03  0.37801566173E+03  0.12500000000E+03 0.  0.
         25    1    1    2    0    0 -0.10499990129E+03 -0.23036508633E+02 -0.13631281976E+03  0.21392018332E+03  0.12500000000E+03 0.  0.
</event>
<event>
 5    0  0.5510933E-005  0.2684832E+03  0.7546771E-02  0.1102151E+00
         21   -1    0    0  502  501  0.00000000000E+00  0.00000000000E+00  0.65230704261E+02  0.65230704261E+02  0.00000000000E+00 0.  1.
         21   -1    0    0  501  502 -0.00000000000E+00 -0.00000000000E+00 -0.11050509607E+04  0.11050509607E+04  0.00000000000E+00 0.  1.
         25    1    1    2    0    0  0.32839297195E+02 -0.14779791348E+03 -0.43095702412E+03  0.47357322486E+03  0.12500000000E+03 0.  0.
         25    1    1    2    0    0 -0.43452410908E+02  0.50890664664E+02 -0.45191810269E+03  0.47363798761E+03  0.12500000000E+03 0.  0.
         25    1    1    2    0    0  0.10613113712E+02  0.96907248817E+02 -0.15694512959E+03  0.22307045246E+03  0.12500000000E+03 0.  0.
</event>
<event>
 5    0  0.5510933E-005  0.2689076E+03  0.7546771E-02  0.1101906E+00
         21   -1    0    0  502  501  0.00000000000E+00  0.00000000000E+00  0.17251092963E+03  0.17251092963E+03  0.00000000000E+00 0. -1.
         21   -1    0    0  501  502 -0.00000000000E+00 -0.00000000000E+00 -0.41916935225E+03  0.41916935225E+03  0.00000000000E+00 0. -1.
         25    1    1    2    0    0  0.43841852260E+02  0.93990513118E+02  0.53152980252E+02  0.17089927991E+03  0.12500000000E+03 0.  0.
         25    1    1    2    0    0 -0.68788579872E+02 -0.79728224471E+02 -0.13529341804E+03  0.21217390854E+03  0.12500000000E+03 0.  0.
         25    1    1    2    0    0  0.24946727613E+02 -0.14262288647E+02 -0.16451798483E+03  0.20860709343E+03  0.12500000000E+03 0.  0.
</event>
<event>
 5    0  0.5510933E-005  0.3323481E+03  0.7546771E-02  0.1070103E+00
         21   -1    0    0  502  501  0.00000000000E+00  0.00000000000E+00  0.29101120859E+03  0.29101120859E+03  0.00000000000E+00 0. -1.
         21   -1    0    0  501  502 -0.00000000000E+00 -0.00000000000E+00 -0.37955676772E+03  0.37955676772E+03  0.00000000000E+00 0. -1.
         25    1    1    2    0    0 -0.71079309123E+02  0.20306613031E+03 -0.83368751888E+01  0.24896309958E+03  0.12500000000E+03 0.  0.
         25    1    1    2    0    0  0.96369600387E+02  0.16509734148E+02 -0.47043449751E+02  0.16552267931E+03  0.12500000000E+03 0.  0.
         25    1    1    2    0    0 -0.25290291264E+02 -0.21957586445E+03 -0.33165234191E+02  0.25608219743E+03  0.12500000000E+03 0.  0.
</event>
<event>
 5    0  0.5510933E-005  0.4212390E+03  0.7546771E-02  0.1036664E+00
         21   -1    0    0  502  501  0.00000000000E+00  0.00000000000E+00  0.26055803087E+03  0.26055803087E+03  0.00000000000E+00 0.  1.
         21   -1    0    0  501  502 -0.00000000000E+00 -0.00000000000E+00 -0.68100882441E+03  0.68100882441E+03  0.00000000000E+00 0.  1.
         25    1    1    2    0    0  0.14329260266E+03  0.24643431667E+03 -0.26370405482E+03  0.40795523154E+03  0.12500000000E+03 0.  0.
         25    1    1    2    0    0 -0.20215443397E+02 -0.12598228825E+02 -0.20106540824E+03  0.23794889769E+03  0.12500000000E+03 0.  0.
         25    1    1    2    0    0 -0.12307715926E+03 -0.23383608785E+03  0.44318669512E+02  0.29566272606E+03  0.12500000000E+03 0.  0.
</event>
<event>
 5    0  0.5510933E-005  0.4038636E+03  0.7546771E-02  0.1042450E+00
         21   -1    0    0  502  501  0.00000000000E+00  0.00000000000E+00  0.73006033006E+03  0.73006033006E+03  0.00000000000E+00 0. -1.
         21   -1    0    0  501  502 -0.00000000000E+00 -0.00000000000E+00 -0.22341417537E+03  0.22341417537E+03  0.00000000000E+00 0. -1.
         25    1    1    2    0    0  0.12623364300E+03  0.15985186305E+03  0.27540602529E+02  0.24056399467E+03  0.12500000000E+03 0.  0.
         25    1    1    2    0    0  0.36104070291E+02  0.10151064577E+03  0.54360177964E+02  0.17374678139E+03  0.12500000000E+03 0.  0.
         25    1    1    2    0    0 -0.16233771329E+03 -0.26136250882E+03  0.42474537420E+03  0.53916372937E+03  0.12500000000E+03 0.  0.
</event>
<event>
 5    0  0.5510933E-005  0.3924055E+03  0.7546771E-02  0.1046442E+00
         21   -1    0    0  502  501  0.00000000000E+00  0.00000000000E+00  0.13081247227E+04  0.13081247227E+04  0.00000000000E+00 0. -1.
         21   -1    0    0  501  502 -0.00000000000E+00 -0.00000000000E+00 -0.11771206864E+03  0.11771206864E+03  0.00000000000E+00 0. -1.
         25    1    1    2    0    0 -0.15142848518E+03 -0.26562557390E+03  0.75141365368E+03  0.82081362719E+03  0.12500000000E+03 0.  0.
         25    1    1    2    0    0  0.12828160710E+03  0.15293807226E+03  0.32119760906E+03  0.39829527832E+03  0.12500000000E+03 0.  0.
         25    1    1    2    0    0  0.23146878072E+02  0.11268750164E+03  0.11780139137E+03  0.20672788588E+03  0.12500000000E+03 0.  0.
</event>
<event>
 5    0  0.5510933E-005  0.2687175E+03  0.7546771E-02  0.1102016E+00
         21   -1    0    0  502  501  0.00000000000E+00  0.00000000000E+00  0.38393281867E+04  0.38393281867E+04  0.00000000000E+00 0.  1.
         21   -1    0    0  501  502 -0.00000000000E+00 -0.00000000000E+00 -0.18807744449E+02  0.18807744449E+02  0.00000000000E+00 0.  1.
         25    1    1    2    0    0  0.83949144442E+02  0.17632741962E+00  0.14653161364E+04  0.14730322025E+04  0.12500000000E+03 0.  0.
         25    1    1    2    0    0  0.73110046012E+02 -0.69753044845E+02  0.86137238847E+03  0.87624081035E+03  0.12500000000E+03 0.  0.
         25    1    1    2    0    0 -0.15705919045E+03  0.69576717425E+02  0.14938319173E+04  0.15088629183E+04  0.12500000000E+03 0.  0.
</event>
<event>
 5    0  0.5510933E-005  0.2691106E+03  0.7546771E-02  0.1101790E+00
         21   -1    0    0  502  501  0.00000000000E+00  0.00000000000E+00  0.12504098562E+03  0.12504098562E+03  0.00000000000E+00 0.  1.
         21   -1    0    0  501  502 -0.00000000000E+00 -0.00000000000E+00 -0.57917423432E+03  0.57917423432E+03  0.00000000000E+00 0.  1.
         25    1    1    2    0    0  0.89110643889E+02  0.33082483996E+02 -0.31904512871E+03  0.35559801990E+03  0.12500000000E+03 0.  0.
         25    1    1    2    0    0  0.69207173007E+01  0.56705672046E+02 -0.36723372533E+02  0.14225693537E+03  0.12500000000E+03 0.  0.
         25    1    1    2    0    0 -0.96031361190E+02 -0.89788156041E+02 -0.98364747456E+02  0.20636026468E+03  0.12500000000E+03 0.  0.
</event>
<event>
 5    0  0.5510933E-005  0.2426283E+03  0.7546771E-02  0.1118054E+00
         21   -1    0    0  502  501  0.00000000000E+00  0.00000000000E+00  0.16627418882E+03  0.16627418882E+03  0.00000000000E+00 0. -1.
         21   -1    0    0  501  502 -0.00000000000E+00 -0.00000000000E+00 -0.35404468500E+03  0.35404468500E+03  0.00000000000E+00 0. -1.
         25    1    1    2    0    0 -0.36736380010E+02 -0.54287960307E+01  0.35045134534E+02  0.13502664514E+03  0.12500000000E+03 0.  0.
         25    1    1    2    0    0 -0.30394362690E+02  0.82528229608E+02 -0.10674780264E+03  0.18642644483E+03  0.12500000000E+03 0.  0.
         25    1    1    2    0    0  0.67130742700E+02 -0.77099433578E+02 -0.11606782807E+03  0.19886578385E+03  0.12500000000E+03 0.  0.
</event>
<event>
 5    0  0.5510933E-005  0.3876769E+03  0.7546771E-02  0.1048132E+00
         21   -1    0    0  502  501  0.00000000000E+00  0.00000000000E+00  0.19387566203E+03  0.19387566203E+03  0.00000000000E+00 0.  1.
         21   -1    0    0  501  502 -0.00000000000E+00 -0.00000000000E+00 -0.77520502923E+03  0.77520502923E+03  0.00000000000E+00 0.  1.
         25    1    1    2    0    0 -0.16571378127E+03 -0.20390606264E+03 -0.39525533030E+03  0.49080598591E+03  0.12500000000E+03 0.  0.
         25    1    1    2    0    0  0.94057782629E+02  0.22530302633E+03 -0.18811795950E+03  0.33259838669E+03  0.12500000000E+03 0.  0.
         25    1    1    2    0    0  0.71655998636E+02 -0.21396963690E+02  0.20439225952E+01  0.14567631865E+03  0.12500000000E+03 0.  0.
</event>
<event>
 5    0  0.5547437E-005  0.3715021E+03  0.7546771E-02  0.1054120E+00
         21   -1    0    0  502  501  0.00000000000E+00  0.00000000000E+00  0.51332152230E+03  0.51332152230E+03  0.00000000000E+00 0.  1.
         21   -1    0    0  501  502 -0.00000000000E+00 -0.00000000000E+00 -0.26886427434E+03  0.26886427434E+03  0.00000000000E+00 0.  1.
         25    1    1    2    0    0 -0.61771014020E+02 -0.19005104136E+03  0.32338769374E+02  0.23791984470E+03  0.12500000000E+03 0.  0.
         25    1    1    2    0    0  0.18675468718E+03  0.12351820883E+03 -0.50122577407E+01  0.25648427598E+03  0.12500000000E+03 0.  0.
         25    1    1    2    0    0 -0.12498367316E+03  0.66532832531E+02  0.21713073633E+03  0.28778167596E+03  0.12500000000E+03 0.  0.
</event>
<event>
 5    0  0.5510933E-005  0.5097531E+03  0.7546771E-02  0.1011264E+00
         21   -1    0    0  502  501  0.00000000000E+00  0.00000000000E+00  0.34956927494E+03  0.34956927494E+03  0.00000000000E+00 0. -1.
         21   -1    0    0  501  502 -0.00000000000E+00 -0.00000000000E+00 -0.74333824246E+03  0.74333824246E+03  0.00000000000E+00 0. -1.
         25    1    1    2    0    0 -0.10038671161E+03  0.28589665348E+03  0.28528465922E+02  0.32901863428E+03  0.12500000000E+03 0.  0.
         25    1    1    2    0    0 -0.10330365808E+02 -0.33802589503E+03 -0.46048199282E+03  0.58483919831E+03  0.12500000000E+03 0.  0.
         25    1    1    2    0    0  0.11071707742E+03  0.52129241549E+02  0.38184559373E+02  0.17904968481E+03  0.12500000000E+03 0.  0.
</event>
<event>
 5    0  0.5510933E-005  0.3117302E+03  0.7546771E-02  0.1079520E+00
         21   -1    0    0  502  501  0.00000000000E+00  0.00000000000E+00  0.74492751467E+03  0.74492751467E+03  0.00000000000E+00 0. -1.
         21   -1    0    0  501  502 -0.00000000000E+00 -0.00000000000E+00 -0.13044987676E+03  0.13044987676E+03  0.00000000000E+00 0. -1.
         25    1    1    2    0    0 -0.13164500550E+03 -0.14912249972E+02  0.17237651663E+03  0.25078167030E+03  0.12500000000E+03 0.  0.
         25    1    1    2    0    0  0.14216274717E+03 -0.13421169242E+03  0.31763427375E+03  0.39336949161E+03  0.12500000000E+03 0.  0.
         25    1    1    2    0    0 -0.10517741677E+02  0.14912394240E+03  0.12446684752E+03  0.23122622952E+03  0.12500000000E+03 0.  0.
</event>
<event>
 5    0  0.5510933E-005  0.2801086E+03  0.7546771E-02  0.1095630E+00
         21   -1    0    0  502  501  0.00000000000E+00  0.00000000000E+00  0.51299464738E+03  0.51299464738E+03  0.00000000000E+00 0. -1.
         21   -1    0    0  501  502 -0.00000000000E+00 -0.00000000000E+00 -0.15294669537E+03  0.15294669537E+03  0.00000000000E+00 0. -1.
         25    1    1    2    0    0  0.24935433788E+02 -0.71471007086E+02  0.14247930582E+02  0.14682603392E+03  0.12500000000E+03 0.  0.
         25    1    1    2    0    0  0.37574909693E+02  0.30236252710E+01  0.33908333894E+03  0.36335041887E+03  0.12500000000E+03 0.  0.
         25    1    1    2    0    0 -0.62510343481E+02  0.68447381815E+02  0.67166824920E+01  0.15576488996E+03  0.12500000000E+03 0.  0.
</event>
<event>
 5    0  0.5510933E-005  0.3170552E+03  0.7546771E-02  0.1077013E+00
         21   -1    0    0  502  501  0.00000000000E+00  0.00000000000E+00  0.13357474187E+03  0.13357474187E+03  0.00000000000E+00 0.  1.
         21   -1    0    0  501  502 -0.00000000000E+00 -0.00000000000E+00 -0.75256747892E+03  0.75256747892E+03  0.00000000000E+00 0.  1.
         25    1    1    2    0    0 -0.98495436562E+01  0.76235563911E+01 -0.34110614503E+03  0.36350176657E+03  0.12500000000E+03 0.  0.
         25    1    1    2    0    0  0.99024623692E+02  0.15239696216E+03 -0.14798818520E+03  0.26562419530E+03  0.12500000000E+03 0.  0.
         25    1    1    2    0    0 -0.89175080036E+02 -0.16002051855E+03 -0.12989840683E+03  0.25701625893E+03  0.12500000000E+03 0.  0.
</event>
<event>
 5    0  0.5510933E-005  0.2544963E+03  0.7546771E-02  0.1110496E+00
         21   -1    0    0  502  501  0.00000000000E+00  0.00000000000E+00  0.89100545912E+02  0.89100545912E+02  0.00000000000E+00 0. -1.
         21   -1    0    0  501  502 -0.00000000000E+00 -0.00000000000E+00 -0.72691329320E+03  0.72691329320E+03  0.00000000000E+00 0. -1.
         25    1    1    2    0    0  0.24869878002E+02  0.13829107250E+03 -0.21568913661E+03  0.28616382583E+03  0.12500000000E+03 0.  0.
         25    1    1    2    0    0 -0.35678958565E+02 -0.22965296328E+02 -0.10064958606E+03  0.16599919305E+03  0.12500000000E+03 0.  0.
         25    1    1    2    0    0  0.10809080562E+02 -0.11532577617E+03 -0.32147402462E+03  0.36385082022E+03  0.12500000000E+03 0.  0.
</event>
<event>
 5    0  0.5510933E-005  0.3685848E+03  0.7546771E-02  0.1055235E+00
         21   -1    0    0  502  501  0.00000000000E+00  0.00000000000E+00  0.30443944462E+03  0.30443944462E+03  0.00000000000E+00 0. -1.
         21   -1    0    0  501  502 -0.00000000000E+00 -0.00000000000E+00 -0.44624562421E+03  0.44624562421E+03  0.00000000000E+00 0. -1.
         25    1    1    2    0    0 -0.60248436947E+02  0.20869214924E+03 -0.44225294753E+02  0.25448607822E+03  0.12500000000E+03 0.  0.
         25    1    1    2    0    0  0.10435516961E+03  0.54124154107E+02  0.32060229109E+02  0.17456312260E+03  0.12500000000E+03 0.  0.
         25    1    1    2    0    0 -0.44106732661E+02 -0.26281630335E+03 -0.12964111394E+03  0.32163586802E+03  0.12500000000E+03 0.  0.
</event>
<event>
 5    0  0.5510933E-005  0.2694323E+03  0.7546771E-02  0.1101605E+00
         21   -1    0    0  502  501  0.00000000000E+00  0.00000000000E+00  0.98797749440E+02  0.98797749440E+02  0.00000000000E+00 0. -1.
         21   -1    0    0  501  502 -0.00000000000E+00 -0.00000000000E+00 -0.73477147597E+03  0.73477147597E+03  0.00000000000E+00 0. -1.
         25    1    1    2    0    0 -0.18747871366E+02 -0.96097490793E+02 -0.21071062473E+03  0.26383740787E+03  0.12500000000E+03 0.  0.
         25    1    1    2    0    0  0.93572288961E+02  0.25296235196E+01 -0.34538965530E+03  0.37905301245E+03  0.12500000000E+03 0.  0.
         25    1    1    2    0    0 -0.74824417595E+02  0.93567867274E+02 -0.79873446492E+02  0.19067880509E+03  0.12500000000E+03 0.  0.
</event>
<event>
 5    0  0.5510933E-005  0.2654635E+03  0.7546771E-02  0.1103904E+00
         21   -1    0    0  502  501  0.00000000000E+00  0.00000000000E+00  0.60338358969E+03  0.60338358969E+03  0.00000000000E+00 0. -1.
         21   -1    0    0  501  502 -0.00000000000E+00 -0.00000000000E+00 -0.11679284576E+03  0.11679284576E+03  0.00000000000E+00 0. -1.
         25    1    1    2    0    0  0.79910880793E+02 -0.86920398506E+02  0.14225318817E+03  0.22316333501E+03  0.12500000000E+03 0.  0.
         25    1    1    2    0    0 -0.76562440510E+02  0.10833124047E+03  0.31935915436E+03  0.36771284236E+03  0.12500000000E+03 0.  0.
         25    1    1    2    0    0 -0.33484402828E+01 -0.21410841966E+02  0.24978401392E+02  0.12930025809E+03  0.12500000000E+03 0.  0.
</event>
<event>
 5    0  0.5598270E-005  0.2943060E+03  0.7546771E-02  0.1088122E+00
         21   -1    0    0  502  501  0.00000000000E+00  0.00000000000E+00  0.57578157840E+03  0.57578157840E+03  0.00000000000E+00 0.  1.
         21   -1    0    0  501  502 -0.00000000000E+00 -0.00000000000E+00 -0.15043211968E+03  0.15043211968E+03  0.00000000000E+00 0. -1.
         25    1    1    2    0    0  0.14743058394E+03  0.68343626813E+02  0.17054826317E+03  0.26668021764E+03  0.12500000000E+03 0.  0.
         25    1    1    2    0    0 -0.14261257245E+01  0.68338277606E+02  0.64059276829E+02  0.15620737809E+03  0.12500000000E+03 0.  0.
         25    1    1    2    0    0 -0.14600445821E+03 -0.13668190442E+03  0.19074191872E+03  0.30332610236E+03  0.12500000000E+03 0.  0.
</event>
<event>
 5    0  0.5510933E-005  0.2551574E+03  0.7546771E-02  0.1110088E+00
         21   -1    0    0  502  501  0.00000000000E+00  0.00000000000E+00  0.11731047446E+04  0.11731047446E+04  0.00000000000E+00 0. -1.
         21   -1    0    0  501  502 -0.00000000000E+00 -0.00000000000E+00 -0.55498278980E+02  0.55498278980E+02  0.00000000000E+00 0. -1.
         25    1    1    2    0    0 -0.85246806220E+02  0.45405499161E+02  0.37569311483E+03  0.40755244307E+03  0.12500000000E+03 0.  0.
         25    1    1    2    0    0  0.53039170452E+02  0.73874530125E+02  0.20935809232E+03  0.26024298381E+03  0.12500000000E+03 0.  0.
         25    1    1    2    0    0  0.32207635768E+02 -0.11928002929E+03  0.53255525849E+03  0.56080759672E+03  0.12500000000E+03 0.  0.
</event>
<event>
 5    0  0.5510933E-005  0.3276838E+03  0.7546771E-02  0.1072166E+00
         21   -1    0    0  502  501  0.00000000000E+00  0.00000000000E+00  0.15952233500E+03  0.15952233500E+03  0.00000000000E+00 0.  1.
         21   -1    0    0  501  502 -0.00000000000E+00 -0.00000000000E+00 -0.67311379005E+03  0.67311379005E+03  0.00000000000E+00 0.  1.
         25    1    1    2    0    0  0.12555359008E+03 -0.18971871578E+02 -0.29979794595E+03  0.34875126421E+03  0.12500000000E+03 0.  0.
         25    1    1    2    0    0 -0.39303918214E+02  0.15282935010E+03 -0.17774408740E+02  0.20209536820E+03  0.12500000000E+03 0.  0.
         25    1    1    2    0    0 -0.86249671867E+02 -0.13385747853E+03 -0.19601910036E+03  0.28178949264E+03  0.12500000000E+03 0.  0.
</event>
<event>
 5    0  0.5510933E-005  0.4611517E+03  0.7546771E-02  0.1024448E+00
         21   -1    0    0  502  501  0.00000000000E+00  0.00000000000E+00  0.12938440162E+03  0.12938440162E+03  0.00000000000E+00 0. -1.
         21   -1    0    0  501  502 -0.00000000000E+00 -0.00000000000E+00 -0.16436364220E+04  0.16436364220E+04  0.00000000000E+00 0. -1.
         25    1    1    2    0    0 -0.24062854570E+03  0.12767751375E+03 -0.90699447467E+03  0.95523171095E+03  0.12500000000E+03 0.  0.
         25    1    1    2    0    0  0.29485194880E+03 -0.93087021927E+02 -0.58786779948E+03  0.67588195348E+03  0.12500000000E+03 0.  0.
         25    1    1    2    0    0 -0.54223403107E+02 -0.34590491823E+02 -0.19389746223E+02  0.14190715918E+03  0.12500000000E+03 0.  0.
</event>
<event>
 5    0  0.5510933E-005  0.3371937E+03  0.7546771E-02  0.1067998E+00
         21   -1    0    0  502  501  0.00000000000E+00  0.00000000000E+00  0.17003495128E+03  0.17003495128E+03  0.00000000000E+00 0. -1.
         21   -1    0    0  501  502 -0.00000000000E+00 -0.00000000000E+00 -0.66868345738E+03  0.66868345738E+03  0.00000000000E+00 0. -1.
         25    1    1    2    0    0 -0.40066646445E+01  0.67112790901E+02  0.96826028523E+02  0.17181519102E+03  0.12500000000E+03 0.  0.
         25    1    1    2    0    0 -0.96665267388E+01 -0.44824929103E+02 -0.46757681158E+03  0.48616436596E+03  0.12500000000E+03 0.  0.
         25    1    1    2    0    0  0.13673191383E+02 -0.22287861798E+02 -0.12789772304E+03  0.18073885168E+03  0.12500000000E+03 0.  0.
</event>
<event>
 5    0  0.5510933E-005  0.3742751E+03  0.7546771E-02  0.1053070E+00
         21   -1    0    0  502  501  0.00000000000E+00  0.00000000000E+00  0.12695086482E+04  0.12695086482E+04  0.00000000000E+00 0.  1.
         21   -1    0    0  501  502 -0.00000000000E+00 -0.00000000000E+00 -0.11034338800E+03  0.11034338800E+03  0.00000000000E+00 0.  1.
         25    1    1    2    0    0 -0.20499073225E+03  0.65195595764E+02  0.12180623012E+03  0.27700798492E+03  0.12500000000E+03 0.  0.
         25    1    1    2    0    0  0.20423631502E+03 -0.69267677075E+02  0.69725345731E+03  0.74047138175E+03  0.12500000000E+03 0.  0.
         25    1    1    2    0    0  0.75441722377E+00  0.40720813114E+01  0.34010557278E+03  0.36237266954E+03  0.12500000000E+03 0.  0.
</event>
<event>
 5    0  0.5510933E-005  0.4496934E+03  0.7546771E-02  0.1027814E+00
         21   -1    0    0  502  501  0.00000000000E+00  0.00000000000E+00  0.32226678203E+03  0.32226678203E+03  0.00000000000E+00 0. -1.
         21   -1    0    0  501  502 -0.00000000000E+00 -0.00000000000E+00 -0.62750529661E+03  0.62750529661E+03  0.00000000000E+00 0. -1.
         25    1    1    2    0    0  0.20029988520E+03  0.31678334791E+02  0.83676682437E+02  0.25248831278E+03  0.12500000000E+03 0.  0.
         25    1    1    2    0    0  0.19032063604E+02 -0.18787541539E+03 -0.25292348249E+02  0.22786858940E+03  0.12500000000E+03 0.  0.
         25    1    1    2    0    0 -0.21933194880E+03  0.15619708060E+03 -0.36362284877E+03  0.46941517647E+03  0.12500000000E+03 0.  0.
</event>
<event>
 5    0  0.5510933E-005  0.2289232E+03  0.7546771E-02  0.1127400E+00
         21   -1    0    0  502  501  0.00000000000E+00  0.00000000000E+00  0.40307401218E+03  0.40307401218E+03  0.00000000000E+00 0. -1.
         21   -1    0    0  501  502 -0.00000000000E+00 -0.00000000000E+00 -0.13001535418E+03  0.13001535418E+03  0.00000000000E+00 0. -1.
         25    1    1    2    0    0  0.23458875941E+02 -0.84990376243E+02  0.17244678869E+02  0.15393525218E+03  0.12500000000E+03 0.  0.
         25    1    1    2    0    0  0.57349843750E+01  0.79946677114E+02  0.16411087061E+03  0.22131818516E+03  0.12500000000E+03 0.  0.
         25    1    1    2    0    0 -0.29193860316E+02  0.50436991286E+01  0.91703108521E+02  0.15783592903E+03  0.12500000000E+03 0.  0.
</event>
<event>
 5    0  0.5510933E-005  0.3016626E+03  0.7546771E-02  0.1084412E+00
         21   -1    0    0  502  501  0.00000000000E+00  0.00000000000E+00  0.11198650742E+04  0.11198650742E+04  0.00000000000E+00 0.  1.
         21   -1    0    0  501  502 -0.00000000000E+00 -0.00000000000E+00 -0.81260065721E+02  0.81260065721E+02  0.00000000000E+00 0.  1.
         25    1    1    2    0    0 -0.52471687247E+02  0.14871125094E+03  0.30963268456E+03  0.36927728534E+03  0.12500000000E+03 0.  0.
         25    1    1    2    0    0 -0.10491642245E+03 -0.10576350638E+03  0.37932001779E+03  0.42626523536E+03  0.12500000000E+03 0.  0.
         25    1    1    2    0    0  0.15738810969E+03 -0.42947744562E+02  0.34965230617E+03  0.40558261926E+03  0.12500000000E+03 0.  0.
</event>
<event>
 5    0  0.5510933E-005  0.2182038E+03  0.7546771E-02  0.1135229E+00
         21   -1    0    0  502  501  0.00000000000E+00  0.00000000000E+00  0.72259873547E+02  0.72259873547E+02  0.00000000000E+00 0. -1.
         21   -1    0    0  501  502 -0.00000000000E+00 -0.00000000000E+00 -0.65891176636E+03  0.65891176636E+03  0.00000000000E+00 0. -1.
         25    1    1    2    0    0 -0.44207964289E+02  0.11428181185E+02 -0.10362336839E+03  0.16866460775E+03  0.12500000000E+03 0.  0.
         25    1    1    2    0    0 -0.24329503962E+02  0.34964052895E+02 -0.28521371529E+03  0.31430283668E+03  0.12500000000E+03 0.  0.
         25    1    1    2    0    0  0.68537468251E+02 -0.46392234079E+02 -0.19781480913E+03  0.24820419547E+03  0.12500000000E+03 0.  0.
</event>
<event>
 5    0  0.5510933E-005  0.5666959E+03  0.7546771E-02  0.9977017E-01
         21   -1    0    0  502  501  0.00000000000E+00  0.00000000000E+00  0.60776262043E+03  0.60776262043E+03  0.00000000000E+00 0.  1.
         21   -1    0    0  501  502 -0.00000000000E+00 -0.00000000000E+00 -0.52840414539E+03  0.52840414539E+03  0.00000000000E+00 0.  1.
         25    1    1    2    0    0 -0.92010856339E+02  0.82220420720E+02  0.37736768420E+03  0.41624219434E+03  0.12500000000E+03 0.  0.
         25    1    1    2    0    0  0.12014034187E+03  0.20477911596E+03  0.24701572367E+02  0.26945009882E+03  0.12500000000E+03 0.  0.
         25    1    1    2    0    0 -0.28129485527E+02 -0.28699953668E+03 -0.32271078153E+03  0.45047447267E+03  0.12500000000E+03 0.  0.
</event>
<event>
 5    0  0.5510933E-005  0.2518787E+03  0.7546771E-02  0.1112123E+00
         21   -1    0    0  502  501  0.00000000000E+00  0.00000000000E+00  0.24484594702E+03  0.24484594702E+03  0.00000000000E+00 0. -1.
         21   -1    0    0  501  502 -0.00000000000E+00 -0.00000000000E+00 -0.25911335829E+03  0.25911335829E+03  0.00000000000E+00 0. -1.
         25    1    1    2    0    0  0.61198147267E+02 -0.34793651879E+02  0.32428182166E+02  0.14707956499E+03  0.12500000000E+03 0.  0.
         25    1    1    2    0    0  0.43692950660E+02 -0.77940603048E+02 -0.38377948742E+02  0.15837196245E+03  0.12500000000E+03 0.  0.
         25    1    1    2    0    0 -0.10489109793E+03  0.11273425493E+03 -0.83176446892E+01  0.19850777786E+03  0.12500000000E+03 0.  0.
</event>
<event>
 5    0  0.5510933E-005  0.2273060E+03  0.7546771E-02  0.1128550E+00
         21   -1    0    0  502  501  0.00000000000E+00  0.00000000000E+00  0.10965771404E+03  0.10965771404E+03  0.00000000000E+00 0. -1.
         21   -1    0    0  501  502 -0.00000000000E+00 -0.00000000000E+00 -0.47117520425E+03  0.47117520425E+03  0.00000000000E+00 0. -1.
         25    1    1    2    0    0 -0.21660215605E+02  0.66026958330E+02 -0.24206335941E+03  0.28115546257E+03  0.12500000000E+03 0.  0.
         25    1    1    2    0    0  0.37108912975E+02 -0.71066937210E+02 -0.57771238831E+02  0.15934270307E+03  0.12500000000E+03 0.  0.
         25    1    1    2    0    0 -0.15448697370E+02  0.50399788807E+01 -0.61682891972E+02  0.14033475264E+03  0.12500000000E+03 0.  0.
</event>
<event>
 5    0  0.5510933E-005  0.2986871E+03  0.7546771E-02  0.1085899E+00
         21   -1    0    0  502  501  0.00000000000E+00  0.00000000000E+00  0.43267653872E+04  0.43267653872E+04  0.00000000000E+00 0.  1.
         21   -1    0    0  501  502 -0.00000000000E+00 -0.00000000000E+00 -0.20619090909E+02  0.20619090909E+02  0.00000000000E+00 0.  1.
         25    1    1    2    0    0 -0.41764321566E+02 -0.40553954837E+02  0.10873772177E+04  0.10960853504E+04  0.12500000000E+03 0.  0.
         25    1    1    2    0    0 -0.25536622471E+02  0.19201266113E+03  0.12046532927E+04  0.12265135697E+04  0.12500000000E+03 0.  0.
         25    1    1    2    0    0  0.67300944037E+02 -0.15145870629E+03  0.20141157860E+04  0.20247855580E+04  0.12500000000E+03 0.  0.
</event>
<event>
 5    0  0.5510933E-005  0.3834471E+03  0.7546771E-02  0.1049667E+00
         21   -1    0    0  502  501  0.00000000000E+00  0.00000000000E+00  0.92779977275E+03  0.92779977275E+03  0.00000000000E+00 0. -1.
         21   -1    0    0  501  502 -0.00000000000E+00 -0.00000000000E+00 -0.15847353209E+03  0.15847353209E+03  0.00000000000E+00 0. -1.
         25    1    1    2    0    0  0.13594070149E+03  0.26944591829E+02  0.11531982660E+03  0.21938447474E+03  0.12500000000E+03 0.  0.
         25    1    1    2    0    0 -0.25584637024E+03 -0.24606155260E+02  0.12813294279E+03  0.31321858034E+03  0.12500000000E+03 0.  0.
         25    1    1    2    0    0  0.11990566875E+03 -0.23384365687E+01  0.52587347127E+03  0.55367024976E+03  0.12500000000E+03 0.  0.
</event>
<event>
 5    0  0.5510933E-005  0.4270273E+03  0.7546771E-02  0.1034803E+00
         21   -1    0    0  502  501  0.00000000000E+00  0.00000000000E+00  0.14864039733E+03  0.14864039733E+03  0.00000000000E+00 0.  1.
         21   -1    0    0  501  502 -0.00000000000E+00 -0.00000000000E+00 -0.12268017829E+04  0.12268017829E+04  0.00000000000E+00 0.  1.
         25    1    1    2    0    0  0.11084409731E+02 -0.21770419749E+03 -0.71369081030E+03  0.75663568145E+03  0.12500000000E+03 0.  0.
         25    1    1    2    0    0 -0.34290967399E+02  0.65589974937E+02 -0.39256176951E+03  0.41857813863E+03  0.12500000000E+03 0.  0.
         25    1    1    2    0    0  0.23206557668E+02  0.15211422255E+03  0.28091194225E+02  0.20022836016E+03  0.12500000000E+03 0.  0.
</event>
<event>
 5    0  0.5510933E-005  0.2540042E+03  0.7546771E-02  0.1110800E+00
         21   -1    0    0  502  501  0.00000000000E+00  0.00000000000E+00  0.25424658788E+03  0.25424658788E+03  0.00000000000E+00 0.  1.
         21   -1    0    0  501  502 -0.00000000000E+00 -0.00000000000E+00 -0.25376200165E+03  0.25376200165E+03  0.00000000000E+00 0.  1.
         25    1    1    2    0    0  0.95210442855E+02  0.47325434537E+02 -0.73969069412E+01  0.16426941108E+03  0.12500000000E+03 0.  0.
         25    1    1    2    0    0 -0.12937037645E+03  0.42183998383E+02  0.19608325223E+02  0.18581084587E+03  0.12500000000E+03 0.  0.
         25    1    1    2    0    0  0.34159933598E+02 -0.89509432920E+02 -0.11726832050E+02  0.15792833259E+03  0.12500000000E+03 0.  0.
</event>
<event>
 5    0  0.5510933E-005  0.3356728E+03  0.7546771E-02  0.1068654E+00
         21   -1    0    0  502  501  0.00000000000E+00  0.00000000000E+00  0.22390543831E+03  0.22390543831E+03  0.00000000000E+00 0.  1.
         21   -1    0    0  501  502 -0.00000000000E+00 -0.00000000000E+00 -0.50323121610E+03  0.50323121610E+03  0.00000000000E+00 0.  1.
         25    1    1    2    0    0 -0.97048126968E+02 -0.13968717165E+03 -0.26632107708E+03  0.33982754592E+03  0.12500000000E+03 0.  0.
         25    1    1    2    0    0  0.27374699365E+02  0.14619391876E+02 -0.11407487170E+03  0.17204992629E+03  0.12500000000E+03 0.  0.
         25    1    1    2    0    0  0.69673427603E+02  0.12506777978E+03  0.10107017099E+03  0.21525918219E+03  0.12500000000E+03 0.  0.
</event>
<event>
 5    0  0.5510933E-005  0.3742413E+03  0.7546771E-02  0.1053083E+00
         21   -1    0    0  502  501  0.00000000000E+00  0.00000000000E+00  0.28682784363E+03  0.28682784363E+03  0.00000000000E+00 0.  1.
         21   -1    0    0  501  502 -0.00000000000E+00 -0.00000000000E+00 -0.48829475789E+03  0.48829475789E+03  0.00000000000E+00 0.  1.
         25    1    1    2    0    0  0.12975258793E+03  0.45069951901E+02  0.14460053345E+03  0.23537491139E+03  0.12500000000E+03 0.  0.
         25    1    1    2    0    0 -0.16126493124E+03 -0.13377476696E+03 -0.27575293888E+03  0.36819390221E+03  0.12500000000E+03 0.  0.
         25    1    1    2    0    0  0.31512343315E+02  0.88704815062E+02 -0.70314508831E+02  0.17155378792E+03  0.12500000000E+03 0.  0.
</event>
<event>
 5    0  0.5510933E-005  0.4396513E+03  0.7546771E-02  0.1030854E+00
         21   -1    0    0  502  501  0.00000000000E+00  0.00000000000E+00  0.10660512263E+04  0.10660512263E+04  0.00000000000E+00 0.  1.
         21   -1    0    0  501  502 -0.00000000000E+00 -0.00000000000E+00 -0.18131703022E+03  0.18131703022E+03  0.00000000000E+00 0. -1.
         25    1    1    2    0    0  0.88958991566E+02  0.34007207769E+03  0.34891166926E+03  0.51081021246E+03  0.12500000000E+03 0.  0.
         25    1    1    2    0    0 -0.13179372821E+03 -0.31093064883E+03  0.44992334791E+03  0.57628419566E+03  0.12500000000E+03 0.  0.
         25    1    1    2    0    0  0.42834736647E+02 -0.29141428867E+02  0.85899178881E+02  0.16027384837E+03  0.12500000000E+03 0.  0.
</event>
<event>
 5    0  0.5510933E-005  0.2694761E+03  0.7546771E-02  0.1101580E+00
         21   -1    0    0  502  501  0.00000000000E+00  0.00000000000E+00  0.67548464597E+03  0.67548464597E+03  0.00000000000E+00 0. -1.
         21   -1    0    0  501  502 -0.00000000000E+00 -0.00000000000E+00 -0.10750406861E+03  0.10750406861E+03  0.00000000000E+00 0. -1.
         25    1    1    2    0    0  0.81255329100E+02 -0.26257752065E+02  0.40458846578E+03  0.43198231989E+03  0.12500000000E+03 0.  0.
         25    1    1    2    0    0 -0.47715080455E+02  0.76616189325E+02  0.14366200980E+03  0.21073808965E+03  0.12500000000E+03 0.  0.
         25    1    1    2    0    0 -0.33540248645E+02 -0.50358437260E+02  0.19730101769E+02  0.14026830504E+03  0.12500000000E+03 0.  0.
</event>
<event>
 5    0  0.5510933E-005  0.3497043E+03  0.7546771E-02  0.1062736E+00
         21   -1    0    0  502  501  0.00000000000E+00  0.00000000000E+00  0.88863529066E+02  0.88863529066E+02  0.00000000000E+00 0.  1.
         21   -1    0    0  501  502 -0.00000000000E+00 -0.00000000000E+00 -0.13761899971E+04  0.13761899971E+04  0.00000000000E+00 0.  1.
         25    1    1    2    0    0 -0.22970516504E+03 -0.69622847354E+02 -0.36840969690E+03  0.45712417185E+03  0.12500000000E+03 0.  0.
         25    1    1    2    0    0  0.24036024549E+03  0.32811395237E+02 -0.71907942568E+03  0.76912278325E+03  0.12500000000E+03 0.  0.
         25    1    1    2    0    0 -0.10655080445E+02  0.36811452117E+02 -0.19983734544E+03  0.23880657105E+03  0.12500000000E+03 0.  0.
</event>
<event>
 5    0  0.6183057E-005  0.2960399E+03  0.7546771E-02  0.1087237E+00
         21   -1    0    0  502  501  0.00000000000E+00  0.00000000000E+00  0.11873477561E+03  0.11873477561E+03  0.00000000000E+00 0. -1.
         21   -1    0    0  501  502 -0.00000000000E+00 -0.00000000000E+00 -0.73811228966E+03  0.73811228966E+03  0.00000000000E+00 0. -1.
         25    1    1    2    0    0 -0.12198121352E+03  0.11546651784E+03 -0.43190467740E+03  0.47997769068E+03  0.12500000000E+03 0.  0.
         25    1    1    2    0    0  0.13800103442E+02 -0.98150461436E+02 -0.75780126145E+02  0.17661139106E+03  0.12500000000E+03 0.  0.
         25    1    1    2    0    0  0.10818111008E+03 -0.17316056402E+02 -0.11169271050E+03  0.20025798353E+03  0.12500000000E+03 0.  0.
</event>
<event>
 5    0  0.5510933E-005  0.3158329E+03  0.7546771E-02  0.1077583E+00
         21   -1    0    0  502  501  0.00000000000E+00  0.00000000000E+00  0.29947490997E+03  0.29947490997E+03  0.00000000000E+00 0.  1.
         21   -1    0    0  501  502 -0.00000000000E+00 -0.00000000000E+00 -0.33308432890E+03  0.33308432890E+03  0.00000000000E+00 0.  1.
         25    1    1    2    0    0  0.43848046907E+02  0.14427832755E+03  0.36726998657E+02  0.19928060480E+03  0.12500000000E+03 0.  0.
         25    1    1    2    0    0  0.96390989870E+02 -0.13837796840E+03 -0.11603084367E+03  0.23984962320E+03  0.12500000000E+03 0.  0.
         25    1    1    2    0    0 -0.14023903678E+03 -0.59003591460E+01  0.45694426079E+02  0.19342901088E+03  0.12500000000E+03 0.  0.
</event>
<event>
 5    0  0.5510933E-005  0.2477103E+03  0.7546771E-02  0.1114760E+00
         21   -1    0    0  502  501  0.00000000000E+00  0.00000000000E+00  0.20541875149E+03  0.20541875149E+03  0.00000000000E+00 0.  1.
         21   -1    0    0  501  502 -0.00000000000E+00 -0.00000000000E+00 -0.29870892050E+03  0.29870892050E+03  0.00000000000E+00 0.  1.
         25    1    1    2    0    0  0.10062413329E+03  0.23822436679E+02  0.30519142498E+02  0.16507314363E+03  0.12500000000E+03 0.  0.
         25    1    1    2    0    0 -0.12747260173E+03 -0.38772205363E+02 -0.45114628729E+02  0.18818309654E+03  0.12500000000E+03 0.  0.
         25    1    1    2    0    0  0.26848468434E+02  0.14949768684E+02 -0.78694682772E+02  0.15087143181E+03  0.12500000000E+03 0.  0.
</event>
<event>
 5    0  0.5510933E-005  0.2554892E+03  0.7546771E-02  0.1109884E+00
         21   -1    0    0  502  501  0.00000000000E+00  0.00000000000E+00  0.26523557333E+03  0.26523557333E+03  0.00000000000E+00 0.  1.
         21   -1    0    0  501  502 -0.00000000000E+00 -0.00000000000E+00 -0.24610103211E+03  0.24610103211E+03  0.00000000000E+00 0.  1.
         25    1    1    2    0    0  0.61494020858E+02  0.32127557046E+02 -0.39176110327E+02  0.14823448365E+03  0.12500000000E+03 0.  0.
         25    1    1    2    0    0 -0.10147499151E+03 -0.61065758553E+02  0.12528280775E+03  0.21294830989E+03  0.12500000000E+03 0.  0.
         25    1    1    2    0    0  0.39980970652E+02  0.28938201508E+02 -0.66972156201E+02  0.15015381190E+03  0.12500000000E+03 0.  0.
</event>
<event>
 5    0  0.6352672E-005  0.2858399E+03  0.7546771E-02  0.1092541E+00
         21   -1    0    0  502  501  0.00000000000E+00  0.00000000000E+00  0.14431587481E+03  0.14431587481E+03  0.00000000000E+00 0.  1.
         21   -1    0    0  501  502 -0.00000000000E+00 -0.00000000000E+00 -0.56614999902E+03  0.56614999902E+03  0.00000000000E+00 0.  1.
         25    1    1    2    0    0  0.44917339289E+02 -0.66067876913E+02 -0.68886076856E+02  0.16356290323E+03  0.12500000000E+03 0.  0.
         25    1    1    2    0    0  0.30518763439E+02 -0.11614149291E+03 -0.90191424213E+02  0.19539635181E+03  0.12500000000E+03 0.  0.
         25    1    1    2    0    0 -0.75436102728E+02  0.18220936983E+03 -0.26275662314E+03  0.35150661879E+03  0.12500000000E+03 0.  0.
</event>
<event>
 5    0  0.5510933E-005  0.2652757E+03  0.7546771E-02  0.1104014E+00
         21   -1    0    0  502  501  0.00000000000E+00  0.00000000000E+00  0.45795690896E+02  0.45795690896E+02  0.00000000000E+00 0. -1.
         21   -1    0    0  501  502 -0.00000000000E+00 -0.00000000000E+00 -0.15366338805E+04  0.15366338805E+04  0.00000000000E+00 0. -1.
         25    1    1    2    0    0 -0.55319517876E+01 -0.11669491449E+03 -0.44393026172E+03  0.47575979531E+03  0.12500000000E+03 0.  0.
         25    1    1    2    0    0  0.59097848894E+02  0.14325943819E+02 -0.76367984536E+03  0.77622786256E+03  0.12500000000E+03 0.  0.
         25    1    1    2    0    0 -0.53565897107E+02  0.10236897067E+03 -0.28322808257E+03  0.33044191358E+03  0.12500000000E+03 0.  0.
</event>
<event>
 5    0  0.5510933E-005  0.4019254E+03  0.7546771E-02  0.1043115E+00
         21   -1    0    0  502  501  0.00000000000E+00  0.00000000000E+00  0.67631945888E+02  0.67631945888E+02  0.00000000000E+00 0.  1.
         21   -1    0    0  501  502 -0.00000000000E+00 -0.00000000000E+00 -0.23885754990E+04  0.23885754990E+04  0.00000000000E+00 0.  1.
         25    1    1    2    0    0 -0.20076894802E+03  0.61883466990E+02 -0.22553029143E+03  0.33260584229E+03  0.12500000000E+03 0.  0.
         25    1    1    2    0    0  0.98333458717E+02 -0.56046516384E+02 -0.76309646140E+03  0.78150616792E+03  0.12500000000E+03 0.  0.
         25    1    1    2    0    0  0.10243548930E+03 -0.58369506060E+01 -0.13323168003E+04  0.13420954347E+04  0.12500000000E+03 0.  0.
</event>
<event>
 5    0  0.5510933E-005  0.2888318E+03  0.7546771E-02  0.1090961E+00
         21   -1    0    0  502  501  0.00000000000E+00  0.00000000000E+00  0.28160827954E+03  0.28160827954E+03  0.00000000000E+00 0. -1.
         21   -1    0    0  501  502 -0.00000000000E+00 -0.00000000000E+00 -0.29624067890E+03  0.29624067890E+03  0.00000000000E+00 0. -1.
         25    1    1    2    0    0 -0.19033929364E+03 -0.83314560288E+02  0.24502092322E+02  0.24371236158E+03  0.12500000000E+03 0.  0.
         25    1    1    2    0    0  0.59648190092E+02  0.50723027531E+02 -0.27244578377E+02  0.14999333037E+03  0.12500000000E+03 0.  0.
         25    1    1    2    0    0  0.13069110355E+03  0.32591532758E+02 -0.11889913303E+02  0.18414326649E+03  0.12500000000E+03 0.  0.
</event>
<event>
 5    0  0.5510933E-005  0.2266202E+03  0.7546771E-02  0.1129041E+00
         21   -1    0    0  502  501  0.00000000000E+00  0.00000000000E+00  0.58479667213E+03  0.58479667213E+03  0.00000000000E+00 0. -1.
         21   -1    0    0  501  502 -0.00000000000E+00 -0.00000000000E+00 -0.87819805810E+02  0.87819805810E+02  0.00000000000E+00 0. -1.
         25    1    1    2    0    0 -0.88188595963E+02 -0.31946053711E+02  0.11384737250E+03  0.19334943245E+03  0.12500000000E+03 0.  0.
         25    1    1    2    0    0  0.33189268942E+02  0.68039081148E+02  0.20958912126E+03  0.25550625019E+03  0.12500000000E+03 0.  0.
         25    1    1    2    0    0  0.54999327021E+02 -0.36093027437E+02  0.17354037257E+03  0.22376079530E+03  0.12500000000E+03 0.  0.
</event>
<event>
 5    0  0.5510933E-005  0.2968575E+03  0.7546771E-02  0.1086822E+00
         21   -1    0    0  502  501  0.00000000000E+00  0.00000000000E+00  0.65903411610E+03  0.65903411610E+03  0.00000000000E+00 0. -1.
         21   -1    0    0  501  502 -0.00000000000E+00 -0.00000000000E+00 -0.13371743933E+03  0.13371743933E+03  0.00000000000E+00 0. -1.
         25    1    1    2    0    0 -0.37131665980E+02 -0.89073516696E+02  0.73700176411E+02  0.17426866614E+03  0.12500000000E+03 0.  0.
         25    1    1    2    0    0 -0.11919381880E+03  0.47573510947E+02  0.34308585773E+03  0.38704432712E+03  0.12500000000E+03 0.  0.
         25    1    1    2    0    0  0.15632548478E+03  0.41500005749E+02  0.10853064263E+03  0.23143856217E+03  0.12500000000E+03 0.  0.
</event>
<event>
 5    0  0.5510933E-005  0.3699558E+03  0.7546771E-02  0.1054710E+00
         21   -1    0    0  502  501  0.00000000000E+00  0.00000000000E+00  0.95201224545E+03  0.95201224545E+03  0.00000000000E+00 0. -1.
         21   -1    0    0  501  502 -0.00000000000E+00 -0.00000000000E+00 -0.14376632609E+03  0.14376632609E+03  0.00000000000E+00 0. -1.
         25    1    1    2    0    0 -0.58770493327E+01 -0.23159994561E+03  0.24779519016E+03  0.36152528374E+03  0.12500000000E+03 0.  0.
         25    1    1    2    0    0 -0.88764846581E+01  0.75670028336E+02  0.80297769356E+01  0.14660908050E+03  0.12500000000E+03 0.  0.
         25    1    1    2    0    0  0.14753533991E+02  0.15592991727E+03  0.55242095227E+03  0.58764420730E+03  0.12500000000E+03 0.  0.
</event>
<event>
 5    0  0.5510933E-005  0.2294538E+03  0.7546771E-02  0.1127025E+00
         21   -1    0    0  502  501  0.00000000000E+00  0.00000000000E+00  0.51282429696E+03  0.51282429696E+03  0.00000000000E+00 0.  1.
         21   -1    0    0  501  502 -0.00000000000E+00 -0.00000000000E+00 -0.10266485280E+03  0.10266485280E+03  0.00000000000E+00 0.  1.
         25    1    1    2    0    0 -0.22699350610E+02 -0.51306174490E+01  0.10904352968E+03  0.16750246302E+03  0.12500000000E+03 0.  0.
         25    1    1    2    0    0  0.10187445340E+03  0.10033762879E+02  0.75994347690E+02  0.17854753298E+03  0.12500000000E+03 0.  0.
         25    1    1    2    0    0 -0.79175102792E+02 -0.49031454301E+01  0.22512156679E+03  0.26943915375E+03  0.12500000000E+03 0.  0.
</event>
<event>
 5    0  0.5510933E-005  0.3930979E+03  0.7546771E-02  0.1046196E+00
         21   -1    0    0  502  501  0.00000000000E+00  0.00000000000E+00  0.25097697467E+03  0.25097697467E+03  0.00000000000E+00 0.  1.
         21   -1    0    0  501  502 -0.00000000000E+00 -0.00000000000E+00 -0.61569776307E+03  0.61569776307E+03  0.00000000000E+00 0.  1.
         25    1    1    2    0    0  0.24117776581E+03 -0.12171001687E+03 -0.39477843278E+02  0.30027244801E+03  0.12500000000E+03 0.  0.
         25    1    1    2    0    0 -0.27204788006E+03  0.14533141118E+03 -0.23204325712E+03  0.40570967612E+03  0.12500000000E+03 0.  0.
         25    1    1    2    0    0  0.30870114258E+02 -0.23621394310E+02 -0.93199688006E+02  0.16069261361E+03  0.12500000000E+03 0.  0.
</event>
<event>
 5    0  0.5510933E-005  0.3609104E+03  0.7546771E-02  0.1058224E+00
         21   -1    0    0  502  501  0.00000000000E+00  0.00000000000E+00  0.96873575361E+02  0.96873575361E+02  0.00000000000E+00 0.  1.
         21   -1    0    0  501  502 -0.00000000000E+00 -0.00000000000E+00 -0.13446014510E+04  0.13446014510E+04  0.00000000000E+00 0.  1.
         25    1    1    2    0    0  0.23933808757E+03 -0.15673631445E+03 -0.68738702701E+03  0.75496683194E+03  0.12500000000E+03 0.  0.
         25    1    1    2    0    0 -0.18668530044E+03  0.10990921423E+03 -0.31419033312E+03  0.40158685511E+03  0.12500000000E+03 0.  0.
         25    1    1    2    0    0 -0.52652787129E+02  0.46827100219E+02 -0.24615051548E+03  0.28492133928E+03  0.12500000000E+03 0.  0.
</event>
<event>
 5    0  0.5510933E-005  0.2116063E+03  0.7546771E-02  0.1140300E+00
         21   -1    0    0  502  501  0.00000000000E+00  0.00000000000E+00  0.59303583559E+02  0.59303583559E+02  0.00000000000E+00 0.  1.
         21   -1    0    0  501  502 -0.00000000000E+00 -0.00000000000E+00 -0.75505099583E+03  0.75505099583E+03  0.00000000000E+00 0.  1.
         25    1    1    2    0    0  0.59294289263E+02 -0.37536206369E+02 -0.28795619637E+03  0.32166527720E+03  0.12500000000E+03 0.  0.
         25    1    1    2    0    0 -0.59821006541E+02 -0.44737074142E+01 -0.15787072742E+03  0.21011124067E+03  0.12500000000E+03 0.  0.
         25    1    1    2    0    0  0.52671727855E+00  0.42009913784E+02 -0.24992048848E+03  0.28257806152E+03  0.12500000000E+03 0.  0.
</event>
<event>
 5    0  0.5510933E-005  0.2352264E+03  0.7546771E-02  0.1123014E+00
         21   -1    0    0  502  501  0.00000000000E+00  0.00000000000E+00  0.11619636238E+03  0.11619636238E+03  0.00000000000E+00 0. -1.
         21   -1    0    0  501  502 -0.00000000000E+00 -0.00000000000E+00 -0.47618908108E+03  0.47618908108E+03  0.00000000000E+00 0. -1.
         25    1    1    2    0    0 -0.48456388252E+02 -0.52500633790E+02 -0.12295678804E+02  0.14450094058E+03  0.12500000000E+03 0.  0.
         25    1    1    2    0    0  0.46427861726E+02 -0.21321813910E+02 -0.14039071217E+03  0.19479404035E+03  0.12500000000E+03 0.  0.
         25    1    1    2    0    0  0.20285265261E+01  0.73822447701E+02 -0.20730632772E+03  0.25309046252E+03  0.12500000000E+03 0.  0.
</event>
<event>
 5    0  0.6477258E-005  0.2958394E+03  0.7546771E-02  0.1087339E+00
         21   -1    0    0  502  501  0.00000000000E+00  0.00000000000E+00  0.58972824900E+03  0.58972824900E+03  0.00000000000E+00 0.  1.
         21   -1    0    0  501  502 -0.00000000000E+00 -0.00000000000E+00 -0.14840890911E+03  0.14840890911E+03  0.00000000000E+00 0.  1.
         25    1    1    2    0    0 -0.97766435462E+02  0.41251285282E+02 -0.17716006626E+02  0.16492059099E+03  0.12500000000E+03 0.  0.
         25    1    1    2    0    0 -0.25108510396E+02  0.10640694137E+02  0.31660651376E+03  0.34147964247E+03  0.12500000000E+03 0.  0.
         25    1    1    2    0    0  0.12287494586E+03 -0.51891979419E+02  0.14242883275E+03  0.23173692465E+03  0.12500000000E+03 0.  0.
</event>
<event>
 5    0  0.5510933E-005  0.2418073E+03  0.7546771E-02  0.1118595E+00
         21   -1    0    0  502  501  0.00000000000E+00  0.00000000000E+00  0.58792064593E+03  0.58792064593E+03  0.00000000000E+00 0. -1.
         21   -1    0    0  501  502 -0.00000000000E+00 -0.00000000000E+00 -0.99453543286E+02  0.99453543286E+02  0.00000000000E+00 0. -1.
         25    1    1    2    0    0 -0.37452019882E+02 -0.47082386841E+01  0.16559461571E+03  0.21088242710E+03  0.12500000000E+03 0.  0.
         25    1    1    2    0    0 -0.72054588303E+02 -0.77353915445E+02  0.17256687503E+03  0.23786512625E+03  0.12500000000E+03 0.  0.
         25    1    1    2    0    0  0.10950660819E+03  0.82062154129E+02  0.15030561191E+03  0.23862663587E+03  0.12500000000E+03 0.  0.
</event>
<event>
 5    0  0.5510933E-005  0.2300274E+03  0.7546771E-02  0.1126620E+00
         21   -1    0    0  502  501  0.00000000000E+00  0.00000000000E+00  0.52024634849E+02  0.52024634849E+02  0.00000000000E+00 0. -1.
         21   -1    0    0  501  502 -0.00000000000E+00 -0.00000000000E+00 -0.10170686442E+04  0.10170686442E+04  0.00000000000E+00 0. -1.
         25    1    1    2    0    0 -0.71784151466E+01 -0.10236645979E+03 -0.30176467434E+03  0.34237018038E+03  0.12500000000E+03 0.  0.
         25    1    1    2    0    0  0.41860883670E+02  0.47521776150E+01 -0.24925978927E+03  0.28201127517E+03  0.12500000000E+03 0.  0.
         25    1    1    2    0    0 -0.34682468523E+02  0.97614282180E+02 -0.41401954576E+03  0.44471182352E+03  0.12500000000E+03 0.  0.
</event>
<event>
 5    0  0.5510933E-005  0.2824902E+03  0.7546771E-02  0.1094337E+00
         21   -1    0    0  502  501  0.00000000000E+00  0.00000000000E+00  0.29465216107E+03  0.29465216107E+03  0.00000000000E+00 0.  1.
         21   -1    0    0  501  502 -0.00000000000E+00 -0.00000000000E+00 -0.27083016178E+03  0.27083016178E+03  0.00000000000E+00 0.  1.
         25    1    1    2    0    0 -0.19297121424E+03 -0.39977594423E+02 -0.33491499776E+02  0.23576000114E+03  0.12500000000E+03 0.  0.
         25    1    1    2    0    0  0.13271700336E+03  0.24246623562E+02  0.46159312493E+02  0.18962432298E+03  0.12500000000E+03 0.  0.
         25    1    1    2    0    0  0.60254210881E+02  0.15730970861E+02  0.11154186569E+02  0.14009799874E+03  0.12500000000E+03 0.  0.
</event>
<event>
 5    0  0.5952292E-005  0.4898199E+03  0.7546771E-02  0.1016471E+00
         21   -1    0    0  502  501  0.00000000000E+00  0.00000000000E+00  0.20295022337E+03  0.20295022337E+03  0.00000000000E+00 0.  1.
         21   -1    0    0  501  502 -0.00000000000E+00 -0.00000000000E+00 -0.11821792228E+04  0.11821792228E+04  0.00000000000E+00 0.  1.
         25    1    1    2    0    0 -0.13538077489E+02 -0.70476805675E+01 -0.78740989163E+03  0.79741600609E+03  0.12500000000E+03 0.  0.
         25    1    1    2    0    0  0.22088243898E+03  0.12356337755E+03 -0.60664883067E+02  0.28872510829E+03  0.12500000000E+03 0.  0.
         25    1    1    2    0    0 -0.20734436149E+03 -0.11651569698E+03 -0.13115422475E+03  0.29898833180E+03  0.12500000000E+03 0.  0.
</event>
<event>
 5    0  0.5510933E-005  0.2336009E+03  0.7546771E-02  0.1124131E+00
         21   -1    0    0  502  501  0.00000000000E+00  0.00000000000E+00  0.98146553165E+03  0.98146553165E+03  0.00000000000E+00 0.  1.
         21   -1    0    0  501  502 -0.00000000000E+00 -0.00000000000E+00 -0.55599879200E+02  0.55599879200E+02  0.00000000000E+00 0.  1.
         25    1    1    2    0    0  0.56111438731E+02  0.37914451904E+02  0.25863014562E+03  0.29512802551E+03  0.12500000000E+03 0.  0.
         25    1    1    2    0    0 -0.85520415406E+02 -0.20771749485E+02  0.17236778293E+03  0.23039283761E+03  0.12500000000E+03 0.  0.
         25    1    1    2    0    0  0.29408976675E+02 -0.17142702418E+02  0.49486772389E+03  0.51154454773E+03  0.12500000000E+03 0.  0.
</event>
<event>
 5    0  0.5510933E-005  0.6162301E+03  0.7546771E-02  0.9872294E-01
         21   -1    0    0  502  501  0.00000000000E+00  0.00000000000E+00  0.19506762761E+04  0.19506762761E+04  0.00000000000E+00 0. -1.
         21   -1    0    0  501  502 -0.00000000000E+00 -0.00000000000E+00 -0.19467070622E+03  0.19467070622E+03  0.00000000000E+00 0. -1.
         25    1    1    2    0    0 -0.28215187082E+02 -0.12914755938E+03  0.29008367694E+03  0.34241601671E+03  0.12500000000E+03 0.  0.
         25    1    1    2    0    0  0.43110364006E+02  0.15658168351E+03  0.16022796185E+04  0.16153331864E+04  0.12500000000E+03 0.  0.
         25    1    1    2    0    0 -0.14895176924E+02 -0.27434124131E+02 -0.13635772555E+03  0.18759777925E+03  0.12500000000E+03 0.  0.
</event>
<event>
 5    0  0.5556133E-005  0.2810626E+03  0.7546771E-02  0.1095110E+00
         21   -1    0    0  502  501  0.00000000000E+00  0.00000000000E+00  0.79318975425E+02  0.79318975425E+02  0.00000000000E+00 0.  1.
         21   -1    0    0  501  502 -0.00000000000E+00 -0.00000000000E+00 -0.99593077068E+03  0.99593077068E+03  0.00000000000E+00 0.  1.
         25    1    1    2    0    0 -0.10417863906E+03 -0.14514648314E+02 -0.14825293315E+03  0.22060778780E+03  0.12500000000E+03 0.  0.
         25    1    1    2    0    0  0.28842446825E+02 -0.11659568281E+03 -0.29383637824E+03  0.34116162909E+03  0.12500000000E+03 0.  0.
         25    1    1    2    0    0  0.75336192231E+02  0.13111033113E+03 -0.47452248387E+03  0.51348032921E+03  0.12500000000E+03 0.  0.
</event>
<event>
 5    0  0.5510933E-005  0.2816224E+03  0.7546771E-02  0.1094806E+00
         21   -1    0    0  502  501  0.00000000000E+00  0.00000000000E+00  0.23162382757E+03  0.23162382757E+03  0.00000000000E+00 0. -1.
         21   -1    0    0  501  502 -0.00000000000E+00 -0.00000000000E+00 -0.34241360163E+03  0.34241360163E+03  0.00000000000E+00 0. -1.
         25    1    1    2    0    0  0.56935494443E+02 -0.17882542745E+03 -0.10536713207E+03  0.24889237946E+03  0.12500000000E+03 0.  0.
         25    1    1    2    0    0 -0.63852288610E+02  0.92620358104E+02 -0.31016411582E+02  0.17100486333E+03  0.12500000000E+03 0.  0.
         25    1    1    2    0    0  0.69167941674E+01  0.86205069347E+02  0.25593769600E+02  0.15414018641E+03  0.12500000000E+03 0.  0.
</event>
<event>
 5    0  0.5510933E-005  0.3133452E+03  0.7546771E-02  0.1078753E+00
         21   -1    0    0  502  501  0.00000000000E+00  0.00000000000E+00  0.61792798641E+03  0.61792798641E+03  0.00000000000E+00 0. -1.
         21   -1    0    0  501  502 -0.00000000000E+00 -0.00000000000E+00 -0.15889424017E+03  0.15889424017E+03  0.00000000000E+00 0. -1.
         25    1    1    2    0    0  0.30728531191E+02  0.19881357420E+03  0.94290293971E+02  0.25492496828E+03  0.12500000000E+03 0.  0.
         25    1    1    2    0    0 -0.19265495644E+02  0.41817442974E+01  0.77312769191E+02  0.14829332617E+03  0.12500000000E+03 0.  0.
         25    1    1    2    0    0 -0.11463035547E+02 -0.20299531850E+03  0.28743068308E+03  0.37360393212E+03  0.12500000000E+03 0.  0.
</event>
<event>
 5    0  0.7359735E-005  0.5520982E+03  0.7546771E-02  0.1001009E+00
         21   -1    0    0  502  501  0.00000000000E+00  0.00000000000E+00  0.76712878719E+03  0.76712878719E+03  0.00000000000E+00 0.  1.
         21   -1    0    0  501  502 -0.00000000000E+00 -0.00000000000E+00 -0.39734186785E+03  0.39734186785E+03  0.00000000000E+00 0.  1.
         25    1    1    2    0    0  0.27055204940E+03  0.12873480946E+03  0.12063316213E+02  0.32487164573E+03  0.12500000000E+03 0.  0.
         25    1    1    2    0    0 -0.21342849724E+03 -0.21883345928E+03 -0.10661950628E+03  0.34703389669E+03  0.12500000000E+03 0.  0.
         25    1    1    2    0    0 -0.57123552156E+02  0.90098649819E+02  0.46434310941E+03  0.49256511262E+03  0.12500000000E+03 0.  0.
</event>
<event>
 5    0  0.5510933E-005  0.3180743E+03  0.7546771E-02  0.1076539E+00
         21   -1    0    0  502  501  0.00000000000E+00  0.00000000000E+00  0.67544163814E+02  0.67544163814E+02  0.00000000000E+00 0.  1.
         21   -1    0    0  501  502 -0.00000000000E+00 -0.00000000000E+00 -0.14978533230E+04  0.14978533230E+04  0.00000000000E+00 0.  1.
         25    1    1    2    0    0 -0.54166393964E+02  0.29570233730E+02 -0.48558962305E+03  0.50520360150E+03  0.12500000000E+03 0.  0.
         25    1    1    2    0    0 -0.61623742600E+02 -0.27594954924E+01 -0.85400968270E+03  0.86531071796E+03  0.12500000000E+03 0.  0.
         25    1    1    2    0    0  0.11579013656E+03 -0.26810738238E+02 -0.90709853451E+02  0.19488316737E+03  0.12500000000E+03 0.  0.
</event>
<event>
 5    0  0.5634521E-005  0.2748450E+03  0.7546771E-02  0.1098538E+00
         21   -1    0    0  502  501  0.00000000000E+00  0.00000000000E+00  0.62013235015E+02  0.62013235015E+02  0.00000000000E+00 0.  1.
         21   -1    0    0  501  502 -0.00000000000E+00 -0.00000000000E+00 -0.12181236504E+04  0.12181236504E+04  0.00000000000E+00 0.  1.
         25    1    1    2    0    0 -0.73327362072E+02  0.62875939571E+02 -0.22423435833E+03  0.27429242290E+03  0.12500000000E+03 0.  0.
         25    1    1    2    0    0  0.14029900419E+03  0.60973244442E+01 -0.70437447439E+03  0.72903318725E+03  0.12500000000E+03 0.  0.
         25    1    1    2    0    0 -0.66971642120E+02 -0.68973264015E+02 -0.22750158266E+03  0.27681127526E+03  0.12500000000E+03 0.  0.
</event>
<event>
 5    0  0.5510933E-005  0.2746307E+03  0.7546771E-02  0.1098658E+00
         21   -1    0    0  502  501  0.00000000000E+00  0.00000000000E+00  0.30253942890E+03  0.30253942890E+03  0.00000000000E+00 0. -1.
         21   -1    0    0  501  502 -0.00000000000E+00 -0.00000000000E+00 -0.24929642677E+03  0.24929642677E+03  0.00000000000E+00 0. -1.
         25    1    1    2    0    0  0.60116522155E+02  0.23720209368E+02 -0.32896496523E+02  0.14451236643E+03  0.12500000000E+03 0.  0.
         25    1    1    2    0    0  0.18005156488E+02 -0.70375785403E+02 -0.92062361841E+02  0.17139841102E+03  0.12500000000E+03 0.  0.
         25    1    1    2    0    0 -0.78121678643E+02  0.46655576035E+02  0.17820186049E+03  0.23592507822E+03  0.12500000000E+03 0.  0.
</event>
<event>
 5    0  0.5510933E-005  0.3173873E+03  0.7546771E-02  0.1076858E+00
         21   -1    0    0  502  501  0.00000000000E+00  0.00000000000E+00  0.14666971806E+03  0.14666971806E+03  0.00000000000E+00 0.  1.
         21   -1    0    0  501  502 -0.00000000000E+00 -0.00000000000E+00 -0.68681330571E+03  0.68681330571E+03  0.00000000000E+00 0.  1.
         25    1    1    2    0    0  0.37134267994E+01  0.19947020781E+03 -0.68208354287E+02  0.24511126644E+03  0.12500000000E+03 0.  0.
         25    1    1    2    0    0  0.24281012223E+02 -0.14635890340E+03 -0.36465314089E+03  0.41304649777E+03  0.12500000000E+03 0.  0.
         25    1    1    2    0    0 -0.27994439022E+02 -0.53111304407E+02 -0.10728209248E+03  0.17532525956E+03  0.12500000000E+03 0.  0.
</event>
<event>
 5    0  0.6029836E-005  0.2473776E+03  0.7546771E-02  0.1114973E+00
         21   -1    0    0  502  501  0.00000000000E+00  0.00000000000E+00  0.18638097467E+03  0.18638097467E+03  0.00000000000E+00 0. -1.
         21   -1    0    0  501  502 -0.00000000000E+00 -0.00000000000E+00 -0.32833662951E+03  0.32833662951E+03  0.00000000000E+00 0. -1.
         25    1    1    2    0    0  0.32062890548E+02  0.35032608261E+02 -0.13623478992E+03  0.19089324392E+03  0.12500000000E+03 0.  0.
         25    1    1    2    0    0 -0.18622653231E+02  0.35571685514E+02 -0.87768549834E+02  0.15792550891E+03  0.12500000000E+03 0.  0.
         25    1    1    2    0    0 -0.13440237317E+02 -0.70604293774E+02  0.82047684908E+02  0.16589885134E+03  0.12500000000E+03 0.  0.
</event>
<event>
 5    0  0.5510933E-005  0.4596379E+03  0.7546771E-02  0.1024886E+00
         21   -1    0    0  502  501  0.00000000000E+00  0.00000000000E+00  0.40866915912E+03  0.40866915912E+03  0.00000000000E+00 0.  1.
         21   -1    0    0  501  502 -0.00000000000E+00 -0.00000000000E+00 -0.51696334373E+03  0.51696334373E+03  0.00000000000E+00 0.  1.
         25    1    1    2    0    0 -0.52608069387E+02 -0.16562709791E+03 -0.12680672459E+03  0.24880693304E+03  0.12500000000E+03 0.  0.
         25    1    1    2    0    0 -0.47840578181E+02  0.32834090744E+03  0.17943113469E+03  0.39738772568E+03  0.12500000000E+03 0.  0.
         25    1    1    2    0    0  0.10044864757E+03 -0.16271380953E+03 -0.16091859470E+03  0.27943784413E+03  0.12500000000E+03 0.  0.
</event>
<event>
 5    0  0.5510933E-005  0.4272133E+03  0.7546771E-02  0.1034744E+00
         21   -1    0    0  502  501  0.00000000000E+00  0.00000000000E+00  0.15395322836E+04  0.15395322836E+04  0.00000000000E+00 0.  1.
         21   -1    0    0  501  502 -0.00000000000E+00 -0.00000000000E+00 -0.11854976261E+03  0.11854976261E+03  0.00000000000E+00 0.  1.
         25    1    1    2    0    0  0.12820036395E+03  0.31825022106E+03  0.57393004007E+03  0.68024938619E+03  0.12500000000E+03 0.  0.
         25    1    1    2    0    0 -0.22018305687E+01 -0.20901976529E+02  0.34832138317E+03  0.37066767684E+03  0.12500000000E+03 0.  0.
         25    1    1    2    0    0 -0.12599853338E+03 -0.29734824453E+03  0.49873109778E+03  0.60716498321E+03  0.12500000000E+03 0.  0.
</event>
<event>
 5    0  0.5510933E-005  0.2851777E+03  0.7546771E-02  0.1092894E+00
         21   -1    0    0  502  501  0.00000000000E+00  0.00000000000E+00  0.13968467847E+03  0.13968467847E+03  0.00000000000E+00 0. -1.
         21   -1    0    0  501  502 -0.00000000000E+00 -0.00000000000E+00 -0.58221353766E+03  0.58221353766E+03  0.00000000000E+00 0. -1.
         25    1    1    2    0    0 -0.71105439904E+02 -0.29695528906E+02 -0.60387427827E+01  0.14696691613E+03  0.12500000000E+03 0.  0.
         25    1    1    2    0    0  0.19430515563E+02  0.82452155638E+02 -0.39659014933E+03  0.42436381732E+03  0.12500000000E+03 0.  0.
         25    1    1    2    0    0  0.51674924342E+02 -0.52756626732E+02 -0.39899967073E+02  0.15056748269E+03  0.12500000000E+03 0.  0.
</event>
<event>
 5    0  0.5510933E-005  0.2816749E+03  0.7546771E-02  0.1094778E+00
         21   -1    0    0  502  501  0.00000000000E+00  0.00000000000E+00  0.65088394450E+02  0.65088394450E+02  0.00000000000E+00 0. -1.
         21   -1    0    0  501  502 -0.00000000000E+00 -0.00000000000E+00 -0.12189690684E+04  0.12189690684E+04  0.00000000000E+00 0. -1.
         25    1    1    2    0    0 -0.14294420183E+03  0.49927697744E+02 -0.52262480745E+03  0.55828980754E+03  0.12500000000E+03 0.  0.
         25    1    1    2    0    0  0.14313396709E+03  0.51765424069E+02 -0.35174810002E+03  0.40313610298E+03  0.12500000000E+03 0.  0.
         25    1    1    2    0    0 -0.18976525266E+00 -0.10169312181E+03 -0.27950776651E+03  0.32263155235E+03  0.12500000000E+03 0.  0.
</event>
<event>
 5    0  0.5510933E-005  0.2941268E+03  0.7546771E-02  0.1088214E+00
         21   -1    0    0  502  501  0.00000000000E+00  0.00000000000E+00  0.15853867638E+03  0.15853867638E+03  0.00000000000E+00 0. -1.
         21   -1    0    0  501  502 -0.00000000000E+00 -0.00000000000E+00 -0.54567500763E+03  0.54567500763E+03  0.00000000000E+00 0. -1.
         25    1    1    2    0    0  0.99297254839E+02  0.95872191034E+02 -0.31815176262E+03  0.36864205660E+03  0.12500000000E+03 0.  0.
         25    1    1    2    0    0  0.30166543482E+02 -0.40310897923E+02  0.67247663811E+00  0.13476068070E+03  0.12500000000E+03 0.  0.
         25    1    1    2    0    0 -0.12946379832E+03 -0.55561293111E+02 -0.69657045267E+02  0.20081094672E+03  0.12500000000E+03 0.  0.
</event>
<event>
 5    0  0.5510933E-005  0.3204097E+03  0.7546771E-02  0.1075461E+00
         21   -1    0    0  502  501  0.00000000000E+00  0.00000000000E+00  0.15557472395E+03  0.15557472395E+03  0.00000000000E+00 0.  1.
         21   -1    0    0  501  502 -0.00000000000E+00 -0.00000000000E+00 -0.65989111943E+03  0.65989111943E+03  0.00000000000E+00 0.  1.
         25    1    1    2    0    0  0.90896672853E+00  0.31780230063E+02  0.20812159042E+02  0.13064821165E+03  0.12500000000E+03 0.  0.
         25    1    1    2    0    0 -0.72643240902E+02 -0.16654568146E+03 -0.16963484069E+03  0.27823638087E+03  0.12500000000E+03 0.  0.
         25    1    1    2    0    0  0.71734274173E+02  0.13476545140E+03 -0.35549371383E+03  0.40658125086E+03  0.12500000000E+03 0.  0.
</event>
<event>
 5    0  0.5510933E-005  0.3332147E+03  0.7546771E-02  0.1069723E+00
         21   -1    0    0  502  501  0.00000000000E+00  0.00000000000E+00  0.11880212677E+03  0.11880212677E+03  0.00000000000E+00 0. -1.
         21   -1    0    0  501  502 -0.00000000000E+00 -0.00000000000E+00 -0.93459643270E+03  0.93459643270E+03  0.00000000000E+00 0. -1.
         25    1    1    2    0    0  0.11174591250E+03  0.13384825397E+03 -0.22853950104E+03  0.31346101446E+03  0.12500000000E+03 0.  0.
         25    1    1    2    0    0 -0.16702442380E+03  0.50323727458E+02 -0.34532378248E+03  0.40657490139E+03  0.12500000000E+03 0.  0.
         25    1    1    2    0    0  0.55278511298E+02 -0.18417198143E+03 -0.24193102241E+03  0.33336264362E+03  0.12500000000E+03 0.  0.
</event>
<event>
 5    0  0.5510933E-005  0.3473068E+03  0.7546771E-02  0.1063726E+00
         21   -1    0    0  502  501  0.00000000000E+00  0.00000000000E+00  0.44597257341E+03  0.44597257341E+03  0.00000000000E+00 0.  1.
         21   -1    0    0  501  502 -0.00000000000E+00 -0.00000000000E+00 -0.27046960782E+03  0.27046960782E+03  0.00000000000E+00 0.  1.
         25    1    1    2    0    0  0.77382453953E+02 -0.26803445614E+03  0.10964790878E+03  0.32477404108E+03  0.12500000000E+03 0.  0.
         25    1    1    2    0    0 -0.34130559030E+01  0.15100951449E+03  0.60054014744E+02  0.20505366884E+03  0.12500000000E+03 0.  0.
         25    1    1    2    0    0 -0.73969398050E+02  0.11702494165E+03  0.58010420644E+01  0.18661447132E+03  0.12500000000E+03 0.  0.
</event>
<event>
 5    0  0.5510933E-005  0.2806271E+03  0.7546771E-02  0.1095347E+00
         21   -1    0    0  502  501  0.00000000000E+00  0.00000000000E+00  0.22585100793E+04  0.22585100793E+04  0.00000000000E+00 0.  1.
         21   -1    0    0  501  502 -0.00000000000E+00 -0.00000000000E+00 -0.34868820609E+02  0.34868820609E+02  0.00000000000E+00 0.  1.
         25    1    1    2    0    0  0.96944403834E+02 -0.83751002409E+02  0.70150468535E+03  0.72397946891E+03  0.12500000000E+03 0.  0.
         25    1    1    2    0    0  0.29360075994E+02  0.11566287776E+03  0.44763532017E+03  0.47983569607E+03  0.12500000000E+03 0.  0.
         25    1    1    2    0    0 -0.12630447983E+03 -0.31911875353E+02  0.10745012532E+04  0.10895637349E+04  0.12500000000E+03 0.  0.
</event>
<event>
 5    0  0.5510933E-005  0.4509423E+03  0.7546771E-02  0.1027441E+00
         21   -1    0    0  502  501  0.00000000000E+00  0.00000000000E+00  0.36910678053E+03  0.36910678053E+03  0.00000000000E+00 0.  1.
         21   -1    0    0  501  502 -0.00000000000E+00 -0.00000000000E+00 -0.55092172846E+03  0.55092172846E+03  0.00000000000E+00 0.  1.
         25    1    1    2    0    0 -0.10147023009E+03  0.43033962167E+02 -0.37357609441E+03  0.40906262089E+03  0.12500000000E+03 0.  0.
         25    1    1    2    0    0  0.31957889338E+02  0.16252578450E+03  0.22547918631E+02  0.20873271414E+03  0.12500000000E+03 0.  0.
         25    1    1    2    0    0  0.69512340750E+02 -0.20555974666E+03  0.16921322785E+03  0.30223317396E+03  0.12500000000E+03 0.  0.
</event>
<event>
 5    0  0.5510933E-005  0.3450853E+03  0.7546771E-02  0.1064650E+00
         21   -1    0    0  502  501  0.00000000000E+00  0.00000000000E+00  0.72950342737E+03  0.72950342737E+03  0.00000000000E+00 0. -1.
         21   -1    0    0  501  502 -0.00000000000E+00 -0.00000000000E+00 -0.16323965918E+03  0.16323965918E+03  0.00000000000E+00 0. -1.
         25    1    1    2    0    0  0.99079339976E+02  0.11832268786E+03  0.41746743627E+03  0.46229972357E+03  0.12500000000E+03 0.  0.
         25    1    1    2    0    0 -0.11046666871E+03 -0.86857248166E+02 -0.48748213050E+02  0.19428961560E+03  0.12500000000E+03 0.  0.
         25    1    1    2    0    0  0.11387328730E+02 -0.31465439694E+02  0.19754454497E+03  0.23615374738E+03  0.12500000000E+03 0.  0.
</event>
<event>
 5    0  0.6154350E-005  0.4964497E+03  0.7546771E-02  0.1014710E+00
         21   -1    0    0  502  501  0.00000000000E+00  0.00000000000E+00  0.26349834270E+03  0.26349834270E+03  0.00000000000E+00 0. -1.
         21   -1    0    0  501  502 -0.00000000000E+00 -0.00000000000E+00 -0.93534683812E+03  0.93534683812E+03  0.00000000000E+00 0. -1.
         25    1    1    2    0    0 -0.30646908025E+03 -0.53115757303E+02 -0.26674039644E+03  0.42839236678E+03  0.12500000000E+03 0.  0.
         25    1    1    2    0    0  0.13701686793E+03  0.14408790712E+03  0.68138926410E+02  0.24454623360E+03  0.12500000000E+03 0.  0.
         25    1    1    2    0    0  0.16945221232E+03 -0.90972149821E+02 -0.47324702540E+03  0.52590658044E+03  0.12500000000E+03 0.  0.
</event>
<event>
 5    0  0.5510933E-005  0.4258379E+03  0.7546771E-02  0.1035183E+00
         21   -1    0    0  502  501  0.00000000000E+00  0.00000000000E+00  0.11060479692E+03  0.11060479692E+03  0.00000000000E+00 0. -1.
         21   -1    0    0  501  502 -0.00000000000E+00 -0.00000000000E+00 -0.16395119527E+04  0.16395119527E+04  0.00000000000E+00 0. -1.
         25    1    1    2    0    0  0.99917280540E+02  0.19540674331E+03 -0.22769836053E+03  0.34005705649E+03  0.12500000000E+03 0.  0.
         25    1    1    2    0    0 -0.23406874832E+03 -0.12439443324E+03 -0.10551040489E+04  0.10950487240E+04  0.12500000000E+03 0.  0.
         25    1    1    2    0    0  0.13415146778E+03 -0.71012310066E+02 -0.24610474642E+03  0.31501096917E+03  0.12500000000E+03 0.  0.
</event>
<event>
 5    0  0.5510933E-005  0.2158318E+03  0.7546771E-02  0.1137029E+00
         21   -1    0    0  502  501  0.00000000000E+00  0.00000000000E+00  0.66550196866E+02  0.66550196866E+02  0.00000000000E+00 0.  1.
         21   -1    0    0  501  502 -0.00000000000E+00 -0.00000000000E+00 -0.69997338893E+03  0.69997338893E+03  0.00000000000E+00 0.  1.
         25    1    1    2    0    0 -0.22756246461E+02  0.15800217569E+02 -0.68552230543E+02  0.14523051312E+03  0.12500000000E+03 0.  0.
         25    1    1    2    0    0  0.37173915403E+02  0.38297628334E+01 -0.31146713649E+03  0.33768823519E+03  0.12500000000E+03 0.  0.
         25    1    1    2    0    0 -0.14417668942E+02 -0.19629980402E+02 -0.25340382503E+03  0.28360483749E+03  0.12500000000E+03 0.  0.
</event>
<event>
 5    0  0.5510933E-005  0.2065845E+03  0.7546771E-02  0.1144300E+00
         21   -1    0    0  502  501  0.00000000000E+00  0.00000000000E+00  0.14719442116E+03  0.14719442116E+03  0.00000000000E+00 0. -1.
         21   -1    0    0  501  502 -0.00000000000E+00 -0.00000000000E+00 -0.28993721622E+03  0.28993721622E+03  0.00000000000E+00 0. -1.
         25    1    1    2    0    0 -0.38267797043E+02 -0.32738152615E+02 -0.15501427056E+02  0.13565214767E+03  0.12500000000E+03 0.  0.
         25    1    1    2    0    0 -0.27876690555E+02  0.10282351447E+02 -0.76660900409E+02  0.14961527422E+03  0.12500000000E+03 0.  0.
         25    1    1    2    0    0  0.66144487598E+02  0.22455801168E+02 -0.50580467590E+02  0.15186421549E+03  0.12500000000E+03 0.  0.
</event>
<event>
 5    0  0.6230517E-005  0.3179477E+03  0.7546771E-02  0.1076598E+00
         21   -1    0    0  502  501  0.00000000000E+00  0.00000000000E+00  0.47695361638E+03  0.47695361638E+03  0.00000000000E+00 0. -1.
         21   -1    0    0  501  502 -0.00000000000E+00 -0.00000000000E+00 -0.21195089210E+03  0.21195089210E+03  0.00000000000E+00 0. -1.
         25    1    1    2    0    0 -0.65872879110E+01 -0.97856489119E+02 -0.48636474352E+02  0.16616194348E+03  0.12500000000E+03 0.  0.
         25    1    1    2    0    0  0.53071745655E+02 -0.60598051696E+02  0.27417766356E+03  0.31190884126E+03  0.12500000000E+03 0.  0.
         25    1    1    2    0    0 -0.46484457744E+02  0.15845454081E+03  0.39461535067E+02  0.21083372374E+03  0.12500000000E+03 0.  0.
</event>
<event>
 5    0  0.5510933E-005  0.5829435E+03  0.7546771E-02  0.9941439E-01
         21   -1    0    0  502  501  0.00000000000E+00  0.00000000000E+00  0.57842390614E+03  0.57842390614E+03  0.00000000000E+00 0.  1.
         21   -1    0    0  501  502 -0.00000000000E+00 -0.00000000000E+00 -0.58749844305E+03  0.58749844305E+03  0.00000000000E+00 0.  1.
         25    1    1    2    0    0 -0.35482404788E+02 -0.15702259795E+03  0.11532372112E+03  0.23417868812E+03  0.12500000000E+03 0.  0.
         25    1    1    2    0    0  0.39100747443E+03  0.31038119224E+03 -0.99104792716E+02  0.52408977236E+03  0.12500000000E+03 0.  0.
         25    1    1    2    0    0 -0.35552506965E+03 -0.15335859429E+03 -0.25293465325E+02  0.40765388871E+03  0.12500000000E+03 0.  0.
</event>
<event>
 5    0  0.5510933E-005  0.3102130E+03  0.7546771E-02  0.1080244E+00
         21   -1    0    0  502  501  0.00000000000E+00  0.00000000000E+00  0.51528448808E+03  0.51528448808E+03  0.00000000000E+00 0. -1.
         21   -1    0    0  501  502 -0.00000000000E+00 -0.00000000000E+00 -0.18675525961E+03  0.18675525961E+03  0.00000000000E+00 0. -1.
         25    1    1    2    0    0 -0.69886152377E+02 -0.21665488918E+02  0.28995764535E+02  0.14771331039E+03  0.12500000000E+03 0.  0.
         25    1    1    2    0    0  0.26485643775E+02 -0.21082842096E+02 -0.78563388777E+02  0.15147006837E+03  0.12500000000E+03 0.  0.
         25    1    1    2    0    0  0.43400508601E+02  0.42748331014E+02  0.37809685271E+03  0.40285636892E+03  0.12500000000E+03 0.  0.
</event>
<event>
 5    0  0.5510933E-005  0.2381631E+03  0.7546771E-02  0.1121023E+00
         21   -1    0    0  502  501  0.00000000000E+00  0.00000000000E+00  0.10060770201E+03  0.10060770201E+03  0.00000000000E+00 0.  1.
         21   -1    0    0  501  502 -0.00000000000E+00 -0.00000000000E+00 -0.56379061720E+03  0.56379061720E+03  0.00000000000E+00 0.  1.
         25    1    1    2    0    0 -0.46291418000E+02  0.16098620084E+02 -0.23789369283E+03  0.27316747617E+03  0.12500000000E+03 0.  0.
         25    1    1    2    0    0  0.11725036136E+03 -0.10823054755E+02 -0.90510207494E+02  0.19411822020E+03  0.12500000000E+03 0.  0.
         25    1    1    2    0    0 -0.70958943363E+02 -0.52755653288E+01 -0.13477901487E+03  0.19711262284E+03  0.12500000000E+03 0.  0.
</event>
<event>
 5    0  0.5510933E-005  0.1998528E+03  0.7546771E-02  0.1149863E+00
         21   -1    0    0  502  501  0.00000000000E+00  0.00000000000E+00  0.41987760649E+02  0.41987760649E+02  0.00000000000E+00 0. -1.
         21   -1    0    0  501  502 -0.00000000000E+00 -0.00000000000E+00 -0.95125640424E+03  0.95125640424E+03  0.00000000000E+00 0. -1.
         25    1    1    2    0    0  0.23164978146E+02 -0.27072934731E+02 -0.24007001187E+03  0.27299848096E+03  0.12500000000E+03 0.  0.
         25    1    1    2    0    0 -0.12432245379E+02 -0.20520536075E+02 -0.39451604972E+03  0.41454018697E+03  0.12500000000E+03 0.  0.
         25    1    1    2    0    0 -0.10732732767E+02  0.47593470806E+02 -0.27468258200E+03  0.30570549696E+03  0.12500000000E+03 0.  0.
</event>
<event>
 5    0  0.5510933E-005  0.2864777E+03  0.7546771E-02  0.1092203E+00
         21   -1    0    0  502  501  0.00000000000E+00  0.00000000000E+00  0.48389028168E+03  0.48389028168E+03  0.00000000000E+00 0.  1.
         21   -1    0    0  501  502 -0.00000000000E+00 -0.00000000000E+00 -0.16960344168E+03  0.16960344168E+03  0.00000000000E+00 0.  1.
         25    1    1    2    0    0  0.26027959918E+02 -0.78915649619E+02  0.17755160610E+02  0.15114688280E+03  0.12500000000E+03 0.  0.
         25    1    1    2    0    0  0.98160546958E+01 -0.44127788480E+02  0.29472589815E+03  0.32331404498E+03  0.12500000000E+03 0.  0.
         25    1    1    2    0    0 -0.35844014613E+02  0.12304343810E+03  0.18057812465E+01  0.17903279557E+03  0.12500000000E+03 0.  0.
</event>
<event>
 5    0  0.5510933E-005  0.2696200E+03  0.7546771E-02  0.1101497E+00
         21   -1    0    0  502  501  0.00000000000E+00  0.00000000000E+00  0.62653411675E+03  0.62653411675E+03  0.00000000000E+00 0.  1.
         21   -1    0    0  501  502 -0.00000000000E+00 -0.00000000000E+00 -0.11602712788E+03  0.11602712788E+03  0.00000000000E+00 0.  1.
         25    1    1    2    0    0  0.88097993282E+02 -0.76325339041E+02  0.18999411095E+03  0.25555738298E+03  0.12500000000E+03 0.  0.
         25    1    1    2    0    0  0.29467430060E+02 -0.45134025602E+02  0.51402810374E+02  0.14550827679E+03  0.12500000000E+03 0.  0.
         25    1    1    2    0    0 -0.11756542334E+03  0.12145936464E+03  0.26911006755E+03  0.34149558486E+03  0.12500000000E+03 0.  0.
</event>
<event>
 5    0  0.5510933E-005  0.3449439E+03  0.7546771E-02  0.1064710E+00
         21   -1    0    0  502  501  0.00000000000E+00  0.00000000000E+00  0.11857880863E+04  0.11857880863E+04  0.00000000000E+00 0. -1.
         21   -1    0    0  501  502 -0.00000000000E+00 -0.00000000000E+00 -0.10034365363E+03  0.10034365363E+03  0.00000000000E+00 0. -1.
         25    1    1    2    0    0  0.36761020104E+02 -0.16495957318E+02  0.57798562639E+02  0.14348924367E+03  0.12500000000E+03 0.  0.
         25    1    1    2    0    0 -0.22957498553E+03 -0.13295072948E+02  0.45527854263E+03  0.52515234392E+03  0.12500000000E+03 0.  0.
         25    1    1    2    0    0  0.19281396543E+03  0.29791030265E+02  0.57236732739E+03  0.61749015232E+03  0.12500000000E+03 0.  0.
</event>
<event>
 5    0  0.5510933E-005  0.2672130E+03  0.7546771E-02  0.1102885E+00
         21   -1    0    0  502  501  0.00000000000E+00  0.00000000000E+00  0.30395547365E+03  0.30395547365E+03  0.00000000000E+00 0. -1.
         21   -1    0    0  501  502 -0.00000000000E+00 -0.00000000000E+00 -0.23491207455E+03  0.23491207455E+03  0.00000000000E+00 0. -1.
         25    1    1    2    0    0 -0.49062708228E+02  0.14038698863E+03  0.60692118401E+02  0.20352933241E+03  0.12500000000E+03 0.  0.
         25    1    1    2    0    0  0.25730686583E+02 -0.58285882493E+02 -0.78562187028E+02  0.16079903470E+03  0.12500000000E+03 0.  0.
         25    1    1    2    0    0  0.23332021645E+02 -0.82101106139E+02  0.86913467733E+02  0.17453918109E+03  0.12500000000E+03 0.  0.
</event>
<event>
 5    0  0.5510933E-005  0.3716681E+03  0.7546771E-02  0.1054057E+00
         21   -1    0    0  502  501  0.00000000000E+00  0.00000000000E+00  0.42293218404E+03  0.42293218404E+03  0.00000000000E+00 0. -1.
         21   -1    0    0  501  502 -0.00000000000E+00 -0.00000000000E+00 -0.32661785885E+03  0.32661785885E+03  0.00000000000E+00 0. -1.
         25    1    1    2    0    0  0.18522915950E+03 -0.14913957679E+03  0.21951609416E+03  0.34693626286E+03  0.12500000000E+03 0.  0.
         25    1    1    2    0    0 -0.33760249632E+02  0.13254566742E+03 -0.73655081406E+02  0.19939453208E+03  0.12500000000E+03 0.  0.
         25    1    1    2    0    0 -0.15146890987E+03  0.16593909379E+02 -0.49546687564E+02  0.20321924794E+03  0.12500000000E+03 0.  0.
</event>
<event>
 5    0  0.5510933E-005  0.2500329E+03  0.7546771E-02  0.1113284E+00
         21   -1    0    0  502  501  0.00000000000E+00  0.00000000000E+00  0.55297055315E+03  0.55297055315E+03  0.00000000000E+00 0.  1.
         21   -1    0    0  501  502 -0.00000000000E+00 -0.00000000000E+00 -0.11305569384E+03  0.11305569384E+03  0.00000000000E+00 0.  1.
         25    1    1    2    0    0 -0.20849621361E+02  0.34564229924E+01  0.26988938677E+03  0.29818104343E+03  0.12500000000E+03 0.  0.
         25    1    1    2    0    0 -0.14258191648E+01  0.67689852041E+02 -0.24339137133E+01  0.14217901732E+03  0.12500000000E+03 0.  0.
         25    1    1    2    0    0  0.22275440525E+02 -0.71146275033E+02  0.17245938625E+03  0.22566618623E+03  0.12500000000E+03 0.  0.
</event>
<event>
 5    0  0.5510933E-005  0.3560356E+03  0.7546771E-02  0.1060165E+00
         21   -1    0    0  502  501  0.00000000000E+00  0.00000000000E+00  0.15589081248E+03  0.15589081248E+03  0.00000000000E+00 0. -1.
         21   -1    0    0  501  502 -0.00000000000E+00 -0.00000000000E+00 -0.81314198916E+03  0.81314198916E+03  0.00000000000E+00 0.  1.
         25    1    1    2    0    0  0.11371549036E+03  0.19936496891E+03 -0.19414207664E+03  0.32556681265E+03  0.12500000000E+03 0.  0.
         25    1    1    2    0    0 -0.10358703881E+03 -0.19591773844E+03 -0.12632255845E+03  0.28407115942E+03  0.12500000000E+03 0.  0.
         25    1    1    2    0    0 -0.10128451550E+02 -0.34472304723E+01 -0.33678654158E+03  0.35939482957E+03  0.12500000000E+03 0.  0.
</event>
<event>
 5    0  0.5510933E-005  0.5920058E+03  0.7546771E-02  0.9922132E-01
         21   -1    0    0  502  501  0.00000000000E+00  0.00000000000E+00  0.32360196861E+03  0.32360196861E+03  0.00000000000E+00 0. -1.
         21   -1    0    0  501  502 -0.00000000000E+00 -0.00000000000E+00 -0.10830308095E+04  0.10830308095E+04  0.00000000000E+00 0. -1.
         25    1    1    2    0    0  0.43418493781E+02 -0.10174044401E+03 -0.57613984219E+03  0.59983197757E+03  0.12500000000E+03 0.  0.
         25    1    1    2    0    0  0.72482887485E+02 -0.18913023805E+03 -0.35581458278E+03  0.42808063871E+03  0.12500000000E+03 0.  0.
         25    1    1    2    0    0 -0.11590138127E+03  0.29087068206E+03  0.17252558403E+03  0.37872016187E+03  0.12500000000E+03 0.  0.
</event>
<event>
 5    0  0.5510933E-005  0.4793755E+03  0.7546771E-02  0.1019307E+00
         21   -1    0    0  502  501  0.00000000000E+00  0.00000000000E+00  0.56462494518E+03  0.56462494518E+03  0.00000000000E+00 0. -1.
         21   -1    0    0  501  502 -0.00000000000E+00 -0.00000000000E+00 -0.40699731980E+03  0.40699731980E+03  0.00000000000E+00 0. -1.
         25    1    1    2    0    0  0.88260085546E+02 -0.22017088560E+03  0.15491198133E+02  0.26857036096E+03  0.12500000000E+03 0.  0.
         25    1    1    2    0    0 -0.34428665241E+01 -0.19689414371E+03  0.11119286441E+03  0.25839506623E+03  0.12500000000E+03 0.  0.
         25    1    1    2    0    0 -0.84817219022E+02  0.41706502931E+03  0.30943562835E+02  0.44465683779E+03  0.12500000000E+03 0.  0.
</event>
<event>
 5    0  0.5510933E-005  0.1982175E+03  0.7546771E-02  0.1151252E+00
         21   -1    0    0  502  501  0.00000000000E+00  0.00000000000E+00  0.17233483189E+03  0.17233483189E+03  0.00000000000E+00 0. -1.
         21   -1    0    0  501  502 -0.00000000000E+00 -0.00000000000E+00 -0.22798748596E+03  0.22798748596E+03  0.00000000000E+00 0. -1.
         25    1    1    2    0    0 -0.22566239365E+01 -0.21291804862E+02  0.13771274971E+02  0.12756598810E+03  0.12500000000E+03 0.  0.
         25    1    1    2    0    0  0.26948328760E+02 -0.51949718327E+01 -0.63424744122E+01  0.12813441043E+03  0.12500000000E+03 0.  0.
         25    1    1    2    0    0 -0.24691704824E+02  0.26486776695E+02 -0.63081454626E+02  0.14462191931E+03  0.12500000000E+03 0.  0.
</event>
<event>
 5    0  0.5510933E-005  0.2977763E+03  0.7546771E-02  0.1086358E+00
         21   -1    0    0  502  501  0.00000000000E+00  0.00000000000E+00  0.11102235135E+03  0.11102235135E+03  0.00000000000E+00 0.  1.
         21   -1    0    0  501  502 -0.00000000000E+00 -0.00000000000E+00 -0.79867450235E+03  0.79867450235E+03  0.00000000000E+00 0.  1.
         25    1    1    2    0    0  0.47654237799E+01 -0.18586132504E+02 -0.33365532638E+03  0.35681792332E+03  0.12500000000E+03 0.  0.
         25    1    1    2    0    0  0.58517187422E+02 -0.16926774487E+02  0.30286164856E+02  0.14231313608E+03  0.12500000000E+03 0.  0.
         25    1    1    2    0    0 -0.63282611202E+02  0.35512906991E+02 -0.38428298948E+03  0.41056579429E+03  0.12500000000E+03 0.  0.
</event>
<event>
 5    0  0.5510933E-005  0.2959024E+03  0.7546771E-02  0.1087307E+00
         21   -1    0    0  502  501  0.00000000000E+00  0.00000000000E+00  0.10891620484E+03  0.10891620484E+03  0.00000000000E+00 0.  1.
         21   -1    0    0  501  502 -0.00000000000E+00 -0.00000000000E+00 -0.80390451437E+03  0.80390451437E+03  0.00000000000E+00 0.  1.
         25    1    1    2    0    0 -0.12172490266E+01  0.12959566335E+03 -0.46697208132E+03  0.50048420793E+03  0.12500000000E+03 0.  0.
         25    1    1    2    0    0  0.90656316624E+02 -0.36383599590E+02 -0.71592154202E+02  0.17404818473E+03  0.12500000000E+03 0.  0.
         25    1    1    2    0    0 -0.89439067598E+02 -0.93212063764E+02 -0.15642407401E+03  0.23828832656E+03  0.12500000000E+03 0.  0.
</event>
<event>
 5    0  0.5510933E-005  0.2534520E+03  0.7546771E-02  0.1111142E+00
         21   -1    0    0  502  501  0.00000000000E+00  0.00000000000E+00  0.67820008666E+02  0.67820008666E+02  0.00000000000E+00 0.  1.
         21   -1    0    0  501  502 -0.00000000000E+00 -0.00000000000E+00 -0.94718205526E+03  0.94718205526E+03  0.00000000000E+00 0.  1.
         25    1    1    2    0    0  0.21370444525E+02 -0.47167195342E+02 -0.58159333743E+03  0.59712414987E+03  0.12500000000E+03 0.  0.
         25    1    1    2    0    0 -0.21825125295E+02  0.88136443231E+02 -0.20595129209E+03  0.25745932384E+03  0.12500000000E+03 0.  0.
         25    1    1    2    0    0  0.45468077039E+00 -0.40969247889E+02 -0.91817417072E+02  0.16041859021E+03  0.12500000000E+03 0.  0.
</event>
<event>
 5    0  0.5510933E-005  0.3763725E+03  0.7546771E-02  0.1052283E+00
         21   -1    0    0  502  501  0.00000000000E+00  0.00000000000E+00  0.54979265482E+03  0.54979265482E+03  0.00000000000E+00 0.  1.
         21   -1    0    0  501  502 -0.00000000000E+00 -0.00000000000E+00 -0.25765395384E+03  0.25765395384E+03  0.00000000000E+00 0.  1.
         25    1    1    2    0    0 -0.24227545863E+03  0.54995834268E+02  0.10456546857E+03  0.29712098017E+03  0.12500000000E+03 0.  0.
         25    1    1    2    0    0  0.27679901993E+03 -0.93419806922E+02  0.19845006497E+03  0.37463633840E+03  0.12500000000E+03 0.  0.
         25    1    1    2    0    0 -0.34523561299E+02  0.38423972654E+02 -0.10876832558E+02  0.13568929009E+03  0.12500000000E+03 0.  0.
</event>
<event>
 5    0  0.5510933E-005  0.2333047E+03  0.7546771E-02  0.1124335E+00
         21   -1    0    0  502  501  0.00000000000E+00  0.00000000000E+00  0.12286625556E+03  0.12286625556E+03  0.00000000000E+00 0.  1.
         21   -1    0    0  501  502 -0.00000000000E+00 -0.00000000000E+00 -0.44301079707E+03  0.44301079707E+03  0.00000000000E+00 0.  1.
         25    1    1    2    0    0  0.77963675806E+02 -0.54734907168E+01 -0.90418043766E+02  0.17294136719E+03  0.12500000000E+03 0.  0.
         25    1    1    2    0    0 -0.76663546517E+02  0.34113603522E+02 -0.26856562798E+02  0.15292910866E+03  0.12500000000E+03 0.  0.
         25    1    1    2    0    0 -0.13001292888E+01 -0.28640112805E+02 -0.20286993495E+03  0.24000657679E+03  0.12500000000E+03 0.  0.
</event>
<event>
 5    0  0.5510933E-005  0.2842730E+03  0.7546771E-02  0.1093378E+00
         21   -1    0    0  502  501  0.00000000000E+00  0.00000000000E+00  0.34432833813E+02  0.34432833813E+02  0.00000000000E+00 0.  1.
         21   -1    0    0  501  502 -0.00000000000E+00 -0.00000000000E+00 -0.23469216009E+04  0.23469216009E+04  0.00000000000E+00 0.  1.
         25    1    1    2    0    0  0.21137371168E+02 -0.41046144010E+02 -0.14826804540E+03  0.19934890942E+03  0.12500000000E+03 0.  0.
         25    1    1    2    0    0 -0.24415544585E+02 -0.12485648504E+02 -0.13944320455E+04  0.14002920195E+04  0.12500000000E+03 0.  0.
         25    1    1    2    0    0  0.32781734172E+01  0.53531792515E+02 -0.76978867618E+03  0.78171350584E+03  0.12500000000E+03 0.  0.
</event>
<event>
 5    0  0.5510933E-005  0.4162173E+03  0.7546771E-02  0.1038305E+00
         21   -1    0    0  502  501  0.00000000000E+00  0.00000000000E+00  0.16882987972E+03  0.16882987972E+03  0.00000000000E+00 0. -1.
         21   -1    0    0  501  502 -0.00000000000E+00 -0.00000000000E+00 -0.10261027758E+04  0.10261027758E+04  0.00000000000E+00 0. -1.
         25    1    1    2    0    0 -0.22376944124E+02 -0.31103760805E+03 -0.31404301453E+03  0.45988382905E+03  0.12500000000E+03 0.  0.
         25    1    1    2    0    0 -0.79099851805E+02  0.86845317692E+02 -0.66089896723E+02  0.18382537967E+03  0.12500000000E+03 0.  0.
         25    1    1    2    0    0  0.10147679593E+03  0.22419229036E+03 -0.47713998478E+03  0.55122344675E+03  0.12500000000E+03 0.  0.
</event>
<event>
 5    0  0.6072993E-005  0.4565149E+03  0.7546771E-02  0.1025797E+00
         21   -1    0    0  502  501  0.00000000000E+00  0.00000000000E+00  0.60909581142E+03  0.60909581142E+03  0.00000000000E+00 0. -1.
         21   -1    0    0  501  502 -0.00000000000E+00 -0.00000000000E+00 -0.34215612861E+03  0.34215612861E+03  0.00000000000E+00 0. -1.
         25    1    1    2    0    0 -0.97601375447E+02 -0.13866494299E+03  0.29949104137E+03  0.36616100115E+03  0.12500000000E+03 0.  0.
         25    1    1    2    0    0 -0.20348116520E+03  0.32202543112E+02 -0.22218546555E+02  0.24199225646E+03  0.12500000000E+03 0.  0.
         25    1    1    2    0    0  0.30108254065E+03  0.10646239988E+03 -0.10332812004E+02  0.34309868242E+03  0.12500000000E+03 0.  0.
</event>
<event>
 5    0  0.5510933E-005  0.4567214E+03  0.7546771E-02  0.1025736E+00
         21   -1    0    0  502  501  0.00000000000E+00  0.00000000000E+00  0.23190940250E+03  0.23190940250E+03  0.00000000000E+00 0.  1.
         21   -1    0    0  501  502 -0.00000000000E+00 -0.00000000000E+00 -0.89946514797E+03  0.89946514797E+03  0.00000000000E+00 0.  1.
         25    1    1    2    0    0 -0.10753127899E+01 -0.21814566667E+03 -0.61389893587E+03  0.66338947206E+03  0.12500000000E+03 0.  0.
         25    1    1    2    0    0 -0.82912389871E+02  0.21927400923E+03  0.68172822843E+02  0.27427739479E+03  0.12500000000E+03 0.  0.
         25    1    1    2    0    0  0.83987702661E+02 -0.11283425574E+01 -0.12182963244E+03  0.19370768363E+03  0.12500000000E+03 0.  0.
</event>
<event>
 5    0  0.6656137E-005  0.3266673E+03  0.7546771E-02  0.1072621E+00
         21   -1    0    0  502  501  0.00000000000E+00  0.00000000000E+00  0.51182373613E+03  0.51182373613E+03  0.00000000000E+00 0.  1.
         21   -1    0    0  501  502 -0.00000000000E+00 -0.00000000000E+00 -0.20849266265E+03  0.20849266265E+03  0.00000000000E+00 0.  1.
         25    1    1    2    0    0 -0.13824353383E+02 -0.75322017936E+02  0.23439418715E+03  0.27646004069E+03  0.12500000000E+03 0.  0.
         25    1    1    2    0    0 -0.16354718171E+03  0.78043487962E+02  0.51899656447E+02  0.22617922318E+03  0.12500000000E+03 0.  0.
         25    1    1    2    0    0  0.17737153509E+03 -0.27214700261E+01  0.17037229891E+02  0.21767713491E+03  0.12500000000E+03 0.  0.
</event>
<event>
 5    0  0.5510933E-005  0.2636638E+03  0.7546771E-02  0.1104962E+00
         21   -1    0    0  502  501  0.00000000000E+00  0.00000000000E+00  0.21343307992E+02  0.21343307992E+02  0.00000000000E+00 0.  1.
         21   -1    0    0  501  502 -0.00000000000E+00 -0.00000000000E+00 -0.32571615160E+04  0.32571615160E+04  0.00000000000E+00 0.  1.
         25    1    1    2    0    0  0.71663049721E+02  0.93193586005E+02 -0.57512894731E+03  0.60018242493E+03  0.12500000000E+03 0.  0.
         25    1    1    2    0    0 -0.69169647714E+02  0.10930560242E+02 -0.11473110509E+04  0.11562229736E+04  0.12500000000E+03 0.  0.
         25    1    1    2    0    0 -0.24934020071E+01 -0.10412414625E+03 -0.15133782098E+04  0.15220994254E+04  0.12500000000E+03 0.  0.
</event>
<event>
 5    0  0.5510933E-005  0.3881820E+03  0.7546771E-02  0.1047950E+00
         21   -1    0    0  502  501  0.00000000000E+00  0.00000000000E+00  0.76834247318E+02  0.76834247318E+02  0.00000000000E+00 0. -1.
         21   -1    0    0  501  502 -0.00000000000E+00 -0.00000000000E+00 -0.19611727874E+04  0.19611727874E+04  0.00000000000E+00 0. -1.
         25    1    1    2    0    0  0.44843047976E+02 -0.43628967906E+02 -0.17873493611E+03  0.22690430401E+03  0.12500000000E+03 0.  0.
         25    1    1    2    0    0 -0.11963867597E+03 -0.14083570904E+03 -0.24359466346E+03  0.33032025338E+03  0.12500000000E+03 0.  0.
         25    1    1    2    0    0  0.74795627995E+02  0.18446467695E+03 -0.14620089405E+04  0.14807824773E+04  0.12500000000E+03 0.  0.
</event>
<event>
 5    0  0.5510933E-005  0.3871186E+03  0.7546771E-02  0.1048334E+00
         21   -1    0    0  502  501  0.00000000000E+00  0.00000000000E+00  0.90456572225E+02  0.90456572225E+02  0.00000000000E+00 0.  1.
         21   -1    0    0  501  502 -0.00000000000E+00 -0.00000000000E+00 -0.16567155246E+04  0.16567155246E+04  0.00000000000E+00 0.  1.
         25    1    1    2    0    0 -0.83839082668E+02  0.73256443639E+02 -0.25933853584E+03  0.30866968508E+03  0.12500000000E+03 0.  0.
         25    1    1    2    0    0 -0.17948477258E+03 -0.40662619214E+02 -0.22066958559E+03  0.31335012078E+03  0.12500000000E+03 0.  0.
         25    1    1    2    0    0  0.26332385524E+03 -0.32593824425E+02 -0.10862508309E+04  0.11251522910E+04  0.12500000000E+03 0.  0.
</event>
<event>
 5    0  0.5510933E-005  0.3072927E+03  0.7546771E-02  0.1081651E+00
         21   -1    0    0  502  501  0.00000000000E+00  0.00000000000E+00  0.13278957232E+03  0.13278957232E+03  0.00000000000E+00 0.  1.
         21   -1    0    0  501  502 -0.00000000000E+00 -0.00000000000E+00 -0.71111614618E+03  0.71111614618E+03  0.00000000000E+00 0.  1.
         25    1    1    2    0    0  0.13595880227E+03 -0.11331659353E+03 -0.74859989955E+02  0.22924760496E+03  0.12500000000E+03 0.  0.
         25    1    1    2    0    0 -0.14328688641E+03  0.76689673830E+02 -0.20996128041E+03  0.29346409859E+03  0.12500000000E+03 0.  0.
         25    1    1    2    0    0  0.73280841400E+01  0.36626919695E+02 -0.29350530350E+03  0.32119401496E+03  0.12500000000E+03 0.  0.
</event>
<event>
 5    0  0.5510933E-005  0.3095433E+03  0.7546771E-02  0.1080565E+00
         21   -1    0    0  502  501  0.00000000000E+00  0.00000000000E+00  0.63228869187E+03  0.63228869187E+03  0.00000000000E+00 0.  1.
         21   -1    0    0  501  502 -0.00000000000E+00 -0.00000000000E+00 -0.15154006309E+03  0.15154006309E+03  0.00000000000E+00 0.  1.
         25    1    1    2    0    0 -0.50761667489E+02 -0.31672067386E+02  0.25227847732E+03  0.28783553787E+03  0.12500000000E+03 0.  0.
         25    1    1    2    0    0  0.12569065515E+01  0.16132463136E+03  0.23224784239E+03  0.30917838992E+03  0.12500000000E+03 0.  0.
         25    1    1    2    0    0  0.49504760938E+02 -0.12965256398E+03 -0.37776909419E+01  0.18681482717E+03  0.12500000000E+03 0.  0.
</event>
<event>
 5    0  0.5510933E-005  0.3563143E+03  0.7546771E-02  0.1060053E+00
         21   -1    0    0  502  501  0.00000000000E+00  0.00000000000E+00  0.16716134479E+04  0.16716134479E+04  0.00000000000E+00 0. -1.
         21   -1    0    0  501  502 -0.00000000000E+00 -0.00000000000E+00 -0.75950481279E+02  0.75950481279E+02  0.00000000000E+00 0. -1.
         25    1    1    2    0    0 -0.50970489251E+01  0.11707716455E+03  0.96001488396E+03  0.97518542842E+03  0.12500000000E+03 0.  0.
         25    1    1    2    0    0 -0.16633798246E+02 -0.23409243627E+03  0.39877776391E+03  0.47929600139E+03  0.12500000000E+03 0.  0.
         25    1    1    2    0    0  0.21730847171E+02  0.11701527172E+03  0.23687031878E+03  0.29308249939E+03  0.12500000000E+03 0.  0.
</event>
<event>
 5    0  0.5510933E-005  0.4576840E+03  0.7546771E-02  0.1025455E+00
         21   -1    0    0  502  501  0.00000000000E+00  0.00000000000E+00  0.14387873644E+03  0.14387873644E+03  0.00000000000E+00 0. -1.
         21   -1    0    0  501  502 -0.00000000000E+00 -0.00000000000E+00 -0.14559112623E+04  0.14559112623E+04  0.00000000000E+00 0. -1.
         25    1    1    2    0    0  0.17133240334E+03  0.18086967796E+03 -0.60652955569E+02  0.28525850357E+03  0.12500000000E+03 0.  0.
         25    1    1    2    0    0 -0.32183999415E+02  0.10588945815E+02 -0.31330905065E+03  0.33902138106E+03  0.12500000000E+03 0.  0.
         25    1    1    2    0    0 -0.13914840393E+03 -0.19145862378E+03 -0.93807051966E+03  0.97551011414E+03  0.12500000000E+03 0.  0.
</event>
<event>
 5    0  0.8063756E-005  0.2850807E+03  0.7546771E-02  0.1092946E+00
         21   -1    0    0  502  501  0.00000000000E+00  0.00000000000E+00  0.52088355368E+03  0.52088355368E+03  0.00000000000E+00 0.  1.
         21   -1    0    0  501  502 -0.00000000000E+00 -0.00000000000E+00 -0.15602532394E+03  0.15602532394E+03  0.00000000000E+00 0.  1.
         25    1    1    2    0    0  0.84882272331E+02 -0.11712578235E+03 -0.19065050339E+02  0.19212476465E+03  0.12500000000E+03 0.  0.
         25    1    1    2    0    0 -0.86129265577E+01  0.54480144983E+02  0.17077186358E+03  0.21870139024E+03  0.12500000000E+03 0.  0.
         25    1    1    2    0    0 -0.76269345773E+02  0.62645637367E+02  0.21315141650E+03  0.26608272274E+03  0.12500000000E+03 0.  0.
</event>
<event>
 5    0  0.5510933E-005  0.2861648E+03  0.7546771E-02  0.1092369E+00
         21   -1    0    0  502  501  0.00000000000E+00  0.00000000000E+00  0.12420672714E+04  0.12420672714E+04  0.00000000000E+00 0.  1.
         21   -1    0    0  501  502 -0.00000000000E+00 -0.00000000000E+00 -0.65930645661E+02  0.65930645661E+02  0.00000000000E+00 0.  1.
         25    1    1    2    0    0  0.77662294960E+01 -0.35221204182E+02  0.13616586467E+03  0.18832681765E+03  0.12500000000E+03 0.  0.
         25    1    1    2    0    0  0.61094943408E+02 -0.12693227777E+02  0.91037105533E+03  0.92102886411E+03  0.12500000000E+03 0.  0.
         25    1    1    2    0    0 -0.68861172904E+02  0.47914431958E+02  0.12959970577E+03  0.19864223534E+03  0.12500000000E+03 0.  0.
</event>
<event>
 5    0  0.5510933E-005  0.2394076E+03  0.7546771E-02  0.1120188E+00
         21   -1    0    0  502  501  0.00000000000E+00  0.00000000000E+00  0.34607303036E+03  0.34607303036E+03  0.00000000000E+00 0. -1.
         21   -1    0    0  501  502 -0.00000000000E+00 -0.00000000000E+00 -0.16561817699E+03  0.16561817699E+03  0.00000000000E+00 0. -1.
         25    1    1    2    0    0 -0.79555523697E+02 -0.27018972079E+02  0.11772756890E+03  0.19116455394E+03  0.12500000000E+03 0.  0.
         25    1    1    2    0    0 -0.45894817067E+02  0.13436043051E+02  0.48462134176E+02  0.14233917217E+03  0.12500000000E+03 0.  0.
         25    1    1    2    0    0  0.12545034076E+03  0.13582929028E+02  0.14265150292E+02  0.17818748124E+03  0.12500000000E+03 0.  0.
</event>
<event>
 5    0  0.5510933E-005  0.3323761E+03  0.7546771E-02  0.1070090E+00
         21   -1    0    0  502  501  0.00000000000E+00  0.00000000000E+00  0.84347030977E+03  0.84347030977E+03  0.00000000000E+00 0.  1.
         21   -1    0    0  501  502 -0.00000000000E+00 -0.00000000000E+00 -0.13097544727E+03  0.13097544727E+03  0.00000000000E+00 0.  1.
         25    1    1    2    0    0  0.84751677932E+02 -0.10648244646E+03  0.25085712167E+03  0.31156966125E+03  0.12500000000E+03 0.  0.
         25    1    1    2    0    0  0.63777274814E+02  0.16278203042E+03  0.39564134653E+03  0.45024727127E+03  0.12500000000E+03 0.  0.
         25    1    1    2    0    0 -0.14852895275E+03 -0.56299583955E+02  0.65996394311E+02  0.21262882453E+03  0.12500000000E+03 0.  0.
</event>
<event>
 5    0  0.5510933E-005  0.2910526E+03  0.7546771E-02  0.1089801E+00
         21   -1    0    0  502  501  0.00000000000E+00  0.00000000000E+00  0.63384361999E+02  0.63384361999E+02  0.00000000000E+00 0. -1.
         21   -1    0    0  501  502 -0.00000000000E+00 -0.00000000000E+00 -0.13364749317E+04  0.13364749317E+04  0.00000000000E+00 0. -1.
         25    1    1    2    0    0 -0.10700855601E+03  0.20476555073E+02 -0.20123523739E+03  0.26075034254E+03  0.12500000000E+03 0.  0.
         25    1    1    2    0    0  0.36805822516E+02  0.11220815006E+03 -0.67806515190E+03  0.69953033368E+03  0.12500000000E+03 0.  0.
         25    1    1    2    0    0  0.70202733492E+02 -0.13268470513E+03 -0.39379018044E+03  0.43957861752E+03  0.12500000000E+03 0.  0.
</event>
<event>
 5    0  0.5510933E-005  0.6601051E+03  0.7546771E-02  0.9788000E-01
         21   -1    0    0  502  501  0.00000000000E+00  0.00000000000E+00  0.57805713527E+03  0.57805713527E+03  0.00000000000E+00 0.  1.
         21   -1    0    0  501  502 -0.00000000000E+00 -0.00000000000E+00 -0.75379884411E+03  0.75379884411E+03  0.00000000000E+00 0.  1.
         25    1    1    2    0    0 -0.13872360771E+03 -0.61534637944E+02  0.61218151716E+02  0.20592089040E+03  0.12500000000E+03 0.  0.
         25    1    1    2    0    0  0.28764762660E+03  0.30271473883E+03  0.28369814350E+03  0.52008365368E+03  0.12500000000E+03 0.  0.
         25    1    1    2    0    0 -0.14892401889E+03 -0.24118010089E+03 -0.52065800406E+03  0.60585143530E+03  0.12500000000E+03 0.  0.
</event>
<event>
 5    0  0.5510933E-005  0.2570162E+03  0.7546771E-02  0.1108949E+00
         21   -1    0    0  502  501  0.00000000000E+00  0.00000000000E+00  0.80115312523E+03  0.80115312523E+03  0.00000000000E+00 0.  1.
         21   -1    0    0  501  502 -0.00000000000E+00 -0.00000000000E+00 -0.82452839963E+02  0.82452839963E+02  0.00000000000E+00 0.  1.
         25    1    1    2    0    0 -0.12462263794E+03 -0.47168461000E+01  0.14244501575E+03  0.22686699415E+03  0.12500000000E+03 0.  0.
         25    1    1    2    0    0  0.51908745270E+02 -0.13968753469E+02  0.42667985413E+03  0.44785080309E+03  0.12500000000E+03 0.  0.
         25    1    1    2    0    0  0.72713892674E+02  0.18685599569E+02  0.14957541538E+03  0.20888816794E+03  0.12500000000E+03 0.  0.
</event>
<event>
 5    0  0.5510933E-005  0.3504679E+03  0.7546771E-02  0.1062423E+00
         21   -1    0    0  502  501  0.00000000000E+00  0.00000000000E+00  0.19455448210E+03  0.19455448210E+03  0.00000000000E+00 0. -1.
         21   -1    0    0  501  502 -0.00000000000E+00 -0.00000000000E+00 -0.63132840715E+03  0.63132840715E+03  0.00000000000E+00 0. -1.
         25    1    1    2    0    0 -0.74821025576E+02  0.21109718445E+03 -0.75133547554E+02  0.26726439553E+03  0.12500000000E+03 0.  0.
         25    1    1    2    0    0  0.62324007501E+02 -0.18603541726E+03 -0.74617750596E+02  0.24430773031E+03  0.12500000000E+03 0.  0.
         25    1    1    2    0    0  0.12497018075E+02 -0.25061767195E+02 -0.28702262691E+03  0.31431076340E+03  0.12500000000E+03 0.  0.
</event>
<event>
 5    0  0.5510933E-005  0.2726428E+03  0.7546771E-02  0.1099777E+00
         21   -1    0    0  502  501  0.00000000000E+00  0.00000000000E+00  0.53958335764E+03  0.53958335764E+03  0.00000000000E+00 0.  1.
         21   -1    0    0  501  502 -0.00000000000E+00 -0.00000000000E+00 -0.13776199428E+03  0.13776199428E+03  0.00000000000E+00 0.  1.
         25    1    1    2    0    0  0.23238667088E+02  0.80845347783E+02  0.12962800552E+02  0.15122513053E+03  0.12500000000E+03 0.  0.
         25    1    1    2    0    0  0.10600658120E+03 -0.52995649352E+02  0.19769456559E+03  0.26220998336E+03  0.12500000000E+03 0.  0.
         25    1    1    2    0    0 -0.12924524829E+03 -0.27849698430E+02  0.19116399721E+03  0.26391023803E+03  0.12500000000E+03 0.  0.
</event>
<event>
 5    0  0.5510933E-005  0.2888723E+03  0.7546771E-02  0.1090939E+00
         21   -1    0    0  502  501  0.00000000000E+00  0.00000000000E+00  0.20259547311E+03  0.20259547311E+03  0.00000000000E+00 0. -1.
         21   -1    0    0  501  502 -0.00000000000E+00 -0.00000000000E+00 -0.41189072993E+03  0.41189072993E+03  0.00000000000E+00 0. -1.
         25    1    1    2    0    0  0.75466649356E+02  0.15904525076E+03 -0.12508046901E+03  0.24952100249E+03  0.12500000000E+03 0.  0.
         25    1    1    2    0    0  0.37384507444E+02 -0.28687792911E+02 -0.71751569027E+02  0.15163732561E+03  0.12500000000E+03 0.  0.
         25    1    1    2    0    0 -0.11285115680E+03 -0.13035745785E+03 -0.12463218792E+02  0.21332787495E+03  0.12500000000E+03 0.  0.
</event>
<event>
 5    0  0.5510933E-005  0.2625987E+03  0.7546771E-02  0.1105592E+00
         21   -1    0    0  502  501  0.00000000000E+00  0.00000000000E+00  0.56095045037E+02  0.56095045037E+02  0.00000000000E+00 0.  1.
         21   -1    0    0  501  502 -0.00000000000E+00 -0.00000000000E+00 -0.12293079981E+04  0.12293079981E+04  0.00000000000E+00 0.  1.
         25    1    1    2    0    0  0.29326639622E+02  0.45658276404E+02 -0.54150780085E+03  0.55839092791E+03  0.12500000000E+03 0.  0.
         25    1    1    2    0    0 -0.12285830805E+03  0.42654310878E+02 -0.32546907901E+03  0.37211379373E+03  0.12500000000E+03 0.  0.
         25    1    1    2    0    0  0.93531668426E+02 -0.88312587282E+02 -0.30623607324E+03  0.35489832153E+03  0.12500000000E+03 0.  0.
</event>
<event>
 5    0  0.5510933E-005  0.2626062E+03  0.7546771E-02  0.1105587E+00
         21   -1    0    0  502  501  0.00000000000E+00  0.00000000000E+00  0.25914712352E+02  0.25914712352E+02  0.00000000000E+00 0.  1.
         21   -1    0    0  501  502 -0.00000000000E+00 -0.00000000000E+00 -0.26611135311E+04  0.26611135311E+04  0.00000000000E+00 0.  1.
         25    1    1    2    0    0  0.70538076652E+02  0.79579058921E+02 -0.17222510060E+04  0.17300525930E+04  0.12500000000E+03 0.  0.
         25    1    1    2    0    0 -0.49368125905E+02  0.20149492726E+01 -0.48331762274E+03  0.50165944258E+03  0.12500000000E+03 0.  0.
         25    1    1    2    0    0 -0.21169950747E+02 -0.81594008194E+02 -0.42963019003E+03  0.45531620789E+03  0.12500000000E+03 0.  0.
</event>
<event>
 5    0  0.5510933E-005  0.3668474E+03  0.7546771E-02  0.1055905E+00
         21   -1    0    0  502  501  0.00000000000E+00  0.00000000000E+00  0.13629716572E+03  0.13629716572E+03  0.00000000000E+00 0. -1.
         21   -1    0    0  501  502 -0.00000000000E+00 -0.00000000000E+00 -0.98737943985E+03  0.98737943985E+03  0.00000000000E+00 0. -1.
         25    1    1    2    0    0  0.17915726409E+03  0.42380879284E+02 -0.55661351044E+02  0.22938319512E+03  0.12500000000E+03 0.  0.
         25    1    1    2    0    0  0.14684543554E+02  0.10869767862E+01 -0.10130682555E+03  0.16157007842E+03  0.12500000000E+03 0.  0.
         25    1    1    2    0    0 -0.19384180764E+03 -0.43467856070E+02 -0.69411409753E+03  0.73272333203E+03  0.12500000000E+03 0.  0.
</event>
<event>
 5    0  0.5510933E-005  0.3059614E+03  0.7546771E-02  0.1082298E+00
         21   -1    0    0  502  501  0.00000000000E+00  0.00000000000E+00  0.26211245811E+03  0.26211245811E+03  0.00000000000E+00 0.  1.
         21   -1    0    0  501  502 -0.00000000000E+00 -0.00000000000E+00 -0.35714577329E+03  0.35714577329E+03  0.00000000000E+00 0.  1.
         25    1    1    2    0    0 -0.49529043805E+01  0.68185379135E+00 -0.15006599930E+03  0.19537093011E+03  0.12500000000E+03 0.  0.
         25    1    1    2    0    0  0.11736154911E+03  0.75527588545E+02  0.12638326941E+03  0.22599973590E+03  0.12500000000E+03 0.  0.
         25    1    1    2    0    0 -0.11240864473E+03 -0.76209442336E+02 -0.71350585294E+02  0.19788756538E+03  0.12500000000E+03 0.  0.
</event>
<event>
 5    0  0.5510933E-005  0.3663826E+03  0.7546771E-02  0.1056085E+00
         21   -1    0    0  502  501  0.00000000000E+00  0.00000000000E+00  0.13879975103E+04  0.13879975103E+04  0.00000000000E+00 0.  1.
         21   -1    0    0  501  502 -0.00000000000E+00 -0.00000000000E+00 -0.96712165060E+02  0.96712165060E+02  0.00000000000E+00 0.  1.
         25    1    1    2    0    0  0.19905023502E+03  0.15358692746E+03  0.61093425700E+03  0.67236567932E+03  0.12500000000E+03 0.  0.
         25    1    1    2    0    0  0.39493632360E+02 -0.47307387412E+01  0.15069290845E+03  0.19978858712E+03  0.12500000000E+03 0.  0.
         25    1    1    2    0    0 -0.23854386738E+03 -0.14885618872E+03  0.52965817981E+03  0.61255540894E+03  0.12500000000E+03 0.  0.
</event>
<event>
 5    0  0.5510933E-005  0.2088481E+03  0.7546771E-02  0.1142481E+00
         21   -1    0    0  502  501  0.00000000000E+00  0.00000000000E+00  0.11343554631E+03  0.11343554631E+03  0.00000000000E+00 0.  1.
         21   -1    0    0  501  502 -0.00000000000E+00 -0.00000000000E+00 -0.38451380332E+03  0.38451380332E+03  0.00000000000E+00 0.  1.
         25    1    1    2    0    0  0.97919704388E+01  0.93353377971E+01 -0.91245877278E+02  0.15535070433E+03  0.12500000000E+03 0.  0.
         25    1    1    2    0    0 -0.56382884746E+02 -0.49584982022E+02 -0.56053207140E+02  0.15621991603E+03  0.12500000000E+03 0.  0.
         25    1    1    2    0    0  0.46590914307E+02  0.40249644225E+02 -0.12377917259E+03  0.18637872927E+03  0.12500000000E+03 0.  0.
</event>
<event>
 5    0  0.5510933E-005  0.3156660E+03  0.7546771E-02  0.1077661E+00
         21   -1    0    0  502  501  0.00000000000E+00  0.00000000000E+00  0.66365442406E+03  0.66365442406E+03  0.00000000000E+00 0. -1.
         21   -1    0    0  501  502 -0.00000000000E+00 -0.00000000000E+00 -0.15014590358E+03  0.15014590358E+03  0.00000000000E+00 0. -1.
         25    1    1    2    0    0 -0.11933053645E+03  0.53964321881E+02  0.26127920926E+03  0.31787379596E+03  0.12500000000E+03 0.  0.
         25    1    1    2    0    0 -0.10379140609E+02  0.48150969237E+02  0.25567840860E+03  0.28882986518E+03  0.12500000000E+03 0.  0.
         25    1    1    2    0    0  0.12970967706E+03 -0.10211529112E+03 -0.34490973758E+01  0.20709666650E+03  0.12500000000E+03 0.  0.
</event>
<event>
 5    0  0.5510933E-005  0.3000583E+03  0.7546771E-02  0.1085211E+00
         21   -1    0    0  502  501  0.00000000000E+00  0.00000000000E+00  0.13434863298E+03  0.13434863298E+03  0.00000000000E+00 0.  1.
         21   -1    0    0  501  502 -0.00000000000E+00 -0.00000000000E+00 -0.67015908772E+03  0.67015908772E+03  0.00000000000E+00 0.  1.
         25    1    1    2    0    0  0.94088925593E+02  0.11753213391E+03 -0.12050523835E+03  0.22981088071E+03  0.12500000000E+03 0.  0.
         25    1    1    2    0    0  0.72366167351E+02 -0.21212094316E+02 -0.25842893655E+03  0.29681194445E+03  0.12500000000E+03 0.  0.
         25    1    1    2    0    0 -0.16645509294E+03 -0.96320039597E+02 -0.15687627984E+03  0.27788489554E+03  0.12500000000E+03 0.  0.
</event>
<event>
 5    0  0.5510933E-005  0.2283492E+03  0.7546771E-02  0.1127807E+00
         21   -1    0    0  502  501  0.00000000000E+00  0.00000000000E+00  0.50681573005E+03  0.50681573005E+03  0.00000000000E+00 0. -1.
         21   -1    0    0  501  502 -0.00000000000E+00 -0.00000000000E+00 -0.10288425255E+03  0.10288425255E+03  0.00000000000E+00 0. -1.
         25    1    1    2    0    0  0.75955210138E-01  0.88484931944E+02  0.12463548388E+03  0.19745529315E+03  0.12500000000E+03 0.  0.
         25    1    1    2    0    0 -0.65272865294E+02 -0.67457632111E+02  0.11113307809E+03  0.19179843618E+03  0.12500000000E+03 0.  0.
         25    1    1    2    0    0  0.65196910084E+02 -0.21027299833E+02  0.16816291553E+03  0.22044625328E+03  0.12500000000E+03 0.  0.
</event>
<event>
 5    0  0.5510933E-005  0.2403109E+03  0.7546771E-02  0.1119586E+00
         21   -1    0    0  502  501  0.00000000000E+00  0.00000000000E+00  0.61844477075E+03  0.61844477075E+03  0.00000000000E+00 0. -1.
         21   -1    0    0  501  502 -0.00000000000E+00 -0.00000000000E+00 -0.93378337850E+02  0.93378337850E+02  0.00000000000E+00 0. -1.
         25    1    1    2    0    0 -0.34494057023E+02  0.79240221167E+02  0.13178410421E+03  0.20114895660E+03  0.12500000000E+03 0.  0.
         25    1    1    2    0    0 -0.13775985171E+02  0.50974687607E+02  0.13072175377E+03  0.18841808155E+03  0.12500000000E+03 0.  0.
         25    1    1    2    0    0  0.48270042194E+02 -0.13021490877E+03  0.26256057491E+03  0.32225607045E+03  0.12500000000E+03 0.  0.
</event>
<event>
 5    0  0.5510933E-005  0.3036865E+03  0.7546771E-02  0.1083412E+00
         21   -1    0    0  502  501  0.00000000000E+00  0.00000000000E+00  0.37115363236E+03  0.37115363236E+03  0.00000000000E+00 0. -1.
         21   -1    0    0  501  502 -0.00000000000E+00 -0.00000000000E+00 -0.24848332728E+03  0.24848332728E+03  0.00000000000E+00 0. -1.
         25    1    1    2    0    0 -0.13697164457E+03 -0.75941012083E+02  0.13090075773E+03  0.23934969628E+03  0.12500000000E+03 0.  0.
         25    1    1    2    0    0 -0.15873935670E+02  0.12419876340E+03 -0.23716557569E+01  0.17694049682E+03  0.12500000000E+03 0.  0.
         25    1    1    2    0    0  0.15284558024E+03 -0.48257751321E+02 -0.58587969033E+01  0.20334676654E+03  0.12500000000E+03 0.  0.
</event>
<event>
 5    0  0.8001995E-005  0.2736387E+03  0.7546771E-02  0.1099215E+00
         21   -1    0    0  502  501  0.00000000000E+00  0.00000000000E+00  0.48346034652E+03  0.48346034652E+03  0.00000000000E+00 0. -1.
         21   -1    0    0  501  502 -0.00000000000E+00 -0.00000000000E+00 -0.15487953979E+03  0.15487953979E+03  0.00000000000E+00 0. -1.
         25    1    1    2    0    0  0.90642510711E+02 -0.33140986345E+02  0.14785211414E+03  0.21633223842E+03  0.12500000000E+03 0.  0.
         25    1    1    2    0    0 -0.17136618908E+03  0.65096740451E+02  0.14690678401E+03  0.26610253582E+03  0.12500000000E+03 0.  0.
         25    1    1    2    0    0  0.80723678374E+02 -0.31955754107E+02  0.33821908574E+02  0.15590511207E+03  0.12500000000E+03 0.  0.
</event>
<event>
 5    0  0.5510933E-005  0.3079653E+03  0.7546771E-02  0.1081325E+00
         21   -1    0    0  502  501  0.00000000000E+00  0.00000000000E+00  0.51464835205E+03  0.51464835205E+03  0.00000000000E+00 0. -1.
         21   -1    0    0  501  502 -0.00000000000E+00 -0.00000000000E+00 -0.18428624215E+03  0.18428624215E+03  0.00000000000E+00 0. -1.
         25    1    1    2    0    0 -0.15860485995E+02  0.12710200950E+03  0.90960365422E+02  0.20076170928E+03  0.12500000000E+03 0.  0.
         25    1    1    2    0    0  0.27294434842E+01 -0.12248192621E+03  0.30848293518E+03  0.35467730884E+03  0.12500000000E+03 0.  0.
         25    1    1    2    0    0  0.13131042511E+02 -0.46200832938E+01 -0.69081190692E+02  0.14349557608E+03  0.12500000000E+03 0.  0.
</event>
<event>
 5    0  0.5510933E-005  0.2394884E+03  0.7546771E-02  0.1120134E+00
         21   -1    0    0  502  501  0.00000000000E+00  0.00000000000E+00  0.28170626442E+03  0.28170626442E+03  0.00000000000E+00 0.  1.
         21   -1    0    0  501  502 -0.00000000000E+00 -0.00000000000E+00 -0.20359750065E+03  0.20359750065E+03  0.00000000000E+00 0.  1.
         25    1    1    2    0    0 -0.33803470020E+02 -0.56632308885E+02  0.83671255362E+02  0.16424302715E+03  0.12500000000E+03 0.  0.
         25    1    1    2    0    0  0.85744605655E+01 -0.66458609270E+02 -0.20024332415E+02  0.14323491896E+03  0.12500000000E+03 0.  0.
         25    1    1    2    0    0  0.25229009454E+02  0.12309091816E+03  0.14461840826E+02  0.17782581896E+03  0.12500000000E+03 0.  0.
</event>
<event>
 5    0  0.5510933E-005  0.4385840E+03  0.7546771E-02  0.1031182E+00
         21   -1    0    0  502  501  0.00000000000E+00  0.00000000000E+00  0.15988008357E+03  0.15988008357E+03  0.00000000000E+00 0.  1.
         21   -1    0    0  501  502 -0.00000000000E+00 -0.00000000000E+00 -0.12031263292E+04  0.12031263292E+04  0.00000000000E+00 0.  1.
         25    1    1    2    0    0 -0.71304810944E+02  0.11342458937E+03 -0.53545999259E+03  0.56594338693E+03  0.12500000000E+03 0.  0.
         25    1    1    2    0    0  0.21300547299E+03 -0.18507590330E+03 -0.72310960543E+02  0.31698311709E+03  0.12500000000E+03 0.  0.
         25    1    1    2    0    0 -0.14170066204E+03  0.71651313937E+02 -0.43547529251E+03  0.48007990876E+03  0.12500000000E+03 0.  0.
</event>
<event>
 5    0  0.5510933E-005  0.2883124E+03  0.7546771E-02  0.1091234E+00
         21   -1    0    0  502  501  0.00000000000E+00  0.00000000000E+00  0.22136080963E+03  0.22136080963E+03  0.00000000000E+00 0.  1.
         21   -1    0    0  501  502 -0.00000000000E+00 -0.00000000000E+00 -0.37551389870E+03  0.37551389870E+03  0.00000000000E+00 0.  1.
         25    1    1    2    0    0  0.24519834228E+02 -0.12416348619E+03 -0.20314961380E+03  0.27002325671E+03  0.12500000000E+03 0.  0.
         25    1    1    2    0    0 -0.97314607172E+01  0.14626485584E+03  0.86704329112E+01  0.19284264515E+03  0.12500000000E+03 0.  0.
         25    1    1    2    0    0 -0.14788373510E+02 -0.22101369653E+02  0.40326091826E+02  0.13400880648E+03  0.12500000000E+03 0.  0.
</event>
<event>
 5    0  0.5510933E-005  0.4222852E+03  0.7546771E-02  0.1036325E+00
         21   -1    0    0  502  501  0.00000000000E+00  0.00000000000E+00  0.70033783941E+02  0.70033783941E+02  0.00000000000E+00 0.  1.
         21   -1    0    0  501  502 -0.00000000000E+00 -0.00000000000E+00 -0.25462677700E+04  0.25462677700E+04  0.00000000000E+00 0.  1.
         25    1    1    2    0    0  0.31656093433E+02 -0.22391128139E+03 -0.74543910639E+03  0.78895046202E+03  0.12500000000E+03 0.  0.
         25    1    1    2    0    0 -0.47555910762E+02  0.27195450279E+02 -0.14735642151E+04  0.14798708231E+04  0.12500000000E+03 0.  0.
         25    1    1    2    0    0  0.15899817328E+02  0.19671583111E+03 -0.25723066460E+03  0.34748026881E+03  0.12500000000E+03 0.  0.
</event>
<event>
 5    0  0.5510933E-005  0.2576638E+03  0.7546771E-02  0.1108555E+00
         21   -1    0    0  502  501  0.00000000000E+00  0.00000000000E+00  0.35992690413E+03  0.35992690413E+03  0.00000000000E+00 0.  1.
         21   -1    0    0  501  502 -0.00000000000E+00 -0.00000000000E+00 -0.18445589547E+03  0.18445589547E+03  0.00000000000E+00 0.  1.
         25    1    1    2    0    0  0.71085406324E+01  0.13651452066E+03  0.12189402395E+03  0.22174286635E+03  0.12500000000E+03 0.  0.
         25    1    1    2    0    0  0.57701670954E+01 -0.65744052346E+02  0.97689209996E+02  0.17182478575E+03  0.12500000000E+03 0.  0.
         25    1    1    2    0    0 -0.12878707728E+02 -0.70770468317E+02 -0.44112225284E+02  0.15081514751E+03  0.12500000000E+03 0.  0.
</event>
<event>
 5    0  0.5510933E-005  0.2631605E+03  0.7546771E-02  0.1105259E+00
         21   -1    0    0  502  501  0.00000000000E+00  0.00000000000E+00  0.24107959659E+03  0.24107959659E+03  0.00000000000E+00 0. -1.
         21   -1    0    0  501  502 -0.00000000000E+00 -0.00000000000E+00 -0.28726383864E+03  0.28726383864E+03  0.00000000000E+00 0. -1.
         25    1    1    2    0    0  0.12269448110E+03 -0.17927788909E+02 -0.60712695897E+02  0.18624277906E+03  0.12500000000E+03 0.  0.
         25    1    1    2    0    0  0.18177012088E+02  0.51388728108E+01 -0.59011110657E+02  0.13951388090E+03  0.12500000000E+03 0.  0.
         25    1    1    2    0    0 -0.14087149319E+03  0.12788916098E+02  0.73539564505E+02  0.20258677528E+03  0.12500000000E+03 0.  0.
</event>
<event>
 5    0  0.5510933E-005  0.2648207E+03  0.7546771E-02  0.1104281E+00
         21   -1    0    0  502  501  0.00000000000E+00  0.00000000000E+00  0.13717996914E+03  0.13717996914E+03  0.00000000000E+00 0.  1.
         21   -1    0    0  501  502 -0.00000000000E+00 -0.00000000000E+00 -0.51122630140E+03  0.51122630140E+03  0.00000000000E+00 0.  1.
         25    1    1    2    0    0  0.57953332888E+02  0.94252688330E+02 -0.23662681256E+03  0.28958488647E+03  0.12500000000E+03 0.  0.
         25    1    1    2    0    0  0.49644987913E+02 -0.64016745852E+02 -0.12024586961E+02  0.14944015279E+03  0.12500000000E+03 0.  0.
         25    1    1    2    0    0 -0.10759832080E+03 -0.30235942477E+02 -0.12539493274E+03  0.20938123128E+03  0.12500000000E+03 0.  0.
</event>
<event>
 5    0  0.5510933E-005  0.4111384E+03  0.7546771E-02  0.1039990E+00
         21   -1    0    0  502  501  0.00000000000E+00  0.00000000000E+00  0.98713842965E+02  0.98713842965E+02  0.00000000000E+00 0.  1.
         21   -1    0    0  501  502 -0.00000000000E+00 -0.00000000000E+00 -0.17123716836E+04  0.17123716836E+04  0.00000000000E+00 0.  1.
         25    1    1    2    0    0  0.13555545919E+03  0.48232327459E+02 -0.59554397590E+03  0.62529934204E+03  0.12500000000E+03 0.  0.
         25    1    1    2    0    0 -0.76166193053E+02  0.62150537943E+02 -0.68787041273E+01  0.15917378836E+03  0.12500000000E+03 0.  0.
         25    1    1    2    0    0 -0.59389266133E+02 -0.11038286540E+03 -0.10112351606E+04  0.10266123961E+04  0.12500000000E+03 0.  0.
</event>
<event>
 5    0  0.5510933E-005  0.4110829E+03  0.7546771E-02  0.1040008E+00
         21   -1    0    0  502  501  0.00000000000E+00  0.00000000000E+00  0.10811530680E+04  0.10811530680E+04  0.00000000000E+00 0. -1.
         21   -1    0    0  501  502 -0.00000000000E+00 -0.00000000000E+00 -0.15630459235E+03  0.15630459235E+03  0.00000000000E+00 0. -1.
         25    1    1    2    0    0  0.77703759539E+02 -0.15257301251E+03  0.21347119442E+03  0.30085104161E+03  0.12500000000E+03 0.  0.
         25    1    1    2    0    0 -0.26128041295E+03 -0.63671257965E+02  0.30382534650E+03  0.42456604252E+03  0.12500000000E+03 0.  0.
         25    1    1    2    0    0  0.18357665342E+03  0.21624427047E+03  0.40755193476E+03  0.51204057624E+03  0.12500000000E+03 0.  0.
</event>
<event>
 5    0  0.5510933E-005  0.3394755E+03  0.7546771E-02  0.1067020E+00
         21   -1    0    0  502  501  0.00000000000E+00  0.00000000000E+00  0.96991652985E+03  0.96991652985E+03  0.00000000000E+00 0.  1.
         21   -1    0    0  501  502 -0.00000000000E+00 -0.00000000000E+00 -0.11881808918E+03  0.11881808918E+03  0.00000000000E+00 0.  1.
         25    1    1    2    0    0  0.11140464188E+03  0.54743411237E+02  0.28462584628E+03  0.33473079882E+03  0.12500000000E+03 0.  0.
         25    1    1    2    0    0 -0.22042267325E+03  0.56643025613E+02  0.45846283640E+03  0.52688495859E+03  0.12500000000E+03 0.  0.
         25    1    1    2    0    0  0.10901803137E+03 -0.11138643685E+03  0.10800975799E+03  0.22711886161E+03  0.12500000000E+03 0.  0.
</event>
<event>
 5    0  0.5510933E-005  0.3729785E+03  0.7546771E-02  0.1053560E+00
         21   -1    0    0  502  501  0.00000000000E+00  0.00000000000E+00  0.29593196173E+03  0.29593196173E+03  0.00000000000E+00 0. -1.
         21   -1    0    0  501  502 -0.00000000000E+00 -0.00000000000E+00 -0.47008426889E+03  0.47008426889E+03  0.00000000000E+00 0. -1.
         25    1    1    2    0    0 -0.16321383473E+03  0.39314407106E+02 -0.36132991651E+02  0.21240285200E+03  0.12500000000E+03 0.  0.
         25    1    1    2    0    0  0.18253079170E+03 -0.71584674992E+02 -0.27785943307E+03  0.36231577409E+03  0.12500000000E+03 0.  0.
         25    1    1    2    0    0 -0.19316956965E+02  0.32270267886E+02  0.13984011757E+03  0.19129760452E+03  0.12500000000E+03 0.  0.
</event>
<event>
 5    0  0.5510933E-005  0.2846975E+03  0.7546771E-02  0.1093151E+00
         21   -1    0    0  502  501  0.00000000000E+00  0.00000000000E+00  0.56152020235E+03  0.56152020235E+03  0.00000000000E+00 0. -1.
         21   -1    0    0  501  502 -0.00000000000E+00 -0.00000000000E+00 -0.14434506522E+03  0.14434506522E+03  0.00000000000E+00 0. -1.
         25    1    1    2    0    0 -0.25203967924E+02 -0.13840184168E+03  0.20926250904E+03  0.28143579636E+03  0.12500000000E+03 0.  0.
         25    1    1    2    0    0 -0.10246262954E+03  0.42797058911E+02  0.87478547368E+02  0.18869996013E+03  0.12500000000E+03 0.  0.
         25    1    1    2    0    0  0.12766659747E+03  0.95604782773E+02  0.12043408072E+03  0.23572951109E+03  0.12500000000E+03 0.  0.
</event>
<event>
 5    0  0.5510933E-005  0.3438891E+03  0.7546771E-02  0.1065152E+00
         21   -1    0    0  502  501  0.00000000000E+00  0.00000000000E+00  0.37986187071E+03  0.37986187071E+03  0.00000000000E+00 0. -1.
         21   -1    0    0  501  502 -0.00000000000E+00 -0.00000000000E+00 -0.31132296768E+03  0.31132296768E+03  0.00000000000E+00 0. -1.
         25    1    1    2    0    0 -0.82514019950E+02 -0.11949193625E+03 -0.16808174272E+03  0.25487910576E+03  0.12500000000E+03 0.  0.
         25    1    1    2    0    0  0.13075956940E+03  0.13822133716E+03  0.17742957779E+03  0.28863377853E+03  0.12500000000E+03 0.  0.
         25    1    1    2    0    0 -0.48245549445E+02 -0.18729400915E+02  0.59191067967E+02  0.14767195410E+03  0.12500000000E+03 0.  0.
</event>
<event>
 5    0  0.5510933E-005  0.4111105E+03  0.7546771E-02  0.1039999E+00
         21   -1    0    0  502  501  0.00000000000E+00  0.00000000000E+00  0.10836785908E+04  0.10836785908E+04  0.00000000000E+00 0.  1.
         21   -1    0    0  501  502 -0.00000000000E+00 -0.00000000000E+00 -0.15596122912E+03  0.15596122912E+03  0.00000000000E+00 0.  1.
         25    1    1    2    0    0 -0.53207923782E+02 -0.81962948288E+02  0.63738979780E+03  0.65684074355E+03  0.12500000000E+03 0.  0.
         25    1    1    2    0    0  0.79500336539E+02 -0.14350133492E+03  0.24411281496E+03  0.31957628676E+03  0.12500000000E+03 0.  0.
         25    1    1    2    0    0 -0.26292412757E+02  0.22546428321E+03  0.46214748969E+02  0.26322278966E+03  0.12500000000E+03 0.  0.
</event>
<event>
 5    0  0.5510933E-005  0.2669348E+03  0.7546771E-02  0.1103047E+00
         21   -1    0    0  502  501  0.00000000000E+00  0.00000000000E+00  0.96736644309E+03  0.96736644309E+03  0.00000000000E+00 0. -1.
         21   -1    0    0  501  502 -0.00000000000E+00 -0.00000000000E+00 -0.73657922768E+02  0.73657922768E+02  0.00000000000E+00 0. -1.
         25    1    1    2    0    0  0.26760971337E+02 -0.15085425813E+02  0.44251269296E+03  0.46085377625E+03  0.12500000000E+03 0.  0.
         25    1    1    2    0    0 -0.35286744536E+02 -0.38219753283E+02  0.31592421498E+02  0.13902871997E+03  0.12500000000E+03 0.  0.
         25    1    1    2    0    0  0.85257731992E+01  0.53305179096E+02  0.41960340587E+03  0.44114186963E+03  0.12500000000E+03 0.  0.
</event>
<event>
 5    0  0.5771754E-005  0.3313520E+03  0.7546771E-02  0.1070540E+00
         21   -1    0    0  502  501  0.00000000000E+00  0.00000000000E+00  0.19443807577E+03  0.19443807577E+03  0.00000000000E+00 0. -1.
         21   -1    0    0  501  502 -0.00000000000E+00 -0.00000000000E+00 -0.56467422714E+03  0.56467422714E+03  0.00000000000E+00 0. -1.
         25    1    1    2    0    0  0.63213671012E+02 -0.16490074934E+03  0.15475887416E+02  0.21691640884E+03  0.12500000000E+03 0.  0.
         25    1    1    2    0    0 -0.29570892918E+02 -0.10784387140E+02 -0.26038235023E+03  0.29054209510E+03  0.12500000000E+03 0.  0.
         25    1    1    2    0    0 -0.33642778094E+02  0.17568513648E+03 -0.12532968856E+03  0.25165379896E+03  0.12500000000E+03 0.  0.
</event>
<event>
 5    0  0.5510933E-005  0.3088035E+03  0.7546771E-02  0.1080921E+00
         21   -1    0    0  502  501  0.00000000000E+00  0.00000000000E+00  0.92822903131E+02  0.92822903131E+02  0.00000000000E+00 0.  1.
         21   -1    0    0  501  502 -0.00000000000E+00 -0.00000000000E+00 -0.10273282587E+04  0.10273282587E+04  0.00000000000E+00 0.  1.
         25    1    1    2    0    0 -0.33536835685E+02 -0.71967982858E+02 -0.61123239685E+03  0.62891506014E+03  0.12500000000E+03 0.  0.
         25    1    1    2    0    0  0.28138467076E+01 -0.88977384419E+02 -0.82231494213E+02  0.17410316284E+03  0.12500000000E+03 0.  0.
         25    1    1    2    0    0  0.30722988978E+02  0.16094536728E+03 -0.24104146453E+03  0.31713293888E+03  0.12500000000E+03 0.  0.
</event>
<event>
 5    0  0.5510933E-005  0.2755336E+03  0.7546771E-02  0.1098154E+00
         21   -1    0    0  502  501  0.00000000000E+00  0.00000000000E+00  0.73831933501E+03  0.73831933501E+03  0.00000000000E+00 0. -1.
         21   -1    0    0  501  502 -0.00000000000E+00 -0.00000000000E+00 -0.10282649006E+03  0.10282649006E+03  0.00000000000E+00 0. -1.
         25    1    1    2    0    0 -0.16055650313E+03  0.67399538275E+02  0.20127164792E+03  0.29403463183E+03  0.12500000000E+03 0.  0.
         25    1    1    2    0    0  0.61720225724E+02 -0.50613529262E+02  0.31242740592E+03  0.34584244907E+03  0.12500000000E+03 0.  0.
         25    1    1    2    0    0  0.98836277408E+02 -0.16786009013E+02  0.12179379111E+03  0.20126874418E+03  0.12500000000E+03 0.  0.
</event>
<event>
 5    0  0.5510933E-005  0.2624579E+03  0.7546771E-02  0.1105675E+00
         21   -1    0    0  502  501  0.00000000000E+00  0.00000000000E+00  0.34837277594E+03  0.34837277594E+03  0.00000000000E+00 0.  1.
         21   -1    0    0  501  502 -0.00000000000E+00 -0.00000000000E+00 -0.19773121946E+03  0.19773121946E+03  0.00000000000E+00 0.  1.
         25    1    1    2    0    0  0.87729363724E+02  0.81529874182E+02  0.10517294190E+03  0.20255840973E+03  0.12500000000E+03 0.  0.
         25    1    1    2    0    0 -0.35521051233E+02  0.59737785922E+02  0.19111818792E+01  0.14303496343E+03  0.12500000000E+03 0.  0.
         25    1    1    2    0    0 -0.52208312490E+02 -0.14126766010E+03  0.43557432701E+02  0.20051062223E+03  0.12500000000E+03 0.  0.
</event>
<event>
 5    0  0.5510933E-005  0.2551600E+03  0.7546771E-02  0.1110087E+00
         21   -1    0    0  502  501  0.00000000000E+00  0.00000000000E+00  0.18454785817E+04  0.18454785817E+04  0.00000000000E+00 0. -1.
         21   -1    0    0  501  502 -0.00000000000E+00 -0.00000000000E+00 -0.35279004816E+02  0.35279004816E+02  0.00000000000E+00 0. -1.
         25    1    1    2    0    0 -0.97142762611E+02 -0.58817726212E+02  0.39331759004E+03  0.42804201649E+03  0.12500000000E+03 0.  0.
         25    1    1    2    0    0  0.98671340276E+02  0.59340073720E+02  0.51760023204E+03  0.54478645169E+03  0.12500000000E+03 0.  0.
         25    1    1    2    0    0 -0.15285776645E+01 -0.52234750828E+00  0.89928175485E+03  0.90792911838E+03  0.12500000000E+03 0.  0.
</event>
<event>
 5    0  0.5510933E-005  0.4330804E+03  0.7546771E-02  0.1032891E+00
         21   -1    0    0  502  501  0.00000000000E+00  0.00000000000E+00  0.64717052124E+03  0.64717052124E+03  0.00000000000E+00 0. -1.
         21   -1    0    0  501  502 -0.00000000000E+00 -0.00000000000E+00 -0.28981335548E+03  0.28981335548E+03  0.00000000000E+00 0. -1.
         25    1    1    2    0    0 -0.43559132359E+02  0.90487830430E+02 -0.17275877401E+03  0.23570328692E+03  0.12500000000E+03 0.  0.
         25    1    1    2    0    0 -0.11455574161E+03 -0.84089227180E+02  0.44276076069E+03  0.48151438948E+03  0.12500000000E+03 0.  0.
         25    1    1    2    0    0  0.15811487397E+03 -0.63986032502E+01  0.87355179071E+02  0.21976620033E+03  0.12500000000E+03 0.  0.
</event>
<event>
 5    0  0.5510933E-005  0.2389347E+03  0.7546771E-02  0.1120505E+00
         21   -1    0    0  502  501  0.00000000000E+00  0.00000000000E+00  0.22368087840E+03  0.22368087840E+03  0.00000000000E+00 0.  1.
         21   -1    0    0  501  502 -0.00000000000E+00 -0.00000000000E+00 -0.25522873235E+03  0.25522873235E+03  0.00000000000E+00 0.  1.
         25    1    1    2    0    0  0.56816902398E+02  0.22997662819E+02 -0.13441564207E+03  0.19351903712E+03  0.12500000000E+03 0.  0.
         25    1    1    2    0    0 -0.37832702289E+02 -0.31162124810E+02  0.24695744954E+02  0.13651839145E+03  0.12500000000E+03 0.  0.
         25    1    1    2    0    0 -0.18984200109E+02  0.81644619908E+01  0.78172043169E+02  0.14887218218E+03  0.12500000000E+03 0.  0.
</event>
<event>
 5    0  0.5510933E-005  0.5104906E+03  0.7546771E-02  0.1011076E+00
         21   -1    0    0  502  501  0.00000000000E+00  0.00000000000E+00  0.27156461682E+03  0.27156461682E+03  0.00000000000E+00 0.  1.
         21   -1    0    0  501  502 -0.00000000000E+00 -0.00000000000E+00 -0.95962660677E+03  0.95962660677E+03  0.00000000000E+00 0.  1.
         25    1    1    2    0    0 -0.31393525565E+03 -0.69350276734E+01 -0.49124018134E+02  0.34152834217E+03  0.12500000000E+03 0.  0.
         25    1    1    2    0    0 -0.74028585065E+02  0.12234018300E+03 -0.25485704911E+03  0.31784346346E+03  0.12500000000E+03 0.  0.
         25    1    1    2    0    0  0.38796384071E+03 -0.11540515533E+03 -0.38408092271E+03  0.57181941797E+03  0.12500000000E+03 0.  0.
</event>
<event>
 5    0  0.5510933E-005  0.2140650E+03  0.7546771E-02  0.1138387E+00
         21   -1    0    0  502  501  0.00000000000E+00  0.00000000000E+00  0.75557383369E+03  0.75557383369E+03  0.00000000000E+00 0. -1.
         21   -1    0    0  501  502 -0.00000000000E+00 -0.00000000000E+00 -0.60647698756E+02  0.60647698756E+02  0.00000000000E+00 0. -1.
         25    1    1    2    0    0 -0.29528585024E+02  0.63250481793E+01  0.15175587398E+03  0.19891402378E+03  0.12500000000E+03 0.  0.
         25    1    1    2    0    0 -0.55134516754E+02  0.18032583548E+02  0.29855794266E+03  0.32882644987E+03  0.12500000000E+03 0.  0.
         25    1    1    2    0    0  0.84663101778E+02 -0.24357631727E+02  0.24461231829E+03  0.28848105880E+03  0.12500000000E+03 0.  0.
</event>
<event>
 5    0  0.5510933E-005  0.2425723E+03  0.7546771E-02  0.1118091E+00
         21   -1    0    0  502  501  0.00000000000E+00  0.00000000000E+00  0.19791412051E+03  0.19791412051E+03  0.00000000000E+00 0.  1.
         21   -1    0    0  501  502 -0.00000000000E+00 -0.00000000000E+00 -0.29730743056E+03  0.29730743056E+03  0.00000000000E+00 0.  1.
         25    1    1    2    0    0  0.13430147985E+02 -0.31402267167E+02 -0.13525869151E+03  0.18731360038E+03  0.12500000000E+03 0.  0.
         25    1    1    2    0    0  0.28864086670E+02  0.37269927676E+02  0.94244462095E+02  0.16349067754E+03  0.12500000000E+03 0.  0.
         25    1    1    2    0    0 -0.42294234654E+02 -0.58676605089E+01 -0.58379080631E+02  0.14441727314E+03  0.12500000000E+03 0.  0.
</event>
<event>
 5    0  0.5510933E-005  0.2963775E+03  0.7546771E-02  0.1087066E+00
         21   -1    0    0  502  501  0.00000000000E+00  0.00000000000E+00  0.18037560131E+04  0.18037560131E+04  0.00000000000E+00 0. -1.
         21   -1    0    0  501  502 -0.00000000000E+00 -0.00000000000E+00 -0.48698162649E+02  0.48698162649E+02  0.00000000000E+00 0. -1.
         25    1    1    2    0    0  0.77521774072E+02  0.13739389534E+02  0.24655324288E+03  0.28742285548E+03  0.12500000000E+03 0.  0.
         25    1    1    2    0    0 -0.81653197436E+02 -0.16323073496E+03  0.84675906194E+03  0.87517851120E+03  0.12500000000E+03 0.  0.
         25    1    1    2    0    0  0.41314233640E+01  0.14949134542E+03  0.66174554565E+03  0.68985280909E+03  0.12500000000E+03 0.  0.
</event>
<event>
 5    0  0.5510933E-005  0.3592079E+03  0.7546771E-02  0.1058898E+00
         21   -1    0    0  502  501  0.00000000000E+00  0.00000000000E+00  0.54211944697E+03  0.54211944697E+03  0.00000000000E+00 0. -1.
         21   -1    0    0  501  502 -0.00000000000E+00 -0.00000000000E+00 -0.23801088518E+03  0.23801088518E+03  0.00000000000E+00 0. -1.
         25    1    1    2    0    0  0.64521933642E+02  0.63919204635E+02 -0.98426085646E+02  0.18319781379E+03  0.12500000000E+03 0.  0.
         25    1    1    2    0    0 -0.17068912390E+03 -0.76743710403E+02  0.36403605143E+03  0.42798553813E+03  0.12500000000E+03 0.  0.
         25    1    1    2    0    0  0.10616719026E+03  0.12824505768E+02  0.38498596013E+02  0.16894698024E+03  0.12500000000E+03 0.  0.
</event>
<event>
 5    0  0.5510933E-005  0.3344350E+03  0.7546771E-02  0.1069191E+00
         21   -1    0    0  502  501  0.00000000000E+00  0.00000000000E+00  0.47638568112E+03  0.47638568112E+03  0.00000000000E+00 0.  1.
         21   -1    0    0  501  502 -0.00000000000E+00 -0.00000000000E+00 -0.23478199775E+03  0.23478199775E+03  0.00000000000E+00 0.  1.
         25    1    1    2    0    0 -0.27725317605E+02  0.11106003335E+03  0.16550245387E+03  0.23689467381E+03  0.12500000000E+03 0.  0.
         25    1    1    2    0    0  0.11637371908E+02 -0.12977636197E+02 -0.15090098352E+03  0.19672303956E+03  0.12500000000E+03 0.  0.
         25    1    1    2    0    0  0.16087945696E+02 -0.98082397151E+02  0.22700221302E+03  0.27754996549E+03  0.12500000000E+03 0.  0.
</event>
<event>
 5    0  0.5510933E-005  0.2942623E+03  0.7546771E-02  0.1088145E+00
         21   -1    0    0  502  501  0.00000000000E+00  0.00000000000E+00  0.69004736583E+03  0.69004736583E+03  0.00000000000E+00 0. -1.
         21   -1    0    0  501  502 -0.00000000000E+00 -0.00000000000E+00 -0.12548459003E+03  0.12548459003E+03  0.00000000000E+00 0. -1.
         25    1    1    2    0    0  0.56564184364E+02 -0.12267908821E+03  0.35965478999E+02  0.18753181414E+03  0.12500000000E+03 0.  0.
         25    1    1    2    0    0  0.42106324219E+02  0.40748784746E+02  0.12410863592E+03  0.18563771036E+03  0.12500000000E+03 0.  0.
         25    1    1    2    0    0 -0.98670508583E+02  0.81930303460E+02  0.40448866088E+03  0.44236243135E+03  0.12500000000E+03 0.  0.
</event>
<event>
 5    0  0.5510933E-005  0.2393361E+03  0.7546771E-02  0.1120236E+00
         21   -1    0    0  502  501  0.00000000000E+00  0.00000000000E+00  0.42689789457E+03  0.42689789457E+03  0.00000000000E+00 0.  1.
         21   -1    0    0  501  502 -0.00000000000E+00 -0.00000000000E+00 -0.13418141320E+03  0.13418141320E+03  0.00000000000E+00 0.  1.
         25    1    1    2    0    0  0.39706363639E+02 -0.45046177991E+02  0.46542567546E+01  0.13875307410E+03  0.12500000000E+03 0.  0.
         25    1    1    2    0    0 -0.83897106343E+02  0.15258118443E+02  0.73179167039E+02  0.16808249498E+03  0.12500000000E+03 0.  0.
         25    1    1    2    0    0  0.44190742704E+02  0.29788059548E+02  0.21488305758E+03  0.25424373870E+03  0.12500000000E+03 0.  0.
</event>
<event>
 5    0  0.5510933E-005  0.3002067E+03  0.7546771E-02  0.1085137E+00
         21   -1    0    0  502  501  0.00000000000E+00  0.00000000000E+00  0.61867650769E+03  0.61867650769E+03  0.00000000000E+00 0.  1.
         21   -1    0    0  501  502 -0.00000000000E+00 -0.00000000000E+00 -0.14567234766E+03  0.14567234766E+03  0.00000000000E+00 0.  1.
         25    1    1    2    0    0 -0.71687501507E+02  0.10892130921E+03  0.36915847354E+03  0.41098166390E+03  0.12500000000E+03 0.  0.
         25    1    1    2    0    0 -0.23903967434E+02 -0.11369938735E+02  0.10929660804E+03  0.16814108271E+03  0.12500000000E+03 0.  0.
         25    1    1    2    0    0  0.95591468941E+02 -0.97551370471E+02 -0.54509215469E+01  0.18522610874E+03  0.12500000000E+03 0.  0.
</event>
<event>
 5    0  0.5510933E-005  0.4357241E+03  0.7546771E-02  0.1032067E+00
         21   -1    0    0  502  501  0.00000000000E+00  0.00000000000E+00  0.83937939506E+03  0.83937939506E+03  0.00000000000E+00 0. -1.
         21   -1    0    0  501  502 -0.00000000000E+00 -0.00000000000E+00 -0.22618554904E+03  0.22618554904E+03  0.00000000000E+00 0. -1.
         25    1    1    2    0    0  0.14194410969E+03 -0.30690548301E+03  0.21488075970E+03  0.41968779666E+03  0.12500000000E+03 0.  0.
         25    1    1    2    0    0  0.21767256514E+00 -0.86386190721E+01  0.38147182713E+02  0.13097664170E+03  0.12500000000E+03 0.  0.
         25    1    1    2    0    0 -0.14216178225E+03  0.31554410208E+03  0.36016590361E+03  0.51490050574E+03  0.12500000000E+03 0.  0.
</event>
<event>
 5    0  0.5510933E-005  0.4032917E+03  0.7546771E-02  0.1042646E+00
         21   -1    0    0  502  501  0.00000000000E+00  0.00000000000E+00  0.13584098915E+04  0.13584098915E+04  0.00000000000E+00 0.  1.
         21   -1    0    0  501  502 -0.00000000000E+00 -0.00000000000E+00 -0.11973130353E+03  0.11973130353E+03  0.00000000000E+00 0.  1.
         25    1    1    2    0    0 -0.16632759167E+03 -0.10351476332E+03  0.22840619020E+03  0.32584438264E+03  0.12500000000E+03 0.  0.
         25    1    1    2    0    0  0.66248419153E+02 -0.58080344794E+02  0.87364217756E+03  0.88692605887E+03  0.12500000000E+03 0.  0.
         25    1    1    2    0    0  0.10007917252E+03  0.16159510812E+03  0.13663022018E+03  0.26537075349E+03  0.12500000000E+03 0.  0.
</event>
<event>
 5    0  0.5510933E-005  0.5017705E+03  0.7546771E-02  0.1013318E+00
         21   -1    0    0  502  501  0.00000000000E+00  0.00000000000E+00  0.11443803788E+03  0.11443803788E+03  0.00000000000E+00 0. -1.
         21   -1    0    0  501  502 -0.00000000000E+00 -0.00000000000E+00 -0.22000868509E+04  0.22000868509E+04  0.00000000000E+00 0. -1.
         25    1    1    2    0    0  0.87355996067E+02 -0.20470811892E+03 -0.99078016416E+02  0.27382099506E+03  0.12500000000E+03 0.  0.
         25    1    1    2    0    0 -0.19366635097E+03  0.15148109188E+03 -0.14822335267E+04  0.15076784817E+04  0.12500000000E+03 0.  0.
         25    1    1    2    0    0  0.10631035491E+03  0.53227027042E+02 -0.50433726992E+03  0.53302541197E+03  0.12500000000E+03 0.  0.
</event>
<event>
 5    0  0.5510933E-005  0.3213808E+03  0.7546771E-02  0.1075016E+00
         21   -1    0    0  502  501  0.00000000000E+00  0.00000000000E+00  0.21558831061E+03  0.21558831061E+03  0.00000000000E+00 0. -1.
         21   -1    0    0  501  502 -0.00000000000E+00 -0.00000000000E+00 -0.47908718366E+03  0.47908718366E+03  0.00000000000E+00 0. -1.
         25    1    1    2    0    0 -0.18973225804E+02  0.76213863131E+01  0.49869671343E+02  0.13612513709E+03  0.12500000000E+03 0.  0.
         25    1    1    2    0    0 -0.75562887356E+02 -0.12561076954E+03 -0.45606830888E+01  0.19270084380E+03  0.12500000000E+03 0.  0.
         25    1    1    2    0    0  0.94536113160E+02  0.11798938323E+03 -0.30880786130E+03  0.36584951339E+03  0.12500000000E+03 0.  0.
</event>
<event>
 5    0  0.5510933E-005  0.2946585E+03  0.7546771E-02  0.1087942E+00
         21   -1    0    0  502  501  0.00000000000E+00  0.00000000000E+00  0.23219153082E+03  0.23219153082E+03  0.00000000000E+00 0.  1.
         21   -1    0    0  501  502 -0.00000000000E+00 -0.00000000000E+00 -0.37393109167E+03  0.37393109167E+03  0.00000000000E+00 0.  1.
         25    1    1    2    0    0  0.78305059217E+02 -0.16800340285E+02 -0.82038981965E+02  0.16961523603E+03  0.12500000000E+03 0.  0.
         25    1    1    2    0    0 -0.13058383286E+03  0.11851397639E+03  0.65481764072E+02  0.22585517800E+03  0.12500000000E+03 0.  0.
         25    1    1    2    0    0  0.52278773638E+02 -0.10171363610E+03 -0.12518234296E+03  0.21065220846E+03  0.12500000000E+03 0.  0.
</event>
<event>
 5    0  0.5510933E-005  0.3576613E+03  0.7546771E-02  0.1059514E+00
         21   -1    0    0  502  501  0.00000000000E+00  0.00000000000E+00  0.24214696052E+03  0.24214696052E+03  0.00000000000E+00 0.  1.
         21   -1    0    0  501  502 -0.00000000000E+00 -0.00000000000E+00 -0.52828081482E+03  0.52828081482E+03  0.00000000000E+00 0.  1.
         25    1    1    2    0    0  0.16860371278E+03  0.21268839400E+02  0.12814595762E+03  0.24683184954E+03  0.12500000000E+03 0.  0.
         25    1    1    2    0    0 -0.43264701887E+02  0.10144877139E+02 -0.12077300414E+03  0.17940421257E+03  0.12500000000E+03 0.  0.
         25    1    1    2    0    0 -0.12533901089E+03 -0.31413716539E+02 -0.29350680779E+03  0.34419171323E+03  0.12500000000E+03 0.  0.
</event>
<event>
 5    0  0.5510933E-005  0.3589919E+03  0.7546771E-02  0.1058984E+00
         21   -1    0    0  502  501  0.00000000000E+00  0.00000000000E+00  0.16732361237E+03  0.16732361237E+03  0.00000000000E+00 0.  1.
         21   -1    0    0  501  502 -0.00000000000E+00 -0.00000000000E+00 -0.77021535350E+03  0.77021535350E+03  0.00000000000E+00 0.  1.
         25    1    1    2    0    0 -0.37095787385E+02 -0.75098409743E+02  0.50470188775E+02  0.15870761967E+03  0.12500000000E+03 0.  0.
         25    1    1    2    0    0  0.90015247816E+01  0.10901619096E+03 -0.62041475123E+03  0.64226553767E+03  0.12500000000E+03 0.  0.
         25    1    1    2    0    0  0.28094262603E+02 -0.33917781221E+02 -0.32947178684E+02  0.13656580852E+03  0.12500000000E+03 0.  0.
</event>
<event>
 5    0  0.5845507E-005  0.2772333E+03  0.7546771E-02  0.1097210E+00
         21   -1    0    0  502  501  0.00000000000E+00  0.00000000000E+00  0.81111520282E+03  0.81111520282E+03  0.00000000000E+00 0. -1.
         21   -1    0    0  501  502 -0.00000000000E+00 -0.00000000000E+00 -0.94756314746E+02  0.94756314746E+02  0.00000000000E+00 0. -1.
         25    1    1    2    0    0 -0.14923649192E+02 -0.49435190667E+02  0.79873487883E+02  0.15707109043E+03  0.12500000000E+03 0.  0.
         25    1    1    2    0    0  0.38059976489E+02 -0.15304514537E+01  0.39804316832E+02  0.13660266370E+03  0.12500000000E+03 0.  0.
         25    1    1    2    0    0 -0.23136327298E+02  0.50965642121E+02  0.59668108336E+03  0.61219776344E+03  0.12500000000E+03 0.  0.
</event>
<event>
 5    0  0.5626442E-005  0.3325653E+03  0.7546771E-02  0.1070007E+00
         21   -1    0    0  502  501  0.00000000000E+00  0.00000000000E+00  0.44021593958E+03  0.44021593958E+03  0.00000000000E+00 0.  1.
         21   -1    0    0  501  502 -0.00000000000E+00 -0.00000000000E+00 -0.25123966487E+03  0.25123966487E+03  0.00000000000E+00 0.  1.
         25    1    1    2    0    0 -0.83976982686E+02 -0.98119107056E+02  0.24491181994E+03  0.30378659012E+03  0.12500000000E+03 0.  0.
         25    1    1    2    0    0  0.50018659602E+02 -0.78410505417E+02 -0.64309280953E+02  0.16855490881E+03  0.12500000000E+03 0.  0.
         25    1    1    2    0    0  0.33958323084E+02  0.17652961247E+03  0.83737357257E+01  0.21911410552E+03  0.12500000000E+03 0.  0.
</event>
<event>
 5    0  0.5510933E-005  0.6593976E+03  0.7546771E-02  0.9789303E-01
         21   -1    0    0  502  501  0.00000000000E+00  0.00000000000E+00  0.11551997781E+04  0.11551997781E+04  0.00000000000E+00 0.  1.
         21   -1    0    0  501  502 -0.00000000000E+00 -0.00000000000E+00 -0.37638955441E+03  0.37638955441E+03  0.00000000000E+00 0.  1.
         25    1    1    2    0    0 -0.20079997605E+03  0.41863883053E+03  0.39059272534E+03  0.61948912654E+03  0.12500000000E+03 0.  0.
         25    1    1    2    0    0 -0.17149246295E+02  0.32185345566E+02  0.37375529866E+03  0.39578784265E+03  0.12500000000E+03 0.  0.
         25    1    1    2    0    0  0.21794922234E+03 -0.45082417610E+03  0.14462199662E+02  0.51631236330E+03  0.12500000000E+03 0.  0.
</event>
<event>
 5    0  0.5510933E-005  0.2439103E+03  0.7546771E-02  0.1117215E+00
         21   -1    0    0  502  501  0.00000000000E+00  0.00000000000E+00  0.18684425095E+03  0.18684425095E+03  0.00000000000E+00 0. -1.
         21   -1    0    0  501  502 -0.00000000000E+00 -0.00000000000E+00 -0.31840555427E+03  0.31840555427E+03  0.00000000000E+00 0. -1.
         25    1    1    2    0    0 -0.88565811596E+02 -0.55862927132E+02  0.81367095073E+01  0.16326596600E+03  0.12500000000E+03 0.  0.
         25    1    1    2    0    0 -0.13295755938E+02  0.79618420160E+02 -0.74918942742E+02  0.16659447151E+03  0.12500000000E+03 0.  0.
         25    1    1    2    0    0  0.10186156753E+03 -0.23755493028E+02 -0.64779070086E+02  0.17538936772E+03  0.12500000000E+03 0.  0.
</event>
<event>
 5    0  0.5510933E-005  0.2754275E+03  0.7546771E-02  0.1098213E+00
         21   -1    0    0  502  501  0.00000000000E+00  0.00000000000E+00  0.99631969885E+03  0.99631969885E+03  0.00000000000E+00 0. -1.
         21   -1    0    0  501  502 -0.00000000000E+00 -0.00000000000E+00 -0.76140515461E+02  0.76140515461E+02  0.00000000000E+00 0. -1.
         25    1    1    2    0    0 -0.14898099048E+03  0.74975760486E+02  0.38747164745E+03  0.43997270115E+03  0.12500000000E+03 0.  0.
         25    1    1    2    0    0  0.74400519978E+02 -0.11528723841E+03  0.24306720718E+03  0.30583206490E+03  0.12500000000E+03 0.  0.
         25    1    1    2    0    0  0.74580470499E+02  0.40311477928E+02  0.28964032876E+03  0.32665544826E+03  0.12500000000E+03 0.  0.
</event>
<event>
 5    0  0.5510933E-005  0.2509896E+03  0.7546771E-02  0.1112681E+00
         21   -1    0    0  502  501  0.00000000000E+00  0.00000000000E+00  0.20949774402E+04  0.20949774402E+04  0.00000000000E+00 0.  1.
         21   -1    0    0  501  502 -0.00000000000E+00 -0.00000000000E+00 -0.30069913054E+02  0.30069913054E+02  0.00000000000E+00 0.  1.
         25    1    1    2    0    0 -0.49779988848E+02 -0.25450545364E+02  0.99355084599E+03  0.10029427008E+04  0.12500000000E+03 0.  0.
         25    1    1    2    0    0  0.12701127269E+03  0.17442671862E+02  0.70295703985E+03  0.72540313624E+03  0.12500000000E+03 0.  0.
         25    1    1    2    0    0 -0.77231283840E+02  0.80078735019E+01  0.36839964132E+03  0.39670151622E+03  0.12500000000E+03 0.  0.
</event>
<event>
 5    0  0.6895946E-005  0.3526188E+03  0.7546771E-02  0.1061545E+00
         21   -1    0    0  502  501  0.00000000000E+00  0.00000000000E+00  0.80555867656E+03  0.80555867656E+03  0.00000000000E+00 0.  1.
         21   -1    0    0  501  502 -0.00000000000E+00 -0.00000000000E+00 -0.15435250170E+03  0.15435250170E+03  0.00000000000E+00 0.  1.
         25    1    1    2    0    0 -0.24209771479E+01  0.77401129558E+02 -0.22413728060E+01  0.14706059887E+03  0.12500000000E+03 0.  0.
         25    1    1    2    0    0  0.58337845976E+02  0.79054952266E+02  0.56492526079E+03  0.58687182590E+03  0.12500000000E+03 0.  0.
         25    1    1    2    0    0 -0.55916868828E+02 -0.15645608182E+03  0.88522286867E+02  0.22597875350E+03  0.12500000000E+03 0.  0.
</event>
<event>
 5    0  0.5884557E-005  0.3521475E+03  0.7546771E-02  0.1061737E+00
         21   -1    0    0  502  501  0.00000000000E+00  0.00000000000E+00  0.54520158310E+03  0.54520158310E+03  0.00000000000E+00 0.  1.
         21   -1    0    0  501  502 -0.00000000000E+00 -0.00000000000E+00 -0.22745317164E+03  0.22745317164E+03  0.00000000000E+00 0.  1.
         25    1    1    2    0    0 -0.82358037801E+02 -0.17171829474E+03  0.15870490573E+03  0.27763693241E+03  0.12500000000E+03 0.  0.
         25    1    1    2    0    0  0.19707437343E+03  0.52947510600E+02  0.16008475605E+03  0.28791296717E+03  0.12500000000E+03 0.  0.
         25    1    1    2    0    0 -0.11471633563E+03  0.11877078414E+03 -0.10412503186E+01  0.20710485515E+03  0.12500000000E+03 0.  0.
</event>
<event>
 5    0  0.5811190E-005  0.2743971E+03  0.7546771E-02  0.1098789E+00
         21   -1    0    0  502  501  0.00000000000E+00  0.00000000000E+00  0.45290525720E+03  0.45290525720E+03  0.00000000000E+00 0.  1.
         21   -1    0    0  501  502 -0.00000000000E+00 -0.00000000000E+00 -0.16624623051E+03  0.16624623051E+03  0.00000000000E+00 0.  1.
         25    1    1    2    0    0 -0.82904663436E+02 -0.13869060727E+03  0.81843656826E+02  0.22007192444E+03  0.12500000000E+03 0.  0.
         25    1    1    2    0    0  0.67373197331E+02  0.42251329189E+02  0.18827936512E+03  0.23957971923E+03  0.12500000000E+03 0.  0.
         25    1    1    2    0    0  0.15531466106E+02  0.96439278080E+02  0.16536004736E+02  0.15949984404E+03  0.12500000000E+03 0.  0.
</event>
<event>
 5    0  0.5510933E-005  0.3380614E+03  0.7546771E-02  0.1067625E+00
         21   -1    0    0  502  501  0.00000000000E+00  0.00000000000E+00  0.99833669889E+02  0.99833669889E+02  0.00000000000E+00 0.  1.
         21   -1    0    0  501  502 -0.00000000000E+00 -0.00000000000E+00 -0.11447592254E+04  0.11447592254E+04  0.00000000000E+00 0.  1.
         25    1    1    2    0    0 -0.11517713556E+03  0.10785447031E+02 -0.95547698399E+02  0.19528558854E+03  0.12500000000E+03 0.  0.
         25    1    1    2    0    0  0.10344636125E+03 -0.12571609772E+03 -0.22228800971E+03  0.30256015294E+03  0.12500000000E+03 0.  0.
         25    1    1    2    0    0  0.11730774307E+02  0.11493065069E+03 -0.72708984740E+03  0.74674715382E+03  0.12500000000E+03 0.  0.
</event>
<event>
 5    0  0.5510933E-005  0.2783566E+03  0.7546771E-02  0.1096590E+00
         21   -1    0    0  502  501  0.00000000000E+00  0.00000000000E+00  0.14443689409E+03  0.14443689409E+03  0.00000000000E+00 0.  1.
         21   -1    0    0  501  502 -0.00000000000E+00 -0.00000000000E+00 -0.53644455201E+03  0.53644455201E+03  0.00000000000E+00 0.  1.
         25    1    1    2    0    0  0.50437982755E+02 -0.39295507386E+02 -0.15693519309E+03  0.21057488415E+03  0.12500000000E+03 0.  0.
         25    1    1    2    0    0 -0.53446105813E+02 -0.57375761587E+02 -0.27068822613E+03  0.30829463182E+03  0.12500000000E+03 0.  0.
         25    1    1    2    0    0  0.30081230584E+01  0.96671268973E+02  0.35615761296E+02  0.16201193012E+03  0.12500000000E+03 0.  0.
</event>
<event>
 5    0  0.5510933E-005  0.4123446E+03  0.7546771E-02  0.1039587E+00
         21   -1    0    0  502  501  0.00000000000E+00  0.00000000000E+00  0.16709024250E+03  0.16709024250E+03  0.00000000000E+00 0. -1.
         21   -1    0    0  501  502 -0.00000000000E+00 -0.00000000000E+00 -0.10175821324E+04  0.10175821324E+04  0.00000000000E+00 0. -1.
         25    1    1    2    0    0  0.76053043208E+02 -0.24613243385E+03 -0.33630849631E+03  0.44169406275E+03  0.12500000000E+03 0.  0.
         25    1    1    2    0    0 -0.11553633579E+03  0.16673011082E+03 -0.36173616117E+02  0.24100021835E+03  0.12500000000E+03 0.  0.
         25    1    1    2    0    0  0.39483292581E+02  0.79402323026E+02 -0.47800977750E+03  0.50197809382E+03  0.12500000000E+03 0.  0.
</event>
<event>
 5    0  0.5510933E-005  0.4689545E+03  0.7546771E-02  0.1022216E+00
         21   -1    0    0  502  501  0.00000000000E+00  0.00000000000E+00  0.10951243909E+04  0.10951243909E+04  0.00000000000E+00 0.  1.
         21   -1    0    0  501  502 -0.00000000000E+00 -0.00000000000E+00 -0.20081581385E+03  0.20081581385E+03  0.00000000000E+00 0.  1.
         25    1    1    2    0    0 -0.70951748697E+02  0.11240847814E+03 -0.88096589180E+02  0.20262237198E+03  0.12500000000E+03 0.  0.
         25    1    1    2    0    0  0.12040718480E+03 -0.17243636922E+03  0.88153300467E+03  0.91485388446E+03  0.12500000000E+03 0.  0.
         25    1    1    2    0    0 -0.49455436098E+02  0.60027891075E+02  0.10087216152E+03  0.17846394828E+03  0.12500000000E+03 0.  0.
</event>
<event>
 5    0  0.5510933E-005  0.2853245E+03  0.7546771E-02  0.1092816E+00
         21   -1    0    0  502  501  0.00000000000E+00  0.00000000000E+00  0.17734547163E+03  0.17734547163E+03  0.00000000000E+00 0. -1.
         21   -1    0    0  501  502 -0.00000000000E+00 -0.00000000000E+00 -0.45904776176E+03  0.45904776176E+03  0.00000000000E+00 0. -1.
         25    1    1    2    0    0  0.11821341881E+03  0.84166444674E+02 -0.22519121717E+03  0.29562558598E+03  0.12500000000E+03 0.  0.
         25    1    1    2    0    0 -0.58908001907E+02 -0.96768086244E+02  0.37762610695E+02  0.17287345074E+03  0.12500000000E+03 0.  0.
         25    1    1    2    0    0 -0.59305416902E+02  0.12601641570E+02 -0.94273683655E+02  0.16789419667E+03  0.12500000000E+03 0.  0.
</event>
<event>
 5    0  0.5510933E-005  0.3600693E+03  0.7546771E-02  0.1058556E+00
         21   -1    0    0  502  501  0.00000000000E+00  0.00000000000E+00  0.38207041776E+03  0.38207041776E+03  0.00000000000E+00 0. -1.
         21   -1    0    0  501  502 -0.00000000000E+00 -0.00000000000E+00 -0.33933504230E+03  0.33933504230E+03  0.00000000000E+00 0. -1.
         25    1    1    2    0    0 -0.78301918818E+02 -0.92421027306E+02 -0.15879242494E+03  0.23561169538E+03  0.12500000000E+03 0.  0.
         25    1    1    2    0    0  0.15748851240E+03 -0.18210810461E+02  0.22180515325E+03  0.29992797663E+03  0.12500000000E+03 0.  0.
         25    1    1    2    0    0 -0.79186593586E+02  0.11063183777E+03 -0.20277352851E+02  0.18586578806E+03  0.12500000000E+03 0.  0.
</event>
<event>
 5    0  0.5510933E-005  0.2580507E+03  0.7546771E-02  0.1108320E+00
         21   -1    0    0  502  501  0.00000000000E+00  0.00000000000E+00  0.14249272333E+04  0.14249272333E+04  0.00000000000E+00 0.  1.
         21   -1    0    0  501  502 -0.00000000000E+00 -0.00000000000E+00 -0.46732319525E+02  0.46732319525E+02  0.00000000000E+00 0.  1.
         25    1    1    2    0    0 -0.72369080375E+02 -0.45279194358E+02  0.42440249090E+03  0.45058846359E+03  0.12500000000E+03 0.  0.
         25    1    1    2    0    0  0.11680731239E+03 -0.49228267765E+02  0.31486013609E+03  0.36170329812E+03  0.12500000000E+03 0.  0.
         25    1    1    2    0    0 -0.44438232019E+02  0.94507462123E+02  0.63893228679E+03  0.65936779112E+03  0.12500000000E+03 0.  0.
</event>
<event>
 5    0  0.5510933E-005  0.3624047E+03  0.7546771E-02  0.1057636E+00
         21   -1    0    0  502  501  0.00000000000E+00  0.00000000000E+00  0.10900557860E+04  0.10900557860E+04  0.00000000000E+00 0. -1.
         21   -1    0    0  501  502 -0.00000000000E+00 -0.00000000000E+00 -0.12048667119E+03  0.12048667119E+03  0.00000000000E+00 0. -1.
         25    1    1    2    0    0  0.32155036802E+02  0.83802264809E+02  0.20224111230E+03  0.25413231491E+03  0.12500000000E+03 0.  0.
         25    1    1    2    0    0  0.10776254006E+03  0.91981913241E+02  0.64421573466E+03  0.67135113777E+03  0.12500000000E+03 0.  0.
         25    1    1    2    0    0 -0.13991757686E+03 -0.17578417805E+03  0.12311226788E+03  0.28505900454E+03  0.12500000000E+03 0.  0.
</event>
<event>
 5    0  0.5510933E-005  0.2863697E+03  0.7546771E-02  0.1092260E+00
         21   -1    0    0  502  501  0.00000000000E+00  0.00000000000E+00  0.12112494975E+04  0.12112494975E+04  0.00000000000E+00 0.  1.
         21   -1    0    0  501  502 -0.00000000000E+00 -0.00000000000E+00 -0.67704962956E+02  0.67704962956E+02  0.00000000000E+00 0.  1.
         25    1    1    2    0    0  0.12691202361E+03  0.53089902589E+02  0.71948199383E+03  0.74310466217E+03  0.12500000000E+03 0.  0.
         25    1    1    2    0    0  0.19277888778E+02 -0.45912038967E+02  0.15940680608E+03  0.20860268968E+03  0.12500000000E+03 0.  0.
         25    1    1    2    0    0 -0.14618991239E+03 -0.71778636219E+01  0.26465573460E+03  0.32724710856E+03  0.12500000000E+03 0.  0.
</event>
<event>
 5    0  0.5510933E-005  0.2723061E+03  0.7546771E-02  0.1099967E+00
         21   -1    0    0  502  501  0.00000000000E+00  0.00000000000E+00  0.14459005977E+03  0.14459005977E+03  0.00000000000E+00 0.  1.
         21   -1    0    0  501  502 -0.00000000000E+00 -0.00000000000E+00 -0.51283338780E+03  0.51283338780E+03  0.00000000000E+00 0.  1.
         25    1    1    2    0    0 -0.30035359278E+02 -0.40521954053E+02 -0.16876957453E+03  0.21599148329E+03  0.12500000000E+03 0.  0.
         25    1    1    2    0    0  0.11991654726E+03  0.81012443442E+02 -0.65949312136E+01  0.19134128518E+03  0.12500000000E+03 0.  0.
         25    1    1    2    0    0 -0.89881187977E+02 -0.40490489390E+02 -0.19287882228E+03  0.25009067909E+03  0.12500000000E+03 0.  0.
</event>
<event>
 5    0  0.5510933E-005  0.3085755E+03  0.7546771E-02  0.1081031E+00
         21   -1    0    0  502  501  0.00000000000E+00  0.00000000000E+00  0.50438050881E+03  0.50438050881E+03  0.00000000000E+00 0.  1.
         21   -1    0    0  501  502 -0.00000000000E+00 -0.00000000000E+00 -0.18878372068E+03  0.18878372068E+03  0.00000000000E+00 0.  1.
         25    1    1    2    0    0 -0.86475197724E+02  0.59587455294E+02  0.58631213148E+02  0.17346827896E+03  0.12500000000E+03 0.  0.
         25    1    1    2    0    0  0.10284229859E+03 -0.73777853399E+02 -0.52302484077E+02  0.18541914645E+03  0.12500000000E+03 0.  0.
         25    1    1    2    0    0 -0.16367100862E+02  0.14190398105E+02  0.30926805906E+03  0.33427680408E+03  0.12500000000E+03 0.  0.
</event>
<event>
 5    0  0.6266002E-005  0.2938467E+03  0.7546771E-02  0.1088358E+00
         21   -1    0    0  502  501  0.00000000000E+00  0.00000000000E+00  0.65472164302E+03  0.65472164302E+03  0.00000000000E+00 0.  1.
         21   -1    0    0  501  502 -0.00000000000E+00 -0.00000000000E+00 -0.13188180449E+03  0.13188180449E+03  0.00000000000E+00 0.  1.
         25    1    1    2    0    0 -0.28589666569E+02 -0.19679749112E+03  0.18079331246E+03  0.29640823770E+03  0.12500000000E+03 0.  0.
         25    1    1    2    0    0  0.33462159806E+02  0.11972437942E+03  0.88758061310E+02  0.19737435652E+03  0.12500000000E+03 0.  0.
         25    1    1    2    0    0 -0.48724932367E+01  0.77073111701E+02  0.25328846476E+03  0.29282085328E+03  0.12500000000E+03 0.  0.
</event>
<event>
 5    0  0.5510933E-005  0.4166631E+03  0.7546771E-02  0.1038158E+00
         21   -1    0    0  502  501  0.00000000000E+00  0.00000000000E+00  0.14805137493E+04  0.14805137493E+04  0.00000000000E+00 0.  1.
         21   -1    0    0  501  502 -0.00000000000E+00 -0.00000000000E+00 -0.11726210222E+03  0.11726210222E+03  0.00000000000E+00 0.  1.
         25    1    1    2    0    0  0.19214273238E+03 -0.23097415208E+03  0.46390802493E+03  0.56665998988E+03  0.12500000000E+03 0.  0.
         25    1    1    2    0    0 -0.13741286102E+03  0.16924213698E+03  0.82786076679E+03  0.86516105119E+03  0.12500000000E+03 0.  0.
         25    1    1    2    0    0 -0.54729871365E+02  0.61732015105E+02  0.71482855388E+02  0.16595481048E+03  0.12500000000E+03 0.  0.
</event>
<event>
 5    0  0.5510933E-005  0.2734479E+03  0.7546771E-02  0.1099322E+00
         21   -1    0    0  502  501  0.00000000000E+00  0.00000000000E+00  0.57963138459E+03  0.57963138459E+03  0.00000000000E+00 0. -1.
         21   -1    0    0  501  502 -0.00000000000E+00 -0.00000000000E+00 -0.12900222408E+03  0.12900222408E+03  0.00000000000E+00 0. -1.
         25    1    1    2    0    0  0.16974870745E+03  0.65765392133E+01  0.11440699722E+03  0.23994131691E+03  0.12500000000E+03 0.  0.
         25    1    1    2    0    0 -0.10436322425E+03  0.23334937194E+02  0.10175860088E+03  0.19343219671E+03  0.12500000000E+03 0.  0.
         25    1    1    2    0    0 -0.65385483191E+02 -0.29911476407E+02  0.23446356240E+03  0.27526009505E+03  0.12500000000E+03 0.  0.
</event>
<event>
 5    0  0.5510933E-005  0.3484063E+03  0.7546771E-02  0.1063271E+00
         21   -1    0    0  502  501  0.00000000000E+00  0.00000000000E+00  0.29594671109E+03  0.29594671109E+03  0.00000000000E+00 0. -1.
         21   -1    0    0  501  502 -0.00000000000E+00 -0.00000000000E+00 -0.41016493115E+03  0.41016493115E+03  0.00000000000E+00 0. -1.
         25    1    1    2    0    0 -0.43967650289E+02 -0.35020742264E+02 -0.54271716465E+02  0.14741107784E+03  0.12500000000E+03 0.  0.
         25    1    1    2    0    0 -0.61924533132E+02 -0.16320254547E+03  0.11894052292E+03  0.24544157481E+03  0.12500000000E+03 0.  0.
         25    1    1    2    0    0  0.10589218342E+03  0.19822328773E+03 -0.17888702651E+03  0.31325898960E+03  0.12500000000E+03 0.  0.
</event>
<event>
 5    0  0.5510933E-005  0.3451936E+03  0.7546771E-02  0.1064605E+00
         21   -1    0    0  502  501  0.00000000000E+00  0.00000000000E+00  0.52556199978E+03  0.52556199978E+03  0.00000000000E+00 0.  1.
         21   -1    0    0  501  502 -0.00000000000E+00 -0.00000000000E+00 -0.22672615018E+03  0.22672615018E+03  0.00000000000E+00 0. -1.
         25    1    1    2    0    0 -0.28559329871E+02  0.34927170797E-01  0.13182973025E+03  0.18390137118E+03  0.12500000000E+03 0.  0.
         25    1    1    2    0    0  0.21642798886E+03  0.21040833017E+02  0.22224706955E+03  0.33511572769E+03  0.12500000000E+03 0.  0.
         25    1    1    2    0    0 -0.18786865899E+03 -0.21075760188E+02 -0.55240950213E+02  0.23327105110E+03  0.12500000000E+03 0.  0.
</event>
<event>
 5    0  0.5510933E-005  0.4161312E+03  0.7546771E-02  0.1038333E+00
         21   -1    0    0  502  501  0.00000000000E+00  0.00000000000E+00  0.13389938324E+03  0.13389938324E+03  0.00000000000E+00 0.  1.
         21   -1    0    0  501  502 -0.00000000000E+00 -0.00000000000E+00 -0.12932487441E+04  0.12932487441E+04  0.00000000000E+00 0.  1.
         25    1    1    2    0    0  0.35377216099E+03 -0.12237207000E+02 -0.41214984548E+03  0.55749169165E+03  0.12500000000E+03 0.  0.
         25    1    1    2    0    0 -0.11640599479E+03  0.37268872466E+02 -0.31822986720E+03  0.36309030951E+03  0.12500000000E+03 0.  0.
         25    1    1    2    0    0 -0.23736616620E+03 -0.25031665466E+02 -0.42896964815E+03  0.50656612616E+03  0.12500000000E+03 0.  0.
</event>
<event>
 5    0  0.5510933E-005  0.4277830E+03  0.7546771E-02  0.1034563E+00
         21   -1    0    0  502  501  0.00000000000E+00  0.00000000000E+00  0.37274320930E+03  0.37274320930E+03  0.00000000000E+00 0. -1.
         21   -1    0    0  501  502 -0.00000000000E+00 -0.00000000000E+00 -0.49095014740E+03  0.49095014740E+03  0.00000000000E+00 0. -1.
         25    1    1    2    0    0 -0.29015459286E+03  0.91092514985E+02 -0.82315571980E+02  0.33895189545E+03  0.12500000000E+03 0.  0.
         25    1    1    2    0    0  0.24449679245E+03  0.36953769597E+02  0.10095140980E+03  0.29489057250E+03  0.12500000000E+03 0.  0.
         25    1    1    2    0    0  0.45657800403E+02 -0.12804628458E+03 -0.13684277593E+03  0.22985088874E+03  0.12500000000E+03 0.  0.
</event>
<event>
 5    0  0.5510933E-005  0.4555728E+03  0.7546771E-02  0.1026073E+00
         21   -1    0    0  502  501  0.00000000000E+00  0.00000000000E+00  0.11220903869E+04  0.11220903869E+04  0.00000000000E+00 0.  1.
         21   -1    0    0  501  502 -0.00000000000E+00 -0.00000000000E+00 -0.18496419546E+03  0.18496419546E+03  0.00000000000E+00 0.  1.
         25    1    1    2    0    0  0.19363192507E+03 -0.24090421655E+03  0.76521868534E+03  0.83469323728E+03  0.12500000000E+03 0.  0.
         25    1    1    2    0    0 -0.13663799766E+03  0.23270145972E+03  0.14972531851E+03  0.33296033211E+03  0.12500000000E+03 0.  0.
         25    1    1    2    0    0 -0.56993927409E+02  0.82027568350E+01  0.22182187632E+02  0.13940101301E+03  0.12500000000E+03 0.  0.
</event>
<event>
 5    0  0.5510933E-005  0.3234740E+03  0.7546771E-02  0.1074061E+00
         21   -1    0    0  502  501  0.00000000000E+00  0.00000000000E+00  0.59289513989E+03  0.59289513989E+03  0.00000000000E+00 0.  1.
         21   -1    0    0  501  502 -0.00000000000E+00 -0.00000000000E+00 -0.17648219422E+03  0.17648219422E+03  0.00000000000E+00 0.  1.
         25    1    1    2    0    0  0.85850107108E+02 -0.57372621956E+02 -0.22656907719E+02  0.16370764829E+03  0.12500000000E+03 0.  0.
         25    1    1    2    0    0  0.11436923432E+03 -0.12332472349E+02  0.20218824935E+03  0.26407858642E+03  0.12500000000E+03 0.  0.
         25    1    1    2    0    0 -0.20021934143E+03  0.69705094304E+02  0.23688160405E+03  0.34159109940E+03  0.12500000000E+03 0.  0.
</event>
<event>
 5    0  0.5510933E-005  0.3257538E+03  0.7546771E-02  0.1073031E+00
         21   -1    0    0  502  501  0.00000000000E+00  0.00000000000E+00  0.29504626580E+03  0.29504626580E+03  0.00000000000E+00 0.  1.
         21   -1    0    0  501  502 -0.00000000000E+00 -0.00000000000E+00 -0.35965735114E+03  0.35965735114E+03  0.00000000000E+00 0.  1.
         25    1    1    2    0    0 -0.95859918007E+02  0.35894711496E+02  0.23945424965E+01  0.16158059298E+03  0.12500000000E+03 0.  0.
         25    1    1    2    0    0 -0.68129204383E+02 -0.54122102438E+02 -0.19675873768E+03  0.24881678263E+03  0.12500000000E+03 0.  0.
         25    1    1    2    0    0  0.16398912239E+03  0.18227390942E+02  0.12975310985E+03  0.24430624134E+03  0.12500000000E+03 0.  0.
</event>
<event>
 5    0  0.5510933E-005  0.4267033E+03  0.7546771E-02  0.1034906E+00
         21   -1    0    0  502  501  0.00000000000E+00  0.00000000000E+00  0.58446409353E+03  0.58446409353E+03  0.00000000000E+00 0. -1.
         21   -1    0    0  501  502 -0.00000000000E+00 -0.00000000000E+00 -0.31152585115E+03  0.31152585115E+03  0.00000000000E+00 0. -1.
         25    1    1    2    0    0  0.82392865559E+02  0.79712856051E+02 -0.55330118353E+02  0.17840724680E+03  0.12500000000E+03 0.  0.
         25    1    1    2    0    0  0.59309808117E+01 -0.28538301023E+02  0.47951905268E+03  0.49640017430E+03  0.12500000000E+03 0.  0.
         25    1    1    2    0    0 -0.88323846371E+02 -0.51174555028E+02 -0.15125069196E+03  0.22118252358E+03  0.12500000000E+03 0.  0.
</event>
<event>
 5    0  0.5510933E-005  0.2304716E+03  0.7546771E-02  0.1126308E+00
         21   -1    0    0  502  501  0.00000000000E+00  0.00000000000E+00  0.14519803653E+03  0.14519803653E+03  0.00000000000E+00 0.  1.
         21   -1    0    0  501  502 -0.00000000000E+00 -0.00000000000E+00 -0.36582570594E+03  0.36582570594E+03  0.00000000000E+00 0.  1.
         25    1    1    2    0    0  0.47607659662E+02 -0.25403664592E+02 -0.53013493950E+02  0.14610703602E+03  0.12500000000E+03 0.  0.
         25    1    1    2    0    0 -0.70670612355E+02  0.41558218121E+02  0.54445165456E+01  0.14958630855E+03  0.12500000000E+03 0.  0.
         25    1    1    2    0    0  0.23062952693E+02 -0.16154553529E+02 -0.17305869200E+03  0.21533039791E+03  0.12500000000E+03 0.  0.
</event>
<event>
 5    0  0.5510933E-005  0.4469915E+03  0.7546771E-02  0.1028623E+00
         21   -1    0    0  502  501  0.00000000000E+00  0.00000000000E+00  0.42203515307E+03  0.42203515307E+03  0.00000000000E+00 0.  1.
         21   -1    0    0  501  502 -0.00000000000E+00 -0.00000000000E+00 -0.47342361899E+03  0.47342361899E+03  0.00000000000E+00 0.  1.
         25    1    1    2    0    0 -0.68051191559E+02  0.19691748200E+03  0.14140078549E+03  0.28111677561E+03  0.12500000000E+03 0.  0.
         25    1    1    2    0    0  0.12756357675E+03 -0.13541349042E+03  0.12905284045E+03  0.25862891395E+03  0.12500000000E+03 0.  0.
         25    1    1    2    0    0 -0.59512385190E+02 -0.61503991583E+02 -0.32184209185E+03  0.35571308250E+03  0.12500000000E+03 0.  0.
</event>
<event>
 5    0  0.5510933E-005  0.2571342E+03  0.7546771E-02  0.1108877E+00
         21   -1    0    0  502  501  0.00000000000E+00  0.00000000000E+00  0.16087957517E+03  0.16087957517E+03  0.00000000000E+00 0.  1.
         21   -1    0    0  501  502 -0.00000000000E+00 -0.00000000000E+00 -0.41097821774E+03  0.41097821774E+03  0.00000000000E+00 0.  1.
         25    1    1    2    0    0 -0.62994011307E+02  0.10232426383E+03 -0.12804577926E+03  0.21554401410E+03  0.12500000000E+03 0.  0.
         25    1    1    2    0    0 -0.44143461204E+02  0.13814971442E+02 -0.48680341186E+02  0.14189529316E+03  0.12500000000E+03 0.  0.
         25    1    1    2    0    0  0.10713747251E+03 -0.11613923527E+03 -0.73372522130E+02  0.21441848565E+03  0.12500000000E+03 0.  0.
</event>
<event>
 5    0  0.5510933E-005  0.2420579E+03  0.7546771E-02  0.1118429E+00
         21   -1    0    0  502  501  0.00000000000E+00  0.00000000000E+00  0.51993250190E+03  0.51993250190E+03  0.00000000000E+00 0. -1.
         21   -1    0    0  501  502 -0.00000000000E+00 -0.00000000000E+00 -0.11269160347E+03  0.11269160347E+03  0.00000000000E+00 0. -1.
         25    1    1    2    0    0  0.92327305706E+02  0.86245796613E+01  0.29519997202E+03  0.33371655373E+03  0.12500000000E+03 0.  0.
         25    1    1    2    0    0 -0.69062803652E+02 -0.32478035846E+02  0.73855739376E+02  0.16402488805E+03  0.12500000000E+03 0.  0.
         25    1    1    2    0    0 -0.23264502054E+02  0.23853456184E+02  0.38185187039E+02  0.13488266359E+03  0.12500000000E+03 0.  0.
</event>
<event>
 5    0  0.5510933E-005  0.2926699E+03  0.7546771E-02  0.1088963E+00
         21   -1    0    0  502  501  0.00000000000E+00  0.00000000000E+00  0.49863064748E+03  0.49863064748E+03  0.00000000000E+00 0.  1.
         21   -1    0    0  501  502 -0.00000000000E+00 -0.00000000000E+00 -0.17178179171E+03  0.17178179171E+03  0.00000000000E+00 0.  1.
         25    1    1    2    0    0 -0.10485053924E+02  0.47043802631E+02  0.92688634284E+01  0.13429060857E+03  0.12500000000E+03 0.  0.
         25    1    1    2    0    0 -0.96524099241E+02 -0.14374680115E+03  0.72572068138E+02  0.22554766603E+03  0.12500000000E+03 0.  0.
         25    1    1    2    0    0  0.10700915316E+03  0.96702998523E+02  0.24500792421E+03  0.31057416459E+03  0.12500000000E+03 0.  0.
</event>
<event>
 5    0  0.5510933E-005  0.4086033E+03  0.7546771E-02  0.1040841E+00
         21   -1    0    0  502  501  0.00000000000E+00  0.00000000000E+00  0.14513578803E+03  0.14513578803E+03  0.00000000000E+00 0. -1.
         21   -1    0    0  501  502 -0.00000000000E+00 -0.00000000000E+00 -0.11503482034E+04  0.11503482034E+04  0.00000000000E+00 0. -1.
         25    1    1    2    0    0  0.10140632333E+03 -0.18763024094E+03 -0.24008861335E+03  0.34460976768E+03  0.12500000000E+03 0.  0.
         25    1    1    2    0    0  0.29008998679E+02  0.26528207022E+02  0.17017843249E+02  0.13213581937E+03  0.12500000000E+03 0.  0.
         25    1    1    2    0    0 -0.13041532201E+03  0.16110203391E+03 -0.78214164528E+03  0.81873840439E+03  0.12500000000E+03 0.  0.
</event>
<event>
 5    0  0.5510933E-005  0.4873429E+03  0.7546771E-02  0.1017136E+00
         21   -1    0    0  502  501  0.00000000000E+00  0.00000000000E+00  0.96951995999E+02  0.96951995999E+02  0.00000000000E+00 0.  1.
         21   -1    0    0  501  502 -0.00000000000E+00 -0.00000000000E+00 -0.24496977612E+04  0.24496977612E+04  0.00000000000E+00 0.  1.
         25    1    1    2    0    0  0.11212701601E+03 -0.24271666892E+03 -0.26745145416E+03  0.39829527919E+03  0.12500000000E+03 0.  0.
         25    1    1    2    0    0 -0.60776076682E+02  0.18233995421E+03 -0.43759071580E+03  0.49401642175E+03  0.12500000000E+03 0.  0.
         25    1    1    2    0    0 -0.51350939329E+02  0.60376714704E+02 -0.16477035952E+04  0.16543380562E+04  0.12500000000E+03 0.  0.
</event>
<event>
 5    0  0.5510933E-005  0.3167779E+03  0.7546771E-02  0.1077142E+00
         21   -1    0    0  502  501  0.00000000000E+00  0.00000000000E+00  0.45523130306E+03  0.45523130306E+03  0.00000000000E+00 0. -1.
         21   -1    0    0  501  502 -0.00000000000E+00 -0.00000000000E+00 -0.22043349176E+03  0.22043349176E+03  0.00000000000E+00 0. -1.
         25    1    1    2    0    0 -0.12339322427E+03  0.86133088276E+02  0.94342944100E+02  0.21718744852E+03  0.12500000000E+03 0.  0.
         25    1    1    2    0    0  0.20566993453E+03 -0.12685883020E+03  0.43349029591E+02  0.27549486953E+03  0.12500000000E+03 0.  0.
         25    1    1    2    0    0 -0.82276710260E+02  0.40725741921E+02  0.97105837615E+02  0.18298247677E+03  0.12500000000E+03 0.  0.
</event>
<event>
 5    0  0.5510933E-005  0.3677861E+03  0.7546771E-02  0.1055543E+00
         21   -1    0    0  502  501  0.00000000000E+00  0.00000000000E+00  0.61535876462E+02  0.61535876462E+02  0.00000000000E+00 0.  1.
         21   -1    0    0  501  502 -0.00000000000E+00 -0.00000000000E+00 -0.21981752455E+04  0.21981752455E+04  0.00000000000E+00 0.  1.
         25    1    1    2    0    0  0.15019285549E+03 -0.15306942209E+03 -0.12316926668E+04  0.12564553184E+04  0.12500000000E+03 0.  0.
         25    1    1    2    0    0 -0.10916602600E+03 -0.31772145647E+00 -0.68395243175E+03  0.70379915535E+03  0.12500000000E+03 0.  0.
         25    1    1    2    0    0 -0.41026829487E+02  0.15338714354E+03 -0.22099427053E+03  0.29945664820E+03  0.12500000000E+03 0.  0.
</event>
<event>
 5    0  0.5510933E-005  0.2213141E+03  0.7546771E-02  0.1132907E+00
         21   -1    0    0  502  501  0.00000000000E+00  0.00000000000E+00  0.34218396294E+03  0.34218396294E+03  0.00000000000E+00 0.  1.
         21   -1    0    0  501  502 -0.00000000000E+00 -0.00000000000E+00 -0.14313923247E+03  0.14313923247E+03  0.00000000000E+00 0.  1.
         25    1    1    2    0    0  0.57719068499E+02  0.16028574394E+02  0.10342560949E+03  0.17294583766E+03  0.12500000000E+03 0.  0.
         25    1    1    2    0    0 -0.68339863183E+02  0.53291060551E+02  0.31353736152E+02  0.15530077529E+03  0.12500000000E+03 0.  0.
         25    1    1    2    0    0  0.10620794685E+02 -0.69319634945E+02  0.64265384829E+02  0.15707658246E+03  0.12500000000E+03 0.  0.
</event>
<event>
 5    0  0.5510933E-005  0.3821219E+03  0.7546771E-02  0.1050152E+00
         21   -1    0    0  502  501  0.00000000000E+00  0.00000000000E+00  0.72754951536E+03  0.72754951536E+03  0.00000000000E+00 0.  1.
         21   -1    0    0  501  502 -0.00000000000E+00 -0.00000000000E+00 -0.20069719885E+03  0.20069719885E+03  0.00000000000E+00 0.  1.
         25    1    1    2    0    0 -0.14621646149E+03  0.33417097168E+02  0.48054037241E+01  0.19530501248E+03  0.12500000000E+03 0.  0.
         25    1    1    2    0    0  0.21561275915E+03 -0.12363470315E+03  0.48613504985E+03  0.56011310324E+03  0.12500000000E+03 0.  0.
         25    1    1    2    0    0 -0.69396297660E+02  0.90217605981E+02  0.35911862929E+02  0.17282859849E+03  0.12500000000E+03 0.  0.
</event>
<event>
 5    0  0.5510933E-005  0.3231191E+03  0.7546771E-02  0.1074223E+00
         21   -1    0    0  502  501  0.00000000000E+00  0.00000000000E+00  0.29041408607E+03  0.29041408607E+03  0.00000000000E+00 0.  1.
         21   -1    0    0  501  502 -0.00000000000E+00 -0.00000000000E+00 -0.35950723726E+03  0.35950723726E+03  0.00000000000E+00 0.  1.
         25    1    1    2    0    0  0.69924717203E+02 -0.97303587300E+02  0.11151638542E+03  0.20595717612E+03  0.12500000000E+03 0.  0.
         25    1    1    2    0    0  0.27679004916E+02 -0.59353061968E+02 -0.16979800092E+03  0.22078332001E+03  0.12500000000E+03 0.  0.
         25    1    1    2    0    0 -0.97603722119E+02  0.15665664927E+03 -0.10811535692E+02  0.22318082721E+03  0.12500000000E+03 0.  0.
</event>
<event>
 5    0  0.5510933E-005  0.5033367E+03  0.7546771E-02  0.1012912E+00
         21   -1    0    0  502  501  0.00000000000E+00  0.00000000000E+00  0.19003456653E+04  0.19003456653E+04  0.00000000000E+00 0.  1.
         21   -1    0    0  501  502 -0.00000000000E+00 -0.00000000000E+00 -0.13331670131E+03  0.13331670131E+03  0.00000000000E+00 0.  1.
         25    1    1    2    0    0  0.20367792790E+03  0.96225221425E+02  0.26242245143E+03  0.36774248403E+03  0.12500000000E+03 0.  0.
         25    1    1    2    0    0  0.37691327469E+02 -0.19597475977E+03  0.14659277681E+03  0.27738274071E+03  0.12500000000E+03 0.  0.
         25    1    1    2    0    0 -0.24136925537E+03  0.99749538342E+02  0.13580137357E+04  0.13885371418E+04  0.12500000000E+03 0.  0.
</event>
<event>
 5    0  0.5510933E-005  0.4052638E+03  0.7546771E-02  0.1041972E+00
         21   -1    0    0  502  501  0.00000000000E+00  0.00000000000E+00  0.79002811240E+03  0.79002811240E+03  0.00000000000E+00 0.  1.
         21   -1    0    0  501  502 -0.00000000000E+00 -0.00000000000E+00 -0.20788974224E+03  0.20788974224E+03  0.00000000000E+00 0.  1.
         25    1    1    2    0    0  0.47935902946E+02  0.11526150852E+03  0.20362554956E+03  0.26957639098E+03  0.12500000000E+03 0.  0.
         25    1    1    2    0    0  0.23578183048E+03  0.36225632088E+02  0.22386257636E+03  0.35020682617E+03  0.12500000000E+03 0.  0.
         25    1    1    2    0    0 -0.28371773342E+03 -0.15148714061E+03  0.15465024423E+03  0.37813463749E+03  0.12500000000E+03 0.  0.
</event>
<event>
 5    0  0.5510933E-005  0.2858335E+03  0.7546771E-02  0.1092545E+00
         21   -1    0    0  502  501  0.00000000000E+00  0.00000000000E+00  0.21052226031E+04  0.21052226031E+04  0.00000000000E+00 0.  1.
         21   -1    0    0  501  502 -0.00000000000E+00 -0.00000000000E+00 -0.38808628733E+02  0.38808628733E+02  0.00000000000E+00 0.  1.
         25    1    1    2    0    0  0.21871606239E+02  0.16310584626E+02  0.98778792619E+03  0.99603935136E+03  0.12500000000E+03 0.  0.
         25    1    1    2    0    0  0.12863580899E+03 -0.26346052362E+02  0.35901634371E+03  0.40219276583E+03  0.12500000000E+03 0.  0.
         25    1    1    2    0    0 -0.15050741523E+03  0.10035467736E+02  0.71960970448E+03  0.74579911467E+03  0.12500000000E+03 0.  0.
</event>
<event>
 5    0  0.5510933E-005  0.3682897E+03  0.7546771E-02  0.1055349E+00
         21   -1    0    0  502  501  0.00000000000E+00  0.00000000000E+00  0.12881714094E+03  0.12881714094E+03  0.00000000000E+00 0. -1.
         21   -1    0    0  501  502 -0.00000000000E+00 -0.00000000000E+00 -0.10529445718E+04  0.10529445718E+04  0.00000000000E+00 0. -1.
         25    1    1    2    0    0 -0.29827926949E+02 -0.15248812934E+03 -0.80586733656E+02  0.21508499822E+03  0.12500000000E+03 0.  0.
         25    1    1    2    0    0  0.87221222880E+02  0.15912715955E+03 -0.78793717201E+03  0.81816806443E+03  0.12500000000E+03 0.  0.
         25    1    1    2    0    0 -0.57393295931E+02 -0.66390302090E+01 -0.55603525214E+02  0.14850865011E+03  0.12500000000E+03 0.  0.
</event>
<event>
 5    0  0.5510933E-005  0.2087656E+03  0.7546771E-02  0.1142547E+00
         21   -1    0    0  502  501  0.00000000000E+00  0.00000000000E+00  0.10556678451E+03  0.10556678451E+03  0.00000000000E+00 0.  1.
         21   -1    0    0  501  502 -0.00000000000E+00 -0.00000000000E+00 -0.41284822746E+03  0.41284822746E+03  0.00000000000E+00 0.  1.
         25    1    1    2    0    0 -0.16025849012E+02  0.48406007391E+02 -0.62336263258E+02  0.14869693711E+03  0.12500000000E+03 0.  0.
         25    1    1    2    0    0 -0.32990173949E+01 -0.20270927870E+02 -0.51190560932E+02  0.13662820924E+03  0.12500000000E+03 0.  0.
         25    1    1    2    0    0  0.19324866407E+02 -0.28135079521E+02 -0.19375461877E+03  0.23308986562E+03  0.12500000000E+03 0.  0.
</event>
<event>
 5    0  0.5510933E-005  0.3129130E+03  0.7546771E-02  0.1078958E+00
         21   -1    0    0  502  501  0.00000000000E+00  0.00000000000E+00  0.15416729373E+04  0.15416729373E+04  0.00000000000E+00 0. -1.
         21   -1    0    0  501  502 -0.00000000000E+00 -0.00000000000E+00 -0.63511882773E+02  0.63511882773E+02  0.00000000000E+00 0. -1.
         25    1    1    2    0    0  0.29087807996E+02  0.16922676927E+03  0.24393825733E+03  0.32344191658E+03  0.12500000000E+03 0.  0.
         25    1    1    2    0    0  0.35346730957E+02 -0.45915033763E+02  0.75201858349E+03  0.76453550057E+03  0.12500000000E+03 0.  0.
         25    1    1    2    0    0 -0.64434538953E+02 -0.12331173551E+03  0.48220421373E+03  0.51720740295E+03  0.12500000000E+03 0.  0.
</event>
<event>
 5    0  0.5510933E-005  0.5357864E+03  0.7546771E-02  0.1004838E+00
         21   -1    0    0  502  501  0.00000000000E+00  0.00000000000E+00  0.14843857016E+03  0.14843857016E+03  0.00000000000E+00 0. -1.
         21   -1    0    0  501  502 -0.00000000000E+00 -0.00000000000E+00 -0.19339116744E+04  0.19339116744E+04  0.00000000000E+00 0. -1.
         25    1    1    2    0    0  0.23669218890E+03 -0.10162178396E+02 -0.11692439945E+03  0.29227175255E+03  0.12500000000E+03 0.  0.
         25    1    1    2    0    0 -0.34075869778E+03  0.17990991882E+03 -0.91396430100E+03  0.99971986701E+03  0.12500000000E+03 0.  0.
         25    1    1    2    0    0  0.10406650888E+03 -0.16974774043E+03 -0.75458440379E+03  0.79035862499E+03  0.12500000000E+03 0.  0.
</event>
<event>
 5    0  0.5510933E-005  0.2685577E+03  0.7546771E-02  0.1102108E+00
         21   -1    0    0  502  501  0.00000000000E+00  0.00000000000E+00  0.91357421307E+02  0.91357421307E+02  0.00000000000E+00 0.  1.
         21   -1    0    0  501  502 -0.00000000000E+00 -0.00000000000E+00 -0.78946199599E+03  0.78946199599E+03  0.00000000000E+00 0.  1.
         25    1    1    2    0    0  0.92842948114E+02  0.81140631277E+02 -0.18592570697E+03  0.25572833940E+03  0.12500000000E+03 0.  0.
         25    1    1    2    0    0 -0.93686707346E+02 -0.54885512658E+02 -0.45678302447E+03  0.48586556791E+03  0.12500000000E+03 0.  0.
         25    1    1    2    0    0  0.84375923208E+00 -0.26255118619E+02 -0.55395843236E+02  0.13922550999E+03  0.12500000000E+03 0.  0.
</event>
<event>
 5    0  0.5510933E-005  0.3504438E+03  0.7546771E-02  0.1062433E+00
         21   -1    0    0  502  501  0.00000000000E+00  0.00000000000E+00  0.10778627910E+03  0.10778627910E+03  0.00000000000E+00 0. -1.
         21   -1    0    0  501  502 -0.00000000000E+00 -0.00000000000E+00 -0.11393925244E+04  0.11393925244E+04  0.00000000000E+00 0. -1.
         25    1    1    2    0    0 -0.24056316595E+03  0.32689557248E+01 -0.66353643537E+03  0.71678931629E+03  0.12500000000E+03 0.  0.
         25    1    1    2    0    0  0.54138749767E+02  0.48249373638E+02 -0.19301073461E+03  0.24111646554E+03  0.12500000000E+03 0.  0.
         25    1    1    2    0    0  0.18642441618E+03 -0.51518329363E+02 -0.17505907532E+03  0.28927302166E+03  0.12500000000E+03 0.  0.
</event>
<event>
 5    0  0.5510933E-005  0.7919951E+03  0.7546771E-02  0.9571677E-01
         21   -1    0    0  502  501  0.00000000000E+00  0.00000000000E+00  0.38098375588E+03  0.38098375588E+03  0.00000000000E+00 0.  1.
         21   -1    0    0  501  502 -0.00000000000E+00 -0.00000000000E+00 -0.16464122103E+04  0.16464122103E+04  0.00000000000E+00 0.  1.
         25    1    1    2    0    0 -0.26428280826E+02 -0.69043534782E+02 -0.33082506067E+03  0.36129722458E+03  0.12500000000E+03 0.  0.
         25    1    1    2    0    0  0.68350392907E+03  0.59057338616E+01 -0.58726251765E+03  0.90978830690E+03  0.12500000000E+03 0.  0.
         25    1    1    2    0    0 -0.65707564824E+03  0.63137800920E+02 -0.34734087610E+03  0.75631043469E+03  0.12500000000E+03 0.  0.
</event>
<event>
 5    0  0.5510933E-005  0.2822114E+03  0.7546771E-02  0.1094487E+00
         21   -1    0    0  502  501  0.00000000000E+00  0.00000000000E+00  0.22355723836E+03  0.22355723836E+03  0.00000000000E+00 0. -1.
         21   -1    0    0  501  502 -0.00000000000E+00 -0.00000000000E+00 -0.35625450038E+03  0.35625450038E+03  0.00000000000E+00 0. -1.
         25    1    1    2    0    0 -0.16509292154E+03 -0.19528382615E+02 -0.40038100921E+02  0.21181378613E+03  0.12500000000E+03 0.  0.
         25    1    1    2    0    0  0.84861535738E+02  0.42967210037E+01 -0.14531842769E+03  0.20967209515E+03  0.12500000000E+03 0.  0.
         25    1    1    2    0    0  0.80231385801E+02  0.15231661611E+02  0.52659266590E+02  0.15832585746E+03  0.12500000000E+03 0.  0.
</event>
<event>
 5    0  0.5510933E-005  0.2237762E+03  0.7546771E-02  0.1131099E+00
         21   -1    0    0  502  501  0.00000000000E+00  0.00000000000E+00  0.43997470991E+03  0.43997470991E+03  0.00000000000E+00 0. -1.
         21   -1    0    0  501  502 -0.00000000000E+00 -0.00000000000E+00 -0.11381512286E+03  0.11381512286E+03  0.00000000000E+00 0. -1.
         25    1    1    2    0    0  0.32610791285E+02 -0.79088496215E+02  0.11417731410E+03  0.18968371832E+03  0.12500000000E+03 0.  0.
         25    1    1    2    0    0 -0.69621356531E+02  0.15666444646E+01  0.86069659213E+02  0.16698075906E+03  0.12500000000E+03 0.  0.
         25    1    1    2    0    0  0.37010565246E+02  0.77521851750E+02  0.12591261374E+03  0.19712535539E+03  0.12500000000E+03 0.  0.
</event>
<event>
 5    0  0.5510933E-005  0.2500997E+03  0.7546771E-02  0.1113242E+00
         21   -1    0    0  502  501  0.00000000000E+00  0.00000000000E+00  0.28098714412E+03  0.28098714412E+03  0.00000000000E+00 0. -1.
         21   -1    0    0  501  502 -0.00000000000E+00 -0.00000000000E+00 -0.22260756325E+03  0.22260756325E+03  0.00000000000E+00 0. -1.
         25    1    1    2    0    0  0.79894538877E+02  0.11023690037E+02  0.49240985777E+02  0.15669822515E+03  0.12500000000E+03 0.  0.
         25    1    1    2    0    0 -0.89321726245E+02 -0.87542906478E+02  0.66933876711E+02  0.18906949808E+03  0.12500000000E+03 0.  0.
         25    1    1    2    0    0  0.94271873687E+01  0.76519216441E+02 -0.57795281616E+02  0.15782698414E+03  0.12500000000E+03 0.  0.
</event>
<event>
 5    0  0.5510933E-005  0.2805676E+03  0.7546771E-02  0.1095379E+00
         21   -1    0    0  502  501  0.00000000000E+00  0.00000000000E+00  0.15023083216E+03  0.15023083216E+03  0.00000000000E+00 0. -1.
         21   -1    0    0  501  502 -0.00000000000E+00 -0.00000000000E+00 -0.52398159367E+03  0.52398159367E+03  0.00000000000E+00 0. -1.
         25    1    1    2    0    0 -0.67982770853E+01  0.39053397666E+01  0.74639248708E+02  0.14579947084E+03  0.12500000000E+03 0.  0.
         25    1    1    2    0    0 -0.60260222357E+01 -0.23755794004E+01 -0.34053349829E+03  0.36280851668E+03  0.12500000000E+03 0.  0.
         25    1    1    2    0    0  0.12824299321E+02 -0.15297603663E+01 -0.10785651193E+03  0.16560443830E+03  0.12500000000E+03 0.  0.
</event>
<event>
 5    0  0.5510933E-005  0.2872754E+03  0.7546771E-02  0.1091780E+00
         21   -1    0    0  502  501  0.00000000000E+00  0.00000000000E+00  0.20120427445E+03  0.20120427445E+03  0.00000000000E+00 0.  1.
         21   -1    0    0  501  502 -0.00000000000E+00 -0.00000000000E+00 -0.41016610980E+03  0.41016610980E+03  0.00000000000E+00 0.  1.
         25    1    1    2    0    0  0.14772548433E+03 -0.64730121355E+02 -0.11363348714E+03  0.23356022078E+03  0.12500000000E+03 0.  0.
         25    1    1    2    0    0 -0.16677048559E+03 -0.25464726665E+02 -0.47163807679E+02  0.21519821543E+03  0.12500000000E+03 0.  0.
         25    1    1    2    0    0  0.19045001255E+02  0.90194848020E+02 -0.48164540531E+02  0.16261194804E+03  0.12500000000E+03 0.  0.
</event>
<event>
 5    0  0.5510933E-005  0.5463955E+03  0.7546771E-02  0.1002332E+00
         21   -1    0    0  502  501  0.00000000000E+00  0.00000000000E+00  0.19070744925E+03  0.19070744925E+03  0.00000000000E+00 0. -1.
         21   -1    0    0  501  502 -0.00000000000E+00 -0.00000000000E+00 -0.15654768344E+04  0.15654768344E+04  0.00000000000E+00 0. -1.
         25    1    1    2    0    0 -0.41410237120E+03 -0.68845059563E+02 -0.37282003796E+03  0.57518709718E+03  0.12500000000E+03 0.  0.
         25    1    1    2    0    0  0.35096299791E+03  0.24374294384E+02 -0.34679773547E+03  0.50957119370E+03  0.12500000000E+03 0.  0.
         25    1    1    2    0    0  0.63139373295E+02  0.44470765179E+02 -0.65515161170E+03  0.67142599274E+03  0.12500000000E+03 0.  0.
</event>
<event>
 5    0  0.5510933E-005  0.2977524E+03  0.7546771E-02  0.1086370E+00
         21   -1    0    0  502  501  0.00000000000E+00  0.00000000000E+00  0.92712563512E+02  0.92712563512E+02  0.00000000000E+00 0.  1.
         21   -1    0    0  501  502 -0.00000000000E+00 -0.00000000000E+00 -0.95625099387E+03  0.95625099387E+03  0.00000000000E+00 0.  1.
         25    1    1    2    0    0  0.46107545846E+02  0.38049917232E+02 -0.16495089350E+02  0.13953777251E+03  0.12500000000E+03 0.  0.
         25    1    1    2    0    0  0.42105029348E+02 -0.37422644796E+02 -0.62444928387E+03  0.63932401485E+03  0.12500000000E+03 0.  0.
         25    1    1    2    0    0 -0.88212575194E+02 -0.62727243541E+00 -0.22259405713E+03  0.27010177001E+03  0.12500000000E+03 0.  0.
</event>
<event>
 5    0  0.5510933E-005  0.5737083E+03  0.7546771E-02  0.9961506E-01
         21   -1    0    0  502  501  0.00000000000E+00  0.00000000000E+00  0.20905941498E+03  0.20905941498E+03  0.00000000000E+00 0. -1.
         21   -1    0    0  501  502 -0.00000000000E+00 -0.00000000000E+00 -0.15743907553E+04  0.15743907553E+04  0.00000000000E+00 0. -1.
         25    1    1    2    0    0  0.18921070553E+03  0.98704099666E+02 -0.61369547405E+03  0.66165725662E+03  0.12500000000E+03 0.  0.
         25    1    1    2    0    0 -0.30607635488E+03  0.24262204522E+03 -0.56133871447E+03  0.69517936117E+03  0.12500000000E+03 0.  0.
         25    1    1    2    0    0  0.11686564934E+03 -0.34132614488E+03 -0.19029715179E+03  0.42661355247E+03  0.12500000000E+03 0.  0.
</event>
<event>
 5    0  0.5510933E-005  0.3755473E+03  0.7546771E-02  0.1052592E+00
         21   -1    0    0  502  501  0.00000000000E+00  0.00000000000E+00  0.10999744241E+03  0.10999744241E+03  0.00000000000E+00 0. -1.
         21   -1    0    0  501  502 -0.00000000000E+00 -0.00000000000E+00 -0.12821731977E+04  0.12821731977E+04  0.00000000000E+00 0. -1.
         25    1    1    2    0    0  0.12891770088E+03  0.65863163391E+02 -0.64467681994E+03  0.67245143472E+03  0.12500000000E+03 0.  0.
         25    1    1    2    0    0 -0.26773781669E+03 -0.51118112332E+02 -0.28957021836E+03  0.41686030185E+03  0.12500000000E+03 0.  0.
         25    1    1    2    0    0  0.13882011581E+03 -0.14745051059E+02 -0.23792871701E+03  0.30285890355E+03  0.12500000000E+03 0.  0.
</event>
<event>
 5    0  0.5510933E-005  0.4867403E+03  0.7546771E-02  0.1017299E+00
         21   -1    0    0  502  501  0.00000000000E+00  0.00000000000E+00  0.40582158349E+03  0.40582158349E+03  0.00000000000E+00 0.  1.
         21   -1    0    0  501  502 -0.00000000000E+00 -0.00000000000E+00 -0.58379383353E+03  0.58379383353E+03  0.00000000000E+00 0.  1.
         25    1    1    2    0    0 -0.19715898766E+03  0.74844844172E+02  0.52598702668E+02  0.25072901833E+03  0.12500000000E+03 0.  0.
         25    1    1    2    0    0 -0.17151280713E+03  0.13954166559E+03 -0.12003489113E+03  0.28093040871E+03  0.12500000000E+03 0.  0.
         25    1    1    2    0    0  0.36867179479E+03 -0.21438650977E+03 -0.11053606158E+03  0.45795598997E+03  0.12500000000E+03 0.  0.
</event>
<event>
 5    0  0.5510933E-005  0.2382904E+03  0.7546771E-02  0.1120937E+00
         21   -1    0    0  502  501  0.00000000000E+00  0.00000000000E+00  0.16765446316E+03  0.16765446316E+03  0.00000000000E+00 0.  1.
         21   -1    0    0  501  502 -0.00000000000E+00 -0.00000000000E+00 -0.33868666269E+03  0.33868666269E+03  0.00000000000E+00 0.  1.
         25    1    1    2    0    0 -0.48692125490E+01 -0.25993226923E+02  0.63380836835E+02  0.14262358695E+03  0.12500000000E+03 0.  0.
         25    1    1    2    0    0 -0.55916241279E+02  0.14971381925E+01 -0.11760455308E+03  0.18051232192E+03  0.12500000000E+03 0.  0.
         25    1    1    2    0    0  0.60785453828E+02  0.24496088731E+02 -0.11680848329E+03  0.18320521698E+03  0.12500000000E+03 0.  0.
</event>
<event>
 5    0  0.5510933E-005  0.4322717E+03  0.7546771E-02  0.1033145E+00
         21   -1    0    0  502  501  0.00000000000E+00  0.00000000000E+00  0.17991686890E+04  0.17991686890E+04  0.00000000000E+00 0.  1.
         21   -1    0    0  501  502 -0.00000000000E+00 -0.00000000000E+00 -0.10385840384E+03  0.10385840384E+03  0.00000000000E+00 0.  1.
         25    1    1    2    0    0 -0.24596663101E+03  0.10451700219E+03  0.13318448137E+04  0.13641330562E+04  0.12500000000E+03 0.  0.
         25    1    1    2    0    0  0.13938788120E+03  0.22335064420E+02  0.14775257789E+03  0.23954886933E+03  0.12500000000E+03 0.  0.
         25    1    1    2    0    0  0.10657874981E+03 -0.12685206661E+03  0.21571289355E+03  0.29934516725E+03  0.12500000000E+03 0.  0.
</event>
<event>
 5    0  0.5510933E-005  0.3223330E+03  0.7546771E-02  0.1074581E+00
         21   -1    0    0  502  501  0.00000000000E+00  0.00000000000E+00  0.57118191713E+03  0.57118191713E+03  0.00000000000E+00 0. -1.
         21   -1    0    0  501  502 -0.00000000000E+00 -0.00000000000E+00 -0.18190095110E+03  0.18190095110E+03  0.00000000000E+00 0. -1.
         25    1    1    2    0    0  0.55684860408E+02  0.17122376009E+03  0.79532764552E+02  0.23317126824E+03  0.12500000000E+03 0.  0.
         25    1    1    2    0    0 -0.12500101089E+03 -0.12466458599E+03  0.53510508243E+02  0.22283376364E+03  0.12500000000E+03 0.  0.
         25    1    1    2    0    0  0.69316150483E+02 -0.46559174097E+02  0.25623769324E+03  0.29707783635E+03  0.12500000000E+03 0.  0.
</event>
<event>
 5    0  0.5510933E-005  0.2502908E+03  0.7546771E-02  0.1113121E+00
         21   -1    0    0  502  501  0.00000000000E+00  0.00000000000E+00  0.73714520705E+02  0.73714520705E+02  0.00000000000E+00 0.  1.
         21   -1    0    0  501  502 -0.00000000000E+00 -0.00000000000E+00 -0.84983913884E+03  0.84983913884E+03  0.00000000000E+00 0.  1.
         25    1    1    2    0    0  0.43111146905E+02  0.10990526593E+03 -0.28975484360E+03  0.33692819392E+03  0.12500000000E+03 0.  0.
         25    1    1    2    0    0  0.44401386207E+02 -0.30521708953E+02 -0.31810883905E+03  0.34600764629E+03  0.12500000000E+03 0.  0.
         25    1    1    2    0    0 -0.87512533111E+02 -0.79383556977E+02 -0.16826093549E+03  0.24061781934E+03  0.12500000000E+03 0.  0.
</event>
<event>
 5    0  0.5510933E-005  0.5541542E+03  0.7546771E-02  0.1000537E+00
         21   -1    0    0  502  501  0.00000000000E+00  0.00000000000E+00  0.90917297775E+03  0.90917297775E+03  0.00000000000E+00 0. -1.
         21   -1    0    0  501  502 -0.00000000000E+00 -0.00000000000E+00 -0.33776513206E+03  0.33776513206E+03  0.00000000000E+00 0. -1.
         25    1    1    2    0    0  0.20274582524E+02  0.31519126665E+03  0.35179367072E+03  0.48901981558E+03  0.12500000000E+03 0.  0.
         25    1    1    2    0    0  0.24450384638E+03  0.25961400077E+02  0.83563681125E+02  0.28820828231E+03  0.12500000000E+03 0.  0.
         25    1    1    2    0    0 -0.26477842890E+03 -0.34115266673E+03  0.13605049385E+03  0.46971001193E+03  0.12500000000E+03 0.  0.
</event>
<event>
 5    0  0.5510933E-005  0.2309413E+03  0.7546771E-02  0.1125979E+00
         21   -1    0    0  502  501  0.00000000000E+00  0.00000000000E+00  0.41816979549E+03  0.41816979549E+03  0.00000000000E+00 0.  1.
         21   -1    0    0  501  502 -0.00000000000E+00 -0.00000000000E+00 -0.12754117317E+03  0.12754117317E+03  0.00000000000E+00 0.  1.
         25    1    1    2    0    0  0.48806949718E+02  0.24285368934E+02  0.26206059121E+01  0.13639561965E+03  0.12500000000E+03 0.  0.
         25    1    1    2    0    0  0.23603955365E+02  0.36053407410E+02  0.10774700956E+03  0.17056205018E+03  0.12500000000E+03 0.  0.
         25    1    1    2    0    0 -0.72410905083E+02 -0.60338776344E+02  0.18026100686E+03  0.23875329882E+03  0.12500000000E+03 0.  0.
</event>
<event>
 5    0  0.5510933E-005  0.2722071E+03  0.7546771E-02  0.1100023E+00
         21   -1    0    0  502  501  0.00000000000E+00  0.00000000000E+00  0.41577942380E+03  0.41577942380E+03  0.00000000000E+00 0. -1.
         21   -1    0    0  501  502 -0.00000000000E+00 -0.00000000000E+00 -0.17821153275E+03  0.17821153275E+03  0.00000000000E+00 0. -1.
         25    1    1    2    0    0 -0.37627115376E+02  0.26332636509E+02  0.21029387932E+03  0.24891308370E+03  0.12500000000E+03 0.  0.
         25    1    1    2    0    0  0.19869885316E+02 -0.12488091573E+03  0.46444460539E+02  0.18377198745E+03  0.12500000000E+03 0.  0.
         25    1    1    2    0    0  0.17757230060E+02  0.98548279222E+02 -0.19170448807E+02  0.16130588540E+03  0.12500000000E+03 0.  0.
</event>
<event>
 5    0  0.5510933E-005  0.4035256E+03  0.7546771E-02  0.1042566E+00
         21   -1    0    0  502  501  0.00000000000E+00  0.00000000000E+00  0.11640957024E+04  0.11640957024E+04  0.00000000000E+00 0.  1.
         21   -1    0    0  501  502 -0.00000000000E+00 -0.00000000000E+00 -0.13987932052E+03  0.13987932052E+03  0.00000000000E+00 0.  1.
         25    1    1    2    0    0 -0.13332123343E+02 -0.45851860398E+02 -0.11944426559E+02  0.13434213018E+03  0.12500000000E+03 0.  0.
         25    1    1    2    0    0 -0.16330571360E+03  0.89633346630E+02  0.85530196033E+03  0.88423375658E+03  0.12500000000E+03 0.  0.
         25    1    1    2    0    0  0.17663783695E+03 -0.43781486233E+02  0.18085884807E+03  0.28539913613E+03  0.12500000000E+03 0.  0.
</event>
<event>
 5    0  0.5510933E-005  0.4170462E+03  0.7546771E-02  0.1038032E+00
         21   -1    0    0  502  501  0.00000000000E+00  0.00000000000E+00  0.88945907260E+02  0.88945907260E+02  0.00000000000E+00 0.  1.
         21   -1    0    0  501  502 -0.00000000000E+00 -0.00000000000E+00 -0.19554305965E+04  0.19554305965E+04  0.00000000000E+00 0.  1.
         25    1    1    2    0    0  0.13700164759E+03 -0.10455169194E+03 -0.87530587203E+03  0.90082510918E+03  0.12500000000E+03 0.  0.
         25    1    1    2    0    0  0.19929035588E+02 -0.15803221141E+03 -0.59010832299E+03  0.62387833683E+03  0.12500000000E+03 0.  0.
         25    1    1    2    0    0 -0.15693068318E+03  0.26258390335E+03 -0.40107049425E+03  0.51967305778E+03  0.12500000000E+03 0.  0.
</event>
<event>
 5    0  0.5537683E-005  0.2710608E+03  0.7546771E-02  0.1100674E+00
         21   -1    0    0  502  501  0.00000000000E+00  0.00000000000E+00  0.34826025086E+03  0.34826025086E+03  0.00000000000E+00 0.  1.
         21   -1    0    0  501  502 -0.00000000000E+00 -0.00000000000E+00 -0.21097424809E+03  0.21097424809E+03  0.00000000000E+00 0.  1.
         25    1    1    2    0    0 -0.10700491023E+03  0.21080273181E+02  0.40169941502E+02  0.17068407346E+03  0.12500000000E+03 0.  0.
         25    1    1    2    0    0  0.11253250636E+03 -0.11693340294E+03  0.10606887748E+03  0.23067854794E+03  0.12500000000E+03 0.  0.
         25    1    1    2    0    0 -0.55275961270E+01  0.95853129760E+02 -0.89528162110E+01  0.15787187755E+03  0.12500000000E+03 0.  0.
</event>
<event>
 5    0  0.5510933E-005  0.4221082E+03  0.7546771E-02  0.1036382E+00
         21   -1    0    0  502  501  0.00000000000E+00  0.00000000000E+00  0.25033835320E+03  0.25033835320E+03  0.00000000000E+00 0. -1.
         21   -1    0    0  501  502 -0.00000000000E+00 -0.00000000000E+00 -0.71173814746E+03  0.71173814746E+03  0.00000000000E+00 0. -1.
         25    1    1    2    0    0 -0.16463110011E+03  0.18674560209E+03 -0.40332558865E+03  0.49017736533E+03  0.12500000000E+03 0.  0.
         25    1    1    2    0    0  0.16373352938E+02 -0.76307261658E+02  0.11707662700E+03  0.18820951479E+03  0.12500000000E+03 0.  0.
         25    1    1    2    0    0  0.14825774717E+03 -0.11043834043E+03 -0.17515083262E+03  0.28368962054E+03  0.12500000000E+03 0.  0.
</event>
<event>
 5    0  0.5510933E-005  0.2467729E+03  0.7546771E-02  0.1115361E+00
         21   -1    0    0  502  501  0.00000000000E+00  0.00000000000E+00  0.11069272097E+04  0.11069272097E+04  0.00000000000E+00 0. -1.
         21   -1    0    0  501  502 -0.00000000000E+00 -0.00000000000E+00 -0.55014353610E+02  0.55014353610E+02  0.00000000000E+00 0. -1.
         25    1    1    2    0    0 -0.69608201964E+02 -0.91077868830E+02  0.41921630404E+03  0.45222537472E+03  0.12500000000E+03 0.  0.
         25    1    1    2    0    0 -0.33541063119E+02  0.23695265217E+02  0.17083207446E+03  0.21562714619E+03  0.12500000000E+03 0.  0.
         25    1    1    2    0    0  0.10314926508E+03  0.67382603613E+02  0.46186447756E+03  0.49408904237E+03  0.12500000000E+03 0.  0.
</event>
<event>
 5    0  0.5510933E-005  0.3030066E+03  0.7546771E-02  0.1083747E+00
         21   -1    0    0  502  501  0.00000000000E+00  0.00000000000E+00  0.21345882496E+03  0.21345882496E+03  0.00000000000E+00 0. -1.
         21   -1    0    0  501  502 -0.00000000000E+00 -0.00000000000E+00 -0.43012040316E+03  0.43012040316E+03  0.00000000000E+00 0. -1.
         25    1    1    2    0    0  0.80744416408E+02  0.60995093795E+02 -0.19480815205E+03  0.25261686079E+03  0.12500000000E+03 0.  0.
         25    1    1    2    0    0 -0.55796580326E+01 -0.16416356873E+03 -0.43661051233E+02  0.21097890245E+03  0.12500000000E+03 0.  0.
         25    1    1    2    0    0 -0.75164758375E+02  0.10316847494E+03  0.21807625088E+02  0.17998346489E+03  0.12500000000E+03 0.  0.
</event>
<event>
 5    0  0.5510933E-005  0.2677367E+03  0.7546771E-02  0.1102582E+00
         21   -1    0    0  502  501  0.00000000000E+00  0.00000000000E+00  0.63910897502E+02  0.63910897502E+02  0.00000000000E+00 0.  1.
         21   -1    0    0  501  502 -0.00000000000E+00 -0.00000000000E+00 -0.11216072367E+04  0.11216072367E+04  0.00000000000E+00 0.  1.
         25    1    1    2    0    0  0.20534773866E+01  0.47015848327E+02 -0.18639012540E+03  0.22930544173E+03  0.12500000000E+03 0.  0.
         25    1    1    2    0    0 -0.12466234610E+03 -0.70850881946E+02 -0.62337257475E+03  0.65175065397E+03  0.12500000000E+03 0.  0.
         25    1    1    2    0    0  0.12260886871E+03  0.23835033619E+02 -0.24793363909E+03  0.30446203853E+03  0.12500000000E+03 0.  0.
</event>
<event>
 5    0  0.5510933E-005  0.3113005E+03  0.7546771E-02  0.1079724E+00
         21   -1    0    0  502  501  0.00000000000E+00  0.00000000000E+00  0.64864165086E+03  0.64864165086E+03  0.00000000000E+00 0.  1.
         21   -1    0    0  501  502 -0.00000000000E+00 -0.00000000000E+00 -0.14940144533E+03  0.14940144533E+03  0.00000000000E+00 0.  1.
         25    1    1    2    0    0 -0.11303829689E+02 -0.13309813373E+03  0.38415525569E+03  0.42549165707E+03  0.12500000000E+03 0.  0.
         25    1    1    2    0    0 -0.39701460904E+02  0.87680063740E+02  0.15850942015E+03  0.22363862781E+03  0.12500000000E+03 0.  0.
         25    1    1    2    0    0  0.51005290593E+02  0.45418069986E+02 -0.43424470298E+02  0.14891281130E+03  0.12500000000E+03 0.  0.
</event>
<event>
 5    0  0.5510933E-005  0.4859097E+03  0.7546771E-02  0.1017524E+00
         21   -1    0    0  502  501  0.00000000000E+00  0.00000000000E+00  0.59330601006E+03  0.59330601006E+03  0.00000000000E+00 0.  1.
         21   -1    0    0  501  502 -0.00000000000E+00 -0.00000000000E+00 -0.39795356934E+03  0.39795356934E+03  0.00000000000E+00 0.  1.
         25    1    1    2    0    0  0.13281024961E+03 -0.27540205899E+03  0.13585818066E+03  0.35716565029E+03  0.12500000000E+03 0.  0.
         25    1    1    2    0    0 -0.26574402647E+03  0.14298632804E+03  0.18568568208E+03  0.37572483300E+03  0.12500000000E+03 0.  0.
         25    1    1    2    0    0  0.13293377685E+03  0.13241573096E+03 -0.12619142200E+03  0.25836909610E+03  0.12500000000E+03 0.  0.
</event>
<event>
 5    0  0.5510933E-005  0.2483688E+03  0.7546771E-02  0.1114340E+00
         21   -1    0    0  502  501  0.00000000000E+00  0.00000000000E+00  0.16536548620E+04  0.16536548620E+04  0.00000000000E+00 0. -1.
         21   -1    0    0  501  502 -0.00000000000E+00 -0.00000000000E+00 -0.37303478269E+02  0.37303478269E+02  0.00000000000E+00 0. -1.
         25    1    1    2    0    0 -0.55880530457E+02  0.61899392977E+02  0.49448392864E+03  0.51681091728E+03  0.12500000000E+03 0.  0.
         25    1    1    2    0    0  0.67984517802E+02  0.44673344329E+02  0.28969101426E+03  0.32582738697E+03  0.12500000000E+03 0.  0.
         25    1    1    2    0    0 -0.12103987346E+02 -0.10657273731E+03  0.83217644086E+03  0.84832003606E+03  0.12500000000E+03 0.  0.
</event>
<event>
 5    0  0.5510933E-005  0.2498915E+03  0.7546771E-02  0.1113373E+00
         21   -1    0    0  502  501  0.00000000000E+00  0.00000000000E+00  0.24621794442E+03  0.24621794442E+03  0.00000000000E+00 0.  1.
         21   -1    0    0  501  502 -0.00000000000E+00 -0.00000000000E+00 -0.25361989312E+03  0.25361989312E+03  0.00000000000E+00 0.  1.
         25    1    1    2    0    0 -0.27091574915E+02 -0.40140096238E+02 -0.14811641012E+03  0.19977149873E+03  0.12500000000E+03 0.  0.
         25    1    1    2    0    0  0.18124482790E+02 -0.95205061684E+01  0.43731150904E+02  0.13400205399E+03  0.12500000000E+03 0.  0.
         25    1    1    2    0    0  0.89670921248E+01  0.49660602406E+02  0.96983310519E+02  0.16606428482E+03  0.12500000000E+03 0.  0.
</event>
<event>
 5    0  0.5510933E-005  0.2833426E+03  0.7546771E-02  0.1093877E+00
         21   -1    0    0  502  501  0.00000000000E+00  0.00000000000E+00  0.92060013272E+02  0.92060013272E+02  0.00000000000E+00 0.  1.
         21   -1    0    0  501  502 -0.00000000000E+00 -0.00000000000E+00 -0.87207252184E+03  0.87207252184E+03  0.00000000000E+00 0.  1.
         25    1    1    2    0    0  0.90936748162E+01  0.11127598260E+03 -0.20729019989E+03  0.26656943973E+03  0.12500000000E+03 0.  0.
         25    1    1    2    0    0 -0.12486056657E+03 -0.77127239100E+02 -0.43512967070E+03  0.47592184486E+03  0.12500000000E+03 0.  0.
         25    1    1    2    0    0  0.11576689175E+03 -0.34148743501E+02 -0.13759263798E+03  0.22164125053E+03  0.12500000000E+03 0.  0.
</event>
<event>
 5    0  0.5510933E-005  0.2337831E+03  0.7546771E-02  0.1124005E+00
         21   -1    0    0  502  501  0.00000000000E+00  0.00000000000E+00  0.90111483741E+03  0.90111483741E+03  0.00000000000E+00 0. -1.
         21   -1    0    0  501  502 -0.00000000000E+00 -0.00000000000E+00 -0.60652130664E+02  0.60652130664E+02  0.00000000000E+00 0. -1.
         25    1    1    2    0    0 -0.33316467099E+02  0.14709593976E+02  0.20384568636E+03  0.24187687566E+03  0.12500000000E+03 0.  0.
         25    1    1    2    0    0 -0.35528362435E+02 -0.40041934823E+02  0.11367875496E+03  0.17723848457E+03  0.12500000000E+03 0.  0.
         25    1    1    2    0    0  0.68844829534E+02  0.25332340847E+02  0.52293826543E+03  0.54265160784E+03  0.12500000000E+03 0.  0.
</event>
<event>
 5    0  0.5510933E-005  0.3471199E+03  0.7546771E-02  0.1063803E+00
         21   -1    0    0  502  501  0.00000000000E+00  0.00000000000E+00  0.31451928956E+03  0.31451928956E+03  0.00000000000E+00 0.  1.
         21   -1    0    0  501  502 -0.00000000000E+00 -0.00000000000E+00 -0.38309972859E+03  0.38309972859E+03  0.00000000000E+00 0.  1.
         25    1    1    2    0    0 -0.17212921600E+03 -0.16268705056E+01  0.17603395318E+03  0.27612328113E+03  0.12500000000E+03 0.  0.
         25    1    1    2    0    0  0.16333247980E+03 -0.43206031775E+02 -0.14962876811E+03  0.25798842684E+03  0.12500000000E+03 0.  0.
         25    1    1    2    0    0  0.87967362045E+01  0.44832902281E+02 -0.94985624105E+02  0.16350731018E+03  0.12500000000E+03 0.  0.
</event>
<event>
 5    0  0.5510933E-005  0.3803792E+03  0.7546771E-02  0.1050794E+00
         21   -1    0    0  502  501  0.00000000000E+00  0.00000000000E+00  0.25487967457E+04  0.25487967457E+04  0.00000000000E+00 0.  1.
         21   -1    0    0  501  502 -0.00000000000E+00 -0.00000000000E+00 -0.56767300608E+02  0.56767300608E+02  0.00000000000E+00 0.  1.
         25    1    1    2    0    0 -0.10709886280E+03  0.55464272935E+02  0.11426063295E+03  0.20791090454E+03  0.12500000000E+03 0.  0.
         25    1    1    2    0    0  0.11535252780E+03 -0.87795033801E+01  0.11337785233E+04  0.11464999019E+04  0.12500000000E+03 0.  0.
         25    1    1    2    0    0 -0.82536650033E+01 -0.46684769554E+02  0.12439902889E+04  0.12511532398E+04  0.12500000000E+03 0.  0.
</event>
<event>
 5    0  0.5510933E-005  0.2729063E+03  0.7546771E-02  0.1099628E+00
         21   -1    0    0  502  501  0.00000000000E+00  0.00000000000E+00  0.23097955063E+03  0.23097955063E+03  0.00000000000E+00 0. -1.
         21   -1    0    0  501  502 -0.00000000000E+00 -0.00000000000E+00 -0.32244346879E+03  0.32244346879E+03  0.00000000000E+00 0. -1.
         25    1    1    2    0    0  0.14511481235E+03  0.33376437011E+02 -0.21350768838E+02  0.19558412676E+03  0.12500000000E+03 0.  0.
         25    1    1    2    0    0 -0.16312928792E+03 -0.25884367110E+02  0.11212096549E+02  0.20744125951E+03  0.12500000000E+03 0.  0.
         25    1    1    2    0    0  0.18014475569E+02 -0.74920699011E+01 -0.81325245873E+02  0.15039763315E+03  0.12500000000E+03 0.  0.
</event>
<event>
 5    0  0.5510933E-005  0.2725797E+03  0.7546771E-02  0.1099812E+00
         21   -1    0    0  502  501  0.00000000000E+00  0.00000000000E+00  0.62552338161E+03  0.62552338161E+03  0.00000000000E+00 0. -1.
         21   -1    0    0  501  502 -0.00000000000E+00 -0.00000000000E+00 -0.11878000458E+03  0.11878000458E+03  0.00000000000E+00 0. -1.
         25    1    1    2    0    0 -0.22394023264E+02 -0.10923175275E+02  0.34528586040E+03  0.36805995901E+03  0.12500000000E+03 0.  0.
         25    1    1    2    0    0  0.81150805862E+02 -0.24725618546E+02 -0.12140505334E+02  0.15155593480E+03  0.12500000000E+03 0.  0.
         25    1    1    2    0    0 -0.58756782599E+02  0.35648793821E+02  0.17359802196E+03  0.22468749238E+03  0.12500000000E+03 0.  0.
</event>
<event>
 5    0  0.5510933E-005  0.3972901E+03  0.7546771E-02  0.1044722E+00
         21   -1    0    0  502  501  0.00000000000E+00  0.00000000000E+00  0.20875664735E+04  0.20875664735E+04  0.00000000000E+00 0. -1.
         21   -1    0    0  501  502 -0.00000000000E+00 -0.00000000000E+00 -0.75609278147E+02  0.75609278147E+02  0.00000000000E+00 0. -1.
         25    1    1    2    0    0  0.34840563386E+02  0.10568448240E+03  0.10280792764E+04  0.10416117671E+04  0.12500000000E+03 0.  0.
         25    1    1    2    0    0 -0.65347671890E+02  0.15730807165E+03  0.61704756049E+03  0.65221839865E+03  0.12500000000E+03 0.  0.
         25    1    1    2    0    0  0.30507108504E+02 -0.26299255405E+03  0.36683035839E+03  0.46934558589E+03  0.12500000000E+03 0.  0.
</event>
<event>
 5    0  0.5510933E-005  0.2783389E+03  0.7546771E-02  0.1096600E+00
         21   -1    0    0  502  501  0.00000000000E+00  0.00000000000E+00  0.51479414963E+03  0.51479414963E+03  0.00000000000E+00 0.  1.
         21   -1    0    0  501  502 -0.00000000000E+00 -0.00000000000E+00 -0.15049222875E+03  0.15049222875E+03  0.00000000000E+00 0.  1.
         25    1    1    2    0    0 -0.22836264750E+02 -0.18036664769E+03  0.92603514327E+02  0.23927815081E+03  0.12500000000E+03 0.  0.
         25    1    1    2    0    0 -0.12899666916E+02  0.13981338595E+03  0.12451134422E+03  0.22548228120E+03  0.12500000000E+03 0.  0.
         25    1    1    2    0    0  0.35735931665E+02  0.40553261748E+02  0.14718706233E+03  0.20052594637E+03  0.12500000000E+03 0.  0.
</event>
<event>
 5    0  0.5510933E-005  0.5175619E+03  0.7546771E-02  0.1009294E+00
         21   -1    0    0  502  501  0.00000000000E+00  0.00000000000E+00  0.96990785712E+03  0.96990785712E+03  0.00000000000E+00 0.  1.
         21   -1    0    0  501  502 -0.00000000000E+00 -0.00000000000E+00 -0.27618125472E+03  0.27618125472E+03  0.00000000000E+00 0.  1.
         25    1    1    2    0    0  0.23465097879E+02  0.73976480012E+02 -0.89942666096E+02  0.17244655287E+03  0.12500000000E+03 0.  0.
         25    1    1    2    0    0 -0.99817509884E+02 -0.46843094983E+02 -0.88584912815E+02  0.18875936429E+03  0.12500000000E+03 0.  0.
         25    1    1    2    0    0  0.76352412005E+02 -0.27133385029E+02  0.87225418132E+03  0.88488319468E+03  0.12500000000E+03 0.  0.
</event>
<event>
 5    0  0.5510933E-005  0.2381892E+03  0.7546771E-02  0.1121005E+00
         21   -1    0    0  502  501  0.00000000000E+00  0.00000000000E+00  0.25557384127E+03  0.25557384127E+03  0.00000000000E+00 0. -1.
         21   -1    0    0  501  502 -0.00000000000E+00 -0.00000000000E+00 -0.22198704145E+03  0.22198704145E+03  0.00000000000E+00 0. -1.
         25    1    1    2    0    0 -0.43024881603E+02  0.19331474507E+02  0.78327106157E+02  0.15487085556E+03  0.12500000000E+03 0.  0.
         25    1    1    2    0    0  0.38061996834E+02  0.52604098323E+02  0.50670228326E+02  0.14969428447E+03  0.12500000000E+03 0.  0.
         25    1    1    2    0    0  0.49628847694E+01 -0.71935572830E+02 -0.95410534668E+02  0.17299574269E+03  0.12500000000E+03 0.  0.
</event>
<event>
 5    0  0.5510933E-005  0.2357769E+03  0.7546771E-02  0.1122639E+00
         21   -1    0    0  502  501  0.00000000000E+00  0.00000000000E+00  0.67507376391E+02  0.67507376391E+02  0.00000000000E+00 0. -1.
         21   -1    0    0  501  502 -0.00000000000E+00 -0.00000000000E+00 -0.82347657690E+03  0.82347657690E+03  0.00000000000E+00 0. -1.
         25    1    1    2    0    0  0.44732367963E+01  0.96856015789E+02 -0.21811393016E+03  0.26944347120E+03  0.12500000000E+03 0.  0.
         25    1    1    2    0    0  0.60156876132E+02  0.31863970246E+01 -0.24626922364E+03  0.28267036170E+03  0.12500000000E+03 0.  0.
         25    1    1    2    0    0 -0.64630112929E+02 -0.10004241281E+03 -0.29158604671E+03  0.33887012039E+03  0.12500000000E+03 0.  0.
</event>
<event>
 5    0  0.5510933E-005  0.3166091E+03  0.7546771E-02  0.1077221E+00
         21   -1    0    0  502  501  0.00000000000E+00  0.00000000000E+00  0.26288946470E+03  0.26288946470E+03  0.00000000000E+00 0. -1.
         21   -1    0    0  501  502 -0.00000000000E+00 -0.00000000000E+00 -0.38130585842E+03  0.38130585842E+03  0.00000000000E+00 0. -1.
         25    1    1    2    0    0 -0.17809865165E+02  0.21107234352E+03  0.57815141493E+02  0.25265849695E+03  0.12500000000E+03 0.  0.
         25    1    1    2    0    0  0.23392043921E+02 -0.18008295390E+03 -0.11859081932E+03  0.25033146113E+03  0.12500000000E+03 0.  0.
         25    1    1    2    0    0 -0.55821787562E+01 -0.30989389621E+02 -0.57640715892E+02  0.14120536504E+03  0.12500000000E+03 0.  0.
</event>
<event>
 5    0  0.5510933E-005  0.5465954E+03  0.7546771E-02  0.1002285E+00
         21   -1    0    0  502  501  0.00000000000E+00  0.00000000000E+00  0.51893461997E+03  0.51893461997E+03  0.00000000000E+00 0.  1.
         21   -1    0    0  501  502 -0.00000000000E+00 -0.00000000000E+00 -0.57573053636E+03  0.57573053636E+03  0.00000000000E+00 0.  1.
         25    1    1    2    0    0 -0.24540125821E+03  0.69396187258E+02 -0.25376642828E+03  0.38086744211E+03  0.12500000000E+03 0.  0.
         25    1    1    2    0    0 -0.53744054425E+02 -0.27016390282E+03  0.58517866048E+02  0.30810111720E+03  0.12500000000E+03 0.  0.
         25    1    1    2    0    0  0.29914531264E+03  0.20076771556E+03  0.13845264584E+03  0.40569659701E+03  0.12500000000E+03 0.  0.
</event>
<event>
 5    0  0.5510933E-005  0.2742882E+03  0.7546771E-02  0.1098850E+00
         21   -1    0    0  502  501  0.00000000000E+00  0.00000000000E+00  0.97209731579E+02  0.97209731579E+02  0.00000000000E+00 0.  1.
         21   -1    0    0  501  502 -0.00000000000E+00 -0.00000000000E+00 -0.77393488170E+03  0.77393488170E+03  0.00000000000E+00 0.  1.
         25    1    1    2    0    0 -0.13596099661E+03  0.79273972309E+02 -0.17044055512E+03  0.26352369555E+03  0.12500000000E+03 0.  0.
         25    1    1    2    0    0  0.13525718793E+03 -0.19171523104E+02 -0.20684619938E+03  0.27761917150E+03  0.12500000000E+03 0.  0.
         25    1    1    2    0    0  0.70380868753E+00 -0.60102449205E+02 -0.29943839562E+03  0.33000174623E+03  0.12500000000E+03 0.  0.
</event>
<event>
 5    0  0.5510933E-005  0.3397121E+03  0.7546771E-02  0.1066919E+00
         21   -1    0    0  502  501  0.00000000000E+00  0.00000000000E+00  0.41502189009E+03  0.41502189009E+03  0.00000000000E+00 0.  1.
         21   -1    0    0  501  502 -0.00000000000E+00 -0.00000000000E+00 -0.27806803372E+03  0.27806803372E+03  0.00000000000E+00 0.  1.
         25    1    1    2    0    0  0.13903179137E+03 -0.41884094976E+02 -0.77059553840E+01  0.19175113604E+03  0.12500000000E+03 0.  0.
         25    1    1    2    0    0 -0.16018494325E+03  0.69783910888E+02 -0.90191894359E+02  0.23299911603E+03  0.12500000000E+03 0.  0.
         25    1    1    2    0    0  0.21153151875E+02 -0.27899815912E+02  0.23485170612E+03  0.26833967174E+03  0.12500000000E+03 0.  0.
</event>
<event>
 5    0  0.5510933E-005  0.3559687E+03  0.7546771E-02  0.1060192E+00
         21   -1    0    0  502  501  0.00000000000E+00  0.00000000000E+00  0.25013791591E+03  0.25013791591E+03  0.00000000000E+00 0. -1.
         21   -1    0    0  501  502 -0.00000000000E+00 -0.00000000000E+00 -0.50657532960E+03  0.50657532960E+03  0.00000000000E+00 0. -1.
         25    1    1    2    0    0 -0.60919645558E+02 -0.10252917929E+03 -0.23843364128E+03  0.29444700222E+03  0.12500000000E+03 0.  0.
         25    1    1    2    0    0 -0.13723540458E+03  0.67364619298E+01 -0.79084230662E+02  0.20188672995E+03  0.12500000000E+03 0.  0.
         25    1    1    2    0    0  0.19815505014E+03  0.95792717359E+02  0.61080458244E+02  0.26037951335E+03  0.12500000000E+03 0.  0.
</event>
<event>
 5    0  0.5510933E-005  0.3310570E+03  0.7546771E-02  0.1070670E+00
         21   -1    0    0  502  501  0.00000000000E+00  0.00000000000E+00  0.31490756101E+03  0.31490756101E+03  0.00000000000E+00 0. -1.
         21   -1    0    0  501  502 -0.00000000000E+00 -0.00000000000E+00 -0.34803455690E+03  0.34803455690E+03  0.00000000000E+00 0. -1.
         25    1    1    2    0    0  0.24903116400E+02 -0.18500143540E+03  0.62075703931E+02  0.23307528682E+03  0.12500000000E+03 0.  0.
         25    1    1    2    0    0 -0.12439180965E+03  0.18561765415E+03 -0.85033525412E+02  0.26978312824E+03  0.12500000000E+03 0.  0.
         25    1    1    2    0    0  0.99488693250E+02 -0.61621874821E+00 -0.10169174409E+02  0.16008370285E+03  0.12500000000E+03 0.  0.
</event>
<event>
 5    0  0.5510933E-005  0.2739015E+03  0.7546771E-02  0.1099067E+00
         21   -1    0    0  502  501  0.00000000000E+00  0.00000000000E+00  0.12247788806E+03  0.12247788806E+03  0.00000000000E+00 0.  1.
         21   -1    0    0  501  502 -0.00000000000E+00 -0.00000000000E+00 -0.61253520174E+03  0.61253520174E+03  0.00000000000E+00 0.  1.
         25    1    1    2    0    0  0.79012428568E+02  0.12854954064E+03 -0.18386655013E+03  0.26870030987E+03  0.12500000000E+03 0.  0.
         25    1    1    2    0    0 -0.71752373612E+02  0.32452857323E+02 -0.12739647363E+03  0.19508063092E+03  0.12500000000E+03 0.  0.
         25    1    1    2    0    0 -0.72600549558E+01 -0.16100239796E+03 -0.17879428992E+03  0.27123214901E+03  0.12500000000E+03 0.  0.
</event>
<event>
 5    0  0.5510933E-005  0.3653437E+03  0.7546771E-02  0.1056488E+00
         21   -1    0    0  502  501  0.00000000000E+00  0.00000000000E+00  0.16152596711E+03  0.16152596711E+03  0.00000000000E+00 0.  1.
         21   -1    0    0  501  502 -0.00000000000E+00 -0.00000000000E+00 -0.82634401521E+03  0.82634401521E+03  0.00000000000E+00 0.  1.
         25    1    1    2    0    0  0.12002794003E+03  0.18994516195E+03 -0.21135350047E+03  0.33283805836E+03  0.12500000000E+03 0.  0.
         25    1    1    2    0    0 -0.52892098304E+02 -0.26063344204E+03 -0.19785809136E+03  0.35426005912E+03  0.12500000000E+03 0.  0.
         25    1    1    2    0    0 -0.67135841727E+02  0.70688280091E+02 -0.25560645628E+03  0.30077186484E+03  0.12500000000E+03 0.  0.
</event>
<event>
 5    0  0.5510933E-005  0.3661750E+03  0.7546771E-02  0.1056165E+00
         21   -1    0    0  502  501  0.00000000000E+00  0.00000000000E+00  0.26728690447E+04  0.26728690447E+04  0.00000000000E+00 0.  1.
         21   -1    0    0  501  502 -0.00000000000E+00 -0.00000000000E+00 -0.50164884403E+02  0.50164884403E+02  0.00000000000E+00 0.  1.
         25    1    1    2    0    0  0.93113893749E+02 -0.84854689050E+01  0.38745908114E+03  0.41772208459E+03  0.12500000000E+03 0.  0.
         25    1    1    2    0    0  0.17047287594E+03 -0.11881095659E+03  0.10909548743E+04  0.11175797880E+04  0.12500000000E+03 0.  0.
         25    1    1    2    0    0 -0.26358676969E+03  0.12729642549E+03  0.11442902049E+04  0.11877320566E+04  0.12500000000E+03 0.  0.
</event>
<event>
 5    0  0.5510933E-005  0.5524390E+03  0.7546771E-02  0.1000931E+00
         21   -1    0    0  502  501  0.00000000000E+00  0.00000000000E+00  0.46694643144E+03  0.46694643144E+03  0.00000000000E+00 0. -1.
         21   -1    0    0  501  502 -0.00000000000E+00 -0.00000000000E+00 -0.65358436559E+03  0.65358436559E+03  0.00000000000E+00 0. -1.
         25    1    1    2    0    0 -0.16065978029E+03  0.37917518620E+02 -0.13794919637E+03  0.24880571536E+03  0.12500000000E+03 0.  0.
         25    1    1    2    0    0 -0.17994797951E+03 -0.25385323134E+03  0.19130801976E+03  0.38606540485E+03  0.12500000000E+03 0.  0.
         25    1    1    2    0    0  0.34060775980E+03  0.21593571272E+03 -0.23999675755E+03  0.48565967683E+03  0.12500000000E+03 0.  0.
</event>
<event>
 5    0  0.5510933E-005  0.2967023E+03  0.7546771E-02  0.1086901E+00
         21   -1    0    0  502  501  0.00000000000E+00  0.00000000000E+00  0.89220135982E+02  0.89220135982E+02  0.00000000000E+00 0. -1.
         21   -1    0    0  501  502 -0.00000000000E+00 -0.00000000000E+00 -0.98668618087E+03  0.98668618087E+03  0.00000000000E+00 0. -1.
         25    1    1    2    0    0 -0.43425735311E+02 -0.53279366646E+02 -0.75652317000E+03  0.76985504619E+03  0.12500000000E+03 0.  0.
         25    1    1    2    0    0  0.51228015745E+01  0.63211413145E+02 -0.64676227261E+02  0.15436949252E+03  0.12500000000E+03 0.  0.
         25    1    1    2    0    0  0.38302933736E+02 -0.99320464981E+01 -0.76266647628E+02  0.15168177814E+03  0.12500000000E+03 0.  0.
</event>
<event>
 5    0  0.5510933E-005  0.2216668E+03  0.7546771E-02  0.1132646E+00
         21   -1    0    0  502  501  0.00000000000E+00  0.00000000000E+00  0.47975160343E+02  0.47975160343E+02  0.00000000000E+00 0. -1.
         21   -1    0    0  501  502 -0.00000000000E+00 -0.00000000000E+00 -0.10242000701E+04  0.10242000701E+04  0.00000000000E+00 0. -1.
         25    1    1    2    0    0  0.24238864959E+02 -0.76649502663E+02 -0.47614299659E+03  0.49879837814E+03  0.12500000000E+03 0.  0.
         25    1    1    2    0    0 -0.31373830227E+02  0.71878929452E+02 -0.33558707589E+03  0.36659866779E+03  0.12500000000E+03 0.  0.
         25    1    1    2    0    0  0.71349652679E+01  0.47705732106E+01 -0.16449483726E+03  0.20677818450E+03  0.12500000000E+03 0.  0.
</event>
<event>
 5    0  0.5510933E-005  0.2694206E+03  0.7546771E-02  0.1101612E+00
         21   -1    0    0  502  501  0.00000000000E+00  0.00000000000E+00  0.17534580813E+03  0.17534580813E+03  0.00000000000E+00 0.  1.
         21   -1    0    0  501  502 -0.00000000000E+00 -0.00000000000E+00 -0.41396752616E+03  0.41396752616E+03  0.00000000000E+00 0.  1.
         25    1    1    2    0    0 -0.87452541330E+02 -0.12360418049E+03 -0.33338530136E+02  0.19915420661E+03  0.12500000000E+03 0.  0.
         25    1    1    2    0    0  0.76921983419E+01 -0.18276390573E+02 -0.78697549231E+02  0.14903523282E+03  0.12500000000E+03 0.  0.
         25    1    1    2    0    0  0.79760342989E+02  0.14188057106E+03 -0.12658563866E+03  0.24112389486E+03  0.12500000000E+03 0.  0.
</event>
<event>
 5    0  0.5510933E-005  0.2910280E+03  0.7546771E-02  0.1089814E+00
         21   -1    0    0  502  501  0.00000000000E+00  0.00000000000E+00  0.15187276122E+04  0.15187276122E+04  0.00000000000E+00 0.  1.
         21   -1    0    0  501  502 -0.00000000000E+00 -0.00000000000E+00 -0.55768593849E+02  0.55768593849E+02  0.00000000000E+00 0.  1.
         25    1    1    2    0    0  0.73394425377E+02  0.15807827099E+02  0.19671676560E+03  0.24486550378E+03  0.12500000000E+03 0.  0.
         25    1    1    2    0    0  0.63354932050E+02 -0.44842087142E+02  0.20729543704E+03  0.25420672377E+03  0.12500000000E+03 0.  0.
         25    1    1    2    0    0 -0.13674935743E+03  0.29034260043E+02  0.10589468157E+04  0.10754239785E+04  0.12500000000E+03 0.  0.
</event>
<event>
 5    0  0.5510933E-005  0.3620382E+03  0.7546771E-02  0.1057780E+00
         21   -1    0    0  502  501  0.00000000000E+00  0.00000000000E+00  0.33618083473E+03  0.33618083473E+03  0.00000000000E+00 0.  1.
         21   -1    0    0  501  502 -0.00000000000E+00 -0.00000000000E+00 -0.38988443530E+03  0.38988443530E+03  0.00000000000E+00 0.  1.
         25    1    1    2    0    0  0.60286192051E+02 -0.12819859544E+03  0.18780661873E+03  0.26639375155E+03  0.12500000000E+03 0.  0.
         25    1    1    2    0    0 -0.65777199133E+02 -0.50264823669E+02 -0.17784362013E+03  0.23260813753E+03  0.12500000000E+03 0.  0.
         25    1    1    2    0    0  0.54910070823E+01  0.17846341911E+03 -0.63666599164E+02  0.22706338095E+03  0.12500000000E+03 0.  0.
</event>
<event>
 5    0  0.5510933E-005  0.2227785E+03  0.7546771E-02  0.1131828E+00
         21   -1    0    0  502  501  0.00000000000E+00  0.00000000000E+00  0.22428577211E+03  0.22428577211E+03  0.00000000000E+00 0.  1.
         21   -1    0    0  501  502 -0.00000000000E+00 -0.00000000000E+00 -0.22128138238E+03  0.22128138238E+03  0.00000000000E+00 0.  1.
         25    1    1    2    0    0  0.53992678141E+02 -0.50976420452E+02  0.33975304478E+02  0.14930882777E+03  0.12500000000E+03 0.  0.
         25    1    1    2    0    0 -0.35246815912E+02  0.23723785182E+02  0.52801311332E+02  0.14219048665E+03  0.12500000000E+03 0.  0.
         25    1    1    2    0    0 -0.18745862229E+02  0.27252635270E+02 -0.83772226082E+02  0.15406784007E+03  0.12500000000E+03 0.  0.
</event>
<event>
 5    0  0.5510933E-005  0.3168309E+03  0.7546771E-02  0.1077117E+00
         21   -1    0    0  502  501  0.00000000000E+00  0.00000000000E+00  0.18592725805E+03  0.18592725805E+03  0.00000000000E+00 0.  1.
         21   -1    0    0  501  502 -0.00000000000E+00 -0.00000000000E+00 -0.53989846555E+03  0.53989846555E+03  0.00000000000E+00 0.  1.
         25    1    1    2    0    0 -0.17620215576E+03  0.96589199272E+02 -0.20124652369E+02  0.23750089419E+03  0.12500000000E+03 0.  0.
         25    1    1    2    0    0  0.11060852394E+03  0.26575722984E+02 -0.16126514829E+03  0.23360642687E+03  0.12500000000E+03 0.  0.
         25    1    1    2    0    0  0.65593631821E+02 -0.12316492226E+03 -0.17258140684E+03  0.25471840255E+03  0.12500000000E+03 0.  0.
</event>
<event>
 5    0  0.5510933E-005  0.4043611E+03  0.7546771E-02  0.1042280E+00
         21   -1    0    0  502  501  0.00000000000E+00  0.00000000000E+00  0.18024312437E+04  0.18024312437E+04  0.00000000000E+00 0.  1.
         21   -1    0    0  501  502 -0.00000000000E+00 -0.00000000000E+00 -0.90715214538E+02  0.90715214538E+02  0.00000000000E+00 0.  1.
         25    1    1    2    0    0 -0.81795929132E+02  0.46876310232E+02  0.24689438774E+03  0.29235218689E+03  0.12500000000E+03 0.  0.
         25    1    1    2    0    0 -0.47027960758E+02 -0.19363434582E+03  0.18260808683E+03  0.29778616884E+03  0.12500000000E+03 0.  0.
         25    1    1    2    0    0  0.12882388989E+03  0.14675803559E+03  0.12822135546E+04  0.13030081025E+04  0.12500000000E+03 0.  0.
</event>
<event>
 5    0  0.5510933E-005  0.3855961E+03  0.7546771E-02  0.1048885E+00
         21   -1    0    0  502  501  0.00000000000E+00  0.00000000000E+00  0.42189388728E+03  0.42189388728E+03  0.00000000000E+00 0. -1.
         21   -1    0    0  501  502 -0.00000000000E+00 -0.00000000000E+00 -0.35242115615E+03  0.35242115615E+03  0.00000000000E+00 0. -1.
         25    1    1    2    0    0  0.12237210627E+03 -0.12141052831E+03 -0.20877434009E+02  0.21395400447E+03  0.12500000000E+03 0.  0.
         25    1    1    2    0    0 -0.24194695436E+03  0.22191995440E+03  0.78394220749E+02  0.35994089617E+03  0.12500000000E+03 0.  0.
         25    1    1    2    0    0  0.11957484809E+03 -0.10050942609E+03  0.11955944386E+02  0.20042014279E+03  0.12500000000E+03 0.  0.
</event>
<event>
 5    0  0.5510933E-005  0.2788077E+03  0.7546771E-02  0.1096342E+00
         21   -1    0    0  502  501  0.00000000000E+00  0.00000000000E+00  0.11359122238E+03  0.11359122238E+03  0.00000000000E+00 0.  1.
         21   -1    0    0  501  502 -0.00000000000E+00 -0.00000000000E+00 -0.68432853913E+03  0.68432853913E+03  0.00000000000E+00 0.  1.
         25    1    1    2    0    0  0.31083937027E+02  0.12919244797E+03 -0.17625407344E+03  0.25366788949E+03  0.12500000000E+03 0.  0.
         25    1    1    2    0    0  0.47139388415E+02 -0.16838550190E+03 -0.28257254735E+03  0.35503245444E+03  0.12500000000E+03 0.  0.
         25    1    1    2    0    0 -0.78223325442E+02  0.39193053936E+02 -0.11191069595E+03  0.18921941758E+03  0.12500000000E+03 0.  0.
</event>
<event>
 5    0  0.5510933E-005  0.2877351E+03  0.7546771E-02  0.1091538E+00
         21   -1    0    0  502  501  0.00000000000E+00  0.00000000000E+00  0.32349219259E+03  0.32349219259E+03  0.00000000000E+00 0.  1.
         21   -1    0    0  501  502 -0.00000000000E+00 -0.00000000000E+00 -0.25593039731E+03  0.25593039731E+03  0.00000000000E+00 0.  1.
         25    1    1    2    0    0  0.11885209698E+03  0.38962324184E+01 -0.34279658136E+02  0.17590081451E+03  0.12500000000E+03 0.  0.
         25    1    1    2    0    0 -0.13314979486E+03  0.10306482723E+03  0.37874632781E+00  0.20970543611E+03  0.12500000000E+03 0.  0.
         25    1    1    2    0    0  0.14297697879E+02 -0.10696105965E+03  0.10146270709E+03  0.19381633929E+03  0.12500000000E+03 0.  0.
</event>
<event>
 5    0  0.5510933E-005  0.2574231E+03  0.7546771E-02  0.1108701E+00
         21   -1    0    0  502  501  0.00000000000E+00  0.00000000000E+00  0.58768666339E+03  0.58768666339E+03  0.00000000000E+00 0.  1.
         21   -1    0    0  501  502 -0.00000000000E+00 -0.00000000000E+00 -0.11275844599E+03  0.11275844599E+03  0.00000000000E+00 0.  1.
         25    1    1    2    0    0  0.13661859587E+03  0.52328352932E+02  0.22069254478E+03  0.29280214579E+03  0.12500000000E+03 0.  0.
         25    1    1    2    0    0 -0.12835349008E+03 -0.62345602588E+02  0.12384727854E+03  0.22654964352E+03  0.12500000000E+03 0.  0.
         25    1    1    2    0    0 -0.82651057915E+01  0.10017249656E+02  0.13038839408E+03  0.18109332008E+03  0.12500000000E+03 0.  0.
</event>
<event>
 5    0  0.5510933E-005  0.3678101E+03  0.7546771E-02  0.1055533E+00
         21   -1    0    0  502  501  0.00000000000E+00  0.00000000000E+00  0.16732905673E+03  0.16732905673E+03  0.00000000000E+00 0.  1.
         21   -1    0    0  501  502 -0.00000000000E+00 -0.00000000000E+00 -0.80849230071E+03  0.80849230071E+03  0.00000000000E+00 0.  1.
         25    1    1    2    0    0 -0.43712379698E+02 -0.79715634666E+02 -0.77247237839E+02  0.17279320097E+03  0.12500000000E+03 0.  0.
         25    1    1    2    0    0  0.48732968472E+02  0.21586039717E+03 -0.52915865265E+02  0.25960682210E+03  0.12500000000E+03 0.  0.
         25    1    1    2    0    0 -0.50205887745E+01 -0.13614476251E+03 -0.51100014088E+03  0.54342133437E+03  0.12500000000E+03 0.  0.
</event>
<event>
 5    0  0.5510933E-005  0.3649490E+03  0.7546771E-02  0.1056641E+00
         21   -1    0    0  502  501  0.00000000000E+00  0.00000000000E+00  0.29878875092E+03  0.29878875092E+03  0.00000000000E+00 0.  1.
         21   -1    0    0  501  502 -0.00000000000E+00 -0.00000000000E+00 -0.44575888872E+03  0.44575888872E+03  0.00000000000E+00 0.  1.
         25    1    1    2    0    0 -0.22256053084E+03 -0.60345800805E+02 -0.19189712288E+03  0.32499894051E+03  0.12500000000E+03 0.  0.
         25    1    1    2    0    0  0.59338004064E+02 -0.79473671564E+02  0.59970500153E+02  0.17046560969E+03  0.12500000000E+03 0.  0.
         25    1    1    2    0    0  0.16322252678E+03  0.13981947237E+03 -0.15043515083E+02  0.24908308944E+03  0.12500000000E+03 0.  0.
</event>
<event>
 5    0  0.5510933E-005  0.2484560E+03  0.7546771E-02  0.1114285E+00
         21   -1    0    0  502  501  0.00000000000E+00  0.00000000000E+00  0.11963730750E+03  0.11963730750E+03  0.00000000000E+00 0.  1.
         21   -1    0    0  501  502 -0.00000000000E+00 -0.00000000000E+00 -0.51597928160E+03  0.51597928160E+03  0.00000000000E+00 0.  1.
         25    1    1    2    0    0  0.97370543797E+02 -0.23517529082E+02 -0.17768392975E+03  0.23922933738E+03  0.12500000000E+03 0.  0.
         25    1    1    2    0    0 -0.10613593446E+02  0.44535280696E+02 -0.20195229534E+03  0.24187965848E+03  0.12500000000E+03 0.  0.
         25    1    1    2    0    0 -0.86756950351E+02 -0.21017751614E+02 -0.16705749016E+02  0.15450759324E+03  0.12500000000E+03 0.  0.
</event>
<event>
 5    0  0.5510933E-005  0.2738180E+03  0.7546771E-02  0.1099114E+00
         21   -1    0    0  502  501  0.00000000000E+00  0.00000000000E+00  0.21037574355E+03  0.21037574355E+03  0.00000000000E+00 0. -1.
         21   -1    0    0  501  502 -0.00000000000E+00 -0.00000000000E+00 -0.35639228191E+03  0.35639228191E+03  0.00000000000E+00 0. -1.
         25    1    1    2    0    0 -0.14054140971E+01 -0.12955592722E+03 -0.19327734004E+03  0.26413603245E+03  0.12500000000E+03 0.  0.
         25    1    1    2    0    0  0.10465041809E+02  0.64134578718E+02 -0.26219153107E+02  0.14330110006E+03  0.12500000000E+03 0.  0.
         25    1    1    2    0    0 -0.90596277122E+01  0.65421348502E+02  0.73479954781E+02  0.15933089295E+03  0.12500000000E+03 0.  0.
</event>
<event>
 5    0  0.5510933E-005  0.2905849E+03  0.7546771E-02  0.1090044E+00
         21   -1    0    0  502  501  0.00000000000E+00  0.00000000000E+00  0.82310972460E+02  0.82310972460E+02  0.00000000000E+00 0.  1.
         21   -1    0    0  501  502 -0.00000000000E+00 -0.00000000000E+00 -0.10258609257E+04  0.10258609257E+04  0.00000000000E+00 0.  1.
         25    1    1    2    0    0 -0.10300828280E+03 -0.38688673710E+02 -0.31059839503E+03  0.35242571244E+03  0.12500000000E+03 0.  0.
         25    1    1    2    0    0  0.90110909028E+02  0.32699199021E+02 -0.59069297082E+02  0.16823612989E+03  0.12500000000E+03 0.  0.
         25    1    1    2    0    0  0.12897373770E+02  0.59894746888E+01 -0.57388226116E+03  0.58751005585E+03  0.12500000000E+03 0.  0.
</event>
<event>
 5    0  0.5510933E-005  0.3954577E+03  0.7546771E-02  0.1045364E+00
         21   -1    0    0  502  501  0.00000000000E+00  0.00000000000E+00  0.13296335982E+04  0.13296335982E+04  0.00000000000E+00 0. -1.
         21   -1    0    0  501  502 -0.00000000000E+00 -0.00000000000E+00 -0.11761646608E+03  0.11761646608E+03  0.00000000000E+00 0. -1.
         25    1    1    2    0    0 -0.15606235143E+03  0.26353145323E+03  0.40821970387E+03  0.52542612326E+03  0.12500000000E+03 0.  0.
         25    1    1    2    0    0  0.81838047660E+02 -0.56949631192E+02  0.50940857529E+03  0.53391274860E+03  0.12500000000E+03 0.  0.
         25    1    1    2    0    0  0.74224303765E+02 -0.20658182203E+03  0.29438885295E+03  0.38791119242E+03  0.12500000000E+03 0.  0.
</event>
<event>
 5    0  0.5510933E-005  0.3744128E+03  0.7546771E-02  0.1053018E+00
         21   -1    0    0  502  501  0.00000000000E+00  0.00000000000E+00  0.29165679239E+03  0.29165679239E+03  0.00000000000E+00 0. -1.
         21   -1    0    0  501  502 -0.00000000000E+00 -0.00000000000E+00 -0.48065027249E+03  0.48065027249E+03  0.00000000000E+00 0. -1.
         25    1    1    2    0    0  0.94827449311E+02 -0.11909889145E+03 -0.16832006939E+03  0.25910120966E+03  0.12500000000E+03 0.  0.
         25    1    1    2    0    0 -0.65905383402E+02 -0.14260201630E+03 -0.79398323954E+02  0.21588874093E+03  0.12500000000E+03 0.  0.
         25    1    1    2    0    0 -0.28922065909E+02  0.26170090775E+03  0.58724913243E+02  0.29731711429E+03  0.12500000000E+03 0.  0.
</event>
<event>
 5    0  0.5510933E-005  0.2658884E+03  0.7546771E-02  0.1103656E+00
         21   -1    0    0  502  501  0.00000000000E+00  0.00000000000E+00  0.37965403480E+02  0.37965403480E+02  0.00000000000E+00 0.  1.
         21   -1    0    0  501  502 -0.00000000000E+00 -0.00000000000E+00 -0.18621338673E+04  0.18621338673E+04  0.00000000000E+00 0.  1.
         25    1    1    2    0    0 -0.45731832205E+02  0.16765950857E+03 -0.89829318126E+03  0.92344829351E+03  0.12500000000E+03 0.  0.
         25    1    1    2    0    0 -0.63609601770E+01 -0.94201891681E+02 -0.47901692354E+03  0.50398082429E+03  0.12500000000E+03 0.  0.
         25    1    1    2    0    0  0.52092792382E+02 -0.73457616885E+02 -0.44685835904E+03  0.47267015300E+03  0.12500000000E+03 0.  0.
</event>
<event>
 5    0  0.5510933E-005  0.3614835E+03  0.7546771E-02  0.1057998E+00
         21   -1    0    0  502  501  0.00000000000E+00  0.00000000000E+00  0.25840005364E+03  0.25840005364E+03  0.00000000000E+00 0.  1.
         21   -1    0    0  501  502 -0.00000000000E+00 -0.00000000000E+00 -0.50569007176E+03  0.50569007176E+03  0.00000000000E+00 0.  1.
         25    1    1    2    0    0 -0.22564586836E+03 -0.17519607238E+03 -0.11945056780E+03  0.33392088859E+03  0.12500000000E+03 0.  0.
         25    1    1    2    0    0  0.19969943677E+03  0.97606665399E+02 -0.43760178024E+02  0.25874095029E+03  0.12500000000E+03 0.  0.
         25    1    1    2    0    0  0.25946431595E+02  0.77589406984E+02 -0.84079272301E+02  0.17142828652E+03  0.12500000000E+03 0.  0.
</event>
<event>
 5    0  0.5510933E-005  0.2061928E+03  0.7546771E-02  0.1144617E+00
         21   -1    0    0  502  501  0.00000000000E+00  0.00000000000E+00  0.74168485540E+02  0.74168485540E+02  0.00000000000E+00 0. -1.
         21   -1    0    0  501  502 -0.00000000000E+00 -0.00000000000E+00 -0.57322817792E+03  0.57322817792E+03  0.00000000000E+00 0. -1.
         25    1    1    2    0    0  0.27159892735E+02 -0.13044781507E+02 -0.11328250495E+03  0.17136438377E+03  0.12500000000E+03 0.  0.
         25    1    1    2    0    0  0.23142720530E+02 -0.15732998295E+01 -0.26739016177E+03  0.29607525969E+03  0.12500000000E+03 0.  0.
         25    1    1    2    0    0 -0.50302613265E+02  0.14618081336E+02 -0.11838702566E+03  0.17995702000E+03  0.12500000000E+03 0.  0.
</event>
<event>
 5    0  0.5510933E-005  0.3618424E+03  0.7546771E-02  0.1057857E+00
         21   -1    0    0  502  501  0.00000000000E+00  0.00000000000E+00  0.45571201747E+03  0.45571201747E+03  0.00000000000E+00 0. -1.
         21   -1    0    0  501  502 -0.00000000000E+00 -0.00000000000E+00 -0.28730849855E+03  0.28730849855E+03  0.00000000000E+00 0. -1.
         25    1    1    2    0    0 -0.46633832102E+02  0.15443829107E+03 -0.13534649314E+02  0.20453382795E+03  0.12500000000E+03 0.  0.
         25    1    1    2    0    0 -0.65616836406E+01 -0.13776136538E+03 -0.10989277613E+03  0.21615427761E+03  0.12500000000E+03 0.  0.
         25    1    1    2    0    0  0.53195515742E+02 -0.16676925691E+02  0.29183094436E+03  0.32233241046E+03  0.12500000000E+03 0.  0.
</event>
<event>
 5    0  0.5510933E-005  0.2772018E+03  0.7546771E-02  0.1097227E+00
         21   -1    0    0  502  501  0.00000000000E+00  0.00000000000E+00  0.34852172636E+03  0.34852172636E+03  0.00000000000E+00 0. -1.
         21   -1    0    0  501  502 -0.00000000000E+00 -0.00000000000E+00 -0.22047642993E+03  0.22047642993E+03  0.00000000000E+00 0. -1.
         25    1    1    2    0    0  0.78990458495E+02  0.13358037746E+03  0.10860348857E+03  0.22694256433E+03  0.12500000000E+03 0.  0.
         25    1    1    2    0    0  0.13499706495E+02 -0.55018348968E+01 -0.39938950218E+02  0.13203269295E+03  0.12500000000E+03 0.  0.
         25    1    1    2    0    0 -0.92490164989E+02 -0.12807854256E+03  0.59380758078E+02  0.21002289902E+03  0.12500000000E+03 0.  0.
</event>
<event>
 5    0  0.5510933E-005  0.2681020E+03  0.7546771E-02  0.1102371E+00
         21   -1    0    0  502  501  0.00000000000E+00  0.00000000000E+00  0.14595265202E+04  0.14595265202E+04  0.00000000000E+00 0. -1.
         21   -1    0    0  501  502 -0.00000000000E+00 -0.00000000000E+00 -0.49247947505E+02  0.49247947505E+02  0.00000000000E+00 0. -1.
         25    1    1    2    0    0  0.34399041766E+02 -0.36834255557E+02  0.18711178432E+03  0.23059895118E+03  0.12500000000E+03 0.  0.
         25    1    1    2    0    0  0.55892604968E+01  0.37011844927E+02  0.15782348857E+03  0.20477883202E+03  0.12500000000E+03 0.  0.
         25    1    1    2    0    0 -0.39988302263E+02 -0.17758937082E+00  0.10653432998E+04  0.10733966845E+04  0.12500000000E+03 0.  0.
</event>
<event>
 5    0  0.5510933E-005  0.2338177E+03  0.7546771E-02  0.1123981E+00
         21   -1    0    0  502  501  0.00000000000E+00  0.00000000000E+00  0.36881355707E+03  0.36881355707E+03  0.00000000000E+00 0. -1.
         21   -1    0    0  501  502 -0.00000000000E+00 -0.00000000000E+00 -0.14823405109E+03  0.14823405109E+03  0.00000000000E+00 0. -1.
         25    1    1    2    0    0 -0.23459708432E+02  0.27221438144E+01  0.23760281943E+02  0.12941143298E+03  0.12500000000E+03 0.  0.
         25    1    1    2    0    0 -0.80991935450E+02 -0.58482786920E+02  0.11471117063E+03  0.19688469377E+03  0.12500000000E+03 0.  0.
         25    1    1    2    0    0  0.10445164388E+03  0.55760643105E+02  0.82108053405E+02  0.19075148142E+03  0.12500000000E+03 0.  0.
</event>
<event>
 5    0  0.5510933E-005  0.4291636E+03  0.7546771E-02  0.1034124E+00
         21   -1    0    0  502  501  0.00000000000E+00  0.00000000000E+00  0.70351203590E+03  0.70351203590E+03  0.00000000000E+00 0.  1.
         21   -1    0    0  501  502 -0.00000000000E+00 -0.00000000000E+00 -0.26180277594E+03  0.26180277594E+03  0.00000000000E+00 0.  1.
         25    1    1    2    0    0  0.25697855804E+03 -0.24192013481E+03  0.30756065421E+03  0.48454296707E+03  0.12500000000E+03 0.  0.
         25    1    1    2    0    0 -0.23345548320E+03  0.14659166237E+03  0.91109610197E+02  0.31609577533E+03  0.12500000000E+03 0.  0.
         25    1    1    2    0    0 -0.23523074845E+02  0.95328472435E+02  0.43038995552E+02  0.16467606944E+03  0.12500000000E+03 0.  0.
</event>
<event>
 5    0  0.5510933E-005  0.3346877E+03  0.7546771E-02  0.1069081E+00
         21   -1    0    0  502  501  0.00000000000E+00  0.00000000000E+00  0.45637521084E+03  0.45637521084E+03  0.00000000000E+00 0. -1.
         21   -1    0    0  501  502 -0.00000000000E+00 -0.00000000000E+00 -0.24544689060E+03  0.24544689060E+03  0.00000000000E+00 0. -1.
         25    1    1    2    0    0  0.49598825446E+02  0.21837761318E+03  0.22992677511E+03  0.34444179093E+03  0.12500000000E+03 0.  0.
         25    1    1    2    0    0 -0.49693507908E+02 -0.14226605716E+03 -0.61087580779E+02  0.20509941071E+03  0.12500000000E+03 0.  0.
         25    1    1    2    0    0  0.94682462477E-01 -0.76111556016E+02  0.42089125913E+02  0.15228089980E+03  0.12500000000E+03 0.  0.
</event>
<event>
 5    0  0.5510933E-005  0.4253696E+03  0.7546771E-02  0.1035333E+00
         21   -1    0    0  502  501  0.00000000000E+00  0.00000000000E+00  0.82328905749E+02  0.82328905749E+02  0.00000000000E+00 0. -1.
         21   -1    0    0  501  502 -0.00000000000E+00 -0.00000000000E+00 -0.21977609880E+04  0.21977609880E+04  0.00000000000E+00 0. -1.
         25    1    1    2    0    0 -0.36817085379E+02 -0.10171023491E+03 -0.78105177577E+03  0.79835289571E+03  0.12500000000E+03 0.  0.
         25    1    1    2    0    0 -0.24282487117E+03  0.16313028635E+03 -0.52123259734E+03  0.61064214472E+03  0.12500000000E+03 0.  0.
         25    1    1    2    0    0  0.27964195655E+03 -0.61420051443E+02 -0.81314770915E+03  0.87109485332E+03  0.12500000000E+03 0.  0.
</event>
<event>
 5    0  0.5510933E-005  0.2869607E+03  0.7546771E-02  0.1091947E+00
         21   -1    0    0  502  501  0.00000000000E+00  0.00000000000E+00  0.72341919917E+03  0.72341919917E+03  0.00000000000E+00 0.  1.
         21   -1    0    0  501  502 -0.00000000000E+00 -0.00000000000E+00 -0.11382948584E+03  0.11382948584E+03  0.00000000000E+00 0.  1.
         25    1    1    2    0    0 -0.64824524518E+02 -0.96924128533E+02  0.18718183358E+03  0.25349269120E+03  0.12500000000E+03 0.  0.
         25    1    1    2    0    0  0.49537903172E+02 -0.31197494375E+02  0.15428436633E+02  0.13888961143E+03  0.12500000000E+03 0.  0.
         25    1    1    2    0    0  0.15286621347E+02  0.12812162291E+03  0.40697944312E+03  0.44486638238E+03  0.12500000000E+03 0.  0.
</event>
<event>
 5    0  0.5510933E-005  0.3356888E+03  0.7546771E-02  0.1068647E+00
         21   -1    0    0  502  501  0.00000000000E+00  0.00000000000E+00  0.18782292425E+03  0.18782292425E+03  0.00000000000E+00 0.  1.
         21   -1    0    0  501  502 -0.00000000000E+00 -0.00000000000E+00 -0.59996387827E+03  0.59996387827E+03  0.00000000000E+00 0.  1.
         25    1    1    2    0    0 -0.57855499366E+02 -0.13577530753E+03 -0.33858232504E+03  0.38992971645E+03  0.12500000000E+03 0.  0.
         25    1    1    2    0    0  0.12255410916E+03  0.55280164774E+02  0.54220069988E+02  0.19141635844E+03  0.12500000000E+03 0.  0.
         25    1    1    2    0    0 -0.64698609798E+02  0.80495142751E+02 -0.12777869897E+03  0.20644072763E+03  0.12500000000E+03 0.  0.
</event>
<event>
 5    0  0.5510933E-005  0.3304835E+03  0.7546771E-02  0.1070923E+00
         21   -1    0    0  502  501  0.00000000000E+00  0.00000000000E+00  0.57023687455E+03  0.57023687455E+03  0.00000000000E+00 0. -1.
         21   -1    0    0  501  502 -0.00000000000E+00 -0.00000000000E+00 -0.19153333319E+03  0.19153333319E+03  0.00000000000E+00 0. -1.
         25    1    1    2    0    0  0.20886324676E+03 -0.11637044555E+03  0.65766759556E+02  0.27769804304E+03  0.12500000000E+03 0.  0.
         25    1    1    2    0    0 -0.16158424200E+03  0.25461764066E+02  0.19892415075E+03  0.28627536821E+03  0.12500000000E+03 0.  0.
         25    1    1    2    0    0 -0.47279004764E+02  0.90908681486E+02  0.11401263106E+03  0.19779679649E+03  0.12500000000E+03 0.  0.
</event>
<event>
 5    0  0.5510933E-005  0.3761519E+03  0.7546771E-02  0.1052365E+00
         21   -1    0    0  502  501  0.00000000000E+00  0.00000000000E+00  0.18185878721E+03  0.18185878721E+03  0.00000000000E+00 0.  1.
         21   -1    0    0  501  502 -0.00000000000E+00 -0.00000000000E+00 -0.77802275355E+03  0.77802275355E+03  0.00000000000E+00 0.  1.
         25    1    1    2    0    0  0.14586942922E+03  0.88087845077E+02 -0.29391691584E+03  0.36200761352E+03  0.12500000000E+03 0.  0.
         25    1    1    2    0    0  0.85956734781E+02  0.49799634563E+02 -0.24908758993E+03  0.29586853721E+03  0.12500000000E+03 0.  0.
         25    1    1    2    0    0 -0.23182616400E+03 -0.13788747964E+03 -0.53159460570E+02  0.30200539003E+03  0.12500000000E+03 0.  0.
</event>
<event>
 5    0  0.5510933E-005  0.3857083E+03  0.7546771E-02  0.1048844E+00
         21   -1    0    0  502  501  0.00000000000E+00  0.00000000000E+00  0.27481378483E+03  0.27481378483E+03  0.00000000000E+00 0. -1.
         21   -1    0    0  501  502 -0.00000000000E+00 -0.00000000000E+00 -0.54135175684E+03  0.54135175684E+03  0.00000000000E+00 0. -1.
         25    1    1    2    0    0  0.11369203114E+03 -0.29204518831E+02 -0.27323042631E+01  0.17149707680E+03  0.12500000000E+03 0.  0.
         25    1    1    2    0    0  0.14545569213E+03 -0.14222455673E+03 -0.18112845782E+03  0.29969601456E+03  0.12500000000E+03 0.  0.
         25    1    1    2    0    0 -0.25914772327E+03  0.17142907556E+03 -0.82677209929E+02  0.34497245030E+03  0.12500000000E+03 0.  0.
</event>
<event>
 5    0  0.5510933E-005  0.3599043E+03  0.7546771E-02  0.1058622E+00
         21   -1    0    0  502  501  0.00000000000E+00  0.00000000000E+00  0.16110576368E+03  0.16110576368E+03  0.00000000000E+00 0.  1.
         21   -1    0    0  501  502 -0.00000000000E+00 -0.00000000000E+00 -0.80401283411E+03  0.80401283411E+03  0.00000000000E+00 0.  1.
         25    1    1    2    0    0 -0.99899717072E+02  0.14759050673E+02 -0.37779540095E+02  0.16507597250E+03  0.12500000000E+03 0.  0.
         25    1    1    2    0    0 -0.43570488184E+02  0.96327860594E+02 -0.54868681170E+03  0.57259030860E+03  0.12500000000E+03 0.  0.
         25    1    1    2    0    0  0.14347020526E+03 -0.11108691127E+03 -0.56440718634E+02  0.22745231670E+03  0.12500000000E+03 0.  0.
</event>
<event>
 5    0  0.5510933E-005  0.3784383E+03  0.7546771E-02  0.1051512E+00
         21   -1    0    0  502  501  0.00000000000E+00  0.00000000000E+00  0.88231608064E+03  0.88231608064E+03  0.00000000000E+00 0. -1.
         21   -1    0    0  501  502 -0.00000000000E+00 -0.00000000000E+00 -0.16231770636E+03  0.16231770636E+03  0.00000000000E+00 0. -1.
         25    1    1    2    0    0  0.12665897223E+03 -0.37821589623E+02  0.43990762413E+03  0.47604273512E+03  0.12500000000E+03 0.  0.
         25    1    1    2    0    0 -0.11624246224E+03 -0.17397808549E+03  0.17939597912E+03  0.30263608771E+03  0.12500000000E+03 0.  0.
         25    1    1    2    0    0 -0.10416509990E+02  0.21179967511E+03  0.10069477102E+03  0.26595496417E+03  0.12500000000E+03 0.  0.
</event>
<event>
 5    0  0.6435739E-005  0.2943382E+03  0.7546771E-02  0.1088106E+00
         21   -1    0    0  502  501  0.00000000000E+00  0.00000000000E+00  0.22326546821E+03  0.22326546821E+03  0.00000000000E+00 0.  1.
         21   -1    0    0  501  502 -0.00000000000E+00 -0.00000000000E+00 -0.38803563472E+03  0.38803563472E+03  0.00000000000E+00 0.  1.
         25    1    1    2    0    0 -0.70393762108E+02 -0.12043704348E+03  0.91743499878E+02  0.20857188918E+03  0.12500000000E+03 0.  0.
         25    1    1    2    0    0  0.80209524975E+02  0.50106205339E+02 -0.82894029759E+02  0.17731503004E+03  0.12500000000E+03 0.  0.
         25    1    1    2    0    0 -0.98157628670E+01  0.70330838136E+02 -0.17361963663E+03  0.22541418371E+03  0.12500000000E+03 0.  0.
</event>
<event>
 5    0  0.5870681E-005  0.3564345E+03  0.7546771E-02  0.1060005E+00
         21   -1    0    0  502  501  0.00000000000E+00  0.00000000000E+00  0.53016829354E+03  0.53016829354E+03  0.00000000000E+00 0.  1.
         21   -1    0    0  501  502 -0.00000000000E+00 -0.00000000000E+00 -0.23963249914E+03  0.23963249914E+03  0.00000000000E+00 0.  1.
         25    1    1    2    0    0  0.18260777458E+03 -0.10583675849E+03 -0.43003552168E+02  0.24904080847E+03  0.12500000000E+03 0.  0.
         25    1    1    2    0    0 -0.12996694013E+03 -0.90923625193E+01  0.52178366774E+02  0.18794057183E+03  0.12500000000E+03 0.  0.
         25    1    1    2    0    0 -0.52640834457E+02  0.11492912101E+03  0.28136097979E+03  0.33281941238E+03  0.12500000000E+03 0.  0.
</event>
<event>
 5    0  0.5510933E-005  0.2618751E+03  0.7546771E-02  0.1106022E+00
         21   -1    0    0  502  501  0.00000000000E+00  0.00000000000E+00  0.75299522998E+03  0.75299522998E+03  0.00000000000E+00 0. -1.
         21   -1    0    0  501  502 -0.00000000000E+00 -0.00000000000E+00 -0.91074403272E+02  0.91074403272E+02  0.00000000000E+00 0. -1.
         25    1    1    2    0    0  0.12598247689E+03 -0.52542365094E+02  0.23543793923E+03  0.29948006251E+03  0.12500000000E+03 0.  0.
         25    1    1    2    0    0 -0.90640901109E+02  0.88042694285E+02  0.34252892011E+03  0.38589940410E+03  0.12500000000E+03 0.  0.
         25    1    1    2    0    0 -0.35341575783E+02 -0.35500329191E+02  0.83953967362E+02  0.15869016664E+03  0.12500000000E+03 0.  0.
</event>
<event>
 5    0  0.5510933E-005  0.3541599E+03  0.7546771E-02  0.1060921E+00
         21   -1    0    0  502  501  0.00000000000E+00  0.00000000000E+00  0.25443239892E+03  0.25443239892E+03  0.00000000000E+00 0.  1.
         21   -1    0    0  501  502 -0.00000000000E+00 -0.00000000000E+00 -0.49297657154E+03  0.49297657154E+03  0.00000000000E+00 0.  1.
         25    1    1    2    0    0  0.25501000153E+03 -0.22492782888E+02  0.19092150368E+02  0.28552676997E+03  0.12500000000E+03 0.  0.
         25    1    1    2    0    0 -0.63899855545E+02  0.20055166396E+02 -0.42270503631E+02  0.14797701414E+03  0.12500000000E+03 0.  0.
         25    1    1    2    0    0 -0.19111014599E+03  0.24376164918E+01 -0.21536581936E+03  0.31390518636E+03  0.12500000000E+03 0.  0.
</event>
<event>
 5    0  0.5510933E-005  0.3016475E+03  0.7546771E-02  0.1084420E+00
         21   -1    0    0  502  501  0.00000000000E+00  0.00000000000E+00  0.45733135038E+03  0.45733135038E+03  0.00000000000E+00 0.  1.
         21   -1    0    0  501  502 -0.00000000000E+00 -0.00000000000E+00 -0.19896128580E+03  0.19896128580E+03  0.00000000000E+00 0.  1.
         25    1    1    2    0    0  0.10555586385E+03  0.74271453123E+02 -0.11254830048E+02  0.18002766549E+03  0.12500000000E+03 0.  0.
         25    1    1    2    0    0 -0.70053098226E+02 -0.33215565579E+02 -0.27261768532E+02  0.14959583681E+03  0.12500000000E+03 0.  0.
         25    1    1    2    0    0 -0.35502765628E+02 -0.41055887543E+02  0.29688666316E+03  0.32666913388E+03  0.12500000000E+03 0.  0.
</event>
<event>
 5    0  0.5510933E-005  0.2986617E+03  0.7546771E-02  0.1085912E+00
         21   -1    0    0  502  501  0.00000000000E+00  0.00000000000E+00  0.89398307694E+03  0.89398307694E+03  0.00000000000E+00 0.  1.
         21   -1    0    0  501  502 -0.00000000000E+00 -0.00000000000E+00 -0.99776832421E+02  0.99776832421E+02  0.00000000000E+00 0.  1.
         25    1    1    2    0    0 -0.10089480191E+01 -0.53423023046E+02  0.71421960725E+02  0.15356149856E+03  0.12500000000E+03 0.  0.
         25    1    1    2    0    0  0.14665950655E+03  0.10346283814E+01  0.18640117391E+03  0.26810535047E+03  0.12500000000E+03 0.  0.
         25    1    1    2    0    0 -0.14565055854E+03  0.52388394664E+02  0.53638310988E+03  0.57209306032E+03  0.12500000000E+03 0.  0.
</event>
<event>
 5    0  0.5510933E-005  0.2157102E+03  0.7546771E-02  0.1137122E+00
         21   -1    0    0  502  501  0.00000000000E+00  0.00000000000E+00  0.22581136418E+03  0.22581136418E+03  0.00000000000E+00 0.  1.
         21   -1    0    0  501  502 -0.00000000000E+00 -0.00000000000E+00 -0.20606088189E+03  0.20606088189E+03  0.00000000000E+00 0.  1.
         25    1    1    2    0    0  0.45313457866E+02 -0.14857072578E+01  0.56077065142E+02  0.14430923056E+03  0.12500000000E+03 0.  0.
         25    1    1    2    0    0  0.39578249314E+00  0.59387808891E+02 -0.19584480479E+01  0.13840485543E+03  0.12500000000E+03 0.  0.
         25    1    1    2    0    0 -0.45709240359E+02 -0.57902101633E+02 -0.34368134799E+02  0.14915816008E+03  0.12500000000E+03 0.  0.
</event>
<event>
 5    0  0.5951702E-005  0.3473258E+03  0.7546771E-02  0.1063718E+00
         21   -1    0    0  502  501  0.00000000000E+00  0.00000000000E+00  0.45564455743E+03  0.45564455743E+03  0.00000000000E+00 0. -1.
         21   -1    0    0  501  502 -0.00000000000E+00 -0.00000000000E+00 -0.26475728742E+03  0.26475728742E+03  0.00000000000E+00 0. -1.
         25    1    1    2    0    0 -0.68507128545E+02 -0.75990285573E+02  0.12683769231E+03  0.20537904069E+03  0.12500000000E+03 0.  0.
         25    1    1    2    0    0  0.25166269126E+03  0.55407462396E+02  0.58123388995E+02  0.29224548826E+03  0.12500000000E+03 0.  0.
         25    1    1    2    0    0 -0.18315556271E+03  0.20582823177E+02  0.59261887053E+01  0.22277731589E+03  0.12500000000E+03 0.  0.
</event>
<event>
 5    0  0.5510933E-005  0.3934963E+03  0.7546771E-02  0.1046055E+00
         21   -1    0    0  502  501  0.00000000000E+00  0.00000000000E+00  0.53871271794E+03  0.53871271794E+03  0.00000000000E+00 0.  1.
         21   -1    0    0  501  502 -0.00000000000E+00 -0.00000000000E+00 -0.28742462821E+03  0.28742462821E+03  0.00000000000E+00 0.  1.
         25    1    1    2    0    0 -0.15245050634E+03 -0.11518835754E+03  0.34122680409E+03  0.41057307076E+03  0.12500000000E+03 0.  0.
         25    1    1    2    0    0  0.17452838292E+03 -0.23137698390E+02 -0.68921035976E+02  0.22665087410E+03  0.12500000000E+03 0.  0.
         25    1    1    2    0    0 -0.22077876575E+02  0.13832605593E+03 -0.21017678393E+02  0.18891340130E+03  0.12500000000E+03 0.  0.
</event>
<event>
 5    0  0.5510933E-005  0.2414139E+03  0.7546771E-02  0.1118854E+00
         21   -1    0    0  502  501  0.00000000000E+00  0.00000000000E+00  0.62754230872E+02  0.62754230872E+02  0.00000000000E+00 0. -1.
         21   -1    0    0  501  502 -0.00000000000E+00 -0.00000000000E+00 -0.92871305629E+03  0.92871305629E+03  0.00000000000E+00 0. -1.
         25    1    1    2    0    0  0.11241597240E+03  0.10394545445E+02 -0.24525936905E+03  0.29752740299E+03  0.12500000000E+03 0.  0.
         25    1    1    2    0    0 -0.25792754348E+02 -0.65033503439E+02 -0.35696524713E+03  0.38463464535E+03  0.12500000000E+03 0.  0.
         25    1    1    2    0    0 -0.86623218052E+02  0.54638957994E+02 -0.26373420924E+03  0.30930523882E+03  0.12500000000E+03 0.  0.
</event>
<event>
 5    0  0.5510933E-005  0.3985546E+03  0.7546771E-02  0.1044281E+00
         21   -1    0    0  502  501  0.00000000000E+00  0.00000000000E+00  0.11879922886E+04  0.11879922886E+04  0.00000000000E+00 0.  1.
         21   -1    0    0  501  502 -0.00000000000E+00 -0.00000000000E+00 -0.13370944068E+03  0.13370944068E+03  0.00000000000E+00 0.  1.
         25    1    1    2    0    0  0.14626997310E+02 -0.94680321249E+01 -0.20115460624E+02  0.12780150406E+03  0.12500000000E+03 0.  0.
         25    1    1    2    0    0 -0.13281976958E+02 -0.13778490633E+03  0.12375897460E+03  0.22383559842E+03  0.12500000000E+03 0.  0.
         25    1    1    2    0    0 -0.13450203513E+01  0.14725293845E+03  0.95063933394E+03  0.97006462681E+03  0.12500000000E+03 0.  0.
</event>
<event>
 5    0  0.5510933E-005  0.6293166E+03  0.7546771E-02  0.9846383E-01
         21   -1    0    0  502  501  0.00000000000E+00  0.00000000000E+00  0.17391445021E+04  0.17391445021E+04  0.00000000000E+00 0. -1.
         21   -1    0    0  501  502 -0.00000000000E+00 -0.00000000000E+00 -0.22772082432E+03  0.22772082432E+03  0.00000000000E+00 0. -1.
         25    1    1    2    0    0 -0.38487849243E+03  0.13616055847E+03  0.36190739435E+03  0.55970806114E+03  0.12500000000E+03 0.  0.
         25    1    1    2    0    0  0.36371365459E+03 -0.17017259906E+03  0.23201648782E+03  0.48031550738E+03  0.12500000000E+03 0.  0.
         25    1    1    2    0    0  0.21164837835E+02  0.34012040591E+02  0.91749979556E+03  0.92684175786E+03  0.12500000000E+03 0.  0.
</event>
<event>
 5    0  0.5510933E-005  0.2492709E+03  0.7546771E-02  0.1113766E+00
         21   -1    0    0  502  501  0.00000000000E+00  0.00000000000E+00  0.20677484572E+03  0.20677484572E+03  0.00000000000E+00 0. -1.
         21   -1    0    0  501  502 -0.00000000000E+00 -0.00000000000E+00 -0.30050064114E+03  0.30050064114E+03  0.00000000000E+00 0. -1.
         25    1    1    2    0    0  0.12476178114E+03 -0.32479616817E+02  0.11895040971E+02  0.17996366172E+03  0.12500000000E+03 0.  0.
         25    1    1    2    0    0 -0.47038948449E+02  0.58902473779E+02 -0.31076591457E+01  0.14600281379E+03  0.12500000000E+03 0.  0.
         25    1    1    2    0    0 -0.77722832686E+02 -0.26422856963E+02 -0.10251317724E+03  0.18130901136E+03  0.12500000000E+03 0.  0.
</event>
<event>
 5    0  0.5510933E-005  0.2313164E+03  0.7546771E-02  0.1125717E+00
         21   -1    0    0  502  501  0.00000000000E+00  0.00000000000E+00  0.58764211221E+03  0.58764211221E+03  0.00000000000E+00 0.  1.
         21   -1    0    0  501  502 -0.00000000000E+00 -0.00000000000E+00 -0.91054217235E+02  0.91054217235E+02  0.00000000000E+00 0.  1.
         25    1    1    2    0    0 -0.80561867418E+02  0.58723798749E+02  0.22901191740E+03  0.27930298483E+03  0.12500000000E+03 0.  0.
         25    1    1    2    0    0  0.11037040410E+02  0.24024606925E+02  0.14742021072E+03  0.19508130748E+03  0.12500000000E+03 0.  0.
         25    1    1    2    0    0  0.69524827008E+02 -0.82748405674E+02  0.12015576685E+03  0.20431203714E+03  0.12500000000E+03 0.  0.
</event>
<event>
 5    0  0.5510933E-005  0.3399919E+03  0.7546771E-02  0.1066799E+00
         21   -1    0    0  502  501  0.00000000000E+00  0.00000000000E+00  0.19758465886E+03  0.19758465886E+03  0.00000000000E+00 0.  1.
         21   -1    0    0  501  502 -0.00000000000E+00 -0.00000000000E+00 -0.58503789320E+03  0.58503789320E+03  0.00000000000E+00 0.  1.
         25    1    1    2    0    0  0.16515940346E+03 -0.68970654949E+02 -0.45946693568E+02  0.22309342986E+03  0.12500000000E+03 0.  0.
         25    1    1    2    0    0  0.79498974418E+02  0.22532444829E+01 -0.18281578155E+03  0.23531207795E+03  0.12500000000E+03 0.  0.
         25    1    1    2    0    0 -0.24465837788E+03  0.66717410466E+02 -0.15869075922E+03  0.32421704426E+03  0.12500000000E+03 0.  0.
</event>
<event>
 5    0  0.5510933E-005  0.4592212E+03  0.7546771E-02  0.1025007E+00
         21   -1    0    0  502  501  0.00000000000E+00  0.00000000000E+00  0.44492135370E+03  0.44492135370E+03  0.00000000000E+00 0. -1.
         21   -1    0    0  501  502 -0.00000000000E+00 -0.00000000000E+00 -0.47398064130E+03  0.47398064130E+03  0.00000000000E+00 0. -1.
         25    1    1    2    0    0  0.18669571790E+03  0.14204454264E+02  0.28121757162E+03  0.36022962148E+03  0.12500000000E+03 0.  0.
         25    1    1    2    0    0 -0.18151280489E+03  0.76038428275E+02 -0.25149455398E+02  0.23449144125E+03  0.12500000000E+03 0.  0.
         25    1    1    2    0    0 -0.51829130083E+01 -0.90242882539E+02 -0.28512740382E+03  0.32418093227E+03  0.12500000000E+03 0.  0.
</event>
<event>
 5    0  0.5510933E-005  0.4501951E+03  0.7546771E-02  0.1027664E+00
         21   -1    0    0  502  501  0.00000000000E+00  0.00000000000E+00  0.28105580207E+03  0.28105580207E+03  0.00000000000E+00 0.  1.
         21   -1    0    0  501  502 -0.00000000000E+00 -0.00000000000E+00 -0.72112237513E+03  0.72112237513E+03  0.00000000000E+00 0. -1.
         25    1    1    2    0    0 -0.13118827870E+02  0.62495981030E+02  0.12153578862E+03  0.18567121265E+03  0.12500000000E+03 0.  0.
         25    1    1    2    0    0 -0.18688244734E+03 -0.17846620090E+03 -0.13922418908E+03  0.31903543504E+03  0.12500000000E+03 0.  0.
         25    1    1    2    0    0  0.20000127521E+03  0.11597021987E+03 -0.42237817260E+03  0.49747152951E+03  0.12500000000E+03 0.  0.
</event>
<event>
 5    0  0.5510933E-005  0.2515494E+03  0.7546771E-02  0.1112330E+00
         21   -1    0    0  502  501  0.00000000000E+00  0.00000000000E+00  0.35899674864E+03  0.35899674864E+03  0.00000000000E+00 0.  1.
         21   -1    0    0  501  502 -0.00000000000E+00 -0.00000000000E+00 -0.17626088989E+03  0.17626088989E+03  0.00000000000E+00 0.  1.
         25    1    1    2    0    0 -0.95119661118E+02 -0.12495264874E+01  0.38481773132E+02  0.16172556419E+03  0.12500000000E+03 0.  0.
         25    1    1    2    0    0  0.11140702896E+03 -0.29939349379E+02 -0.11811408955E+02  0.17050630524E+03  0.12500000000E+03 0.  0.
         25    1    1    2    0    0 -0.16287367844E+02  0.31188875866E+02  0.15606549457E+03  0.20302576911E+03  0.12500000000E+03 0.  0.
</event>
<event>
 5    0  0.6116358E-005  0.2833633E+03  0.7546771E-02  0.1093866E+00
         21   -1    0    0  502  501  0.00000000000E+00  0.00000000000E+00  0.11372859627E+04  0.11372859627E+04  0.00000000000E+00 0. -1.
         21   -1    0    0  501  502 -0.00000000000E+00 -0.00000000000E+00 -0.70602082813E+02  0.70602082813E+02  0.00000000000E+00 0. -1.
         25    1    1    2    0    0 -0.26441907119E+02 -0.70482327867E+02  0.68976957613E+03  0.70503475174E+03  0.12500000000E+03 0.  0.
         25    1    1    2    0    0  0.33663439753E+02  0.13914878609E+03  0.21673958727E+03  0.28826491381E+03  0.12500000000E+03 0.  0.
         25    1    1    2    0    0 -0.72215326339E+01 -0.68666458227E+02  0.16017471653E+03  0.21458838001E+03  0.12500000000E+03 0.  0.
</event>
<event>
 5    0  0.5510933E-005  0.2889522E+03  0.7546771E-02  0.1090897E+00
         21   -1    0    0  502  501  0.00000000000E+00  0.00000000000E+00  0.10503364659E+04  0.10503364659E+04  0.00000000000E+00 0. -1.
         21   -1    0    0  501  502 -0.00000000000E+00 -0.00000000000E+00 -0.79492043703E+02  0.79492043703E+02  0.00000000000E+00 0. -1.
         25    1    1    2    0    0  0.12372035374E+03  0.77346411553E+02  0.27066630933E+03  0.33192535955E+03  0.12500000000E+03 0.  0.
         25    1    1    2    0    0 -0.97203220694E+02 -0.16299390669E+03  0.38181487446E+03  0.44432316852E+03  0.12500000000E+03 0.  0.
         25    1    1    2    0    0 -0.26517133044E+02  0.85647495132E+02  0.31836323846E+03  0.35357998157E+03  0.12500000000E+03 0.  0.
</event>
<event>
 5    0  0.6083838E-005  0.3168756E+03  0.7546771E-02  0.1077096E+00
         21   -1    0    0  502  501  0.00000000000E+00  0.00000000000E+00  0.52080338925E+03  0.52080338925E+03  0.00000000000E+00 0. -1.
         21   -1    0    0  501  502 -0.00000000000E+00 -0.00000000000E+00 -0.19279856547E+03  0.19279856547E+03  0.00000000000E+00 0. -1.
         25    1    1    2    0    0 -0.94123144393E+02  0.13934077165E+03  0.17732701589E+03  0.27449023210E+03  0.12500000000E+03 0.  0.
         25    1    1    2    0    0 -0.17585217083E+02 -0.14247658928E+03  0.18777886131E+03  0.26738496425E+03  0.12500000000E+03 0.  0.
         25    1    1    2    0    0  0.11170836148E+03  0.31358176356E+01 -0.37101053420E+02  0.17172675837E+03  0.12500000000E+03 0.  0.
</event>
<event>
 5    0  0.6014119E-005  0.2968485E+03  0.7546771E-02  0.1086827E+00
         21   -1    0    0  502  501  0.00000000000E+00  0.00000000000E+00  0.93577540568E+02  0.93577540568E+02  0.00000000000E+00 0. -1.
         21   -1    0    0  501  502 -0.00000000000E+00 -0.00000000000E+00 -0.94166854282E+03  0.94166854282E+03  0.00000000000E+00 0. -1.
         25    1    1    2    0    0  0.47268370303E+02 -0.88936997082E+02 -0.60970087666E+03  0.63047937895E+03  0.12500000000E+03 0.  0.
         25    1    1    2    0    0 -0.23853838065E+02  0.13758975411E+03 -0.16699009866E+03  0.25101920061E+03  0.12500000000E+03 0.  0.
         25    1    1    2    0    0 -0.23414532238E+02 -0.48652757030E+02 -0.71400026937E+02  0.15374750383E+03  0.12500000000E+03 0.  0.
</event>
<event>
 5    0  0.5510933E-005  0.3234977E+03  0.7546771E-02  0.1074051E+00
         21   -1    0    0  502  501  0.00000000000E+00  0.00000000000E+00  0.13520157339E+03  0.13520157339E+03  0.00000000000E+00 0.  1.
         21   -1    0    0  501  502 -0.00000000000E+00 -0.00000000000E+00 -0.77403520582E+03  0.77403520582E+03  0.00000000000E+00 0.  1.
         25    1    1    2    0    0 -0.15362092229E+03 -0.59532168231E+02 -0.39635034486E+03  0.44705935030E+03  0.12500000000E+03 0.  0.
         25    1    1    2    0    0 -0.33984124393E+02  0.67905095456E+02 -0.17212197105E+03  0.22586942161E+03  0.12500000000E+03 0.  0.
         25    1    1    2    0    0  0.18760504669E+03 -0.83729272250E+01 -0.70361316522E+02  0.23630800730E+03  0.12500000000E+03 0.  0.
</event>
<event>
 5    0  0.5510933E-005  0.2673394E+03  0.7546771E-02  0.1102812E+00
         21   -1    0    0  502  501  0.00000000000E+00  0.00000000000E+00  0.45414018668E+02  0.45414018668E+02  0.00000000000E+00 0.  1.
         21   -1    0    0  501  502 -0.00000000000E+00 -0.00000000000E+00 -0.15737503849E+04  0.15737503849E+04  0.00000000000E+00 0.  1.
         25    1    1    2    0    0  0.10756551114E+03 -0.21666995010E+02 -0.27254130284E+03  0.31928601538E+03  0.12500000000E+03 0.  0.
         25    1    1    2    0    0 -0.11550294404E+03  0.80560377253E+02 -0.57132139973E+03  0.60155136626E+03  0.12500000000E+03 0.  0.
         25    1    1    2    0    0  0.79374328994E+01 -0.58893382243E+02 -0.68447366367E+03  0.69832702194E+03  0.12500000000E+03 0.  0.
</event>
<event>
 5    0  0.5510933E-005  0.3616528E+03  0.7546771E-02  0.1057931E+00
         21   -1    0    0  502  501  0.00000000000E+00  0.00000000000E+00  0.10363187668E+04  0.10363187668E+04  0.00000000000E+00 0.  1.
         21   -1    0    0  501  502 -0.00000000000E+00 -0.00000000000E+00 -0.12620896024E+03  0.12620896024E+03  0.00000000000E+00 0.  1.
         25    1    1    2    0    0  0.95928230095E+00  0.24436976252E+03  0.26881493534E+03  0.38419262164E+03  0.12500000000E+03 0.  0.
         25    1    1    2    0    0  0.10211932509E+03 -0.21024732111E+03  0.30925885413E+03  0.40730618882E+03  0.12500000000E+03 0.  0.
         25    1    1    2    0    0 -0.10307860739E+03 -0.34122441405E+02  0.33203601712E+03  0.37102891663E+03  0.12500000000E+03 0.  0.
</event>
<event>
 5    0  0.5510933E-005  0.2606275E+03  0.7546771E-02  0.1106767E+00
         21   -1    0    0  502  501  0.00000000000E+00  0.00000000000E+00  0.16384137261E+04  0.16384137261E+04  0.00000000000E+00 0.  1.
         21   -1    0    0  501  502 -0.00000000000E+00 -0.00000000000E+00 -0.41458831764E+02  0.41458831764E+02  0.00000000000E+00 0.  1.
         25    1    1    2    0    0 -0.59974320734E+02 -0.49647076020E+01  0.67846640831E+03  0.69250504307E+03  0.12500000000E+03 0.  0.
         25    1    1    2    0    0 -0.40512596349E+02 -0.66987909434E+02  0.20500231142E+03  0.25254622975E+03  0.12500000000E+03 0.  0.
         25    1    1    2    0    0  0.10048691708E+03  0.71952617036E+02  0.71348617456E+03  0.73482128501E+03  0.12500000000E+03 0.  0.
</event>
<event>
 5    0  0.5510933E-005  0.4017936E+03  0.7546771E-02  0.1043160E+00
         21   -1    0    0  502  501  0.00000000000E+00  0.00000000000E+00  0.16212293023E+03  0.16212293023E+03  0.00000000000E+00 0.  1.
         21   -1    0    0  501  502 -0.00000000000E+00 -0.00000000000E+00 -0.99577598350E+03  0.99577598350E+03  0.00000000000E+00 0.  1.
         25    1    1    2    0    0 -0.11657266699E+02  0.43834388832E+02  0.44612443337E+02  0.14025910171E+03  0.12500000000E+03 0.  0.
         25    1    1    2    0    0  0.20984160012E+03  0.28277926668E+02 -0.59023269912E+03  0.63940032639E+03  0.12500000000E+03 0.  0.
         25    1    1    2    0    0 -0.19818433343E+03 -0.72112315500E+02 -0.28803279748E+03  0.37823948563E+03  0.12500000000E+03 0.  0.
</event>
<event>
 5    0  0.5510933E-005  0.4928586E+03  0.7546771E-02  0.1015660E+00
         21   -1    0    0  502  501  0.00000000000E+00  0.00000000000E+00  0.44691540245E+03  0.44691540245E+03  0.00000000000E+00 0. -1.
         21   -1    0    0  501  502 -0.00000000000E+00 -0.00000000000E+00 -0.54352489712E+03  0.54352489712E+03  0.00000000000E+00 0. -1.
         25    1    1    2    0    0  0.55085129444E+02  0.36591752293E+02 -0.27337488517E+03  0.30778589257E+03  0.12500000000E+03 0.  0.
         25    1    1    2    0    0 -0.90211047985E+02  0.17491722426E+03 -0.14631106049E+03  0.27525623507E+03  0.12500000000E+03 0.  0.
         25    1    1    2    0    0  0.35125918541E+02 -0.21150897655E+03  0.32307645100E+03  0.40739817194E+03  0.12500000000E+03 0.  0.
</event>
<event>
 5    0  0.5510933E-005  0.3625623E+03  0.7546771E-02  0.1057574E+00
         21   -1    0    0  502  501  0.00000000000E+00  0.00000000000E+00  0.56518778303E+03  0.56518778303E+03  0.00000000000E+00 0. -1.
         21   -1    0    0  501  502 -0.00000000000E+00 -0.00000000000E+00 -0.23258010103E+03  0.23258010103E+03  0.00000000000E+00 0. -1.
         25    1    1    2    0    0  0.15318437199E+03  0.12774732132E+03  0.10309895404E+03  0.25698098032E+03  0.12500000000E+03 0.  0.
         25    1    1    2    0    0 -0.20729757632E+03  0.30287898796E+02  0.19459532981E+02  0.24473110833E+03  0.12500000000E+03 0.  0.
         25    1    1    2    0    0  0.54113204330E+02 -0.15803522011E+03  0.21004919499E+03  0.29605579540E+03  0.12500000000E+03 0.  0.
</event>
<event>
 5    0  0.5510933E-005  0.4851697E+03  0.7546771E-02  0.1017724E+00
         21   -1    0    0  502  501  0.00000000000E+00  0.00000000000E+00  0.14808254344E+03  0.14808254344E+03  0.00000000000E+00 0.  1.
         21   -1    0    0  501  502 -0.00000000000E+00 -0.00000000000E+00 -0.15895842840E+04  0.15895842840E+04  0.00000000000E+00 0.  1.
         25    1    1    2    0    0 -0.17164215025E+03  0.24797495618E+03 -0.43252680694E+03  0.54190132437E+03  0.12500000000E+03 0.  0.
         25    1    1    2    0    0 -0.12294366217E+02  0.13186975309E+03 -0.44157716433E+03  0.47765696402E+03  0.12500000000E+03 0.  0.
         25    1    1    2    0    0  0.18393651646E+03 -0.37984470926E+03 -0.56739776928E+03  0.71810853903E+03  0.12500000000E+03 0.  0.
</event>
<event>
 5    0  0.5510933E-005  0.2910811E+03  0.7546771E-02  0.1089786E+00
         21   -1    0    0  502  501  0.00000000000E+00  0.00000000000E+00  0.41701386061E+03  0.41701386061E+03  0.00000000000E+00 0.  1.
         21   -1    0    0  501  502 -0.00000000000E+00 -0.00000000000E+00 -0.20317837571E+03  0.20317837571E+03  0.00000000000E+00 0.  1.
         25    1    1    2    0    0 -0.17661484770E+03  0.67121206871E+02  0.72490338985E+02  0.23786111512E+03  0.12500000000E+03 0.  0.
         25    1    1    2    0    0  0.20095924444E+02  0.26783734180E+00  0.11186385303E+03  0.16894507844E+03  0.12500000000E+03 0.  0.
         25    1    1    2    0    0  0.15651892325E+03 -0.67389044213E+02  0.29481292893E+02  0.21338604276E+03  0.12500000000E+03 0.  0.
</event>
<event>
 5    0  0.5510933E-005  0.3612449E+03  0.7546771E-02  0.1058092E+00
         21   -1    0    0  502  501  0.00000000000E+00  0.00000000000E+00  0.21327874471E+03  0.21327874471E+03  0.00000000000E+00 0. -1.
         21   -1    0    0  501  502 -0.00000000000E+00 -0.00000000000E+00 -0.61186546685E+03  0.61186546685E+03  0.00000000000E+00 0. -1.
         25    1    1    2    0    0  0.10126998933E+03 -0.59243391184E+02 -0.34164851639E+03  0.38224873955E+03  0.12500000000E+03 0.  0.
         25    1    1    2    0    0  0.96999866279E+02 -0.19434543321E+02 -0.10519729399E+03  0.19099252916E+03  0.12500000000E+03 0.  0.
         25    1    1    2    0    0 -0.19826985561E+03  0.78677934505E+02  0.48259088235E+02  0.25190294285E+03  0.12500000000E+03 0.  0.
</event>
<event>
 5    0  0.5510933E-005  0.3501871E+03  0.7546771E-02  0.1062538E+00
         21   -1    0    0  502  501  0.00000000000E+00  0.00000000000E+00  0.16433584266E+03  0.16433584266E+03  0.00000000000E+00 0.  1.
         21   -1    0    0  501  502 -0.00000000000E+00 -0.00000000000E+00 -0.74622205424E+03  0.74622205424E+03  0.00000000000E+00 0.  1.
         25    1    1    2    0    0  0.58832658960E+02 -0.76986184326E+02 -0.85641685726E+02  0.17985453197E+03  0.12500000000E+03 0.  0.
         25    1    1    2    0    0  0.20298226461E+03  0.13179578957E+02 -0.20485028726E+03  0.31458566598E+03  0.12500000000E+03 0.  0.
         25    1    1    2    0    0 -0.26181492357E+03  0.63806605370E+02 -0.29139423859E+03  0.41611769894E+03  0.12500000000E+03 0.  0.
</event>
<event>
 5    0  0.5510933E-005  0.2310762E+03  0.7546771E-02  0.1125885E+00
         21   -1    0    0  502  501  0.00000000000E+00  0.00000000000E+00  0.17762157452E+03  0.17762157452E+03  0.00000000000E+00 0.  1.
         21   -1    0    0  501  502 -0.00000000000E+00 -0.00000000000E+00 -0.30061788110E+03  0.30061788110E+03  0.00000000000E+00 0.  1.
         25    1    1    2    0    0 -0.37206593381E+02 -0.92146711745E+00  0.33313343804E+02  0.13461039547E+03  0.12500000000E+03 0.  0.
         25    1    1    2    0    0 -0.79843572511E+01 -0.81509357292E+02 -0.82198099839E+02  0.17055513157E+03  0.12500000000E+03 0.  0.
         25    1    1    2    0    0  0.45190950632E+02  0.82430824410E+02 -0.74111550547E+02  0.17307392859E+03  0.12500000000E+03 0.  0.
</event>
<event>
 5    0  0.5510933E-005  0.3844066E+03  0.7546771E-02  0.1049317E+00
         21   -1    0    0  502  501  0.00000000000E+00  0.00000000000E+00  0.37258758774E+03  0.37258758774E+03  0.00000000000E+00 0.  1.
         21   -1    0    0  501  502 -0.00000000000E+00 -0.00000000000E+00 -0.39660051132E+03  0.39660051132E+03  0.00000000000E+00 0.  1.
         25    1    1    2    0    0  0.25293048389E+03 -0.11542903236E+03  0.78297342317E+02  0.31472712785E+03  0.12500000000E+03 0.  0.
         25    1    1    2    0    0 -0.25257783592E+03  0.14686684372E+02 -0.61836931355E+02  0.28889456204E+03  0.12500000000E+03 0.  0.
         25    1    1    2    0    0 -0.35264796700E+00  0.10074234798E+03 -0.40473334542E+02  0.16556640917E+03  0.12500000000E+03 0.  0.
</event>
<event>
 5    0  0.5510933E-005  0.2666631E+03  0.7546771E-02  0.1103205E+00
         21   -1    0    0  502  501  0.00000000000E+00  0.00000000000E+00  0.78646495208E+02  0.78646495208E+02  0.00000000000E+00 0.  1.
         21   -1    0    0  501  502 -0.00000000000E+00 -0.00000000000E+00 -0.90416230219E+03  0.90416230219E+03  0.00000000000E+00 0.  1.
         25    1    1    2    0    0  0.45018359890E+02 -0.10676832024E+03 -0.32359204321E+03  0.36573615813E+03  0.12500000000E+03 0.  0.
         25    1    1    2    0    0 -0.20524457905E+02  0.50145159077E+02 -0.51624410215E+02  0.14569100892E+03  0.12500000000E+03 0.  0.
         25    1    1    2    0    0 -0.24493901985E+02  0.56623161162E+02 -0.45029935356E+03  0.47138163035E+03  0.12500000000E+03 0.  0.
</event>
<event>
 5    0  0.5510933E-005  0.2613235E+03  0.7546771E-02  0.1106351E+00
         21   -1    0    0  502  501  0.00000000000E+00  0.00000000000E+00  0.12453104838E+03  0.12453104838E+03  0.00000000000E+00 0.  1.
         21   -1    0    0  501  502 -0.00000000000E+00 -0.00000000000E+00 -0.54837715549E+03  0.54837715549E+03  0.00000000000E+00 0.  1.
         25    1    1    2    0    0  0.97957755861E+01 -0.69596338525E+02 -0.85732398703E+02  0.16707678397E+03  0.12500000000E+03 0.  0.
         25    1    1    2    0    0  0.11560537500E+03 -0.30207562063E+02 -0.15954373921E+03  0.23527920489E+03  0.12500000000E+03 0.  0.
         25    1    1    2    0    0 -0.12540115059E+03  0.99803900588E+02 -0.17856996920E+03  0.27055221500E+03  0.12500000000E+03 0.  0.
</event>
<event>
 5    0  0.5510933E-005  0.3623265E+03  0.7546771E-02  0.1057666E+00
         21   -1    0    0  502  501  0.00000000000E+00  0.00000000000E+00  0.62766794268E+03  0.62766794268E+03  0.00000000000E+00 0. -1.
         21   -1    0    0  501  502 -0.00000000000E+00 -0.00000000000E+00 -0.20915594272E+03  0.20915594272E+03  0.00000000000E+00 0. -1.
         25    1    1    2    0    0 -0.12820867639E+03 -0.11033561209E+03  0.27992876667E+03  0.35013786771E+03  0.12500000000E+03 0.  0.
         25    1    1    2    0    0  0.66831463259E+02  0.23389549892E+03  0.41183190882E+02  0.27657657910E+03  0.12500000000E+03 0.  0.
         25    1    1    2    0    0  0.61377213127E+02 -0.12355988682E+03  0.97400042419E+02  0.21010943859E+03  0.12500000000E+03 0.  0.
</event>
<event>
 5    0  0.5510933E-005  0.2932216E+03  0.7546771E-02  0.1088679E+00
         21   -1    0    0  502  501  0.00000000000E+00  0.00000000000E+00  0.31743316390E+03  0.31743316390E+03  0.00000000000E+00 0.  1.
         21   -1    0    0  501  502 -0.00000000000E+00 -0.00000000000E+00 -0.27085680688E+03  0.27085680688E+03  0.00000000000E+00 0.  1.
         25    1    1    2    0    0 -0.13208920435E+03 -0.29040681281E+01  0.32194714845E+02  0.18470920709E+03  0.12500000000E+03 0.  0.
         25    1    1    2    0    0  0.67988287066E+02 -0.14180430769E+03 -0.51863159838E+01  0.20095463849E+03  0.12500000000E+03 0.  0.
         25    1    1    2    0    0  0.64100917287E+02  0.14470837582E+03  0.19567958153E+02  0.20262612520E+03  0.12500000000E+03 0.  0.
</event>
<event>
 5    0  0.5510933E-005  0.5478300E+03  0.7546771E-02  0.1001997E+00
         21   -1    0    0  502  501  0.00000000000E+00  0.00000000000E+00  0.11806945551E+04  0.11806945551E+04  0.00000000000E+00 0.  1.
         21   -1    0    0  501  502 -0.00000000000E+00 -0.00000000000E+00 -0.25418743474E+03  0.25418743474E+03  0.00000000000E+00 0.  1.
         25    1    1    2    0    0  0.41092487181E+03  0.28378879753E+02  0.42333298523E+03  0.60373870794E+03  0.12500000000E+03 0.  0.
         25    1    1    2    0    0 -0.29926024952E+03 -0.59980499436E+02  0.56123055874E+03  0.65096781589E+03  0.12500000000E+03 0.  0.
         25    1    1    2    0    0 -0.11166462229E+03  0.31601619683E+02 -0.58056423590E+02  0.18017546602E+03  0.12500000000E+03 0.  0.
</event>
<event>
 5    0  0.5510933E-005  0.3702773E+03  0.7546771E-02  0.1054587E+00
         21   -1    0    0  502  501  0.00000000000E+00  0.00000000000E+00  0.13160623100E+03  0.13160623100E+03  0.00000000000E+00 0. -1.
         21   -1    0    0  501  502 -0.00000000000E+00 -0.00000000000E+00 -0.10417842596E+04  0.10417842596E+04  0.00000000000E+00 0. -1.
         25    1    1    2    0    0 -0.32387151089E+02 -0.87841624300E+02 -0.79455699407E+02  0.17522353348E+03  0.12500000000E+03 0.  0.
         25    1    1    2    0    0 -0.12323726080E+03 -0.37367739646E+02 -0.55391305568E+02  0.18782163653E+03  0.12500000000E+03 0.  0.
         25    1    1    2    0    0  0.15562441189E+03  0.12520936395E+03 -0.77533102361E+03  0.81034532057E+03  0.12500000000E+03 0.  0.
</event>
<event>
 5    0  0.5510933E-005  0.2595228E+03  0.7546771E-02  0.1107430E+00
         21   -1    0    0  502  501  0.00000000000E+00  0.00000000000E+00  0.85647325458E+02  0.85647325458E+02  0.00000000000E+00 0.  1.
         21   -1    0    0  501  502 -0.00000000000E+00 -0.00000000000E+00 -0.78638857714E+03  0.78638857714E+03  0.00000000000E+00 0.  1.
         25    1    1    2    0    0 -0.42265861053E+02  0.57404879562E+02 -0.16995190022E+03  0.22268895706E+03  0.12500000000E+03 0.  0.
         25    1    1    2    0    0  0.32728316965E+02 -0.38203855959E+01 -0.49040469074E+03  0.50715628634E+03  0.12500000000E+03 0.  0.
         25    1    1    2    0    0  0.95375440884E+01 -0.53584493966E+02 -0.40384660724E+02  0.14219065920E+03  0.12500000000E+03 0.  0.
</event>
<event>
 5    0  0.5510933E-005  0.3292520E+03  0.7546771E-02  0.1071468E+00
         21   -1    0    0  502  501  0.00000000000E+00  0.00000000000E+00  0.53340456332E+03  0.53340456332E+03  0.00000000000E+00 0.  1.
         21   -1    0    0  501  502 -0.00000000000E+00 -0.00000000000E+00 -0.20323579348E+03  0.20323579348E+03  0.00000000000E+00 0.  1.
         25    1    1    2    0    0 -0.51325624502E+02  0.14943586057E+03  0.30256529102E+03  0.36350536652E+03  0.12500000000E+03 0.  0.
         25    1    1    2    0    0 -0.35011271082E+02 -0.17074392009E+03 -0.11601196837E+02  0.21479958827E+03  0.12500000000E+03 0.  0.
         25    1    1    2    0    0  0.86336895584E+02  0.21308059518E+02  0.39204675656E+02  0.15833540202E+03  0.12500000000E+03 0.  0.
</event>
<event>
 5    0  0.5510933E-005  0.4601808E+03  0.7546771E-02  0.1024729E+00
         21   -1    0    0  502  501  0.00000000000E+00  0.00000000000E+00  0.47189629366E+03  0.47189629366E+03  0.00000000000E+00 0.  1.
         21   -1    0    0  501  502 -0.00000000000E+00 -0.00000000000E+00 -0.44875619832E+03  0.44875619832E+03  0.00000000000E+00 0.  1.
         25    1    1    2    0    0  0.58353018620E+02  0.27485834291E+01 -0.28632351513E+03  0.31783452426E+03  0.12500000000E+03 0.  0.
         25    1    1    2    0    0 -0.91368819257E+02 -0.14101233535E+02 -0.92166139333E+02  0.18073932378E+03  0.12500000000E+03 0.  0.
         25    1    1    2    0    0  0.33015800637E+02  0.11352650106E+02  0.40162974980E+03  0.42207864395E+03  0.12500000000E+03 0.  0.
</event>
<event>
 5    0  0.5510933E-005  0.3909142E+03  0.7546771E-02  0.1046972E+00
         21   -1    0    0  502  501  0.00000000000E+00  0.00000000000E+00  0.84409457604E+02  0.84409457604E+02  0.00000000000E+00 0. -1.
         21   -1    0    0  501  502 -0.00000000000E+00 -0.00000000000E+00 -0.18103889224E+04  0.18103889224E+04  0.00000000000E+00 0. -1.
         25    1    1    2    0    0  0.88625077788E+02 -0.18919104531E+03 -0.67852865651E+03  0.72088403627E+03  0.12500000000E+03 0.  0.
         25    1    1    2    0    0 -0.23849521465E+03  0.14348246184E+03 -0.44955501429E+03  0.54331564963E+03  0.12500000000E+03 0.  0.
         25    1    1    2    0    0  0.14987013686E+03  0.45708583473E+02 -0.59789579399E+03  0.63059869410E+03  0.12500000000E+03 0.  0.
</event>
<event>
 5    0  0.5510933E-005  0.5183302E+03  0.7546771E-02  0.1009102E+00
         21   -1    0    0  502  501  0.00000000000E+00  0.00000000000E+00  0.64302934307E+03  0.64302934307E+03  0.00000000000E+00 0.  1.
         21   -1    0    0  501  502 -0.00000000000E+00 -0.00000000000E+00 -0.41781324781E+03  0.41781324781E+03  0.00000000000E+00 0.  1.
         25    1    1    2    0    0 -0.27371926245E+03 -0.29597757354E+03  0.19639753128E+03  0.46553404705E+03  0.12500000000E+03 0.  0.
         25    1    1    2    0    0 -0.60329614164E+02  0.61463726705E+02 -0.52793113945E+02  0.16071578929E+03  0.12500000000E+03 0.  0.
         25    1    1    2    0    0  0.33404887661E+03  0.23451384683E+03  0.81611677925E+02  0.43459275454E+03  0.12500000000E+03 0.  0.
</event>
<event>
 5    0  0.5510933E-005  0.3000263E+03  0.7546771E-02  0.1085227E+00
         21   -1    0    0  502  501  0.00000000000E+00  0.00000000000E+00  0.66314055582E+03  0.66314055582E+03  0.00000000000E+00 0.  1.
         21   -1    0    0  501  502 -0.00000000000E+00 -0.00000000000E+00 -0.13574160470E+03  0.13574160470E+03  0.00000000000E+00 0.  1.
         25    1    1    2    0    0 -0.93403522569E+02  0.10071572045E+02  0.20643723987E+03  0.25897294954E+03  0.12500000000E+03 0.  0.
         25    1    1    2    0    0  0.21093360247E+03 -0.10386135726E+01  0.11250242944E+03  0.26977001316E+03  0.12500000000E+03 0.  0.
         25    1    1    2    0    0 -0.11753007990E+03 -0.90329584722E+01  0.20845928182E+03  0.27013919782E+03  0.12500000000E+03 0.  0.
</event>
<event>
 5    0  0.5510933E-005  0.3566136E+03  0.7546771E-02  0.1059933E+00
         21   -1    0    0  502  501  0.00000000000E+00  0.00000000000E+00  0.26224099296E+03  0.26224099296E+03  0.00000000000E+00 0. -1.
         21   -1    0    0  501  502 -0.00000000000E+00 -0.00000000000E+00 -0.48494800557E+03  0.48494800557E+03  0.00000000000E+00 0. -1.
         25    1    1    2    0    0  0.96421352616E+02  0.38487047919E+02  0.38833722073E+02  0.16706701670E+03  0.12500000000E+03 0.  0.
         25    1    1    2    0    0 -0.12877576903E+02 -0.60314037272E+02  0.11074817456E+03  0.17802745082E+03  0.12500000000E+03 0.  0.
         25    1    1    2    0    0 -0.83543775713E+02  0.21826989352E+02 -0.37228890924E+03  0.40209453101E+03  0.12500000000E+03 0.  0.
</event>
<event>
 5    0  0.5510933E-005  0.3204316E+03  0.7546771E-02  0.1075451E+00
         21   -1    0    0  502  501  0.00000000000E+00  0.00000000000E+00  0.12022682725E+04  0.12022682725E+04  0.00000000000E+00 0. -1.
         21   -1    0    0  501  502 -0.00000000000E+00 -0.00000000000E+00 -0.85402251493E+02  0.85402251493E+02  0.00000000000E+00 0. -1.
         25    1    1    2    0    0 -0.18122769341E+01 -0.79636368378E+02  0.62212739880E+03  0.63954103532E+03  0.12500000000E+03 0.  0.
         25    1    1    2    0    0  0.36261175064E+02  0.19442848910E+03  0.20750437248E+03  0.31273051464E+03  0.12500000000E+03 0.  0.
         25    1    1    2    0    0 -0.34448898130E+02 -0.11479212073E+03  0.28723424972E+03  0.33539897402E+03  0.12500000000E+03 0.  0.
</event>
<event>
 5    0  0.5624667E-005  0.3575012E+03  0.7546771E-02  0.1059578E+00
         21   -1    0    0  502  501  0.00000000000E+00  0.00000000000E+00  0.55587335725E+03  0.55587335725E+03  0.00000000000E+00 0.  1.
         21   -1    0    0  501  502 -0.00000000000E+00 -0.00000000000E+00 -0.22992126602E+03  0.22992126602E+03  0.00000000000E+00 0.  1.
         25    1    1    2    0    0 -0.57689217101E+01 -0.16767793201E+03  0.30170309752E+03  0.36714973566E+03  0.12500000000E+03 0.  0.
         25    1    1    2    0    0 -0.81832702537E+02 -0.34811491004E+02  0.55528101749E+02  0.16314656354E+03  0.12500000000E+03 0.  0.
         25    1    1    2    0    0  0.87601624247E+02  0.20248942302E+03 -0.31279108032E+02  0.25549832407E+03  0.12500000000E+03 0.  0.
</event>
<event>
 5    0  0.5510933E-005  0.2627073E+03  0.7546771E-02  0.1105527E+00
         21   -1    0    0  502  501  0.00000000000E+00  0.00000000000E+00  0.15144196988E+04  0.15144196988E+04  0.00000000000E+00 0.  1.
         21   -1    0    0  501  502 -0.00000000000E+00 -0.00000000000E+00 -0.45572007798E+02  0.45572007798E+02  0.00000000000E+00 0.  1.
         25    1    1    2    0    0 -0.37137042601E+02 -0.10950227600E+03  0.46158941557E+03  0.49199562696E+03  0.12500000000E+03 0.  0.
         25    1    1    2    0    0  0.73038134429E+02 -0.45901637485E+01  0.23072240315E+03  0.27242148593E+03  0.12500000000E+03 0.  0.
         25    1    1    2    0    0 -0.35901091828E+02  0.11409243975E+03  0.77653587229E+03  0.79557459371E+03  0.12500000000E+03 0.  0.
</event>
<event>
 5    0  0.5510933E-005  0.2154553E+03  0.7546771E-02  0.1137317E+00
         21   -1    0    0  502  501  0.00000000000E+00  0.00000000000E+00  0.40274917238E+02  0.40274917238E+02  0.00000000000E+00 0.  1.
         21   -1    0    0  501  502 -0.00000000000E+00 -0.00000000000E+00 -0.11526026697E+04  0.11526026697E+04  0.00000000000E+00 0.  1.
         25    1    1    2    0    0 -0.20995550486E+02 -0.48588366909E+02 -0.30154731033E+03  0.33069233875E+03  0.12500000000E+03 0.  0.
         25    1    1    2    0    0 -0.10419899090E+02 -0.42000200861E+02 -0.43645879305E+03  0.45606344866E+03  0.12500000000E+03 0.  0.
         25    1    1    2    0    0  0.31415449576E+02  0.90588567770E+02 -0.37432164903E+03  0.40612179949E+03  0.12500000000E+03 0.  0.
</event>
<event>
 5    0  0.5510933E-005  0.2636496E+03  0.7546771E-02  0.1104970E+00
         21   -1    0    0  502  501  0.00000000000E+00  0.00000000000E+00  0.12911962338E+03  0.12911962338E+03  0.00000000000E+00 0.  1.
         21   -1    0    0  501  502 -0.00000000000E+00 -0.00000000000E+00 -0.53834666479E+03  0.53834666479E+03  0.00000000000E+00 0.  1.
         25    1    1    2    0    0  0.34366410697E+02 -0.82515820799E+02  0.17967694156E+02  0.15471828883E+03  0.12500000000E+03 0.  0.
         25    1    1    2    0    0  0.10551163150E+02  0.80454997824E+02 -0.25375264304E+03  0.29427833350E+03  0.12500000000E+03 0.  0.
         25    1    1    2    0    0 -0.44917573847E+02  0.20608229747E+01 -0.17344209252E+03  0.21846966584E+03  0.12500000000E+03 0.  0.
</event>
<event>
 5    0  0.5510933E-005  0.2491397E+03  0.7546771E-02  0.1113850E+00
         21   -1    0    0  502  501  0.00000000000E+00  0.00000000000E+00  0.88882066234E+03  0.88882066234E+03  0.00000000000E+00 0. -1.
         21   -1    0    0  501  502 -0.00000000000E+00 -0.00000000000E+00 -0.69834751099E+02  0.69834751099E+02  0.00000000000E+00 0. -1.
         25    1    1    2    0    0 -0.67608192554E+02 -0.64211883721E+00  0.34722324537E+03  0.37518030617E+03  0.12500000000E+03 0.  0.
         25    1    1    2    0    0 -0.80733043753E+02 -0.92391305458E+01  0.20744658182E+03  0.25546481205E+03  0.12500000000E+03 0.  0.
         25    1    1    2    0    0  0.14834123631E+03  0.98812493830E+01  0.26431608406E+03  0.32801029522E+03  0.12500000000E+03 0.  0.
</event>
<event>
 5    0  0.5510933E-005  0.2541603E+03  0.7546771E-02  0.1110703E+00
         21   -1    0    0  502  501  0.00000000000E+00  0.00000000000E+00  0.19469515568E+03  0.19469515568E+03  0.00000000000E+00 0. -1.
         21   -1    0    0  501  502 -0.00000000000E+00 -0.00000000000E+00 -0.33178764774E+03  0.33178764774E+03  0.00000000000E+00 0. -1.
         25    1    1    2    0    0  0.48830916356E+02  0.37069975663E+02  0.72845388728E+02  0.15713081221E+03  0.12500000000E+03 0.  0.
         25    1    1    2    0    0 -0.12650326671E+01  0.44308758509E+02 -0.40530723953E+02  0.13868167136E+03  0.12500000000E+03 0.  0.
         25    1    1    2    0    0 -0.47565883689E+02 -0.81378734172E+02 -0.16940715684E+03  0.23067031984E+03  0.12500000000E+03 0.  0.
</event>
<event>
 5    0  0.5510933E-005  0.2861208E+03  0.7546771E-02  0.1092392E+00
         21   -1    0    0  502  501  0.00000000000E+00  0.00000000000E+00  0.18691004485E+04  0.18691004485E+04  0.00000000000E+00 0.  1.
         21   -1    0    0  501  502 -0.00000000000E+00 -0.00000000000E+00 -0.43799200874E+02  0.43799200874E+02  0.00000000000E+00 0.  1.
         25    1    1    2    0    0  0.18571205724E+03 -0.50718101342E+02  0.95319447412E+03  0.98044173692E+03  0.12500000000E+03 0.  0.
         25    1    1    2    0    0 -0.11831354275E+03  0.44391683585E+02  0.59550217960E+03  0.62146324258E+03  0.12500000000E+03 0.  0.
         25    1    1    2    0    0 -0.67398514487E+02  0.63264177564E+01  0.27660459388E+03  0.31099466984E+03  0.12500000000E+03 0.  0.
</event>
<event>
 5    0  0.5510933E-005  0.3744644E+03  0.7546771E-02  0.1052999E+00
         21   -1    0    0  502  501  0.00000000000E+00  0.00000000000E+00  0.54807529217E+02  0.54807529217E+02  0.00000000000E+00 0. -1.
         21   -1    0    0  501  502 -0.00000000000E+00 -0.00000000000E+00 -0.25584729962E+04  0.25584729962E+04  0.00000000000E+00 0. -1.
         25    1    1    2    0    0  0.27147715577E+03 -0.45459751752E+01 -0.97134653877E+03  0.10162970089E+04  0.12500000000E+03 0.  0.
         25    1    1    2    0    0 -0.24357506972E+03  0.83925205708E+02 -0.11710207740E+04  0.12055234995E+04  0.12500000000E+03 0.  0.
         25    1    1    2    0    0 -0.27902086050E+02 -0.79379230533E+02 -0.36129815425E+03  0.39146001700E+03  0.12500000000E+03 0.  0.
</event>
<event>
 5    0  0.5510933E-005  0.2486793E+03  0.7546771E-02  0.1114142E+00
         21   -1    0    0  502  501  0.00000000000E+00  0.00000000000E+00  0.76071260272E+02  0.76071260272E+02  0.00000000000E+00 0.  1.
         21   -1    0    0  501  502 -0.00000000000E+00 -0.00000000000E+00 -0.81294001688E+03  0.81294001688E+03  0.00000000000E+00 0.  1.
         25    1    1    2    0    0  0.90736401284E+01 -0.11897194472E+02 -0.28047519609E+03  0.30743326073E+03  0.12500000000E+03 0.  0.
         25    1    1    2    0    0  0.91144178459E+02 -0.48648721510E+02 -0.33330395917E+03  0.37066222975E+03  0.12500000000E+03 0.  0.
         25    1    1    2    0    0 -0.10021781859E+03  0.60545915982E+02 -0.12308960135E+03  0.21091578667E+03  0.12500000000E+03 0.  0.
</event>
<event>
 5    0  0.5510933E-005  0.2614683E+03  0.7546771E-02  0.1106264E+00
         21   -1    0    0  502  501  0.00000000000E+00  0.00000000000E+00  0.74241346763E+02  0.74241346763E+02  0.00000000000E+00 0.  1.
         21   -1    0    0  501  502 -0.00000000000E+00 -0.00000000000E+00 -0.92085684221E+03  0.92085684221E+03  0.00000000000E+00 0.  1.
         25    1    1    2    0    0  0.49004520400E+02  0.14394862539E+03 -0.28537850207E+03  0.34668218762E+03  0.12500000000E+03 0.  0.
         25    1    1    2    0    0 -0.31365652306E+02 -0.60960654404E+02 -0.41237720596E+03  0.43632552701E+03  0.12500000000E+03 0.  0.
         25    1    1    2    0    0 -0.17638868093E+02 -0.82987970981E+02 -0.14885978743E+03  0.21209047434E+03  0.12500000000E+03 0.  0.
</event>
<event>
 5    0  0.5510933E-005  0.2976836E+03  0.7546771E-02  0.1086404E+00
         21   -1    0    0  502  501  0.00000000000E+00  0.00000000000E+00  0.39335715596E+03  0.39335715596E+03  0.00000000000E+00 0.  1.
         21   -1    0    0  501  502 -0.00000000000E+00 -0.00000000000E+00 -0.22528009369E+03  0.22528009369E+03  0.00000000000E+00 0.  1.
         25    1    1    2    0    0 -0.89893688453E+02 -0.10056943037E+03  0.35854425118E+02  0.18736495230E+03  0.12500000000E+03 0.  0.
         25    1    1    2    0    0  0.14202382362E+03  0.15866415266E+02 -0.42472080599E+02  0.19455432979E+03  0.12500000000E+03 0.  0.
         25    1    1    2    0    0 -0.52130135162E+02  0.84703015108E+02  0.17469471775E+03  0.23671796757E+03  0.12500000000E+03 0.  0.
</event>
<event>
 5    0  0.5510933E-005  0.2652044E+03  0.7546771E-02  0.1104056E+00
         21   -1    0    0  502  501  0.00000000000E+00  0.00000000000E+00  0.30570492555E+02  0.30570492555E+02  0.00000000000E+00 0.  1.
         21   -1    0    0  501  502 -0.00000000000E+00 -0.00000000000E+00 -0.23006943094E+04  0.23006943094E+04  0.00000000000E+00 0.  1.
         25    1    1    2    0    0  0.70300871405E+01  0.61304813868E+02 -0.37800496699E+03  0.40289013068E+03  0.12500000000E+03 0.  0.
         25    1    1    2    0    0  0.54655485253E+02  0.89423053940E+02 -0.97560759231E+03  0.98915058450E+03  0.12500000000E+03 0.  0.
         25    1    1    2    0    0 -0.61685572394E+02 -0.15072786781E+03 -0.91651125755E+03  0.93922408678E+03  0.12500000000E+03 0.  0.
</event>
<event>
 5    0  0.5510933E-005  0.3096846E+03  0.7546771E-02  0.1080497E+00
         21   -1    0    0  502  501  0.00000000000E+00  0.00000000000E+00  0.28876116238E+03  0.28876116238E+03  0.00000000000E+00 0.  1.
         21   -1    0    0  501  502 -0.00000000000E+00 -0.00000000000E+00 -0.33212422134E+03  0.33212422134E+03  0.00000000000E+00 0.  1.
         25    1    1    2    0    0 -0.79247539676E+02 -0.42970803118E+02 -0.10925758265E+03  0.18891501219E+03  0.12500000000E+03 0.  0.
         25    1    1    2    0    0  0.31494724029E+02  0.16607291561E+03 -0.50334293004E+02  0.21617278273E+03  0.12500000000E+03 0.  0.
         25    1    1    2    0    0  0.47752815647E+02 -0.12310211249E+03  0.11622881669E+03  0.21579758880E+03  0.12500000000E+03 0.  0.
</event>
<event>
 5    0  0.5510933E-005  0.4387540E+03  0.7546771E-02  0.1031130E+00
         21   -1    0    0  502  501  0.00000000000E+00  0.00000000000E+00  0.24828389200E+03  0.24828389200E+03  0.00000000000E+00 0.  1.
         21   -1    0    0  501  502 -0.00000000000E+00 -0.00000000000E+00 -0.77534273008E+03  0.77534273008E+03  0.00000000000E+00 0.  1.
         25    1    1    2    0    0  0.10493838961E+03 -0.16110934851E+03 -0.53431912341E+03  0.58145525489E+03  0.12500000000E+03 0.  0.
         25    1    1    2    0    0 -0.14313175430E+02  0.22181985237E+03  0.70566322255E+02  0.26460067976E+03  0.12500000000E+03 0.  0.
         25    1    1    2    0    0 -0.90625214177E+02 -0.60710503857E+02 -0.63306036922E+02  0.17757068743E+03  0.12500000000E+03 0.  0.
</event>
<event>
 5    0  0.5510933E-005  0.2753656E+03  0.7546771E-02  0.1098247E+00
         21   -1    0    0  502  501  0.00000000000E+00  0.00000000000E+00  0.12948681166E+04  0.12948681166E+04  0.00000000000E+00 0. -1.
         21   -1    0    0  501  502 -0.00000000000E+00 -0.00000000000E+00 -0.58559024193E+02  0.58559024193E+02  0.00000000000E+00 0. -1.
         25    1    1    2    0    0 -0.61958165645E+02 -0.59090171946E+02  0.88510015854E+03  0.89797424983E+03  0.12500000000E+03 0.  0.
         25    1    1    2    0    0  0.23332250050E+01  0.56481706529E+02  0.24541317984E+03  0.28115521683E+03  0.12500000000E+03 0.  0.
         25    1    1    2    0    0  0.59624940640E+02  0.26084654167E+01  0.10579575403E+03  0.17429767413E+03  0.12500000000E+03 0.  0.
</event>
<event>
 5    0  0.5987997E-005  0.5525859E+03  0.7546771E-02  0.1000897E+00
         21   -1    0    0  502  501  0.00000000000E+00  0.00000000000E+00  0.28609879220E+03  0.28609879220E+03  0.00000000000E+00 0.  1.
         21   -1    0    0  501  502 -0.00000000000E+00 -0.00000000000E+00 -0.10672927397E+04  0.10672927397E+04  0.00000000000E+00 0.  1.
         25    1    1    2    0    0  0.31120915885E+03  0.11047809624E+03  0.18569532821E+02  0.35359069254E+03  0.12500000000E+03 0.  0.
         25    1    1    2    0    0  0.15550729548E+02 -0.42712839850E+02 -0.54691211881E+03  0.56285351343E+03  0.12500000000E+03 0.  0.
         25    1    1    2    0    0 -0.32675988840E+03 -0.67765256385E+02 -0.25285136155E+03  0.43694732598E+03  0.12500000000E+03 0.  0.
</event>
<event>
 5    0  0.5510933E-005  0.3394239E+03  0.7546771E-02  0.1067042E+00
         21   -1    0    0  502  501  0.00000000000E+00  0.00000000000E+00  0.61022502960E+03  0.61022502960E+03  0.00000000000E+00 0. -1.
         21   -1    0    0  501  502 -0.00000000000E+00 -0.00000000000E+00 -0.18879683970E+03  0.18879683970E+03  0.00000000000E+00 0. -1.
         25    1    1    2    0    0 -0.47938944261E+02  0.22696405851E+02  0.45685737562E+03  0.47660983086E+03  0.12500000000E+03 0.  0.
         25    1    1    2    0    0 -0.14816904836E+02 -0.76823474425E+02 -0.77574752169E+02  0.16662601557E+03  0.12500000000E+03 0.  0.
         25    1    1    2    0    0  0.62755849097E+02  0.54127068574E+02  0.42145566445E+02  0.15578602286E+03  0.12500000000E+03 0.  0.
</event>
<event>
 5    0  0.5510933E-005  0.4260137E+03  0.7546771E-02  0.1035127E+00
         21   -1    0    0  502  501  0.00000000000E+00  0.00000000000E+00  0.27075318377E+03  0.27075318377E+03  0.00000000000E+00 0.  1.
         21   -1    0    0  501  502 -0.00000000000E+00 -0.00000000000E+00 -0.67030680030E+03  0.67030680030E+03  0.00000000000E+00 0.  1.
         25    1    1    2    0    0  0.28304837795E+03  0.10185794013E+03  0.44172864794E+02  0.32873646925E+03  0.12500000000E+03 0.  0.
         25    1    1    2    0    0 -0.11907323583E+03 -0.45591000653E+02 -0.92278149986E+02  0.20099062614E+03  0.12500000000E+03 0.  0.
         25    1    1    2    0    0 -0.16397514213E+03 -0.56266939472E+02 -0.35144833134E+03  0.41133288869E+03  0.12500000000E+03 0.  0.
</event>
<event>
 5    0  0.5510933E-005  0.3157215E+03  0.7546771E-02  0.1077635E+00
         21   -1    0    0  502  501  0.00000000000E+00  0.00000000000E+00  0.45924587864E+03  0.45924587864E+03  0.00000000000E+00 0.  1.
         21   -1    0    0  501  502 -0.00000000000E+00 -0.00000000000E+00 -0.21705160290E+03  0.21705160290E+03  0.00000000000E+00 0.  1.
         25    1    1    2    0    0  0.12810456687E+03 -0.83200073250E+02  0.16595240012E+03  0.25787250987E+03  0.12500000000E+03 0.  0.
         25    1    1    2    0    0 -0.18434467289E+03 -0.72030917488E+01 -0.26988869685E+02  0.22447325462E+03  0.12500000000E+03 0.  0.
         25    1    1    2    0    0  0.56240106018E+02  0.90403164999E+02  0.10323074531E+03  0.19395171704E+03  0.12500000000E+03 0.  0.
</event>
<event>
 5    0  0.5510933E-005  0.2916623E+03  0.7546771E-02  0.1089484E+00
         21   -1    0    0  502  501  0.00000000000E+00  0.00000000000E+00  0.59809641195E+03  0.59809641195E+03  0.00000000000E+00 0.  1.
         21   -1    0    0  501  502 -0.00000000000E+00 -0.00000000000E+00 -0.14222942363E+03  0.14222942363E+03  0.00000000000E+00 0.  1.
         25    1    1    2    0    0 -0.45542593215E+02  0.32279314224E+02  0.34388654625E+02  0.14115120081E+03  0.12500000000E+03 0.  0.
         25    1    1    2    0    0 -0.11296521895E+03  0.60284419826E+01  0.33738823933E+03  0.37716482716E+03  0.12500000000E+03 0.  0.
         25    1    1    2    0    0  0.15850781216E+03 -0.38307756207E+02  0.84090094368E+02  0.22200980761E+03  0.12500000000E+03 0.  0.
</event>
<event>
 5    0  0.5510933E-005  0.2145554E+03  0.7546771E-02  0.1138009E+00
         21   -1    0    0  502  501  0.00000000000E+00  0.00000000000E+00  0.26843296823E+02  0.26843296823E+02  0.00000000000E+00 0.  1.
         21   -1    0    0  501  502 -0.00000000000E+00 -0.00000000000E+00 -0.17149166926E+04  0.17149166926E+04  0.00000000000E+00 0.  1.
         25    1    1    2    0    0 -0.60830798361E+02 -0.48992527568E+02 -0.81060594543E+03  0.82389784109E+03  0.12500000000E+03 0.  0.
         25    1    1    2    0    0  0.97851517608E+01  0.23643004246E+01 -0.45080284990E+03  0.46792045113E+03  0.12500000000E+03 0.  0.
         25    1    1    2    0    0  0.51045646600E+02  0.46628227144E+02 -0.42666460047E+03  0.44994169722E+03  0.12500000000E+03 0.  0.
</event>
<event>
 5    0  0.5510933E-005  0.3366777E+03  0.7546771E-02  0.1068220E+00
         21   -1    0    0  502  501  0.00000000000E+00  0.00000000000E+00  0.29350886492E+04  0.29350886492E+04  0.00000000000E+00 0. -1.
         21   -1    0    0  501  502 -0.00000000000E+00 -0.00000000000E+00 -0.38619580521E+02  0.38619580521E+02  0.00000000000E+00 0.  1.
         25    1    1    2    0    0 -0.92072914224E+02 -0.52358104006E+02  0.90663372226E+03  0.92131889101E+03  0.12500000000E+03 0.  0.
         25    1    1    2    0    0  0.18276769700E+03  0.76805571842E+02  0.17529842814E+04  0.17685819228E+04  0.12500000000E+03 0.  0.
         25    1    1    2    0    0 -0.90694782780E+02 -0.24447467836E+02  0.23685106500E+03  0.28380741586E+03  0.12500000000E+03 0.  0.
</event>
<event>
 5    0  0.5510933E-005  0.3290432E+03  0.7546771E-02  0.1071561E+00
         21   -1    0    0  502  501  0.00000000000E+00  0.00000000000E+00  0.86179219720E+02  0.86179219720E+02  0.00000000000E+00 0.  1.
         21   -1    0    0  501  502 -0.00000000000E+00 -0.00000000000E+00 -0.12563285163E+04  0.12563285163E+04  0.00000000000E+00 0.  1.
         25    1    1    2    0    0  0.19009215947E+03 -0.75742476381E+02 -0.71625772993E+03  0.75532912529E+03  0.12500000000E+03 0.  0.
         25    1    1    2    0    0 -0.18671306184E+03  0.91049382454E+01 -0.32770348977E+03  0.39744086928E+03  0.12500000000E+03 0.  0.
         25    1    1    2    0    0 -0.33790976237E+01  0.66637538136E+02 -0.12618807690E+03  0.18973774148E+03  0.12500000000E+03 0.  0.
</event>
<event>
 5    0  0.5510933E-005  0.2513355E+03  0.7546771E-02  0.1112464E+00
         21   -1    0    0  502  501  0.00000000000E+00  0.00000000000E+00  0.29292835888E+03  0.29292835888E+03  0.00000000000E+00 0.  1.
         21   -1    0    0  501  502 -0.00000000000E+00 -0.00000000000E+00 -0.21564848227E+03  0.21564848227E+03  0.00000000000E+00 0.  1.
         25    1    1    2    0    0  0.30032856671E+02  0.89484310215E+02  0.65416857610E+02  0.16974622091E+03  0.12500000000E+03 0.  0.
         25    1    1    2    0    0 -0.10918908484E+03 -0.29363837795E+02  0.47669480666E+02  0.17516241208E+03  0.12500000000E+03 0.  0.
         25    1    1    2    0    0  0.79156228173E+02 -0.60120472420E+02 -0.35806461665E+02  0.16366820815E+03  0.12500000000E+03 0.  0.
</event>
<event>
 5    0  0.5510933E-005  0.2730949E+03  0.7546771E-02  0.1099521E+00
         21   -1    0    0  502  501  0.00000000000E+00  0.00000000000E+00  0.14253442792E+04  0.14253442792E+04  0.00000000000E+00 0. -1.
         21   -1    0    0  501  502 -0.00000000000E+00 -0.00000000000E+00 -0.52324794889E+02  0.52324794889E+02  0.00000000000E+00 0. -1.
         25    1    1    2    0    0  0.36377231141E+01 -0.92815865928E+02  0.25008597714E+03  0.29461163243E+03  0.12500000000E+03 0.  0.
         25    1    1    2    0    0  0.85987252714E+02 -0.52155417651E+02  0.51674416723E+03  0.54107626966E+03  0.12500000000E+03 0.  0.
         25    1    1    2    0    0 -0.89624975828E+02  0.14497128358E+03  0.60618933991E+03  0.64198117198E+03  0.12500000000E+03 0.  0.
</event>
<event>
 5    0  0.5510933E-005  0.3582764E+03  0.7546771E-02  0.1059268E+00
         21   -1    0    0  502  501  0.00000000000E+00  0.00000000000E+00  0.10040473461E+04  0.10040473461E+04  0.00000000000E+00 0.  1.
         21   -1    0    0  501  502 -0.00000000000E+00 -0.00000000000E+00 -0.12784451908E+03  0.12784451908E+03  0.00000000000E+00 0.  1.
         25    1    1    2    0    0 -0.99366089111E+02  0.66929132115E+01  0.40940172158E+02  0.16498337022E+03  0.12500000000E+03 0.  0.
         25    1    1    2    0    0  0.25230165963E+03  0.27650119201E+02  0.54619817929E+03  0.61512446513E+03  0.12500000000E+03 0.  0.
         25    1    1    2    0    0 -0.15293557052E+03 -0.34343032412E+02  0.28906447560E+03  0.35178402985E+03  0.12500000000E+03 0.  0.
</event>
<event>
 5    0  0.5827260E-005  0.3641390E+03  0.7546771E-02  0.1056957E+00
         21   -1    0    0  502  501  0.00000000000E+00  0.00000000000E+00  0.22085885374E+03  0.22085885374E+03  0.00000000000E+00 0. -1.
         21   -1    0    0  501  502 -0.00000000000E+00 -0.00000000000E+00 -0.60037082970E+03  0.60037082970E+03  0.00000000000E+00 0. -1.
         25    1    1    2    0    0 -0.75697324393E+02  0.12657429420E+03 -0.75321703078E+02  0.20748372424E+03  0.12500000000E+03 0.  0.
         25    1    1    2    0    0 -0.10086254818E+03 -0.15837882728E+03 -0.32334771233E+03  0.39425353470E+03  0.12500000000E+03 0.  0.
         25    1    1    2    0    0  0.17655987257E+03  0.31804533078E+02  0.19157439442E+02  0.21949242450E+03  0.12500000000E+03 0.  0.
</event>
<event>
 5    0  0.5510933E-005  0.2636907E+03  0.7546771E-02  0.1104946E+00
         21   -1    0    0  502  501  0.00000000000E+00  0.00000000000E+00  0.11664452188E+03  0.11664452188E+03  0.00000000000E+00 0. -1.
         21   -1    0    0  501  502 -0.00000000000E+00 -0.00000000000E+00 -0.59610842608E+03  0.59610842608E+03  0.00000000000E+00 0. -1.
         25    1    1    2    0    0 -0.14171093394E+01  0.12103040461E+03 -0.24106585724E+03  0.29730138676E+03  0.12500000000E+03 0.  0.
         25    1    1    2    0    0 -0.22369837373E+02 -0.70939997254E+02 -0.23773342864E+03  0.27870248640E+03  0.12500000000E+03 0.  0.
         25    1    1    2    0    0  0.23786946712E+02 -0.50090407355E+02 -0.66461831491E+00  0.13674907481E+03  0.12500000000E+03 0.  0.
</event>
<event>
 5    0  0.5510933E-005  0.4173279E+03  0.7546771E-02  0.1037939E+00
         21   -1    0    0  502  501  0.00000000000E+00  0.00000000000E+00  0.16755359802E+03  0.16755359802E+03  0.00000000000E+00 0.  1.
         21   -1    0    0  501  502 -0.00000000000E+00 -0.00000000000E+00 -0.10394439913E+04  0.10394439913E+04  0.00000000000E+00 0.  1.
         25    1    1    2    0    0 -0.11641004257E+02  0.14832502824E+03  0.66063663803E+02  0.20524432918E+03  0.12500000000E+03 0.  0.
         25    1    1    2    0    0 -0.87837034627E+02 -0.59599162271E+02 -0.52884171548E+03  0.55368399366E+03  0.12500000000E+03 0.  0.
         25    1    1    2    0    0  0.99478038884E+02 -0.88725865972E+02 -0.40911234158E+03  0.44806926646E+03  0.12500000000E+03 0.  0.
</event>
<event>
 5    0  0.5510933E-005  0.3642758E+03  0.7546771E-02  0.1056904E+00
         21   -1    0    0  502  501  0.00000000000E+00  0.00000000000E+00  0.81408558398E+03  0.81408558398E+03  0.00000000000E+00 0. -1.
         21   -1    0    0  501  502 -0.00000000000E+00 -0.00000000000E+00 -0.16300112672E+03  0.16300112672E+03  0.00000000000E+00 0. -1.
         25    1    1    2    0    0 -0.40095783052E+02  0.12354785642E+03 -0.36216058924E+02  0.18387046410E+03  0.12500000000E+03 0.  0.
         25    1    1    2    0    0 -0.27907739515E+02 -0.10159040388E+03  0.10714335563E+03  0.19545882109E+03  0.12500000000E+03 0.  0.
         25    1    1    2    0    0  0.68003522567E+02 -0.21957452537E+02  0.58015716056E+03  0.59775742551E+03  0.12500000000E+03 0.  0.
</event>
<event>
 5    0  0.5842911E-005  0.3274746E+03  0.7546771E-02  0.1072260E+00
         21   -1    0    0  502  501  0.00000000000E+00  0.00000000000E+00  0.54039220237E+03  0.54039220237E+03  0.00000000000E+00 0.  1.
         21   -1    0    0  501  502 -0.00000000000E+00 -0.00000000000E+00 -0.19844772202E+03  0.19844772202E+03  0.00000000000E+00 0.  1.
         25    1    1    2    0    0  0.18137808659E+02 -0.65209533111E+02 -0.77572068899E+02  0.16193730017E+03  0.12500000000E+03 0.  0.
         25    1    1    2    0    0  0.53548453992E+02  0.95160083611E+02  0.41267178628E+02  0.17102882351E+03  0.12500000000E+03 0.  0.
         25    1    1    2    0    0 -0.71686262651E+02 -0.29950550500E+02  0.37824937063E+03  0.40587380072E+03  0.12500000000E+03 0.  0.
</event>
<event>
 5    0  0.5510933E-005  0.2317354E+03  0.7546771E-02  0.1125424E+00
         21   -1    0    0  502  501  0.00000000000E+00  0.00000000000E+00  0.93751706146E+02  0.93751706146E+02  0.00000000000E+00 0.  1.
         21   -1    0    0  501  502 -0.00000000000E+00 -0.00000000000E+00 -0.57280332019E+03  0.57280332019E+03  0.00000000000E+00 0.  1.
         25    1    1    2    0    0 -0.51135462762E+02  0.65362545002E+02 -0.13117184011E+03  0.19929412806E+03  0.12500000000E+03 0.  0.
         25    1    1    2    0    0  0.78187421464E+02 -0.23610145776E+02 -0.84650294169E+02  0.17164318851E+03  0.12500000000E+03 0.  0.
         25    1    1    2    0    0 -0.27051958702E+02 -0.41752399227E+02 -0.26322947977E+03  0.29561770977E+03  0.12500000000E+03 0.  0.
</event>
<event>
 5    0  0.5510933E-005  0.2386639E+03  0.7546771E-02  0.1120686E+00
         21   -1    0    0  502  501  0.00000000000E+00  0.00000000000E+00  0.39188666066E+03  0.39188666066E+03  0.00000000000E+00 0. -1.
         21   -1    0    0  501  502 -0.00000000000E+00 -0.00000000000E+00 -0.14534933431E+03  0.14534933431E+03  0.00000000000E+00 0. -1.
         25    1    1    2    0    0 -0.17032956679E+02  0.82093211354E+02  0.26166902681E+02  0.15277147561E+03  0.12500000000E+03 0.  0.
         25    1    1    2    0    0  0.45833735144E+02 -0.12063698615E+03  0.10797026779E+03  0.20961057329E+03  0.12500000000E+03 0.  0.
         25    1    1    2    0    0 -0.28800778465E+02  0.38543774801E+02  0.11240015587E+03  0.17485394607E+03  0.12500000000E+03 0.  0.
</event>
<event>
 5    0  0.5510933E-005  0.3895059E+03  0.7546771E-02  0.1047475E+00
         21   -1    0    0  502  501  0.00000000000E+00  0.00000000000E+00  0.69905856805E+02  0.69905856805E+02  0.00000000000E+00 0. -1.
         21   -1    0    0  501  502 -0.00000000000E+00 -0.00000000000E+00 -0.21702742184E+04  0.21702742184E+04  0.00000000000E+00 0. -1.
         25    1    1    2    0    0 -0.70571001264E+02  0.20036741885E+03 -0.58232827238E+03  0.63234372423E+03  0.12500000000E+03 0.  0.
         25    1    1    2    0    0  0.12560012939E+03  0.91118342633E+02 -0.72694908235E+03  0.75376250451E+03  0.12500000000E+03 0.  0.
         25    1    1    2    0    0 -0.55029128122E+02 -0.29148576148E+03 -0.79109100686E+03  0.85407384647E+03  0.12500000000E+03 0.  0.
</event>
<event>
 5    0  0.5510933E-005  0.3955859E+03  0.7546771E-02  0.1045319E+00
         21   -1    0    0  502  501  0.00000000000E+00  0.00000000000E+00  0.27095137976E+03  0.27095137976E+03  0.00000000000E+00 0.  1.
         21   -1    0    0  501  502 -0.00000000000E+00 -0.00000000000E+00 -0.57755082026E+03  0.57755082026E+03  0.00000000000E+00 0.  1.
         25    1    1    2    0    0  0.31007771078E+03 -0.49345773332E+02 -0.37002003083E+02  0.33996667528E+03  0.12500000000E+03 0.  0.
         25    1    1    2    0    0 -0.14273444719E+03 -0.60095609149E+01 -0.41450080925E+02  0.19429963059E+03  0.12500000000E+03 0.  0.
         25    1    1    2    0    0 -0.16734326359E+03  0.55355334247E+02 -0.22814735650E+03  0.31423589415E+03  0.12500000000E+03 0.  0.
</event>
<event>
 5    0  0.5510933E-005  0.2971007E+03  0.7546771E-02  0.1086699E+00
         21   -1    0    0  502  501  0.00000000000E+00  0.00000000000E+00  0.19404470430E+04  0.19404470430E+04  0.00000000000E+00 0.  1.
         21   -1    0    0  501  502 -0.00000000000E+00 -0.00000000000E+00 -0.45488926298E+02  0.45488926298E+02  0.00000000000E+00 0.  1.
         25    1    1    2    0    0 -0.11202138828E+03 -0.11214395662E+03  0.76866390857E+03  0.79472904991E+03  0.12500000000E+03 0.  0.
         25    1    1    2    0    0  0.73432465257E+02 -0.72019862377E+02  0.45801044335E+03  0.48577541492E+03  0.12500000000E+03 0.  0.
         25    1    1    2    0    0  0.38588923018E+02  0.18416381900E+03  0.66828376477E+03  0.70543150444E+03  0.12500000000E+03 0.  0.
</event>
<event>
 5    0  0.5510933E-005  0.2369424E+03  0.7546771E-02  0.1121847E+00
         21   -1    0    0  502  501  0.00000000000E+00  0.00000000000E+00  0.19637046911E+04  0.19637046911E+04  0.00000000000E+00 0.  1.
         21   -1    0    0  501  502 -0.00000000000E+00 -0.00000000000E+00 -0.28589695416E+02  0.28589695416E+02  0.00000000000E+00 0.  1.
         25    1    1    2    0    0 -0.93375042241E+02  0.23836372078E+02  0.95993803202E+03  0.97282737239E+03  0.12500000000E+03 0.  0.
         25    1    1    2    0    0  0.89150425912E+02 -0.61978565363E+02  0.50527095124E+03  0.53170750904E+03  0.12500000000E+03 0.  0.
         25    1    1    2    0    0  0.42246163289E+01  0.38142193285E+02  0.46990601245E+03  0.48775950511E+03  0.12500000000E+03 0.  0.
</event>
<event>
 5    0  0.5510933E-005  0.2783720E+03  0.7546771E-02  0.1096581E+00
         21   -1    0    0  502  501  0.00000000000E+00  0.00000000000E+00  0.26874955542E+03  0.26874955542E+03  0.00000000000E+00 0.  1.
         21   -1    0    0  501  502 -0.00000000000E+00 -0.00000000000E+00 -0.28833900928E+03  0.28833900928E+03  0.00000000000E+00 0.  1.
         25    1    1    2    0    0 -0.22523341682E+02 -0.43244186885E+02 -0.12006745830E+03  0.18005153474E+03  0.12500000000E+03 0.  0.
         25    1    1    2    0    0  0.26898791093E+01 -0.10181958562E+03  0.89012965228E+02  0.18418135477E+03  0.12500000000E+03 0.  0.
         25    1    1    2    0    0  0.19833462573E+02  0.14506377250E+03  0.11465039214E+02  0.19285567519E+03  0.12500000000E+03 0.  0.
</event>
<event>
 5    0  0.5510933E-005  0.4959818E+03  0.7546771E-02  0.1014833E+00
         21   -1    0    0  502  501  0.00000000000E+00  0.00000000000E+00  0.69440260677E+03  0.69440260677E+03  0.00000000000E+00 0. -1.
         21   -1    0    0  501  502 -0.00000000000E+00 -0.00000000000E+00 -0.35425841221E+03  0.35425841221E+03  0.00000000000E+00 0. -1.
         25    1    1    2    0    0  0.24217113968E+03 -0.22994897716E+03  0.41085625639E+03  0.54401402225E+03  0.12500000000E+03 0.  0.
         25    1    1    2    0    0 -0.50940746185E+02  0.61295839648E+01  0.73492188933E+02  0.15381363157E+03  0.12500000000E+03 0.  0.
         25    1    1    2    0    0 -0.19123039350E+03  0.22381939320E+03 -0.14420425076E+03  0.35083336516E+03  0.12500000000E+03 0.  0.
</event>
<event>
 5    0  0.5510933E-005  0.3807882E+03  0.7546771E-02  0.1050643E+00
         21   -1    0    0  502  501  0.00000000000E+00  0.00000000000E+00  0.32165095514E+03  0.32165095514E+03  0.00000000000E+00 0. -1.
         21   -1    0    0  501  502 -0.00000000000E+00 -0.00000000000E+00 -0.45079821070E+03  0.45079821070E+03  0.00000000000E+00 0. -1.
         25    1    1    2    0    0 -0.32761931220E+02  0.48547708074E+02  0.12310688363E+03  0.18496088477E+03  0.12500000000E+03 0.  0.
         25    1    1    2    0    0 -0.17592743722E+03  0.97423374922E+02 -0.58383963053E+02  0.24387591986E+03  0.12500000000E+03 0.  0.
         25    1    1    2    0    0  0.20868936844E+03 -0.14597108300E+03 -0.19387017614E+03  0.34361236120E+03  0.12500000000E+03 0.  0.
</event>
<event>
 5    0  0.5510933E-005  0.3581803E+03  0.7546771E-02  0.1059307E+00
         21   -1    0    0  502  501  0.00000000000E+00  0.00000000000E+00  0.10546740950E+04  0.10546740950E+04  0.00000000000E+00 0. -1.
         21   -1    0    0  501  502 -0.00000000000E+00 -0.00000000000E+00 -0.12164243687E+03  0.12164243687E+03  0.00000000000E+00 0. -1.
         25    1    1    2    0    0 -0.13777682326E+03  0.24586626010E+03  0.41276242606E+03  0.51519946744E+03  0.12500000000E+03 0.  0.
         25    1    1    2    0    0  0.85751293568E+02 -0.21166359895E+03  0.39754193543E+03  0.47520453901E+03  0.12500000000E+03 0.  0.
         25    1    1    2    0    0  0.52025529691E+02 -0.34202661155E+02  0.12272729668E+03  0.18591252545E+03  0.12500000000E+03 0.  0.
</event>
<event>
 5    0  0.5510933E-005  0.5476465E+03  0.7546771E-02  0.1002040E+00
         21   -1    0    0  502  501  0.00000000000E+00  0.00000000000E+00  0.59234628159E+03  0.59234628159E+03  0.00000000000E+00 0. -1.
         21   -1    0    0  501  502 -0.00000000000E+00 -0.00000000000E+00 -0.50631992942E+03  0.50631992942E+03  0.00000000000E+00 0. -1.
         25    1    1    2    0    0 -0.16073047104E+03  0.10252014380E+02  0.34849487132E+03  0.40374876279E+03  0.12500000000E+03 0.  0.
         25    1    1    2    0    0 -0.27147332819E+02 -0.90962681935E+02 -0.39216795271E+03  0.42241199121E+03  0.12500000000E+03 0.  0.
         25    1    1    2    0    0  0.18787780386E+03  0.80710667555E+02  0.12969943356E+03  0.27250545702E+03  0.12500000000E+03 0.  0.
</event>
<event>
 5    0  0.5510933E-005  0.2614503E+03  0.7546771E-02  0.1106275E+00
         21   -1    0    0  502  501  0.00000000000E+00  0.00000000000E+00  0.73725011383E+02  0.73725011383E+02  0.00000000000E+00 0. -1.
         21   -1    0    0  501  502 -0.00000000000E+00 -0.00000000000E+00 -0.92717877383E+03  0.92717877383E+03  0.00000000000E+00 0. -1.
         25    1    1    2    0    0 -0.61481675904E+02 -0.13016217896E+03 -0.51605055639E+03  0.55014122374E+03  0.12500000000E+03 0.  0.
         25    1    1    2    0    0  0.41436981905E+02  0.47523636916E+02 -0.11168416822E+03  0.17909180039E+03  0.12500000000E+03 0.  0.
         25    1    1    2    0    0  0.20044693999E+02  0.82638542044E+02 -0.22571903783E+03  0.27167076109E+03  0.12500000000E+03 0.  0.
</event>
<event>
 5    0  0.5510933E-005  0.2999104E+03  0.7546771E-02  0.1085285E+00
         21   -1    0    0  502  501  0.00000000000E+00  0.00000000000E+00  0.26024516910E+03  0.26024516910E+03  0.00000000000E+00 0.  1.
         21   -1    0    0  501  502 -0.00000000000E+00 -0.00000000000E+00 -0.34562112292E+03  0.34562112292E+03  0.00000000000E+00 0.  1.
         25    1    1    2    0    0 -0.13229477182E+02 -0.17305515329E+03 -0.11815587183E+02  0.21421417612E+03  0.12500000000E+03 0.  0.
         25    1    1    2    0    0  0.83639924353E+02  0.17112713372E+03 -0.94508435568E+02  0.24665152997E+03  0.12500000000E+03 0.  0.
         25    1    1    2    0    0 -0.70410447172E+02  0.19280195748E+01  0.20948068924E+02  0.14500058594E+03  0.12500000000E+03 0.  0.
</event>
<event>
 5    0  0.5510933E-005  0.4877839E+03  0.7546771E-02  0.1017018E+00
         21   -1    0    0  502  501  0.00000000000E+00  0.00000000000E+00  0.32151290921E+03  0.32151290921E+03  0.00000000000E+00 0.  1.
         21   -1    0    0  501  502 -0.00000000000E+00 -0.00000000000E+00 -0.74004233103E+03  0.74004233103E+03  0.00000000000E+00 0.  1.
         25    1    1    2    0    0  0.29600989199E+02  0.10818505917E+03 -0.17525434633E+03  0.24273300455E+03  0.12500000000E+03 0.  0.
         25    1    1    2    0    0  0.50332792530E+02 -0.34345877813E+03  0.94894790124E+02  0.38095582877E+03  0.12500000000E+03 0.  0.
         25    1    1    2    0    0 -0.79933781729E+02  0.23527371896E+03 -0.33816986562E+03  0.43786640692E+03  0.12500000000E+03 0.  0.
</event>
<event>
 5    0  0.5510933E-005  0.2935918E+03  0.7546771E-02  0.1088489E+00
         21   -1    0    0  502  501  0.00000000000E+00  0.00000000000E+00  0.23426651646E+03  0.23426651646E+03  0.00000000000E+00 0. -1.
         21   -1    0    0  501  502 -0.00000000000E+00 -0.00000000000E+00 -0.36794049764E+03  0.36794049764E+03  0.00000000000E+00 0. -1.
         25    1    1    2    0    0  0.79855035449E+02  0.37066184985E+02  0.53955118115E+01  0.15298640562E+03  0.12500000000E+03 0.  0.
         25    1    1    2    0    0 -0.73218210021E+02  0.81452865670E+02  0.68192682836E+02  0.17964052326E+03  0.12500000000E+03 0.  0.
         25    1    1    2    0    0 -0.66368254280E+01 -0.11851905065E+03 -0.20726217583E+03  0.26958008522E+03  0.12500000000E+03 0.  0.
</event>
<event>
 5    0  0.5510933E-005  0.3201421E+03  0.7546771E-02  0.1075584E+00
         21   -1    0    0  502  501  0.00000000000E+00  0.00000000000E+00  0.68151896429E+03  0.68151896429E+03  0.00000000000E+00 0.  1.
         21   -1    0    0  501  502 -0.00000000000E+00 -0.00000000000E+00 -0.15038607749E+03  0.15038607749E+03  0.00000000000E+00 0. -1.
         25    1    1    2    0    0  0.23154987942E+03 -0.24759389284E+02  0.18083223719E+03  0.32024002252E+03  0.12500000000E+03 0.  0.
         25    1    1    2    0    0 -0.10956625083E+03 -0.51348274082E+02  0.22167583306E+03  0.28179173787E+03  0.12500000000E+03 0.  0.
         25    1    1    2    0    0 -0.12198362858E+03  0.76107663366E+02  0.12862481655E+03  0.22987328139E+03  0.12500000000E+03 0.  0.
</event>
<event>
 5    0  0.5510933E-005  0.2252484E+03  0.7546771E-02  0.1130030E+00
         21   -1    0    0  502  501  0.00000000000E+00  0.00000000000E+00  0.82413726025E+02  0.82413726025E+02  0.00000000000E+00 0. -1.
         21   -1    0    0  501  502 -0.00000000000E+00 -0.00000000000E+00 -0.61563573296E+03  0.61563573296E+03  0.00000000000E+00 0. -1.
         25    1    1    2    0    0 -0.44898210323E+02  0.25987236264E+02 -0.51790225772E+02  0.14490829246E+03  0.12500000000E+03 0.  0.
         25    1    1    2    0    0 -0.14525523845E+01 -0.52993639360E+02 -0.22255329214E+03  0.26070175213E+03  0.12500000000E+03 0.  0.
         25    1    1    2    0    0  0.46350762707E+02  0.27006403096E+02 -0.25887848902E+03  0.29243941439E+03  0.12500000000E+03 0.  0.
</event>
<event>
 5    0  0.5510933E-005  0.3115062E+03  0.7546771E-02  0.1079626E+00
         21   -1    0    0  502  501  0.00000000000E+00  0.00000000000E+00  0.86127023308E+03  0.86127023308E+03  0.00000000000E+00 0. -1.
         21   -1    0    0  501  502 -0.00000000000E+00 -0.00000000000E+00 -0.11266627428E+03  0.11266627428E+03  0.00000000000E+00 0. -1.
         25    1    1    2    0    0 -0.49440903439E+02 -0.99323090679E+02  0.43592995634E+03  0.46687193759E+03  0.12500000000E+03 0.  0.
         25    1    1    2    0    0 -0.43390328992E+02 -0.43257478146E+00 -0.12586321378E+02  0.13291472175E+03  0.12500000000E+03 0.  0.
         25    1    1    2    0    0  0.92831232432E+02  0.99755665461E+02  0.32526032383E+03  0.37414984801E+03  0.12500000000E+03 0.  0.
</event>
<event>
 5    0  0.5510933E-005  0.3619703E+03  0.7546771E-02  0.1057806E+00
         21   -1    0    0  502  501  0.00000000000E+00  0.00000000000E+00  0.20725355546E+03  0.20725355546E+03  0.00000000000E+00 0.  1.
         21   -1    0    0  501  502 -0.00000000000E+00 -0.00000000000E+00 -0.63218464182E+03  0.63218464182E+03  0.00000000000E+00 0.  1.
         25    1    1    2    0    0 -0.82808001650E+02 -0.24447062437E+03 -0.37137049415E+03  0.46921646949E+03  0.12500000000E+03 0.  0.
         25    1    1    2    0    0  0.28958584607E+02  0.12031163971E+03  0.77356716280E+01  0.17606342859E+03  0.12500000000E+03 0.  0.
         25    1    1    2    0    0  0.53849417043E+02  0.12415898466E+03 -0.61296263842E+02  0.19415829920E+03  0.12500000000E+03 0.  0.
</event>
<event>
 5    0  0.5748305E-005  0.3987848E+03  0.7546771E-02  0.1044201E+00
         21   -1    0    0  502  501  0.00000000000E+00  0.00000000000E+00  0.38709141824E+03  0.38709141824E+03  0.00000000000E+00 0. -1.
         21   -1    0    0  501  502 -0.00000000000E+00 -0.00000000000E+00 -0.41083134812E+03  0.41083134812E+03  0.00000000000E+00 0. -1.
         25    1    1    2    0    0 -0.19733956868E+03  0.20144579315E+03  0.34110233378E+02  0.31034145867E+03  0.12500000000E+03 0.  0.
         25    1    1    2    0    0  0.21259539895E+02 -0.17870592269E+03  0.76683741266E+02  0.23214902760E+03  0.12500000000E+03 0.  0.
         25    1    1    2    0    0  0.17608002879E+03 -0.22739870463E+02 -0.13453390453E+03  0.25543228009E+03  0.12500000000E+03 0.  0.
</event>
<event>
 5    0  0.5510933E-005  0.4384665E+03  0.7546771E-02  0.1031218E+00
         21   -1    0    0  502  501  0.00000000000E+00  0.00000000000E+00  0.11762517041E+03  0.11762517041E+03  0.00000000000E+00 0. -1.
         21   -1    0    0  501  502 -0.00000000000E+00 -0.00000000000E+00 -0.16344532057E+04  0.16344532057E+04  0.00000000000E+00 0. -1.
         25    1    1    2    0    0 -0.73702653555E+02 -0.26749016642E+03 -0.45371313415E+03  0.54631829401E+03  0.12500000000E+03 0.  0.
         25    1    1    2    0    0  0.68540810635E+02  0.34218522582E+03 -0.95470450610E+03  0.10241456271E+04  0.12500000000E+03 0.  0.
         25    1    1    2    0    0  0.51618429193E+01 -0.74695059402E+02 -0.10841039506E+03  0.18161445504E+03  0.12500000000E+03 0.  0.
</event>
<event>
 5    0  0.5510933E-005  0.3291660E+03  0.7546771E-02  0.1071506E+00
         21   -1    0    0  502  501  0.00000000000E+00  0.00000000000E+00  0.19002214548E+03  0.19002214548E+03  0.00000000000E+00 0. -1.
         21   -1    0    0  501  502 -0.00000000000E+00 -0.00000000000E+00 -0.57019800177E+03  0.57019800177E+03  0.00000000000E+00 0. -1.
         25    1    1    2    0    0 -0.90365522812E+01 -0.78883662826E+02 -0.64574121711E+02  0.16155218579E+03  0.12500000000E+03 0.  0.
         25    1    1    2    0    0  0.15557500886E+03  0.87076166742E+02 -0.34061918882E+03  0.40426757722E+03  0.12500000000E+03 0.  0.
         25    1    1    2    0    0 -0.14653845658E+03 -0.81925039156E+01  0.25017454253E+02  0.19440038424E+03  0.12500000000E+03 0.  0.
</event>
<event>
 5    0  0.5510933E-005  0.2377582E+03  0.7546771E-02  0.1121295E+00
         21   -1    0    0  502  501  0.00000000000E+00  0.00000000000E+00  0.82596445743E+02  0.82596445743E+02  0.00000000000E+00 0. -1.
         21   -1    0    0  501  502 -0.00000000000E+00 -0.00000000000E+00 -0.68439964512E+03  0.68439964512E+03  0.00000000000E+00 0. -1.
         25    1    1    2    0    0  0.56410323411E+02  0.18090972508E+02 -0.29262423075E+03  0.32367166743E+03  0.12500000000E+03 0.  0.
         25    1    1    2    0    0  0.47367346352E+02 -0.62041652604E+02 -0.11942104778E+03  0.18968188846E+03  0.12500000000E+03 0.  0.
         25    1    1    2    0    0 -0.10377766976E+03  0.43950680096E+02 -0.18975792085E+03  0.25364253497E+03  0.12500000000E+03 0.  0.
</event>
<event>
 5    0  0.5510933E-005  0.2499724E+03  0.7546771E-02  0.1113322E+00
         21   -1    0    0  502  501  0.00000000000E+00  0.00000000000E+00  0.63618296030E+03  0.63618296030E+03  0.00000000000E+00 0. -1.
         21   -1    0    0  501  502 -0.00000000000E+00 -0.00000000000E+00 -0.98220449155E+02  0.98220449155E+02  0.00000000000E+00 0. -1.
         25    1    1    2    0    0  0.10984958361E+03 -0.11116696211E+02  0.18376719261E+03  0.24816505200E+03  0.12500000000E+03 0.  0.
         25    1    1    2    0    0 -0.39817502836E+01  0.97659470674E+01  0.27917546629E+03  0.30606399500E+03  0.12500000000E+03 0.  0.
         25    1    1    2    0    0 -0.10586783332E+03  0.13507491438E+01  0.75019852250E+02  0.18017436246E+03  0.12500000000E+03 0.  0.
</event>
<event>
 5    0  0.5510933E-005  0.2904322E+03  0.7546771E-02  0.1090124E+00
         21   -1    0    0  502  501  0.00000000000E+00  0.00000000000E+00  0.34567391405E+03  0.34567391405E+03  0.00000000000E+00 0. -1.
         21   -1    0    0  501  502 -0.00000000000E+00 -0.00000000000E+00 -0.24401851432E+03  0.24401851432E+03  0.00000000000E+00 0. -1.
         25    1    1    2    0    0  0.12089914401E+03 -0.58863438090E+02 -0.12315912288E+03  0.22107617899E+03  0.12500000000E+03 0.  0.
         25    1    1    2    0    0 -0.70316278160E+02 -0.27021838595E+01  0.10043293636E+03  0.17510983832E+03  0.12500000000E+03 0.  0.
         25    1    1    2    0    0 -0.50582865852E+02  0.61565621950E+02  0.12438158625E+03  0.19350641106E+03  0.12500000000E+03 0.  0.
</event>
<event>
 5    0  0.5649494E-005  0.2567276E+03  0.7546771E-02  0.1109125E+00
         21   -1    0    0  502  501  0.00000000000E+00  0.00000000000E+00  0.30976169387E+03  0.30976169387E+03  0.00000000000E+00 0.  1.
         21   -1    0    0  501  502 -0.00000000000E+00 -0.00000000000E+00 -0.21277351543E+03  0.21277351543E+03  0.00000000000E+00 0.  1.
         25    1    1    2    0    0  0.32688489342E+02 -0.52438121562E+02  0.82898711888E+02  0.16222049920E+03  0.12500000000E+03 0.  0.
         25    1    1    2    0    0  0.17440743056E+02  0.12872525440E+03 -0.58262269199E+02  0.18945675668E+03  0.12500000000E+03 0.  0.
         25    1    1    2    0    0 -0.50129232398E+02 -0.76287132842E+02  0.72351735752E+02  0.17085795341E+03  0.12500000000E+03 0.  0.
</event>
<event>
 5    0  0.6324236E-005  0.4802119E+03  0.7546771E-02  0.1019077E+00
         21   -1    0    0  502  501  0.00000000000E+00  0.00000000000E+00  0.56895218420E+03  0.56895218420E+03  0.00000000000E+00 0. -1.
         21   -1    0    0  501  502 -0.00000000000E+00 -0.00000000000E+00 -0.40531256021E+03  0.40531256021E+03  0.00000000000E+00 0. -1.
         25    1    1    2    0    0  0.24036030163E+03 -0.18384485488E+03 -0.61645834536E+02  0.33316244414E+03  0.12500000000E+03 0.  0.
         25    1    1    2    0    0  0.59349324414E+02  0.61109779274E+01  0.23274115135E+03  0.27083782951E+03  0.12500000000E+03 0.  0.
         25    1    1    2    0    0 -0.29970962604E+03  0.17773387696E+03 -0.74556928181E+01  0.37026447077E+03  0.12500000000E+03 0.  0.
</event>
<event>
 5    0  0.5510933E-005  0.3381476E+03  0.7546771E-02  0.1067588E+00
         21   -1    0    0  502  501  0.00000000000E+00  0.00000000000E+00  0.39995436964E+03  0.39995436964E+03  0.00000000000E+00 0. -1.
         21   -1    0    0  501  502 -0.00000000000E+00 -0.00000000000E+00 -0.28589205935E+03  0.28589205935E+03  0.00000000000E+00 0. -1.
         25    1    1    2    0    0  0.41822487565E+02  0.16090338930E+02  0.33815869823E+02  0.13702748821E+03  0.12500000000E+03 0.  0.
         25    1    1    2    0    0  0.16455076469E+03  0.32588989802E+02  0.18693641608E+03  0.28055163531E+03  0.12500000000E+03 0.  0.
         25    1    1    2    0    0 -0.20637325226E+03 -0.48679328732E+02 -0.10668997561E+03  0.26826730548E+03  0.12500000000E+03 0.  0.
</event>
<event>
 5    0  0.5510933E-005  0.2414352E+03  0.7546771E-02  0.1118840E+00
         21   -1    0    0  502  501  0.00000000000E+00  0.00000000000E+00  0.30837528967E+02  0.30837528967E+02  0.00000000000E+00 0.  1.
         21   -1    0    0  501  502 -0.00000000000E+00 -0.00000000000E+00 -0.18902603898E+04  0.18902603898E+04  0.00000000000E+00 0.  1.
         25    1    1    2    0    0  0.96716660007E+01 -0.40950722758E+02 -0.78114759757E+03  0.79220393335E+03  0.12500000000E+03 0.  0.
         25    1    1    2    0    0  0.53426289002E+02 -0.20227477402E+02 -0.23794750834E+03  0.27478634595E+03  0.12500000000E+03 0.  0.
         25    1    1    2    0    0 -0.63097955003E+02  0.61178200159E+02 -0.84032775496E+03  0.85410763950E+03  0.12500000000E+03 0.  0.
</event>
<event>
 5    0  0.5510933E-005  0.7552679E+03  0.7546771E-02  0.9627122E-01
         21   -1    0    0  502  501  0.00000000000E+00  0.00000000000E+00  0.61814534150E+03  0.61814534150E+03  0.00000000000E+00 0. -1.
         21   -1    0    0  501  502 -0.00000000000E+00 -0.00000000000E+00 -0.92280822921E+03  0.92280822921E+03  0.00000000000E+00 0. -1.
         25    1    1    2    0    0  0.16717318258E+03  0.32133813884E+03 -0.49531662414E+03  0.62623368689E+03  0.12500000000E+03 0.  0.
         25    1    1    2    0    0 -0.92267451723E+02  0.97515114073E+02 -0.23628592787E+03  0.29912960373E+03  0.12500000000E+03 0.  0.
         25    1    1    2    0    0 -0.74905730857E+02 -0.41885325291E+03  0.42693966430E+03  0.61559028009E+03  0.12500000000E+03 0.  0.
</event>
<event>
 5    0  0.5510933E-005  0.2783379E+03  0.7546771E-02  0.1096600E+00
         21   -1    0    0  502  501  0.00000000000E+00  0.00000000000E+00  0.25183403262E+03  0.25183403262E+03  0.00000000000E+00 0.  1.
         21   -1    0    0  501  502 -0.00000000000E+00 -0.00000000000E+00 -0.30763110717E+03  0.30763110717E+03  0.00000000000E+00 0.  1.
         25    1    1    2    0    0  0.65117552252E+02  0.69067435212E+02 -0.21111680348E+02  0.15837079676E+03  0.12500000000E+03 0.  0.
         25    1    1    2    0    0 -0.30071226613E+02 -0.18176670999E+03 -0.51005824373E+02  0.22840755165E+03  0.12500000000E+03 0.  0.
         25    1    1    2    0    0 -0.35046325639E+02  0.11269927478E+03  0.16320430175E+02  0.17268679138E+03  0.12500000000E+03 0.  0.
</event>
<event>
 5    0  0.5510933E-005  0.4225908E+03  0.7546771E-02  0.1036226E+00
         21   -1    0    0  502  501  0.00000000000E+00  0.00000000000E+00  0.60705154787E+03  0.60705154787E+03  0.00000000000E+00 0.  1.
         21   -1    0    0  501  502 -0.00000000000E+00 -0.00000000000E+00 -0.29418089636E+03  0.29418089636E+03  0.00000000000E+00 0.  1.
         25    1    1    2    0    0 -0.29044568426E+03 -0.14861994625E+03  0.17784899275E+03  0.39204827273E+03  0.12500000000E+03 0.  0.
         25    1    1    2    0    0  0.29807970948E+03  0.74448653194E+02  0.37097186513E+02  0.33375936903E+03  0.12500000000E+03 0.  0.
         25    1    1    2    0    0 -0.76340252196E+01  0.74171293053E+02  0.97924472247E+02  0.17542480246E+03  0.12500000000E+03 0.  0.
</event>
<event>
 5    0  0.5510933E-005  0.4122002E+03  0.7546771E-02  0.1039635E+00
         21   -1    0    0  502  501  0.00000000000E+00  0.00000000000E+00  0.50052105296E+03  0.50052105296E+03  0.00000000000E+00 0.  1.
         21   -1    0    0  501  502 -0.00000000000E+00 -0.00000000000E+00 -0.33946419260E+03  0.33946419260E+03  0.00000000000E+00 0.  1.
         25    1    1    2    0    0  0.84774257426E+02 -0.14480761253E+03 -0.13327923295E+02  0.20966295073E+03  0.12500000000E+03 0.  0.
         25    1    1    2    0    0 -0.26572261683E+03 -0.83230184038E+01  0.20840195358E+03  0.36018627956E+03  0.12500000000E+03 0.  0.
         25    1    1    2    0    0  0.18094835940E+03  0.15313063093E+03 -0.34017169925E+02  0.27013601528E+03  0.12500000000E+03 0.  0.
</event>
<event>
 5    0  0.5510933E-005  0.3114095E+03  0.7546771E-02  0.1079672E+00
         21   -1    0    0  502  501  0.00000000000E+00  0.00000000000E+00  0.11201713470E+04  0.11201713470E+04  0.00000000000E+00 0. -1.
         21   -1    0    0  501  502 -0.00000000000E+00 -0.00000000000E+00 -0.86572365125E+02  0.86572365125E+02  0.00000000000E+00 0. -1.
         25    1    1    2    0    0  0.16272570403E+03 -0.15624006686E+03  0.45666493649E+03  0.52446017720E+03  0.12500000000E+03 0.  0.
         25    1    1    2    0    0 -0.31301299288E+02  0.92575423406E+02  0.17179969349E+03  0.23385917779E+03  0.12500000000E+03 0.  0.
         25    1    1    2    0    0 -0.13142440475E+03  0.63664643451E+02  0.40513435193E+03  0.44842435717E+03  0.12500000000E+03 0.  0.
</event>
<event>
 5    0  0.5510933E-005  0.3987741E+03  0.7546771E-02  0.1044205E+00
         21   -1    0    0  502  501  0.00000000000E+00  0.00000000000E+00  0.43942848710E+03  0.43942848710E+03  0.00000000000E+00 0. -1.
         21   -1    0    0  501  502 -0.00000000000E+00 -0.00000000000E+00 -0.36188089978E+03  0.36188089978E+03  0.00000000000E+00 0. -1.
         25    1    1    2    0    0 -0.28135225199E+03 -0.50064155290E+01 -0.93889724670E+02  0.32190749338E+03  0.12500000000E+03 0.  0.
         25    1    1    2    0    0  0.23795317063E+03 -0.77003367689E+02  0.16268029541E+03  0.32348277939E+03  0.12500000000E+03 0.  0.
         25    1    1    2    0    0  0.43399081359E+02  0.82009783218E+02  0.87570165743E+01  0.15591911411E+03  0.12500000000E+03 0.  0.
</event>
<event>
 5    0  0.5510933E-005  0.3614113E+03  0.7546771E-02  0.1058026E+00
         21   -1    0    0  502  501  0.00000000000E+00  0.00000000000E+00  0.10267943219E+04  0.10267943219E+04  0.00000000000E+00 0. -1.
         21   -1    0    0  501  502 -0.00000000000E+00 -0.00000000000E+00 -0.12720962345E+03  0.12720962345E+03  0.00000000000E+00 0. -1.
         25    1    1    2    0    0 -0.53341369244E+01 -0.18527319683E+03  0.52322899422E+02  0.22960247447E+03  0.12500000000E+03 0.  0.
         25    1    1    2    0    0 -0.13846767817E+02  0.19441592861E+03  0.43103382715E+03  0.48928973669E+03  0.12500000000E+03 0.  0.
         25    1    1    2    0    0  0.19180904742E+02 -0.91427317782E+01  0.41622797190E+03  0.43511173421E+03  0.12500000000E+03 0.  0.
</event>
<event>
 5    0  0.5510933E-005  0.6250911E+03  0.7546771E-02  0.9854675E-01
         21   -1    0    0  502  501  0.00000000000E+00  0.00000000000E+00  0.22101292570E+04  0.22101292570E+04  0.00000000000E+00 0.  1.
         21   -1    0    0  501  502 -0.00000000000E+00 -0.00000000000E+00 -0.17679459649E+03  0.17679459649E+03  0.00000000000E+00 0.  1.
         25    1    1    2    0    0 -0.31603787427E+03 -0.25988479183E+03  0.23226807685E+03  0.48681978444E+03  0.12500000000E+03 0.  0.
         25    1    1    2    0    0  0.11719134012E+03  0.27193055448E+03  0.13884856974E+04  0.14252008871E+04  0.12500000000E+03 0.  0.
         25    1    1    2    0    0  0.19884653415E+03 -0.12045762652E+02  0.41258088627E+03  0.47490318198E+03  0.12500000000E+03 0.  0.
</event>
<event>
 5    0  0.5510933E-005  0.2818091E+03  0.7546771E-02  0.1094705E+00
         21   -1    0    0  502  501  0.00000000000E+00  0.00000000000E+00  0.70221034468E+02  0.70221034468E+02  0.00000000000E+00 0. -1.
         21   -1    0    0  501  502 -0.00000000000E+00 -0.00000000000E+00 -0.11309483497E+04  0.11309483497E+04  0.00000000000E+00 0. -1.
         25    1    1    2    0    0 -0.14772450353E+02  0.18736757295E+03 -0.44425141702E+03  0.49830628554E+03  0.12500000000E+03 0.  0.
         25    1    1    2    0    0 -0.38999332972E+02 -0.40466151347E+02 -0.23588672713E+03  0.27281130001E+03  0.12500000000E+03 0.  0.
         25    1    1    2    0    0  0.53771783325E+02 -0.14690142161E+03 -0.38058917110E+03  0.43005179864E+03  0.12500000000E+03 0.  0.
</event>
<event>
 5    0  0.5510933E-005  0.2660752E+03  0.7546771E-02  0.1103547E+00
         21   -1    0    0  502  501  0.00000000000E+00  0.00000000000E+00  0.24343683400E+03  0.24343683400E+03  0.00000000000E+00 0. -1.
         21   -1    0    0  501  502 -0.00000000000E+00 -0.00000000000E+00 -0.29081892573E+03  0.29081892573E+03  0.00000000000E+00 0. -1.
         25    1    1    2    0    0  0.77730209789E+02 -0.31552065916E+02 -0.10216706970E+02  0.15088704212E+03  0.12500000000E+03 0.  0.
         25    1    1    2    0    0 -0.13088360695E+03 -0.79815939045E+02 -0.58881030205E+02  0.20638090613E+03  0.12500000000E+03 0.  0.
         25    1    1    2    0    0  0.53153397166E+02  0.11136800496E+03  0.21715645440E+02  0.17698781149E+03  0.12500000000E+03 0.  0.
</event>
<event>
 5    0  0.5510933E-005  0.2952095E+03  0.7546771E-02  0.1087660E+00
         21   -1    0    0  502  501  0.00000000000E+00  0.00000000000E+00  0.55443012488E+03  0.55443012488E+03  0.00000000000E+00 0. -1.
         21   -1    0    0  501  502 -0.00000000000E+00 -0.00000000000E+00 -0.15718594158E+03  0.15718594158E+03  0.00000000000E+00 0. -1.
         25    1    1    2    0    0  0.83899865386E+02 -0.18416971249E+03  0.13962974979E+03  0.27582446852E+03  0.12500000000E+03 0.  0.
         25    1    1    2    0    0 -0.64178455536E+01  0.14407998115E+03  0.96021774608E+02  0.21364786662E+03  0.12500000000E+03 0.  0.
         25    1    1    2    0    0 -0.77482019832E+02  0.40089731333E+02  0.16159265890E+03  0.22214373132E+03  0.12500000000E+03 0.  0.
</event>
<event>
 5    0  0.5510933E-005  0.4034854E+03  0.7546771E-02  0.1042579E+00
         21   -1    0    0  502  501  0.00000000000E+00  0.00000000000E+00  0.21283296852E+03  0.21283296852E+03  0.00000000000E+00 0.  1.
         21   -1    0    0  501  502 -0.00000000000E+00 -0.00000000000E+00 -0.76492138249E+03  0.76492138249E+03  0.00000000000E+00 0.  1.
         25    1    1    2    0    0 -0.12766933172E+02  0.98778532533E+02 -0.58491494967E+03  0.60635855022E+03  0.12500000000E+03 0.  0.
         25    1    1    2    0    0  0.12087052865E+03 -0.50761690492E+02  0.71955282176E+02  0.19490766160E+03  0.12500000000E+03 0.  0.
         25    1    1    2    0    0 -0.10810359548E+03 -0.48016842040E+02 -0.39128746467E+02  0.17648813919E+03  0.12500000000E+03 0.  0.
</event>
<event>
 5    0  0.5510933E-005  0.3178612E+03  0.7546771E-02  0.1076638E+00
         21   -1    0    0  502  501  0.00000000000E+00  0.00000000000E+00  0.73836208080E+03  0.73836208080E+03  0.00000000000E+00 0. -1.
         21   -1    0    0  501  502 -0.00000000000E+00 -0.00000000000E+00 -0.13683770231E+03  0.13683770231E+03  0.00000000000E+00 0. -1.
         25    1    1    2    0    0  0.16590314549E+01  0.77876802514E+02  0.94833708485E+02  0.17517414484E+03  0.12500000000E+03 0.  0.
         25    1    1    2    0    0  0.18028631057E+03 -0.10243054126E+03  0.16684425882E+03  0.29403601185E+03  0.12500000000E+03 0.  0.
         25    1    1    2    0    0 -0.18194534203E+03  0.24553738742E+02  0.33984641118E+03  0.40598962642E+03  0.12500000000E+03 0.  0.
</event>
<event>
 5    0  0.5510933E-005  0.3240151E+03  0.7546771E-02  0.1073816E+00
         21   -1    0    0  502  501  0.00000000000E+00  0.00000000000E+00  0.14258848366E+04  0.14258848366E+04  0.00000000000E+00 0. -1.
         21   -1    0    0  501  502 -0.00000000000E+00 -0.00000000000E+00 -0.73628533181E+02  0.73628533181E+02  0.00000000000E+00 0. -1.
         25    1    1    2    0    0 -0.11331054293E+03 -0.31865130859E+02  0.11366694372E+03  0.20591221381E+03  0.12500000000E+03 0.  0.
         25    1    1    2    0    0 -0.14295303733E+01 -0.90538876765E+02  0.67520972302E+03  0.69262724594E+03  0.12500000000E+03 0.  0.
         25    1    1    2    0    0  0.11474007330E+03  0.12240400762E+03  0.56337963672E+03  0.60097391006E+03  0.12500000000E+03 0.  0.
</event>
<event>
 5    0  0.5510933E-005  0.2826175E+03  0.7546771E-02  0.1094268E+00
         21   -1    0    0  502  501  0.00000000000E+00  0.00000000000E+00  0.47577363181E+03  0.47577363181E+03  0.00000000000E+00 0.  1.
         21   -1    0    0  501  502 -0.00000000000E+00 -0.00000000000E+00 -0.16787947409E+03  0.16787947409E+03  0.00000000000E+00 0.  1.
         25    1    1    2    0    0  0.13088648233E+03  0.42857585315E+02 -0.22057011790E+02  0.18729537006E+03  0.12500000000E+03 0.  0.
         25    1    1    2    0    0 -0.95786665386E+02 -0.69943805357E+02  0.12760498612E+03  0.21441840792E+03  0.12500000000E+03 0.  0.
         25    1    1    2    0    0 -0.35099816943E+02  0.27086220042E+02  0.20234618338E+03  0.24193932792E+03  0.12500000000E+03 0.  0.
</event>
<event>
 5    0  0.5510933E-005  0.3751738E+03  0.7546771E-02  0.1052732E+00
         21   -1    0    0  502  501  0.00000000000E+00  0.00000000000E+00  0.27679135514E+03  0.27679135514E+03  0.00000000000E+00 0.  1.
         21   -1    0    0  501  502 -0.00000000000E+00 -0.00000000000E+00 -0.50852511212E+03  0.50852511212E+03  0.00000000000E+00 0.  1.
         25    1    1    2    0    0 -0.65569877767E+02 -0.28129057689E+03 -0.96256174164E+02  0.32911099736E+03  0.12500000000E+03 0.  0.
         25    1    1    2    0    0 -0.64134435695E+02  0.78248293110E+02 -0.23236262276E+02  0.16248367641E+03  0.12500000000E+03 0.  0.
         25    1    1    2    0    0  0.12970431346E+03  0.20304228378E+03 -0.11224132053E+03  0.29372179349E+03  0.12500000000E+03 0.  0.
</event>
<event>
 5    0  0.5510933E-005  0.2487293E+03  0.7546771E-02  0.1114110E+00
         21   -1    0    0  502  501  0.00000000000E+00  0.00000000000E+00  0.72483832851E+02  0.72483832851E+02  0.00000000000E+00 0. -1.
         21   -1    0    0  501  502 -0.00000000000E+00 -0.00000000000E+00 -0.85351837953E+03  0.85351837953E+03  0.00000000000E+00 0. -1.
         25    1    1    2    0    0  0.51883799695E+02  0.90153611528E+02 -0.21419747125E+03  0.26893337285E+03  0.12500000000E+03 0.  0.
         25    1    1    2    0    0  0.67580454669E+02 -0.53925621656E+02 -0.31116148485E+03  0.34629692488E+03  0.12500000000E+03 0.  0.
         25    1    1    2    0    0 -0.11946425436E+03 -0.36227989872E+02 -0.25567559058E+03  0.31077191466E+03  0.12500000000E+03 0.  0.
</event>
<event>
 5    0  0.5510933E-005  0.2346479E+03  0.7546771E-02  0.1123410E+00
         21   -1    0    0  502  501  0.00000000000E+00  0.00000000000E+00  0.32296854645E+03  0.32296854645E+03  0.00000000000E+00 0.  1.
         21   -1    0    0  501  502 -0.00000000000E+00 -0.00000000000E+00 -0.17047985051E+03  0.17047985051E+03  0.00000000000E+00 0.  1.
         25    1    1    2    0    0  0.22364472898E+02  0.39736776847E+02  0.90413604920E+02  0.16086889394E+03  0.12500000000E+03 0.  0.
         25    1    1    2    0    0 -0.10942494813E+03 -0.35750539302E+02  0.54602673478E+01  0.17001980724E+03  0.12500000000E+03 0.  0.
         25    1    1    2    0    0  0.87060475229E+02 -0.39862375446E+01  0.56614823672E+02  0.16255969579E+03  0.12500000000E+03 0.  0.
</event>
<event>
 5    0  0.5510933E-005  0.3560793E+03  0.7546771E-02  0.1060147E+00
         21   -1    0    0  502  501  0.00000000000E+00  0.00000000000E+00  0.16103876039E+04  0.16103876039E+04  0.00000000000E+00 0. -1.
         21   -1    0    0  501  502 -0.00000000000E+00 -0.00000000000E+00 -0.78734145836E+02  0.78734145836E+02  0.00000000000E+00 0. -1.
         25    1    1    2    0    0  0.13468701566E+03 -0.20582324483E+03  0.81268246926E+03  0.85824331989E+03  0.12500000000E+03 0.  0.
         25    1    1    2    0    0 -0.18348927650E+03  0.13870241279E+03  0.39532288963E+03  0.47414329160E+03  0.12500000000E+03 0.  0.
         25    1    1    2    0    0  0.48802260837E+02  0.67120832040E+02  0.32364809916E+03  0.35673513822E+03  0.12500000000E+03 0.  0.
</event>
<event>
 5    0  0.5510933E-005  0.2880305E+03  0.7546771E-02  0.1091382E+00
         21   -1    0    0  502  501  0.00000000000E+00  0.00000000000E+00  0.14494585512E+04  0.14494585512E+04  0.00000000000E+00 0. -1.
         21   -1    0    0  501  502 -0.00000000000E+00 -0.00000000000E+00 -0.57236265385E+02  0.57236265385E+02  0.00000000000E+00 0. -1.
         25    1    1    2    0    0  0.10692226235E+03 -0.87820643649E+02  0.87043571556E+03  0.89018434639E+03  0.12500000000E+03 0.  0.
         25    1    1    2    0    0 -0.11066835832E+03 -0.12547113877E+02  0.28500237604E+03  0.33053936218E+03  0.12500000000E+03 0.  0.
         25    1    1    2    0    0  0.37460959775E+01  0.10036775753E+03  0.23678419418E+03  0.28597110798E+03  0.12500000000E+03 0.  0.
</event>
<event>
 5    0  0.5510933E-005  0.2620936E+03  0.7546771E-02  0.1105892E+00
         21   -1    0    0  502  501  0.00000000000E+00  0.00000000000E+00  0.31912486113E+03  0.31912486113E+03  0.00000000000E+00 0.  1.
         21   -1    0    0  501  502 -0.00000000000E+00 -0.00000000000E+00 -0.21525447374E+03  0.21525447374E+03  0.00000000000E+00 0.  1.
         25    1    1    2    0    0  0.47971293656E+02  0.13452452204E+03  0.47279059097E+02  0.19559754977E+03  0.12500000000E+03 0.  0.
         25    1    1    2    0    0 -0.93831582742E+02 -0.40873571925E+02 -0.12294821610E+02  0.16202215108E+03  0.12500000000E+03 0.  0.
         25    1    1    2    0    0  0.45860289086E+02 -0.93650950117E+02  0.68886149907E+02  0.17675963403E+03  0.12500000000E+03 0.  0.
</event>
<event>
 5    0  0.5692534E-005  0.2860262E+03  0.7546771E-02  0.1092442E+00
         21   -1    0    0  502  501  0.00000000000E+00  0.00000000000E+00  0.96971230392E+02  0.96971230392E+02  0.00000000000E+00 0.  1.
         21   -1    0    0  501  502 -0.00000000000E+00 -0.00000000000E+00 -0.84366239422E+03  0.84366239422E+03  0.00000000000E+00 0.  1.
         25    1    1    2    0    0 -0.99596513146E+02  0.10451426463E+03 -0.13056841739E+03  0.23133484078E+03  0.12500000000E+03 0.  0.
         25    1    1    2    0    0 -0.10676214790E+02 -0.10187253520E+03 -0.43034195394E+03  0.45968597141E+03  0.12500000000E+03 0.  0.
         25    1    1    2    0    0  0.11027272794E+03 -0.26417294254E+01 -0.18578079250E+03  0.24961281242E+03  0.12500000000E+03 0.  0.
</event>
<event>
 5    0  0.5510933E-005  0.4155358E+03  0.7546771E-02  0.1038529E+00
         21   -1    0    0  502  501  0.00000000000E+00  0.00000000000E+00  0.11798820449E+04  0.11798820449E+04  0.00000000000E+00 0. -1.
         21   -1    0    0  501  502 -0.00000000000E+00 -0.00000000000E+00 -0.14634511288E+03  0.14634511288E+03  0.00000000000E+00 0. -1.
         25    1    1    2    0    0 -0.97891003208E+02  0.90567691938E+02  0.44404034784E+03  0.48018953117E+03  0.12500000000E+03 0.  0.
         25    1    1    2    0    0 -0.55662138260E+02 -0.23122032165E+03  0.53268969503E+03  0.59661077929E+03  0.12500000000E+03 0.  0.
         25    1    1    2    0    0  0.15355314147E+03  0.14065262971E+03  0.56806889123E+02  0.24942684730E+03  0.12500000000E+03 0.  0.
</event>
<event>
 5    0  0.5510933E-005  0.2649435E+03  0.7546771E-02  0.1104209E+00
         21   -1    0    0  502  501  0.00000000000E+00  0.00000000000E+00  0.15911786529E+04  0.15911786529E+04  0.00000000000E+00 0.  1.
         21   -1    0    0  501  502 -0.00000000000E+00 -0.00000000000E+00 -0.44115131865E+02  0.44115131865E+02  0.00000000000E+00 0.  1.
         25    1    1    2    0    0  0.59359138554E+02 -0.48839168628E+02  0.26022563112E+03  0.29874931099E+03  0.12500000000E+03 0.  0.
         25    1    1    2    0    0 -0.10466967531E+03 -0.27938193582E+02  0.97530486551E+03  0.98923246220E+03  0.12500000000E+03 0.  0.
         25    1    1    2    0    0  0.45310536753E+02  0.76777362210E+02  0.31153302437E+03  0.34731201154E+03  0.12500000000E+03 0.  0.
</event>
<event>
 5    0  0.5510933E-005  0.4192074E+03  0.7546771E-02  0.1037325E+00
         21   -1    0    0  502  501  0.00000000000E+00  0.00000000000E+00  0.31436782151E+03  0.31436782151E+03  0.00000000000E+00 0.  1.
         21   -1    0    0  501  502 -0.00000000000E+00 -0.00000000000E+00 -0.55901037562E+03  0.55901037562E+03  0.00000000000E+00 0.  1.
         25    1    1    2    0    0 -0.13441801351E+03  0.10134550825E+03 -0.33783805020E+03  0.39761622522E+03  0.12500000000E+03 0.  0.
         25    1    1    2    0    0 -0.61110295874E+02 -0.15322961366E+03  0.11532456529E+03  0.23693572572E+03  0.12500000000E+03 0.  0.
         25    1    1    2    0    0  0.19552830938E+03  0.51884105414E+02 -0.22129069202E+02  0.23882624619E+03  0.12500000000E+03 0.  0.
</event>
<event>
 5    0  0.5510933E-005  0.3734733E+03  0.7546771E-02  0.1053373E+00
         21   -1    0    0  502  501  0.00000000000E+00  0.00000000000E+00  0.19597553288E+03  0.19597553288E+03  0.00000000000E+00 0. -1.
         21   -1    0    0  501  502 -0.00000000000E+00 -0.00000000000E+00 -0.71173341587E+03  0.71173341587E+03  0.00000000000E+00 0. -1.
         25    1    1    2    0    0 -0.17645848395E+03 -0.20995172902E+03 -0.57188607908E+02  0.30677819667E+03  0.12500000000E+03 0.  0.
         25    1    1    2    0    0  0.71828849957E+02  0.38359432402E+02 -0.14473925939E+03  0.20785880532E+03  0.12500000000E+03 0.  0.
         25    1    1    2    0    0  0.10462963400E+03  0.17159229662E+03 -0.31383001569E+03  0.39307194675E+03  0.12500000000E+03 0.  0.
</event>
<event>
 5    0  0.5510933E-005  0.2766223E+03  0.7546771E-02  0.1097548E+00
         21   -1    0    0  502  501  0.00000000000E+00  0.00000000000E+00  0.73269992958E+03  0.73269992958E+03  0.00000000000E+00 0.  1.
         21   -1    0    0  501  502 -0.00000000000E+00 -0.00000000000E+00 -0.10443551436E+03  0.10443551436E+03  0.00000000000E+00 0.  1.
         25    1    1    2    0    0  0.20417994579E+02  0.77523776333E+02  0.42721704506E+03  0.45228998882E+03  0.12500000000E+03 0.  0.
         25    1    1    2    0    0 -0.62781646378E+02 -0.12251943313E+03  0.89987660475E+02  0.20658007081E+03  0.12500000000E+03 0.  0.
         25    1    1    2    0    0  0.42363651800E+02  0.44995656800E+02  0.11105970969E+03  0.17826538430E+03  0.12500000000E+03 0.  0.
</event>
<event>
 5    0  0.5510933E-005  0.2913301E+03  0.7546771E-02  0.1089657E+00
         21   -1    0    0  502  501  0.00000000000E+00  0.00000000000E+00  0.25248963875E+03  0.25248963875E+03  0.00000000000E+00 0.  1.
         21   -1    0    0  501  502 -0.00000000000E+00 -0.00000000000E+00 -0.33614528137E+03  0.33614528137E+03  0.00000000000E+00 0.  1.
         25    1    1    2    0    0 -0.72965738172E+02 -0.14019566745E+03 -0.10308533402E+02  0.20176741555E+03  0.12500000000E+03 0.  0.
         25    1    1    2    0    0 -0.67181346774E+01 -0.17081691950E+02 -0.11016747407E+03  0.16762693661E+03  0.12500000000E+03 0.  0.
         25    1    1    2    0    0  0.79683872850E+02  0.15727735940E+03  0.36820364858E+02  0.21924056796E+03  0.12500000000E+03 0.  0.
</event>
<event>
 5    0  0.5510933E-005  0.5479210E+03  0.7546771E-02  0.1001976E+00
         21   -1    0    0  502  501  0.00000000000E+00  0.00000000000E+00  0.37573638010E+03  0.37573638010E+03  0.00000000000E+00 0.  1.
         21   -1    0    0  501  502 -0.00000000000E+00 -0.00000000000E+00 -0.79901089121E+03  0.79901089121E+03  0.00000000000E+00 0.  1.
         25    1    1    2    0    0  0.27221689999E+03  0.78274092971E+02 -0.60208331951E+03  0.67702156384E+03  0.12500000000E+03 0.  0.
         25    1    1    2    0    0 -0.30291187573E+03 -0.40001612312E+02  0.12258927467E+03  0.35214892263E+03  0.12500000000E+03 0.  0.
         25    1    1    2    0    0  0.30694975732E+02 -0.38272480660E+02  0.56219533734E+02  0.14557678484E+03  0.12500000000E+03 0.  0.
</event>
<event>
 5    0  0.5510933E-005  0.2074361E+03  0.7546771E-02  0.1143613E+00
         21   -1    0    0  502  501  0.00000000000E+00  0.00000000000E+00  0.38191519282E+03  0.38191519282E+03  0.00000000000E+00 0.  1.
         21   -1    0    0  501  502 -0.00000000000E+00 -0.00000000000E+00 -0.11266830783E+03  0.11266830783E+03  0.00000000000E+00 0.  1.
         25    1    1    2    0    0 -0.97342361422E+01 -0.21321448396E+02  0.14342284522E+03  0.19168847656E+03  0.12500000000E+03 0.  0.
         25    1    1    2    0    0  0.58137492577E+02  0.42467039885E+01  0.83789832349E+02  0.16138072544E+03  0.12500000000E+03 0.  0.
         25    1    1    2    0    0 -0.48403256435E+02  0.17074744408E+02  0.42034207416E+02  0.14151429865E+03  0.12500000000E+03 0.  0.
</event>
<event>
 5    0  0.6322886E-005  0.3426931E+03  0.7546771E-02  0.1065655E+00
         21   -1    0    0  502  501  0.00000000000E+00  0.00000000000E+00  0.31545706438E+03  0.31545706438E+03  0.00000000000E+00 0. -1.
         21   -1    0    0  501  502 -0.00000000000E+00 -0.00000000000E+00 -0.37228056552E+03  0.37228056552E+03  0.00000000000E+00 0. -1.
         25    1    1    2    0    0  0.96883253197E+02  0.14215976550E+03  0.43954498259E+02  0.21714686642E+03  0.12500000000E+03 0.  0.
         25    1    1    2    0    0  0.97891066365E+02 -0.14221655382E+03  0.11291485058E+02  0.21344954132E+03  0.12500000000E+03 0.  0.
         25    1    1    2    0    0 -0.19477431956E+03  0.56788320927E-01 -0.11206948446E+03  0.25714122216E+03  0.12500000000E+03 0.  0.
</event>
<event>
 5    0  0.5510933E-005  0.3160855E+03  0.7546771E-02  0.1077465E+00
         21   -1    0    0  502  501  0.00000000000E+00  0.00000000000E+00  0.75540158975E+02  0.75540158975E+02  0.00000000000E+00 0. -1.
         21   -1    0    0  501  502 -0.00000000000E+00 -0.00000000000E+00 -0.13226080542E+04  0.13226080542E+04  0.00000000000E+00 0. -1.
         25    1    1    2    0    0 -0.17130978422E+02 -0.60054079415E+02 -0.21979300987E+03  0.26044947699E+03  0.12500000000E+03 0.  0.
         25    1    1    2    0    0 -0.79499163056E+02 -0.15989956744E+03 -0.47217091454E+03  0.52005611345E+03  0.12500000000E+03 0.  0.
         25    1    1    2    0    0  0.96630141477E+02  0.21995364686E+03 -0.55510397080E+03  0.61764262272E+03  0.12500000000E+03 0.  0.
</event>
<event>
 5    0  0.5510933E-005  0.4043600E+03  0.7546771E-02  0.1042280E+00
         21   -1    0    0  502  501  0.00000000000E+00  0.00000000000E+00  0.26005450181E+04  0.26005450181E+04  0.00000000000E+00 0. -1.
         21   -1    0    0  501  502 -0.00000000000E+00 -0.00000000000E+00 -0.62874134203E+02  0.62874134203E+02  0.00000000000E+00 0. -1.
         25    1    1    2    0    0 -0.12027676610E+03 -0.13051912195E+03  0.11633007224E+04  0.11833829948E+04  0.12500000000E+03 0.  0.
         25    1    1    2    0    0  0.27404733281E+02  0.96291480143E+02  0.12895118385E+04  0.12994186585E+04  0.12500000000E+03 0.  0.
         25    1    1    2    0    0  0.92872032823E+02  0.34227641803E+02  0.84858322995E+02  0.18061749895E+03  0.12500000000E+03 0.  0.
</event>
<event>
 5    0  0.5510933E-005  0.3379456E+03  0.7546771E-02  0.1067674E+00
         21   -1    0    0  502  501  0.00000000000E+00  0.00000000000E+00  0.72462575336E+03  0.72462575336E+03  0.00000000000E+00 0.  1.
         21   -1    0    0  501  502 -0.00000000000E+00 -0.00000000000E+00 -0.15760859650E+03  0.15760859650E+03  0.00000000000E+00 0.  1.
         25    1    1    2    0    0 -0.23306221305E+02 -0.21420827532E+03  0.21615657262E+03  0.32981362775E+03  0.12500000000E+03 0.  0.
         25    1    1    2    0    0 -0.16924637432E+02  0.48471227156E+02 -0.85699837237E+01  0.13540438632E+03  0.12500000000E+03 0.  0.
         25    1    1    2    0    0  0.40230858738E+02  0.16573704816E+03  0.35943056797E+03  0.41701633579E+03  0.12500000000E+03 0.  0.
</event>
<event>
 5    0  0.5510933E-005  0.3473663E+03  0.7546771E-02  0.1063701E+00
         21   -1    0    0  502  501  0.00000000000E+00  0.00000000000E+00  0.25831186939E+03  0.25831186939E+03  0.00000000000E+00 0.  1.
         21   -1    0    0  501  502 -0.00000000000E+00 -0.00000000000E+00 -0.46712277784E+03  0.46712277784E+03  0.00000000000E+00 0.  1.
         25    1    1    2    0    0 -0.14593529213E+03  0.19954662360E+03  0.34100730833E+02  0.27911256569E+03  0.12500000000E+03 0.  0.
         25    1    1    2    0    0  0.41905862169E+02 -0.25265791322E+02 -0.10895843331E+03  0.17289130020E+03  0.12500000000E+03 0.  0.
         25    1    1    2    0    0  0.10402942996E+03 -0.17428083228E+03 -0.13395320598E+03  0.27343078135E+03  0.12500000000E+03 0.  0.
</event>
<event>
 5    0  0.5510933E-005  0.2615761E+03  0.7546771E-02  0.1106200E+00
         21   -1    0    0  502  501  0.00000000000E+00  0.00000000000E+00  0.17773733056E+03  0.17773733056E+03  0.00000000000E+00 0. -1.
         21   -1    0    0  501  502 -0.00000000000E+00 -0.00000000000E+00 -0.38496162849E+03  0.38496162849E+03  0.00000000000E+00 0. -1.
         25    1    1    2    0    0 -0.68312982758E+01  0.10866530228E+03 -0.14706041643E+03  0.22160004656E+03  0.12500000000E+03 0.  0.
         25    1    1    2    0    0  0.16368866592E+02 -0.15643604195E+03 -0.25390610871E+02  0.20250890878E+03  0.12500000000E+03 0.  0.
         25    1    1    2    0    0 -0.95375683165E+01  0.47770739672E+02 -0.34773270634E+02  0.13859000371E+03  0.12500000000E+03 0.  0.
</event>
<event>
 5    0  0.5510933E-005  0.3113820E+03  0.7546771E-02  0.1079685E+00
         21   -1    0    0  502  501  0.00000000000E+00  0.00000000000E+00  0.40316379192E+03  0.40316379192E+03  0.00000000000E+00 0.  1.
         21   -1    0    0  501  502 -0.00000000000E+00 -0.00000000000E+00 -0.24049468720E+03  0.24049468720E+03  0.00000000000E+00 0.  1.
         25    1    1    2    0    0 -0.87042253550E+02 -0.10347190843E+03  0.10328732530E+03  0.21113043671E+03  0.12500000000E+03 0.  0.
         25    1    1    2    0    0  0.31668061780E+02 -0.11161425104E+03  0.49053177644E+02  0.17745935142E+03  0.12500000000E+03 0.  0.
         25    1    1    2    0    0  0.55374191770E+02  0.21508615946E+03  0.10328601781E+02  0.25506869099E+03  0.12500000000E+03 0.  0.
</event>
<event>
 5    0  0.5510933E-005  0.2780646E+03  0.7546771E-02  0.1096751E+00
         21   -1    0    0  502  501  0.00000000000E+00  0.00000000000E+00  0.15414370559E+03  0.15414370559E+03  0.00000000000E+00 0.  1.
         21   -1    0    0  501  502 -0.00000000000E+00 -0.00000000000E+00 -0.50160937847E+03  0.50160937847E+03  0.00000000000E+00 0.  1.
         25    1    1    2    0    0 -0.61262015143E+02  0.58515756148E+02  0.20445376578E+02  0.15238156595E+03  0.12500000000E+03 0.  0.
         25    1    1    2    0    0  0.72202431752E+01  0.80520044121E+02 -0.16425779771E+03  0.22167822068E+03  0.12500000000E+03 0.  0.
         25    1    1    2    0    0  0.54041771968E+02 -0.13903580027E+03 -0.20365325175E+03  0.28169329744E+03  0.12500000000E+03 0.  0.
</event>
<event>
 5    0  0.5510933E-005  0.3428568E+03  0.7546771E-02  0.1065586E+00
         21   -1    0    0  502  501  0.00000000000E+00  0.00000000000E+00  0.14754580320E+04  0.14754580320E+04  0.00000000000E+00 0.  1.
         21   -1    0    0  501  502 -0.00000000000E+00 -0.00000000000E+00 -0.79670724961E+02  0.79670724961E+02  0.00000000000E+00 0.  1.
         25    1    1    2    0    0 -0.10910049437E+03 -0.16127599810E+03  0.26391783326E+03  0.35098502553E+03  0.12500000000E+03 0.  0.
         25    1    1    2    0    0  0.63484861425E+02 -0.41972927224E+02  0.25259433846E+03  0.29192628191E+03  0.12500000000E+03 0.  0.
         25    1    1    2    0    0  0.45615632946E+02  0.20324892532E+03  0.87927513533E+03  0.91221744952E+03  0.12500000000E+03 0.  0.
</event>
<event>
 5    0  0.5510933E-005  0.3646564E+03  0.7546771E-02  0.1056755E+00
         21   -1    0    0  502  501  0.00000000000E+00  0.00000000000E+00  0.37327427262E+03  0.37327427262E+03  0.00000000000E+00 0. -1.
         21   -1    0    0  501  502 -0.00000000000E+00 -0.00000000000E+00 -0.35623740341E+03  0.35623740341E+03  0.00000000000E+00 0. -1.
         25    1    1    2    0    0 -0.65325970730E+02 -0.79182815736E+02 -0.20815918542E+02  0.16308189116E+03  0.12500000000E+03 0.  0.
         25    1    1    2    0    0 -0.20637741559E+03 -0.16109163150E+02 -0.34608533066E+02  0.24428240494E+03  0.12500000000E+03 0.  0.
         25    1    1    2    0    0  0.27170338632E+03  0.95291978885E+02  0.72461320822E+02  0.32214737993E+03  0.12500000000E+03 0.  0.
</event>
<event>
 5    0  0.5510933E-005  0.4852960E+03  0.7546771E-02  0.1017690E+00
         21   -1    0    0  502  501  0.00000000000E+00  0.00000000000E+00  0.24404911341E+03  0.24404911341E+03  0.00000000000E+00 0.  1.
         21   -1    0    0  501  502 -0.00000000000E+00 -0.00000000000E+00 -0.96501952872E+03  0.96501952872E+03  0.00000000000E+00 0.  1.
         25    1    1    2    0    0  0.24877004586E+03  0.11971790675E+03 -0.13647037350E+03  0.33236738071E+03  0.12500000000E+03 0.  0.
         25    1    1    2    0    0 -0.20661364419E+03 -0.30933433971E+03 -0.23390421659E+03  0.45685130429E+03  0.12500000000E+03 0.  0.
         25    1    1    2    0    0 -0.42156401674E+02  0.18961643296E+03 -0.35059582522E+03  0.41984995714E+03  0.12500000000E+03 0.  0.
</event>
<event>
 5    0  0.5510933E-005  0.2445505E+03  0.7546771E-02  0.1116798E+00
         21   -1    0    0  502  501  0.00000000000E+00  0.00000000000E+00  0.61660458462E+03  0.61660458462E+03  0.00000000000E+00 0.  1.
         21   -1    0    0  501  502 -0.00000000000E+00 -0.00000000000E+00 -0.96990743286E+02  0.96990743286E+02  0.00000000000E+00 0.  1.
         25    1    1    2    0    0  0.33924152886E+02 -0.57469915721E+02  0.57300834467E+02  0.15284640981E+03  0.12500000000E+03 0.  0.
         25    1    1    2    0    0  0.37576286088E+02 -0.44486876556E+02  0.24151721311E+03  0.27811260973E+03  0.12500000000E+03 0.  0.
         25    1    1    2    0    0 -0.71500438974E+02  0.10195679228E+03  0.22079579375E+03  0.28263630836E+03  0.12500000000E+03 0.  0.
</event>
<event>
 5    0  0.5510933E-005  0.3478116E+03  0.7546771E-02  0.1063517E+00
         21   -1    0    0  502  501  0.00000000000E+00  0.00000000000E+00  0.40521422473E+03  0.40521422473E+03  0.00000000000E+00 0.  1.
         21   -1    0    0  501  502 -0.00000000000E+00 -0.00000000000E+00 -0.29854059642E+03  0.29854059642E+03  0.00000000000E+00 0.  1.
         25    1    1    2    0    0 -0.61959669236E+02 -0.11375992300E+03 -0.16224356962E+03  0.24233921799E+03  0.12500000000E+03 0.  0.
         25    1    1    2    0    0  0.11828534270E+03  0.15239808326E+03  0.19213045998E+03  0.29959257623E+03  0.12500000000E+03 0.  0.
         25    1    1    2    0    0 -0.56325673465E+02 -0.38638160268E+02  0.76786737946E+02  0.16182302693E+03  0.12500000000E+03 0.  0.
</event>
<event>
 5    0  0.5627704E-005  0.2699223E+03  0.7546771E-02  0.1101324E+00
         21   -1    0    0  502  501  0.00000000000E+00  0.00000000000E+00  0.18431488343E+03  0.18431488343E+03  0.00000000000E+00 0. -1.
         21   -1    0    0  501  502 -0.00000000000E+00 -0.00000000000E+00 -0.39529119396E+03  0.39529119396E+03  0.00000000000E+00 0. -1.
         25    1    1    2    0    0 -0.80706823193E+02 -0.24284000256E+02 -0.48183318380E+02  0.15827171620E+03  0.12500000000E+03 0.  0.
         25    1    1    2    0    0  0.88225242860E+02  0.14161109963E+03 -0.45236242889E+02  0.21332771664E+03  0.12500000000E+03 0.  0.
         25    1    1    2    0    0 -0.75184196666E+01 -0.11732709938E+03 -0.11755674926E+03  0.20800664456E+03  0.12500000000E+03 0.  0.
</event>
<event>
 5    0  0.5510933E-005  0.4843902E+03  0.7546771E-02  0.1017936E+00
         21   -1    0    0  502  501  0.00000000000E+00  0.00000000000E+00  0.74965585349E+03  0.74965585349E+03  0.00000000000E+00 0. -1.
         21   -1    0    0  501  502 -0.00000000000E+00 -0.00000000000E+00 -0.31298879133E+03  0.31298879133E+03  0.00000000000E+00 0. -1.
         25    1    1    2    0    0  0.15577982204E+03 -0.48015037623E+02  0.34632451884E+03  0.40266421388E+03  0.12500000000E+03 0.  0.
         25    1    1    2    0    0  0.75263654504E+02 -0.31433668456E+02  0.28622479936E+03  0.32280385526E+03  0.12500000000E+03 0.  0.
         25    1    1    2    0    0 -0.23104347654E+03  0.79448706079E+02 -0.19588225604E+03  0.33717657567E+03  0.12500000000E+03 0.  0.
</event>
<event>
 5    0  0.5510933E-005  0.2540509E+03  0.7546771E-02  0.1110771E+00
         21   -1    0    0  502  501  0.00000000000E+00  0.00000000000E+00  0.54946697349E+02  0.54946697349E+02  0.00000000000E+00 0. -1.
         21   -1    0    0  501  502 -0.00000000000E+00 -0.00000000000E+00 -0.11746270536E+04  0.11746270536E+04  0.00000000000E+00 0. -1.
         25    1    1    2    0    0 -0.63694197157E+02 -0.95579270188E+02 -0.37098825504E+03  0.40798239302E+03  0.12500000000E+03 0.  0.
         25    1    1    2    0    0  0.10733854451E+03  0.10077491833E+03 -0.32923584787E+03  0.38170458580E+03  0.12500000000E+03 0.  0.
         25    1    1    2    0    0 -0.43644347354E+02 -0.51956481416E+01 -0.41945625330E+03  0.43988677207E+03  0.12500000000E+03 0.  0.
</event>
<event>
 5    0  0.5510933E-005  0.3237414E+03  0.7546771E-02  0.1073940E+00
         21   -1    0    0  502  501  0.00000000000E+00  0.00000000000E+00  0.12706649949E+03  0.12706649949E+03  0.00000000000E+00 0. -1.
         21   -1    0    0  501  502 -0.00000000000E+00 -0.00000000000E+00 -0.82483180356E+03  0.82483180356E+03  0.00000000000E+00 0. -1.
         25    1    1    2    0    0 -0.66483158959E+02 -0.33531964715E+02 -0.32054657486E+02  0.14898625490E+03  0.12500000000E+03 0.  0.
         25    1    1    2    0    0  0.99221490689E+02  0.18803523032E+03 -0.39070906693E+03  0.46203974617E+03  0.12500000000E+03 0.  0.
         25    1    1    2    0    0 -0.32738331729E+02 -0.15450326560E+03 -0.27500157965E+03  0.34087230198E+03  0.12500000000E+03 0.  0.
</event>
<event>
 5    0  0.5510933E-005  0.5534301E+03  0.7546771E-02  0.1000703E+00
         21   -1    0    0  502  501  0.00000000000E+00  0.00000000000E+00  0.25858252904E+03  0.25858252904E+03  0.00000000000E+00 0. -1.
         21   -1    0    0  501  502 -0.00000000000E+00 -0.00000000000E+00 -0.11844762375E+04  0.11844762375E+04  0.00000000000E+00 0. -1.
         25    1    1    2    0    0 -0.20983514980E+03 -0.77048631978E+02  0.11813991337E+03  0.28204489166E+03  0.12500000000E+03 0.  0.
         25    1    1    2    0    0  0.22337383833E+03 -0.11745509455E+02 -0.27161553611E+03  0.37340839319E+03  0.12500000000E+03 0.  0.
         25    1    1    2    0    0 -0.13538688535E+02  0.88794141433E+02 -0.77241808576E+03  0.78760548173E+03  0.12500000000E+03 0.  0.
</event>
<event>
 5    0  0.5510933E-005  0.3472774E+03  0.7546771E-02  0.1063738E+00
         21   -1    0    0  502  501  0.00000000000E+00  0.00000000000E+00  0.63205249371E+03  0.63205249371E+03  0.00000000000E+00 0. -1.
         21   -1    0    0  501  502 -0.00000000000E+00 -0.00000000000E+00 -0.19080940416E+03  0.19080940416E+03  0.00000000000E+00 0. -1.
         25    1    1    2    0    0 -0.70957704091E+01 -0.88493406856E+02  0.21142914948E+03  0.26116798859E+03  0.12500000000E+03 0.  0.
         25    1    1    2    0    0 -0.11235956639E+03  0.12108798337E+03  0.30635679269E+03  0.36981949151E+03  0.12500000000E+03 0.  0.
         25    1    1    2    0    0  0.11945533680E+03 -0.32594576510E+02 -0.76542852622E+02  0.19187441777E+03  0.12500000000E+03 0.  0.
</event>
<event>
 5    0  0.5510933E-005  0.2579739E+03  0.7546771E-02  0.1108367E+00
         21   -1    0    0  502  501  0.00000000000E+00  0.00000000000E+00  0.11144401632E+03  0.11144401632E+03  0.00000000000E+00 0. -1.
         21   -1    0    0  501  502 -0.00000000000E+00 -0.00000000000E+00 -0.59716561174E+03  0.59716561174E+03  0.00000000000E+00 0. -1.
         25    1    1    2    0    0 -0.17894157582E+02 -0.12899108973E+02 -0.12083944830E+03  0.17525341695E+03  0.12500000000E+03 0.  0.
         25    1    1    2    0    0  0.15734068370E+03  0.17188575434E+02 -0.19080747064E+03  0.27764010648E+03  0.12500000000E+03 0.  0.
         25    1    1    2    0    0 -0.13944652612E+03 -0.42894664609E+01 -0.17407467648E+03  0.25571610462E+03  0.12500000000E+03 0.  0.
</event>
<event>
 5    0  0.5510933E-005  0.4697709E+03  0.7546771E-02  0.1021985E+00
         21   -1    0    0  502  501  0.00000000000E+00  0.00000000000E+00  0.19130771758E+03  0.19130771758E+03  0.00000000000E+00 0. -1.
         21   -1    0    0  501  502 -0.00000000000E+00 -0.00000000000E+00 -0.11535588450E+04  0.11535588450E+04  0.00000000000E+00 0. -1.
         25    1    1    2    0    0  0.17760017487E+03  0.12289758052E+03 -0.57039703445E+03  0.62259410077E+03  0.12500000000E+03 0.  0.
         25    1    1    2    0    0  0.66230596999E+02  0.55463957630E+02  0.60998013222E+02  0.16373301497E+03  0.12500000000E+03 0.  0.
         25    1    1    2    0    0 -0.24383077186E+03 -0.17836153815E+03 -0.45285210620E+03  0.55853944685E+03  0.12500000000E+03 0.  0.
</event>
<event>
 5    0  0.5510933E-005  0.3507736E+03  0.7546771E-02  0.1062298E+00
         21   -1    0    0  502  501  0.00000000000E+00  0.00000000000E+00  0.66137916966E+03  0.66137916966E+03  0.00000000000E+00 0. -1.
         21   -1    0    0  501  502 -0.00000000000E+00 -0.00000000000E+00 -0.18603874687E+03  0.18603874687E+03  0.00000000000E+00 0. -1.
         25    1    1    2    0    0  0.36042849226E+02 -0.41364003109E+01  0.13456467626E+03  0.18721337795E+03  0.12500000000E+03 0.  0.
         25    1    1    2    0    0  0.13166794620E+03  0.20493939199E+03  0.13987967421E+03  0.30745394078E+03  0.12500000000E+03 0.  0.
         25    1    1    2    0    0 -0.16771079543E+03 -0.20080299168E+03  0.20089607232E+03  0.35275059780E+03  0.12500000000E+03 0.  0.
</event>
<event>
 5    0  0.5510933E-005  0.5123414E+03  0.7546771E-02  0.1010607E+00
         21   -1    0    0  502  501  0.00000000000E+00  0.00000000000E+00  0.65300213276E+03  0.65300213276E+03  0.00000000000E+00 0.  1.
         21   -1    0    0  501  502 -0.00000000000E+00 -0.00000000000E+00 -0.40197986563E+03  0.40197986563E+03  0.00000000000E+00 0. -1.
         25    1    1    2    0    0 -0.58199149519E+02  0.11922140183E+03 -0.27902209507E+03  0.33328548303E+03  0.12500000000E+03 0.  0.
         25    1    1    2    0    0  0.10876817358E+03 -0.20303940470E+03  0.13258509675E+03  0.29369937576E+03  0.12500000000E+03 0.  0.
         25    1    1    2    0    0 -0.50569024058E+02  0.83818002869E+02  0.39745926546E+03  0.42799713959E+03  0.12500000000E+03 0.  0.
</event>
<event>
 5    0  0.5510933E-005  0.2578358E+03  0.7546771E-02  0.1108451E+00
         21   -1    0    0  502  501  0.00000000000E+00  0.00000000000E+00  0.40955187791E+03  0.40955187791E+03  0.00000000000E+00 0.  1.
         21   -1    0    0  501  502 -0.00000000000E+00 -0.00000000000E+00 -0.16232199801E+03  0.16232199801E+03  0.00000000000E+00 0.  1.
         25    1    1    2    0    0 -0.81304809049E+02 -0.76378994484E+02  0.13944127477E+03  0.21797497995E+03  0.12500000000E+03 0.  0.
         25    1    1    2    0    0  0.10293123220E+03  0.66420879899E+02 -0.16788531764E+02  0.17582214493E+03  0.12500000000E+03 0.  0.
         25    1    1    2    0    0 -0.21626423153E+02  0.99581145854E+01  0.12457713689E+03  0.17807675104E+03  0.12500000000E+03 0.  0.
</event>
<event>
 5    0  0.5510933E-005  0.3489258E+03  0.7546771E-02  0.1063057E+00
         21   -1    0    0  502  501  0.00000000000E+00  0.00000000000E+00  0.28995963133E+03  0.28995963133E+03  0.00000000000E+00 0. -1.
         21   -1    0    0  501  502 -0.00000000000E+00 -0.00000000000E+00 -0.41988331538E+03  0.41988331538E+03  0.00000000000E+00 0. -1.
         25    1    1    2    0    0  0.23176285912E+02  0.12961382564E+03 -0.77713511072E+02  0.19748740170E+03  0.12500000000E+03 0.  0.
         25    1    1    2    0    0 -0.32105223251E+02  0.65431076388E+02 -0.19292553062E+03  0.24115810474E+03  0.12500000000E+03 0.  0.
         25    1    1    2    0    0  0.89289373381E+01 -0.19504490203E+03  0.14071535765E+03  0.27119744027E+03  0.12500000000E+03 0.  0.
</event>
<event>
 5    0  0.5510933E-005  0.2374165E+03  0.7546771E-02  0.1121526E+00
         21   -1    0    0  502  501  0.00000000000E+00  0.00000000000E+00  0.15149385573E+03  0.15149385573E+03  0.00000000000E+00 0.  1.
         21   -1    0    0  501  502 -0.00000000000E+00 -0.00000000000E+00 -0.37207168013E+03  0.37207168013E+03  0.00000000000E+00 0.  1.
         25    1    1    2    0    0 -0.74288125589E+02 -0.46922932445E+02 -0.50887278787E+02  0.16104347964E+03  0.12500000000E+03 0.  0.
         25    1    1    2    0    0  0.68138981615E+02  0.10075401152E+03 -0.13861499286E+03  0.22278556483E+03  0.12500000000E+03 0.  0.
         25    1    1    2    0    0  0.61491439743E+01 -0.53831079079E+02 -0.31075552749E+02  0.13973649139E+03  0.12500000000E+03 0.  0.
</event>
<event>
 5    0  0.5510933E-005  0.2173946E+03  0.7546771E-02  0.1135841E+00
         21   -1    0    0  502  501  0.00000000000E+00  0.00000000000E+00  0.51804784950E+03  0.51804784950E+03  0.00000000000E+00 0.  1.
         21   -1    0    0  501  502 -0.00000000000E+00 -0.00000000000E+00 -0.91227852132E+02  0.91227852132E+02  0.00000000000E+00 0.  1.
         25    1    1    2    0    0 -0.14442179531E+02 -0.81693277155E+02  0.13705603012E+03  0.20320365025E+03  0.12500000000E+03 0.  0.
         25    1    1    2    0    0  0.46758495228E+02  0.78476947675E+02  0.14580617149E+03  0.21267211345E+03  0.12500000000E+03 0.  0.
         25    1    1    2    0    0 -0.32316315697E+02  0.32163294798E+01  0.14395779575E+03  0.19339993794E+03  0.12500000000E+03 0.  0.
</event>
<event>
 5    0  0.5510933E-005  0.5125312E+03  0.7546771E-02  0.1010559E+00
         21   -1    0    0  502  501  0.00000000000E+00  0.00000000000E+00  0.50810896743E+03  0.50810896743E+03  0.00000000000E+00 0.  1.
         21   -1    0    0  501  502 -0.00000000000E+00 -0.00000000000E+00 -0.51699191784E+03  0.51699191784E+03  0.00000000000E+00 0.  1.
         25    1    1    2    0    0  0.19790898512E+03 -0.25278498733E+03  0.26698939674E+03  0.43586299933E+03  0.12500000000E+03 0.  0.
         25    1    1    2    0    0  0.45097789763E+02  0.20197185250E+03 -0.11066040674E+03  0.26588938577E+03  0.12500000000E+03 0.  0.
         25    1    1    2    0    0 -0.24300677489E+03  0.50813134829E+02 -0.16521194041E+03  0.32334850018E+03  0.12500000000E+03 0.  0.
</event>
<event>
 5    0  0.5510933E-005  0.3740317E+03  0.7546771E-02  0.1053162E+00
         21   -1    0    0  502  501  0.00000000000E+00  0.00000000000E+00  0.18637242787E+04  0.18637242787E+04  0.00000000000E+00 0.  1.
         21   -1    0    0  501  502 -0.00000000000E+00 -0.00000000000E+00 -0.75064598877E+02  0.75064598877E+02  0.00000000000E+00 0.  1.
         25    1    1    2    0    0  0.29969777085E+03 -0.18579565846E+02  0.10273213645E+04  0.10775797604E+04  0.12500000000E+03 0.  0.
         25    1    1    2    0    0 -0.20785440249E+03  0.28113904040E+02  0.51493373829E+03  0.56989086592E+03  0.12500000000E+03 0.  0.
         25    1    1    2    0    0 -0.91843368363E+02 -0.95343381937E+01  0.24640457706E+03  0.29131825125E+03  0.12500000000E+03 0.  0.
</event>
<event>
 5    0  0.5510933E-005  0.4225817E+03  0.7546771E-02  0.1036229E+00
         21   -1    0    0  502  501  0.00000000000E+00  0.00000000000E+00  0.13542200529E+03  0.13542200529E+03  0.00000000000E+00 0. -1.
         21   -1    0    0  501  502 -0.00000000000E+00 -0.00000000000E+00 -0.13186576197E+04  0.13186576197E+04  0.00000000000E+00 0. -1.
         25    1    1    2    0    0 -0.21971222646E+02 -0.27813222312E+03 -0.47578743390E+03  0.56554305797E+03  0.12500000000E+03 0.  0.
         25    1    1    2    0    0 -0.27581521402E+02  0.16313920588E+02 -0.75425241456E+01  0.12926242299E+03  0.12500000000E+03 0.  0.
         25    1    1    2    0    0  0.49552744048E+02  0.26181830253E+03 -0.69990565633E+03  0.75927414400E+03  0.12500000000E+03 0.  0.
</event>
<event>
 5    0  0.5510933E-005  0.2754393E+03  0.7546771E-02  0.1098206E+00
         21   -1    0    0  502  501  0.00000000000E+00  0.00000000000E+00  0.11750082234E+03  0.11750082234E+03  0.00000000000E+00 0. -1.
         21   -1    0    0  501  502 -0.00000000000E+00 -0.00000000000E+00 -0.64567023994E+03  0.64567023994E+03  0.00000000000E+00 0. -1.
         25    1    1    2    0    0  0.86231372649E+02 -0.89481677949E+01 -0.77117262873E+02  0.17055202013E+03  0.12500000000E+03 0.  0.
         25    1    1    2    0    0  0.53011646361E+02  0.51389175516E+02 -0.34289801713E+03  0.37236424662E+03  0.12500000000E+03 0.  0.
         25    1    1    2    0    0 -0.13924301901E+03 -0.42441007721E+02 -0.10815413760E+03  0.22025479554E+03  0.12500000000E+03 0.  0.
</event>
<event>
 5    0  0.5510933E-005  0.4672585E+03  0.7546771E-02  0.1022697E+00
         21   -1    0    0  502  501  0.00000000000E+00  0.00000000000E+00  0.20268326860E+03  0.20268326860E+03  0.00000000000E+00 0. -1.
         21   -1    0    0  501  502 -0.00000000000E+00 -0.00000000000E+00 -0.10772004376E+04  0.10772004376E+04  0.00000000000E+00 0. -1.
         25    1    1    2    0    0  0.14747155583E+03 -0.54497714836E+02 -0.68494298803E+03  0.71378551228E+03  0.12500000000E+03 0.  0.
         25    1    1    2    0    0  0.30030877151E+02 -0.16626530824E+03 -0.13999789455E+03  0.25252805148E+03  0.12500000000E+03 0.  0.
         25    1    1    2    0    0 -0.17750243298E+03  0.22076302308E+03 -0.49576286478E+02  0.31357014248E+03  0.12500000000E+03 0.  0.
</event>
<event>
 5    0  0.8020380E-005  0.2921449E+03  0.7546771E-02  0.1089235E+00
         21   -1    0    0  502  501  0.00000000000E+00  0.00000000000E+00  0.73939851967E+03  0.73939851967E+03  0.00000000000E+00 0. -1.
         21   -1    0    0  501  502 -0.00000000000E+00 -0.00000000000E+00 -0.11542981850E+03  0.11542981850E+03  0.00000000000E+00 0. -1.
         25    1    1    2    0    0 -0.32727006414E+02 -0.80501278105E+02  0.33252190795E+03  0.36571482332E+03  0.12500000000E+03 0.  0.
         25    1    1    2    0    0  0.65058678275E+02  0.16500081955E+03  0.88914990359E+02  0.23449686049E+03  0.12500000000E+03 0.  0.
         25    1    1    2    0    0 -0.32331671860E+02 -0.84499541444E+02  0.20253180286E+03  0.25461665436E+03  0.12500000000E+03 0.  0.
</event>
<event>
 5    0  0.5510933E-005  0.2651246E+03  0.7546771E-02  0.1104103E+00
         21   -1    0    0  502  501  0.00000000000E+00  0.00000000000E+00  0.19201672524E+03  0.19201672524E+03  0.00000000000E+00 0.  1.
         21   -1    0    0  501  502 -0.00000000000E+00 -0.00000000000E+00 -0.36606737027E+03  0.36606737027E+03  0.00000000000E+00 0.  1.
         25    1    1    2    0    0  0.25756109629E+02  0.36641725164E+02 -0.32989432389E+02  0.13681847776E+03  0.12500000000E+03 0.  0.
         25    1    1    2    0    0 -0.49637017145E+01 -0.61957496717E+02 -0.22670498644E+03  0.26623959249E+03  0.12500000000E+03 0.  0.
         25    1    1    2    0    0 -0.20792407915E+02  0.25315771552E+02  0.85643773802E+02  0.15502602526E+03  0.12500000000E+03 0.  0.
</event>
<event>
 5    0  0.5510933E-005  0.3900608E+03  0.7546771E-02  0.1047277E+00
         21   -1    0    0  502  501  0.00000000000E+00  0.00000000000E+00  0.60180365010E+02  0.60180365010E+02  0.00000000000E+00 0.  1.
         21   -1    0    0  501  502 -0.00000000000E+00 -0.00000000000E+00 -0.25281902285E+04  0.25281902285E+04  0.00000000000E+00 0.  1.
         25    1    1    2    0    0  0.17803134773E+03  0.94010371131E+02 -0.48781512166E+03  0.54232988446E+03  0.12500000000E+03 0.  0.
         25    1    1    2    0    0  0.24757417661E+02  0.21368132134E+02 -0.15516975541E+03  0.20192122175E+03  0.12500000000E+03 0.  0.
         25    1    1    2    0    0 -0.20278876539E+03 -0.11537850327E+03 -0.18250249864E+04  0.18441194873E+04  0.12500000000E+03 0.  0.
</event>
<event>
 5    0  0.5510933E-005  0.3324666E+03  0.7546771E-02  0.1070051E+00
         21   -1    0    0  502  501  0.00000000000E+00  0.00000000000E+00  0.30086538318E+03  0.30086538318E+03  0.00000000000E+00 0.  1.
         21   -1    0    0  501  502 -0.00000000000E+00 -0.00000000000E+00 -0.36738703569E+03  0.36738703569E+03  0.00000000000E+00 0.  1.
         25    1    1    2    0    0 -0.19763737211E+02  0.13838446802E+03  0.16031287454E+03  0.24671052681E+03  0.12500000000E+03 0.  0.
         25    1    1    2    0    0 -0.72269778057E+02  0.42088725528E+01 -0.87886736624E+02  0.16908493103E+03  0.12500000000E+03 0.  0.
         25    1    1    2    0    0  0.92033515268E+02 -0.14259334057E+03 -0.13894779043E+03  0.25245696103E+03  0.12500000000E+03 0.  0.
</event>
<event>
 5    0  0.5510933E-005  0.2181360E+03  0.7546771E-02  0.1135280E+00
         21   -1    0    0  502  501  0.00000000000E+00  0.00000000000E+00  0.17768896429E+03  0.17768896429E+03  0.00000000000E+00 0.  1.
         21   -1    0    0  501  502 -0.00000000000E+00 -0.00000000000E+00 -0.26778994083E+03  0.26778994083E+03  0.00000000000E+00 0.  1.
         25    1    1    2    0    0  0.81029133949E+01 -0.18297880751E+02  0.35051813544E+02  0.13135486012E+03  0.12500000000E+03 0.  0.
         25    1    1    2    0    0 -0.46557242974E+02  0.63047946264E+02 -0.84598537225E+02  0.17007214029E+03  0.12500000000E+03 0.  0.
         25    1    1    2    0    0  0.38454329579E+02 -0.44750065513E+02 -0.40554252854E+02  0.14405190471E+03  0.12500000000E+03 0.  0.
</event>
<event>
 5    0  0.5510933E-005  0.3434632E+03  0.7546771E-02  0.1065330E+00
         21   -1    0    0  502  501  0.00000000000E+00  0.00000000000E+00  0.82882670759E+03  0.82882670759E+03  0.00000000000E+00 0. -1.
         21   -1    0    0  501  502 -0.00000000000E+00 -0.00000000000E+00 -0.14233009362E+03  0.14233009362E+03  0.00000000000E+00 0. -1.
         25    1    1    2    0    0  0.68127203336E+02 -0.58432402455E+01  0.22016233216E+02  0.14417064131E+03  0.12500000000E+03 0.  0.
         25    1    1    2    0    0 -0.83330747047E+02  0.16189426838E+03  0.13034823634E+03  0.25645551321E+03  0.12500000000E+03 0.  0.
         25    1    1    2    0    0  0.15203543711E+02 -0.15605102814E+03  0.53413214441E+03  0.57053064670E+03  0.12500000000E+03 0.  0.
</event>
<event>
 5    0  0.5510933E-005  0.2248669E+03  0.7546771E-02  0.1130306E+00
         21   -1    0    0  502  501  0.00000000000E+00  0.00000000000E+00  0.27771538113E+03  0.27771538113E+03  0.00000000000E+00 0.  1.
         21   -1    0    0  501  502 -0.00000000000E+00 -0.00000000000E+00 -0.18207531514E+03  0.18207531514E+03  0.00000000000E+00 0.  1.
         25    1    1    2    0    0 -0.75345491944E+02  0.36382382945E+02 -0.63260014867E+01  0.15055111836E+03  0.12500000000E+03 0.  0.
         25    1    1    2    0    0 -0.11685900991E+02 -0.49155627719E+02  0.21578598161E+02  0.13654109974E+03  0.12500000000E+03 0.  0.
         25    1    1    2    0    0  0.87031392935E+02  0.12773244775E+02  0.80387469320E+02  0.17269847817E+03  0.12500000000E+03 0.  0.
</event>
<event>
 5    0  0.5510933E-005  0.2725017E+03  0.7546771E-02  0.1099856E+00
         21   -1    0    0  502  501  0.00000000000E+00  0.00000000000E+00  0.90178356203E+02  0.90178356203E+02  0.00000000000E+00 0. -1.
         21   -1    0    0  501  502 -0.00000000000E+00 -0.00000000000E+00 -0.82344810319E+03  0.82344810319E+03  0.00000000000E+00 0. -1.
         25    1    1    2    0    0  0.42704472290E+02 -0.16493929544E+03 -0.17041519299E+03  0.27146819544E+03  0.12500000000E+03 0.  0.
         25    1    1    2    0    0 -0.11135548252E+02  0.10309713978E+03 -0.24927934186E+03  0.29752010175E+03  0.12500000000E+03 0.  0.
         25    1    1    2    0    0 -0.31568924038E+02  0.61842155661E+02 -0.31357521214E+03  0.34463816221E+03  0.12500000000E+03 0.  0.
</event>
<event>
 5    0  0.5510933E-005  0.2633442E+03  0.7546771E-02  0.1105150E+00
         21   -1    0    0  502  501  0.00000000000E+00  0.00000000000E+00  0.31643641358E+03  0.31643641358E+03  0.00000000000E+00 0.  1.
         21   -1    0    0  501  502 -0.00000000000E+00 -0.00000000000E+00 -0.21915987194E+03  0.21915987194E+03  0.00000000000E+00 0.  1.
         25    1    1    2    0    0 -0.11984508916E+03 -0.43243405848E+02 -0.40431581474E+02  0.18300970009E+03  0.12500000000E+03 0.  0.
         25    1    1    2    0    0  0.11823438372E+03  0.10593350141E+02  0.12772485184E+02  0.17285752786E+03  0.12500000000E+03 0.  0.
         25    1    1    2    0    0  0.16107054434E+01  0.32650055708E+02  0.12493563793E+03  0.17972905757E+03  0.12500000000E+03 0.  0.
</event>
<event>
 5    0  0.5510933E-005  0.2498818E+03  0.7546771E-02  0.1113380E+00
         21   -1    0    0  502  501  0.00000000000E+00  0.00000000000E+00  0.72141932172E+03  0.72141932172E+03  0.00000000000E+00 0. -1.
         21   -1    0    0  501  502 -0.00000000000E+00 -0.00000000000E+00 -0.86552844544E+02  0.86552844544E+02  0.00000000000E+00 0. -1.
         25    1    1    2    0    0 -0.41640936930E+02  0.19842089012E+02  0.49036507229E+03  0.50814425142E+03  0.12500000000E+03 0.  0.
         25    1    1    2    0    0 -0.81248348317E+01 -0.21286353333E+01  0.86536296520E+02  0.15226317560E+03  0.12500000000E+03 0.  0.
         25    1    1    2    0    0  0.49765771761E+02 -0.17713453679E+02  0.57965108364E+02  0.14756473924E+03  0.12500000000E+03 0.  0.
</event>
<event>
 5    0  0.5510933E-005  0.2790329E+03  0.7546771E-02  0.1096218E+00
         21   -1    0    0  502  501  0.00000000000E+00  0.00000000000E+00  0.61634808630E+03  0.61634808630E+03  0.00000000000E+00 0. -1.
         21   -1    0    0  501  502 -0.00000000000E+00 -0.00000000000E+00 -0.12632368700E+03  0.12632368700E+03  0.00000000000E+00 0. -1.
         25    1    1    2    0    0 -0.91912358300E+01  0.44717160811E+01  0.30198328017E+02  0.12900160494E+03  0.12500000000E+03 0.  0.
         25    1    1    2    0    0  0.92205125891E+02  0.13115838181E+03  0.25003541133E+03  0.32225302680E+03  0.12500000000E+03 0.  0.
         25    1    1    2    0    0 -0.83013890061E+02 -0.13563009789E+03  0.20979065995E+03  0.29141714157E+03  0.12500000000E+03 0.  0.
</event>
<event>
 5    0  0.5510933E-005  0.2287626E+03  0.7546771E-02  0.1127514E+00
         21   -1    0    0  502  501  0.00000000000E+00  0.00000000000E+00  0.14636106964E+03  0.14636106964E+03  0.00000000000E+00 0. -1.
         21   -1    0    0  501  502 -0.00000000000E+00 -0.00000000000E+00 -0.35755627668E+03  0.35755627668E+03  0.00000000000E+00 0. -1.
         25    1    1    2    0    0  0.10065297715E+02  0.79326539447E+02 -0.10395085438E+03  0.18117613034E+03  0.12500000000E+03 0.  0.
         25    1    1    2    0    0 -0.28371637880E+02 -0.17478341093E+02 -0.12630022458E+03  0.18079598716E+03  0.12500000000E+03 0.  0.
         25    1    1    2    0    0  0.18306340165E+02 -0.61848198354E+02  0.19055871926E+02  0.14194522882E+03  0.12500000000E+03 0.  0.
</event>
<event>
 5    0  0.5510933E-005  0.2515673E+03  0.7546771E-02  0.1112318E+00
         21   -1    0    0  502  501  0.00000000000E+00  0.00000000000E+00  0.50135685646E+02  0.50135685646E+02  0.00000000000E+00 0. -1.
         21   -1    0    0  501  502 -0.00000000000E+00 -0.00000000000E+00 -0.12622964282E+04  0.12622964282E+04  0.00000000000E+00 0. -1.
         25    1    1    2    0    0  0.52501174035E+02 -0.42683536601E+02 -0.16557580798E+03  0.21821687781E+03  0.12500000000E+03 0.  0.
         25    1    1    2    0    0 -0.70574575871E+01 -0.68070314551E+02 -0.55683587454E+03  0.57478219058E+03  0.12500000000E+03 0.  0.
         25    1    1    2    0    0 -0.45443716448E+02  0.11075385115E+03 -0.48974906000E+03  0.51943304542E+03  0.12500000000E+03 0.  0.
</event>
<event>
 5    0  0.5510933E-005  0.2624934E+03  0.7546771E-02  0.1105654E+00
         21   -1    0    0  502  501  0.00000000000E+00  0.00000000000E+00  0.11275611606E+04  0.11275611606E+04  0.00000000000E+00 0. -1.
         21   -1    0    0  501  502 -0.00000000000E+00 -0.00000000000E+00 -0.61107822391E+02  0.61107822391E+02  0.00000000000E+00 0. -1.
         25    1    1    2    0    0 -0.15425369481E+02 -0.70148036297E+01  0.70781345348E+03  0.71896594803E+03  0.12500000000E+03 0.  0.
         25    1    1    2    0    0  0.70133042907E+01 -0.80336128501E+02  0.20273432220E+03  0.25145434055E+03  0.12500000000E+03 0.  0.
         25    1    1    2    0    0  0.84120651900E+01  0.87350932131E+02  0.15590556249E+03  0.21824869438E+03  0.12500000000E+03 0.  0.
</event>
<event>
 5    0  0.5510933E-005  0.3128178E+03  0.7546771E-02  0.1079003E+00
         21   -1    0    0  502  501  0.00000000000E+00  0.00000000000E+00  0.11787780369E+04  0.11787780369E+04  0.00000000000E+00 0. -1.
         21   -1    0    0  501  502 -0.00000000000E+00 -0.00000000000E+00 -0.83013885700E+02  0.83013885700E+02  0.00000000000E+00 0. -1.
         25    1    1    2    0    0 -0.20459883175E+02  0.11559722227E+03  0.13186127059E+03  0.21631855976E+03  0.12500000000E+03 0.  0.
         25    1    1    2    0    0 -0.70288356186E+02 -0.17502072738E+02  0.75087232563E+03  0.76464437810E+03  0.12500000000E+03 0.  0.
         25    1    1    2    0    0  0.90748239361E+02 -0.98095149529E+02  0.21303055494E+03  0.28082898470E+03  0.12500000000E+03 0.  0.
</event>
<event>
 5    0  0.5717785E-005  0.3199242E+03  0.7546771E-02  0.1075684E+00
         21   -1    0    0  502  501  0.00000000000E+00  0.00000000000E+00  0.50084333049E+03  0.50084333049E+03  0.00000000000E+00 0.  1.
         21   -1    0    0  501  502 -0.00000000000E+00 -0.00000000000E+00 -0.20435828579E+03  0.20435828579E+03  0.00000000000E+00 0.  1.
         25    1    1    2    0    0 -0.23777340664E+02 -0.15650518442E+03 -0.24205417593E+02  0.20315052774E+03  0.12500000000E+03 0.  0.
         25    1    1    2    0    0 -0.10248567106E+02  0.18074889537E+03  0.92754895945E+02  0.23875440735E+03  0.12500000000E+03 0.  0.
         25    1    1    2    0    0  0.34025907770E+02 -0.24243710948E+02  0.22793556635E+03  0.26329668119E+03  0.12500000000E+03 0.  0.
</event>
<event>
 5    0  0.5510933E-005  0.3102567E+03  0.7546771E-02  0.1080223E+00
         21   -1    0    0  502  501  0.00000000000E+00  0.00000000000E+00  0.29434625591E+03  0.29434625591E+03  0.00000000000E+00 0.  1.
         21   -1    0    0  501  502 -0.00000000000E+00 -0.00000000000E+00 -0.32702720554E+03  0.32702720554E+03  0.00000000000E+00 0.  1.
         25    1    1    2    0    0 -0.17159727531E+02 -0.26155516134E+02  0.18815256099E+02  0.13022127758E+03  0.12500000000E+03 0.  0.
         25    1    1    2    0    0 -0.46704987829E+02 -0.15396646549E+03  0.89754920988E+02  0.22263866292E+03  0.12500000000E+03 0.  0.
         25    1    1    2    0    0  0.63864715360E+02  0.18012198163E+03 -0.14125112672E+03  0.26851352095E+03  0.12500000000E+03 0.  0.
</event>
<event>
 5    0  0.5510933E-005  0.5313245E+03  0.7546771E-02  0.1005911E+00
         21   -1    0    0  502  501  0.00000000000E+00  0.00000000000E+00  0.19633273445E+04  0.19633273445E+04  0.00000000000E+00 0. -1.
         21   -1    0    0  501  502 -0.00000000000E+00 -0.00000000000E+00 -0.14378940864E+03  0.14378940864E+03  0.00000000000E+00 0. -1.
         25    1    1    2    0    0  0.18171090138E+02  0.13417102667E+03 -0.19398900482E+02  0.18529266109E+03  0.12500000000E+03 0.  0.
         25    1    1    2    0    0 -0.24443675222E+03 -0.11670339118E+03  0.92920192168E+03  0.97591506731E+03  0.12500000000E+03 0.  0.
         25    1    1    2    0    0  0.22626566208E+03 -0.17467635497E+02  0.90973491463E+03  0.94590902471E+03  0.12500000000E+03 0.  0.
</event>
<event>
 5    0  0.5510933E-005  0.5305567E+03  0.7546771E-02  0.1006097E+00
         21   -1    0    0  502  501  0.00000000000E+00  0.00000000000E+00  0.70754689975E+03  0.70754689975E+03  0.00000000000E+00 0.  1.
         21   -1    0    0  501  502 -0.00000000000E+00 -0.00000000000E+00 -0.39783987794E+03  0.39783987794E+03  0.00000000000E+00 0.  1.
         25    1    1    2    0    0 -0.25580466404E+03  0.40829643950E+03  0.18084185038E+03  0.52959492397E+03  0.12500000000E+03 0.  0.
         25    1    1    2    0    0  0.82982512889E+02 -0.88008866328E+02  0.15502408854E+02  0.17463385318E+03  0.12500000000E+03 0.  0.
         25    1    1    2    0    0  0.17282215115E+03 -0.32028757317E+03  0.11336276257E+03  0.40115800053E+03  0.12500000000E+03 0.  0.
</event>
<event>
 5    0  0.5510933E-005  0.3165578E+03  0.7546771E-02  0.1077244E+00
         21   -1    0    0  502  501  0.00000000000E+00  0.00000000000E+00  0.11599437050E+03  0.11599437050E+03  0.00000000000E+00 0.  1.
         21   -1    0    0  501  502 -0.00000000000E+00 -0.00000000000E+00 -0.86391148529E+03  0.86391148529E+03  0.00000000000E+00 0.  1.
         25    1    1    2    0    0 -0.16507545222E+03 -0.13554953963E+01 -0.46497825805E+03  0.50900051351E+03  0.12500000000E+03 0.  0.
         25    1    1    2    0    0  0.20607780137E+02  0.94820536891E+02 -0.81602859832E+02  0.17804393152E+03  0.12500000000E+03 0.  0.
         25    1    1    2    0    0  0.14446767208E+03 -0.93465041494E+02 -0.20133599691E+03  0.29286141076E+03  0.12500000000E+03 0.  0.
</event>
<event>
 5    0  0.5510933E-005  0.2222048E+03  0.7546771E-02  0.1132250E+00
         21   -1    0    0  502  501  0.00000000000E+00  0.00000000000E+00  0.86288019378E+03  0.86288019378E+03  0.00000000000E+00 0. -1.
         21   -1    0    0  501  502 -0.00000000000E+00 -0.00000000000E+00 -0.57221131581E+02  0.57221131581E+02  0.00000000000E+00 0. -1.
         25    1    1    2    0    0  0.84290375310E+02  0.16864280343E+02  0.16883859450E+03  0.22698181054E+03  0.12500000000E+03 0.  0.
         25    1    1    2    0    0 -0.56246787525E+01 -0.33971406917E+01  0.27995105421E+03  0.30666067620E+03  0.12500000000E+03 0.  0.
         25    1    1    2    0    0 -0.78665696557E+02 -0.13467139652E+02  0.35686941349E+03  0.38645883862E+03  0.12500000000E+03 0.  0.
</event>
<event>
 5    0  0.5510933E-005  0.2719098E+03  0.7546771E-02  0.1100192E+00
         21   -1    0    0  502  501  0.00000000000E+00  0.00000000000E+00  0.11302720593E+03  0.11302720593E+03  0.00000000000E+00 0.  1.
         21   -1    0    0  501  502 -0.00000000000E+00 -0.00000000000E+00 -0.65413415810E+03  0.65413415810E+03  0.00000000000E+00 0.  1.
         25    1    1    2    0    0  0.85838726912E+02  0.11540309478E+03 -0.32061393221E+03  0.37296709621E+03  0.12500000000E+03 0.  0.
         25    1    1    2    0    0  0.25749811207E+02 -0.89711283730E+01 -0.78027729399E+02  0.14985613260E+03  0.12500000000E+03 0.  0.
         25    1    1    2    0    0 -0.11158853812E+03 -0.10643196641E+03 -0.14246529056E+03  0.24433813523E+03  0.12500000000E+03 0.  0.
</event>
<event>
 5    0  0.5511379E-005  0.3148270E+03  0.7546771E-02  0.1078055E+00
         21   -1    0    0  502  501  0.00000000000E+00  0.00000000000E+00  0.78732849343E+03  0.78732849343E+03  0.00000000000E+00 0. -1.
         21   -1    0    0  501  502 -0.00000000000E+00 -0.00000000000E+00 -0.12588907510E+03  0.12588907510E+03  0.00000000000E+00 0. -1.
         25    1    1    2    0    0 -0.14834531679E+03 -0.49806627884E+02  0.51129240542E+02  0.20670324727E+03  0.12500000000E+03 0.  0.
         25    1    1    2    0    0  0.26769556713E+02  0.69107924175E+02  0.43444954837E+03  0.45810907482E+03  0.12500000000E+03 0.  0.
         25    1    1    2    0    0  0.12157576008E+03 -0.19301296291E+02  0.17586062942E+03  0.24840524643E+03  0.12500000000E+03 0.  0.
</event>
<event>
 5    0  0.5510933E-005  0.2549282E+03  0.7546771E-02  0.1110229E+00
         21   -1    0    0  502  501  0.00000000000E+00  0.00000000000E+00  0.10168704118E+03  0.10168704118E+03  0.00000000000E+00 0. -1.
         21   -1    0    0  501  502 -0.00000000000E+00 -0.00000000000E+00 -0.63910203643E+03  0.63910203643E+03  0.00000000000E+00 0. -1.
         25    1    1    2    0    0 -0.10466532577E+03 -0.49427064278E+02 -0.76532943694E+02  0.18676229965E+03  0.12500000000E+03 0.  0.
         25    1    1    2    0    0 -0.15983727594E+02 -0.73470074592E+00 -0.17216458027E+03  0.21335806062E+03  0.12500000000E+03 0.  0.
         25    1    1    2    0    0  0.12064905336E+03  0.50161765024E+02 -0.28871747128E+03  0.34066871733E+03  0.12500000000E+03 0.  0.
</event>
<event>
 5    0  0.5510933E-005  0.3035277E+03  0.7546771E-02  0.1083490E+00
         21   -1    0    0  502  501  0.00000000000E+00  0.00000000000E+00  0.13801991200E+03  0.13801991200E+03  0.00000000000E+00 0.  1.
         21   -1    0    0  501  502 -0.00000000000E+00 -0.00000000000E+00 -0.66750560857E+03  0.66750560857E+03  0.00000000000E+00 0.  1.
         25    1    1    2    0    0 -0.54207185012E+02  0.85032622682E+01  0.12491398975E+02  0.13708303843E+03  0.12500000000E+03 0.  0.
         25    1    1    2    0    0 -0.35325239817E+02  0.15213119496E+02 -0.31138711448E+02  0.13443932060E+03  0.12500000000E+03 0.  0.
         25    1    1    2    0    0  0.89532424829E+02 -0.23716381764E+02 -0.51083838410E+03  0.53400316154E+03  0.12500000000E+03 0.  0.
</event>
<event>
 5    0  0.6626334E-005  0.5961824E+03  0.7546771E-02  0.9913358E-01
         21   -1    0    0  502  501  0.00000000000E+00  0.00000000000E+00  0.12870085290E+04  0.12870085290E+04  0.00000000000E+00 0. -1.
         21   -1    0    0  501  502 -0.00000000000E+00 -0.00000000000E+00 -0.27617026115E+03  0.27617026115E+03  0.00000000000E+00 0. -1.
         25    1    1    2    0    0 -0.17051683226E+03 -0.99422094960E+02  0.52329642310E+03  0.57308366709E+03  0.12500000000E+03 0.  0.
         25    1    1    2    0    0 -0.17682008660E+03  0.25290930486E+03 -0.32068726267E+02  0.33448746272E+03  0.12500000000E+03 0.  0.
         25    1    1    2    0    0  0.34733691886E+03 -0.15348720990E+03  0.51961057099E+03  0.65560766034E+03  0.12500000000E+03 0.  0.
</event>
<event>
 5    0  0.5510933E-005  0.5098896E+03  0.7546771E-02  0.1011229E+00
         21   -1    0    0  502  501  0.00000000000E+00  0.00000000000E+00  0.13283598267E+03  0.13283598267E+03  0.00000000000E+00 0. -1.
         21   -1    0    0  501  502 -0.00000000000E+00 -0.00000000000E+00 -0.19572060939E+04  0.19572060939E+04  0.00000000000E+00 0. -1.
         25    1    1    2    0    0  0.17393179671E+03  0.10807494207E+03 -0.28756389551E+03  0.37450027638E+03  0.12500000000E+03 0.  0.
         25    1    1    2    0    0 -0.23394992421E+03  0.48837412382E+02 -0.14142976416E+03  0.30454070020E+03  0.12500000000E+03 0.  0.
         25    1    1    2    0    0  0.60018127501E+02 -0.15691235446E+03 -0.13953764515E+04  0.14110010999E+04  0.12500000000E+03 0.  0.
</event>
<event>
 5    0  0.5510933E-005  0.2998071E+03  0.7546771E-02  0.1085337E+00
         21   -1    0    0  502  501  0.00000000000E+00  0.00000000000E+00  0.52579826573E+03  0.52579826573E+03  0.00000000000E+00 0. -1.
         21   -1    0    0  501  502 -0.00000000000E+00 -0.00000000000E+00 -0.17094827678E+03  0.17094827678E+03  0.00000000000E+00 0. -1.
         25    1    1    2    0    0 -0.48080719974E+02  0.14278012425E+03  0.16115873775E+03  0.25356470233E+03  0.12500000000E+03 0.  0.
         25    1    1    2    0    0  0.21813431389E+02  0.65609299501E+02  0.22107434609E+02  0.14454807033E+03  0.12500000000E+03 0.  0.
         25    1    1    2    0    0  0.26267288584E+02 -0.20838942375E+03  0.17158381659E+03  0.29863376985E+03  0.12500000000E+03 0.  0.
</event>
<event>
 5    0  0.5510933E-005  0.3021809E+03  0.7546771E-02  0.1084155E+00
         21   -1    0    0  502  501  0.00000000000E+00  0.00000000000E+00  0.12005257706E+03  0.12005257706E+03  0.00000000000E+00 0.  1.
         21   -1    0    0  501  502 -0.00000000000E+00 -0.00000000000E+00 -0.76061077763E+03  0.76061077763E+03  0.00000000000E+00 0.  1.
         25    1    1    2    0    0  0.42629931501E+02 -0.73223523925E+02 -0.33173433878E+03  0.36448822621E+03  0.12500000000E+03 0.  0.
         25    1    1    2    0    0 -0.48290869285E+02  0.19501019751E+03 -0.20473237704E+03  0.31289188452E+03  0.12500000000E+03 0.  0.
         25    1    1    2    0    0  0.56609377835E+01 -0.12178667359E+03 -0.10409148475E+03  0.20328324397E+03  0.12500000000E+03 0.  0.
</event>
<event>
 5    0  0.5510933E-005  0.3107744E+03  0.7546771E-02  0.1079975E+00
         21   -1    0    0  502  501  0.00000000000E+00  0.00000000000E+00  0.38283329784E+03  0.38283329784E+03  0.00000000000E+00 0.  1.
         21   -1    0    0  501  502 -0.00000000000E+00 -0.00000000000E+00 -0.25227878679E+03  0.25227878679E+03  0.00000000000E+00 0.  1.
         25    1    1    2    0    0  0.11062514272E+03  0.10179724710E+03  0.11148207602E+03  0.22506411307E+03  0.12500000000E+03 0.  0.
         25    1    1    2    0    0 -0.20393525011E+03 -0.43758510102E+02  0.10344631329E+02  0.24338530120E+03  0.12500000000E+03 0.  0.
         25    1    1    2    0    0  0.93310107386E+02 -0.58038736997E+02  0.87278036999E+01  0.16666267036E+03  0.12500000000E+03 0.  0.
</event>
<event>
 5    0  0.5510933E-005  0.2880447E+03  0.7546771E-02  0.1091374E+00
         21   -1    0    0  502  501  0.00000000000E+00  0.00000000000E+00  0.28292007375E+04  0.28292007375E+04  0.00000000000E+00 0. -1.
         21   -1    0    0  501  502 -0.00000000000E+00 -0.00000000000E+00 -0.29326216070E+02  0.29326216070E+02  0.00000000000E+00 0. -1.
         25    1    1    2    0    0 -0.91731959601E+02 -0.54680771311E+02  0.34859228449E+03  0.38541707275E+03  0.12500000000E+03 0.  0.
         25    1    1    2    0    0 -0.46679327526E+02  0.12436184235E+02  0.11670150299E+04  0.11746840845E+04  0.12500000000E+03 0.  0.
         25    1    1    2    0    0  0.13841128713E+03  0.42244587076E+02  0.12842672070E+04  0.12984257963E+04  0.12500000000E+03 0.  0.
</event>
<event>
 5    0  0.5510933E-005  0.2505581E+03  0.7546771E-02  0.1112953E+00
         21   -1    0    0  502  501  0.00000000000E+00  0.00000000000E+00  0.46609269007E+03  0.46609269007E+03  0.00000000000E+00 0. -1.
         21   -1    0    0  501  502 -0.00000000000E+00 -0.00000000000E+00 -0.13469291323E+03  0.13469291323E+03  0.00000000000E+00 0. -1.
         25    1    1    2    0    0  0.10467358599E+03  0.63139433824E+02  0.16718605969E+03  0.24190768128E+03  0.12500000000E+03 0.  0.
         25    1    1    2    0    0 -0.25960137879E+02  0.45389180561E+02  0.77598122114E+02  0.15614280331E+03  0.12500000000E+03 0.  0.
         25    1    1    2    0    0 -0.78713448106E+02 -0.10852861439E+03  0.86615595038E+02  0.20273511871E+03  0.12500000000E+03 0.  0.
</event>
<event>
 5    0  0.5510933E-005  0.3352963E+03  0.7546771E-02  0.1068817E+00
         21   -1    0    0  502  501  0.00000000000E+00  0.00000000000E+00  0.77210833147E+03  0.77210833147E+03  0.00000000000E+00 0.  1.
         21   -1    0    0  501  502 -0.00000000000E+00 -0.00000000000E+00 -0.14560603327E+03  0.14560603327E+03  0.00000000000E+00 0.  1.
         25    1    1    2    0    0 -0.10688491136E+03  0.14868195908E+03  0.28483481654E+03  0.36095232641E+03  0.12500000000E+03 0.  0.
         25    1    1    2    0    0  0.59683415740E+02  0.38567190227E+02  0.28596790078E+03  0.32008151861E+03  0.12500000000E+03 0.  0.
         25    1    1    2    0    0  0.47201495624E+02 -0.18724914930E+03  0.55699580886E+02  0.23668051972E+03  0.12500000000E+03 0.  0.
</event>
<event>
 5    0  0.5510933E-005  0.2689012E+03  0.7546771E-02  0.1101910E+00
         21   -1    0    0  502  501  0.00000000000E+00  0.00000000000E+00  0.31936443645E+03  0.31936443645E+03  0.00000000000E+00 0. -1.
         21   -1    0    0  501  502 -0.00000000000E+00 -0.00000000000E+00 -0.22641165244E+03  0.22641165244E+03  0.00000000000E+00 0. -1.
         25    1    1    2    0    0  0.23610829658E+02  0.70350383351E+02  0.59191962585E+02  0.15695647852E+03  0.12500000000E+03 0.  0.
         25    1    1    2    0    0  0.75379177546E+01 -0.85390584792E+02 -0.11588212869E+03  0.19079318627E+03  0.12500000000E+03 0.  0.
         25    1    1    2    0    0 -0.31148747413E+02  0.15040201441E+02  0.14964295011E+03  0.19802642410E+03  0.12500000000E+03 0.  0.
</event>
<event>
 5    0  0.5510933E-005  0.2994431E+03  0.7546771E-02  0.1085519E+00
         21   -1    0    0  502  501  0.00000000000E+00  0.00000000000E+00  0.92321267774E+02  0.92321267774E+02  0.00000000000E+00 0. -1.
         21   -1    0    0  501  502 -0.00000000000E+00 -0.00000000000E+00 -0.97124063524E+03  0.97124063524E+03  0.00000000000E+00 0. -1.
         25    1    1    2    0    0  0.17791638362E+00  0.11059065878E+03 -0.45346078308E+02  0.17294968135E+03  0.12500000000E+03 0.  0.
         25    1    1    2    0    0  0.39066407635E+02  0.10881156875E+02 -0.42050883780E+03  0.44056471312E+03  0.12500000000E+03 0.  0.
         25    1    1    2    0    0 -0.39244324019E+02 -0.12147181565E+03 -0.41306445137E+03  0.45004750855E+03  0.12500000000E+03 0.  0.
</event>
<event>
 5    0  0.5510933E-005  0.3106163E+03  0.7546771E-02  0.1080051E+00
         21   -1    0    0  502  501  0.00000000000E+00  0.00000000000E+00  0.34827034988E+03  0.34827034988E+03  0.00000000000E+00 0. -1.
         21   -1    0    0  501  502 -0.00000000000E+00 -0.00000000000E+00 -0.27703330406E+03  0.27703330406E+03  0.00000000000E+00 0. -1.
         25    1    1    2    0    0  0.11699929735E+03 -0.17452833556E+03  0.12595943688E+02  0.24481142394E+03  0.12500000000E+03 0.  0.
         25    1    1    2    0    0  0.14319392350E+02  0.28836406358E+01  0.11057406243E+02  0.12633537356E+03  0.12500000000E+03 0.  0.
         25    1    1    2    0    0 -0.13131868970E+03  0.17164469492E+03  0.47583695891E+02  0.25415685643E+03  0.12500000000E+03 0.  0.
</event>
<event>
 5    0  0.5510933E-005  0.2404900E+03  0.7546771E-02  0.1119467E+00
         21   -1    0    0  502  501  0.00000000000E+00  0.00000000000E+00  0.13305850943E+03  0.13305850943E+03  0.00000000000E+00 0.  1.
         21   -1    0    0  501  502 -0.00000000000E+00 -0.00000000000E+00 -0.43466174825E+03  0.43466174825E+03  0.00000000000E+00 0.  1.
         25    1    1    2    0    0 -0.11406252147E+03  0.41484007165E+02 -0.96626012277E+02  0.19923043920E+03  0.12500000000E+03 0.  0.
         25    1    1    2    0    0  0.76208031576E+02 -0.66121736190E+02 -0.16361796050E+03  0.22929366557E+03  0.12500000000E+03 0.  0.
         25    1    1    2    0    0  0.37854489889E+02  0.24637729025E+02 -0.41359266041E+02  0.13919615291E+03  0.12500000000E+03 0.  0.
</event>
<event>
 5    0  0.5510933E-005  0.2697256E+03  0.7546771E-02  0.1101437E+00
         21   -1    0    0  502  501  0.00000000000E+00  0.00000000000E+00  0.23643935550E+03  0.23643935550E+03  0.00000000000E+00 0.  1.
         21   -1    0    0  501  502 -0.00000000000E+00 -0.00000000000E+00 -0.30769790356E+03  0.30769790356E+03  0.00000000000E+00 0.  1.
         25    1    1    2    0    0 -0.36047229803E+02  0.96934865996E+02 -0.78957640076E+02  0.18043026339E+03  0.12500000000E+03 0.  0.
         25    1    1    2    0    0  0.62448804314E+01 -0.96594051073E+02 -0.10745441338E+03  0.19115663784E+03  0.12500000000E+03 0.  0.
         25    1    1    2    0    0  0.29802349371E+02 -0.34081492283E+00  0.11515350540E+03  0.17255035783E+03  0.12500000000E+03 0.  0.
</event>
<event>
 5    0  0.5510933E-005  0.3410195E+03  0.7546771E-02  0.1066363E+00
         21   -1    0    0  502  501  0.00000000000E+00  0.00000000000E+00  0.16344525188E+03  0.16344525188E+03  0.00000000000E+00 0.  1.
         21   -1    0    0  501  502 -0.00000000000E+00 -0.00000000000E+00 -0.71151825666E+03  0.71151825666E+03  0.00000000000E+00 0.  1.
         25    1    1    2    0    0 -0.85184288965E+01  0.15319031700E+03 -0.25149570485E+03  0.32002332167E+03  0.12500000000E+03 0.  0.
         25    1    1    2    0    0  0.79664106159E+02  0.76030135096E+02 -0.21562847416E+03  0.27248410985E+03  0.12500000000E+03 0.  0.
         25    1    1    2    0    0 -0.71145677263E+02 -0.22922045210E+03 -0.80948825770E+02  0.28245607702E+03  0.12500000000E+03 0.  0.
</event>
<event>
 5    0  0.5510933E-005  0.2990976E+03  0.7546771E-02  0.1085693E+00
         21   -1    0    0  502  501  0.00000000000E+00  0.00000000000E+00  0.66159652417E+03  0.66159652417E+03  0.00000000000E+00 0. -1.
         21   -1    0    0  501  502 -0.00000000000E+00 -0.00000000000E+00 -0.13521742406E+03  0.13521742406E+03  0.00000000000E+00 0. -1.
         25    1    1    2    0    0  0.35806406351E+02 -0.35701502217E+02  0.14556401060E+03  0.19842020356E+03  0.12500000000E+03 0.  0.
         25    1    1    2    0    0  0.42920787083E+02 -0.47349320046E+02 -0.38964267068E+02  0.14569614333E+03  0.12500000000E+03 0.  0.
         25    1    1    2    0    0 -0.78727193434E+02  0.83050822263E+02  0.41977935657E+03  0.45269760135E+03  0.12500000000E+03 0.  0.
</event>
<event>
 5    0  0.5510933E-005  0.2093805E+03  0.7546771E-02  0.1142057E+00
         21   -1    0    0  502  501  0.00000000000E+00  0.00000000000E+00  0.26530274308E+03  0.26530274308E+03  0.00000000000E+00 0. -1.
         21   -1    0    0  501  502 -0.00000000000E+00 -0.00000000000E+00 -0.16524597149E+03  0.16524597149E+03  0.00000000000E+00 0. -1.
         25    1    1    2    0    0 -0.79613215440E+02 -0.34393880049E+01  0.37781977811E+01  0.14828812576E+03  0.12500000000E+03 0.  0.
         25    1    1    2    0    0  0.32722257399E+02  0.20113442381E+02  0.49262736295E+02  0.13973944998E+03  0.12500000000E+03 0.  0.
         25    1    1    2    0    0  0.46890958041E+02 -0.16674054376E+02  0.47015837520E+02  0.14252113883E+03  0.12500000000E+03 0.  0.
</event>
<event>
 5    0  0.5510933E-005  0.3892543E+03  0.7546771E-02  0.1047565E+00
         21   -1    0    0  502  501  0.00000000000E+00  0.00000000000E+00  0.50454599036E+03  0.50454599036E+03  0.00000000000E+00 0.  1.
         21   -1    0    0  501  502 -0.00000000000E+00 -0.00000000000E+00 -0.30030739222E+03  0.30030739222E+03  0.00000000000E+00 0.  1.
         25    1    1    2    0    0 -0.22922979208E+03 -0.59347053321E+01  0.75846697325E+01  0.26127388985E+03  0.12500000000E+03 0.  0.
         25    1    1    2    0    0  0.83365433756E+02  0.19812725862E+02 -0.10592899122E+03  0.18490075942E+03  0.12500000000E+03 0.  0.
         25    1    1    2    0    0  0.14586435832E+03 -0.13878020530E+02  0.30258291962E+03  0.35867873331E+03  0.12500000000E+03 0.  0.
</event>
<event>
 5    0  0.6585157E-005  0.2926540E+03  0.7546771E-02  0.1088972E+00
         21   -1    0    0  502  501  0.00000000000E+00  0.00000000000E+00  0.35776755822E+03  0.35776755822E+03  0.00000000000E+00 0. -1.
         21   -1    0    0  501  502 -0.00000000000E+00 -0.00000000000E+00 -0.23939107263E+03  0.23939107263E+03  0.00000000000E+00 0. -1.
         25    1    1    2    0    0  0.59583980727E+02  0.20500701800E+02  0.16416223000E+03  0.21574236323E+03  0.12500000000E+03 0.  0.
         25    1    1    2    0    0  0.67910429077E+02 -0.14778088247E+02 -0.12123890546E+03  0.18749424116E+03  0.12500000000E+03 0.  0.
         25    1    1    2    0    0 -0.12749440980E+03 -0.57226135535E+01  0.75453161047E+02  0.19392202647E+03  0.12500000000E+03 0.  0.
</event>
<event>
 5    0  0.5510933E-005  0.4191651E+03  0.7546771E-02  0.1037338E+00
         21   -1    0    0  502  501  0.00000000000E+00  0.00000000000E+00  0.25020456562E+03  0.25020456562E+03  0.00000000000E+00 0.  1.
         21   -1    0    0  501  502 -0.00000000000E+00 -0.00000000000E+00 -0.70222306621E+03  0.70222306621E+03  0.00000000000E+00 0.  1.
         25    1    1    2    0    0  0.78309198404E+02  0.78794386266E+02  0.14599802487E+03  0.22199393939E+03  0.12500000000E+03 0.  0.
         25    1    1    2    0    0 -0.36509745611E+02 -0.19724503142E+03 -0.28039352458E+03  0.36672072831E+03  0.12500000000E+03 0.  0.
         25    1    1    2    0    0 -0.41799452793E+02  0.11845064515E+03 -0.31762300087E+03  0.36371296413E+03  0.12500000000E+03 0.  0.
</event>
<event>
 5    0  0.5510933E-005  0.3102615E+03  0.7546771E-02  0.1080221E+00
         21   -1    0    0  502  501  0.00000000000E+00  0.00000000000E+00  0.30780904768E+03  0.30780904768E+03  0.00000000000E+00 0. -1.
         21   -1    0    0  501  502 -0.00000000000E+00 -0.00000000000E+00 -0.31273354757E+03  0.31273354757E+03  0.00000000000E+00 0. -1.
         25    1    1    2    0    0  0.70650856911E+02  0.43819054806E+02 -0.12584587594E+02  0.15064868068E+03  0.12500000000E+03 0.  0.
         25    1    1    2    0    0  0.15542745828E+03 -0.67076713282E+02  0.12799791398E+01  0.21043673301E+03  0.12500000000E+03 0.  0.
         25    1    1    2    0    0 -0.22607831519E+03  0.23257658476E+02  0.63801085699E+01  0.25945718156E+03  0.12500000000E+03 0.  0.
</event>
<event>
 5    0  0.5510933E-005  0.3142475E+03  0.7546771E-02  0.1078328E+00
         21   -1    0    0  502  501  0.00000000000E+00  0.00000000000E+00  0.16970712285E+04  0.16970712285E+04  0.00000000000E+00 0. -1.
         21   -1    0    0  501  502 -0.00000000000E+00 -0.00000000000E+00 -0.58189352945E+02  0.58189352945E+02  0.00000000000E+00 0. -1.
         25    1    1    2    0    0 -0.97025251151E+02 -0.15149747695E+03  0.34905666213E+03  0.41210549409E+03  0.12500000000E+03 0.  0.
         25    1    1    2    0    0 -0.40500236722E+02  0.25751953287E+02  0.30510858093E+03  0.33319615609E+03  0.12500000000E+03 0.  0.
         25    1    1    2    0    0  0.13752548787E+03  0.12574552366E+03  0.98471663247E+03  0.10099589312E+04  0.12500000000E+03 0.  0.
</event>
<event>
 5    0  0.5510933E-005  0.5011060E+03  0.7546771E-02  0.1013491E+00
         21   -1    0    0  502  501  0.00000000000E+00  0.00000000000E+00  0.87170008260E+03  0.87170008260E+03  0.00000000000E+00 0.  1.
         21   -1    0    0  501  502 -0.00000000000E+00 -0.00000000000E+00 -0.28806612585E+03  0.28806612585E+03  0.00000000000E+00 0.  1.
         25    1    1    2    0    0 -0.22606355887E+01 -0.25181333018E+02  0.11105959146E+03  0.16911074141E+03  0.12500000000E+03 0.  0.
         25    1    1    2    0    0  0.29660825684E+02  0.35892687357E+03  0.50388461468E+03  0.63184885064E+03  0.12500000000E+03 0.  0.
         25    1    1    2    0    0 -0.27400190095E+02 -0.33374554055E+03 -0.31310249384E+02  0.35880661640E+03  0.12500000000E+03 0.  0.
</event>
<event>
 5    0  0.6100999E-005  0.6792546E+03  0.7546771E-02  0.9753382E-01
         21   -1    0    0  502  501  0.00000000000E+00  0.00000000000E+00  0.61915118160E+03  0.61915118160E+03  0.00000000000E+00 0. -1.
         21   -1    0    0  501  502 -0.00000000000E+00 -0.00000000000E+00 -0.74519244618E+03  0.74519244618E+03  0.00000000000E+00 0. -1.
         25    1    1    2    0    0 -0.13156313785E+03 -0.11416666447E+03  0.38760634390E+03  0.44295210165E+03  0.12500000000E+03 0.  0.
         25    1    1    2    0    0  0.41651399039E+03  0.33801698063E+02 -0.35813881917E+03  0.56437121895E+03  0.12500000000E+03 0.  0.
         25    1    1    2    0    0 -0.28495085254E+03  0.80364966411E+02 -0.15550878932E+03  0.35702030719E+03  0.12500000000E+03 0.  0.
</event>
<event>
 5    0  0.5510933E-005  0.4718133E+03  0.7546771E-02  0.1021410E+00
         21   -1    0    0  502  501  0.00000000000E+00  0.00000000000E+00  0.56545215411E+03  0.56545215411E+03  0.00000000000E+00 0.  1.
         21   -1    0    0  501  502 -0.00000000000E+00 -0.00000000000E+00 -0.39368099566E+03  0.39368099566E+03  0.00000000000E+00 0.  1.
         25    1    1    2    0    0 -0.89819510289E+02 -0.89187813297E+01  0.64162392821E+02  0.16699970581E+03  0.12500000000E+03 0.  0.
         25    1    1    2    0    0 -0.30016891048E+03 -0.13251160388E+03  0.60823116797E+02  0.35634976009E+03  0.12500000000E+03 0.  0.
         25    1    1    2    0    0  0.38998842076E+03  0.14143038521E+03  0.46785648835E+02  0.43578368387E+03  0.12500000000E+03 0.  0.
</event>
<event>
 5    0  0.5510933E-005  0.2970453E+03  0.7546771E-02  0.1086727E+00
         21   -1    0    0  502  501  0.00000000000E+00  0.00000000000E+00  0.15296946625E+03  0.15296946625E+03  0.00000000000E+00 0. -1.
         21   -1    0    0  501  502 -0.00000000000E+00 -0.00000000000E+00 -0.57682032965E+03  0.57682032965E+03  0.00000000000E+00 0. -1.
         25    1    1    2    0    0 -0.38475549428E+02  0.70635667775E+02 -0.30962244215E+03  0.34345425045E+03  0.12500000000E+03 0.  0.
         25    1    1    2    0    0  0.85996284352E+02  0.60516059620E+02 -0.11370765370E+03  0.19902759835E+03  0.12500000000E+03 0.  0.
         25    1    1    2    0    0 -0.47520734924E+02 -0.13115172739E+03 -0.52076754609E+00  0.18730794710E+03  0.12500000000E+03 0.  0.
</event>
<event>
 5    0  0.5510933E-005  0.3262261E+03  0.7546771E-02  0.1072819E+00
         21   -1    0    0  502  501  0.00000000000E+00  0.00000000000E+00  0.12399761597E+04  0.12399761597E+04  0.00000000000E+00 0. -1.
         21   -1    0    0  501  502 -0.00000000000E+00 -0.00000000000E+00 -0.85827028085E+02  0.85827028085E+02  0.00000000000E+00 0. -1.
         25    1    1    2    0    0 -0.14384722821E+03  0.84014528219E+02  0.31407292022E+03  0.37685178152E+03  0.12500000000E+03 0.  0.
         25    1    1    2    0    0  0.75247980759E+02 -0.11080991119E+03  0.76295709983E+03  0.78464618218E+03  0.12500000000E+03 0.  0.
         25    1    1    2    0    0  0.68599247449E+02  0.26795382971E+02  0.77119111585E+02  0.16430522411E+03  0.12500000000E+03 0.  0.
</event>
<event>
 5    0  0.5510933E-005  0.2186072E+03  0.7546771E-02  0.1134926E+00
         21   -1    0    0  502  501  0.00000000000E+00  0.00000000000E+00  0.84778943653E+02  0.84778943653E+02  0.00000000000E+00 0. -1.
         21   -1    0    0  501  502 -0.00000000000E+00 -0.00000000000E+00 -0.56369061103E+03  0.56369061103E+03  0.00000000000E+00 0. -1.
         25    1    1    2    0    0 -0.20832557967E+02  0.63321097678E+02 -0.10868150791E+03  0.17855034877E+03  0.12500000000E+03 0.  0.
         25    1    1    2    0    0  0.69342521933E+02 -0.59406048035E+02 -0.18503999863E+03  0.24125145592E+03  0.12500000000E+03 0.  0.
         25    1    1    2    0    0 -0.48509963966E+02 -0.39150496432E+01 -0.18519016083E+03  0.22866774999E+03  0.12500000000E+03 0.  0.
</event>
<event>
 5    0  0.5510933E-005  0.4260337E+03  0.7546771E-02  0.1035120E+00
         21   -1    0    0  502  501  0.00000000000E+00  0.00000000000E+00  0.45854781766E+03  0.45854781766E+03  0.00000000000E+00 0. -1.
         21   -1    0    0  501  502 -0.00000000000E+00 -0.00000000000E+00 -0.39582502219E+03  0.39582502219E+03  0.00000000000E+00 0. -1.
         25    1    1    2    0    0 -0.37927248483E+02 -0.32817318387E+02  0.72023743616E+01  0.13487893371E+03  0.12500000000E+03 0.  0.
         25    1    1    2    0    0  0.35147529236E+03  0.63512067071E+02  0.28943386705E+02  0.37951466828E+03  0.12500000000E+03 0.  0.
         25    1    1    2    0    0 -0.31354804388E+03 -0.30694748684E+02  0.26577034401E+02  0.33997923786E+03  0.12500000000E+03 0.  0.
</event>
<event>
 5    0  0.5510933E-005  0.2735228E+03  0.7546771E-02  0.1099280E+00
         21   -1    0    0  502  501  0.00000000000E+00  0.00000000000E+00  0.70460439435E+02  0.70460439435E+02  0.00000000000E+00 0. -1.
         21   -1    0    0  501  502 -0.00000000000E+00 -0.00000000000E+00 -0.10617974639E+04  0.10617974639E+04  0.00000000000E+00 0. -1.
         25    1    1    2    0    0  0.65961378317E+02  0.61802524912E+02 -0.45292609676E+03  0.47847414209E+03  0.12500000000E+03 0.  0.
         25    1    1    2    0    0 -0.67429408611E+02 -0.15684478208E+03 -0.34407925404E+03  0.40393383601E+03  0.12500000000E+03 0.  0.
         25    1    1    2    0    0  0.14680302944E+01  0.95042257164E+02 -0.19433167370E+03  0.24984992528E+03  0.12500000000E+03 0.  0.
</event>
<event>
 5    0  0.5510933E-005  0.3248276E+03  0.7546771E-02  0.1073449E+00
         21   -1    0    0  502  501  0.00000000000E+00  0.00000000000E+00  0.37281767515E+03  0.37281767515E+03  0.00000000000E+00 0. -1.
         21   -1    0    0  501  502 -0.00000000000E+00 -0.00000000000E+00 -0.28301498354E+03  0.28301498354E+03  0.00000000000E+00 0. -1.
         25    1    1    2    0    0  0.25234011719E+02 -0.96260956075E+02 -0.12930019827E+03  0.20553945676E+03  0.12500000000E+03 0.  0.
         25    1    1    2    0    0  0.11865457280E+03  0.19893868752E+02  0.40507484673E+02  0.17815872130E+03  0.12500000000E+03 0.  0.
         25    1    1    2    0    0 -0.14388858452E+03  0.76367087322E+02  0.17859540521E+03  0.27213448063E+03  0.12500000000E+03 0.  0.
</event>
<event>
 5    0  0.5510933E-005  0.1948586E+03  0.7546771E-02  0.1154151E+00
         21   -1    0    0  502  501  0.00000000000E+00  0.00000000000E+00  0.16483316090E+03  0.16483316090E+03  0.00000000000E+00 0.  1.
         21   -1    0    0  501  502 -0.00000000000E+00 -0.00000000000E+00 -0.23035345861E+03  0.23035345861E+03  0.00000000000E+00 0.  1.
         25    1    1    2    0    0  0.17192295291E+02  0.26862312442E+02  0.64998977021E+01  0.12916813662E+03  0.12500000000E+03 0.  0.
         25    1    1    2    0    0 -0.11987854165E+02 -0.33097827303E+02 -0.25161334315E+02  0.13227723751E+03  0.12500000000E+03 0.  0.
         25    1    1    2    0    0 -0.52044411260E+01  0.62355148611E+01 -0.46858861098E+02  0.13374124538E+03  0.12500000000E+03 0.  0.
</event>
<event>
 5    0  0.5510933E-005  0.2692501E+03  0.7546771E-02  0.1101710E+00
         21   -1    0    0  502  501  0.00000000000E+00  0.00000000000E+00  0.10445824990E+03  0.10445824990E+03  0.00000000000E+00 0. -1.
         21   -1    0    0  501  502 -0.00000000000E+00 -0.00000000000E+00 -0.69401539710E+03  0.69401539710E+03  0.00000000000E+00 0. -1.
         25    1    1    2    0    0 -0.61468023163E+02  0.13073316645E+03 -0.19141698354E+03  0.27043472460E+03  0.12500000000E+03 0.  0.
         25    1    1    2    0    0  0.12240929952E+03 -0.53103486700E+02 -0.25588368619E+03  0.31449241289E+03  0.12500000000E+03 0.  0.
         25    1    1    2    0    0 -0.60941276357E+02 -0.77629679748E+02 -0.14225647746E+03  0.21354650951E+03  0.12500000000E+03 0.  0.
</event>
<event>
 5    0  0.5510933E-005  0.2871508E+03  0.7546771E-02  0.1091846E+00
         21   -1    0    0  502  501  0.00000000000E+00  0.00000000000E+00  0.42845331528E+03  0.42845331528E+03  0.00000000000E+00 0.  1.
         21   -1    0    0  501  502 -0.00000000000E+00 -0.00000000000E+00 -0.19244942066E+03  0.19244942066E+03  0.00000000000E+00 0.  1.
         25    1    1    2    0    0  0.51955759104E+02  0.12780137719E+03  0.76431419121E+02  0.20124451482E+03  0.12500000000E+03 0.  0.
         25    1    1    2    0    0 -0.48466681559E+02 -0.11163743743E+03  0.21922334753E+03  0.28017104197E+03  0.12500000000E+03 0.  0.
         25    1    1    2    0    0 -0.34890775457E+01 -0.16163939767E+02 -0.59650872032E+02  0.13948717914E+03  0.12500000000E+03 0.  0.
</event>
<event>
 5    0  0.5510933E-005  0.5165016E+03  0.7546771E-02  0.1009559E+00
         21   -1    0    0  502  501  0.00000000000E+00  0.00000000000E+00  0.30757405185E+03  0.30757405185E+03  0.00000000000E+00 0.  1.
         21   -1    0    0  501  502 -0.00000000000E+00 -0.00000000000E+00 -0.86734839128E+03  0.86734839128E+03  0.00000000000E+00 0.  1.
         25    1    1    2    0    0  0.18840116533E+02  0.99272895657E+02 -0.35423146008E+03  0.38899226871E+03  0.12500000000E+03 0.  0.
         25    1    1    2    0    0  0.70627688155E+02 -0.19194609727E+03  0.21920154173E+03  0.32481670291E+03  0.12500000000E+03 0.  0.
         25    1    1    2    0    0 -0.89467804688E+02  0.92673201613E+02 -0.42474442108E+03  0.46111347151E+03  0.12500000000E+03 0.  0.
</event>
<event>
 5    0  0.5510933E-005  0.2143795E+03  0.7546771E-02  0.1138144E+00
         21   -1    0    0  502  501  0.00000000000E+00  0.00000000000E+00  0.49423453655E+03  0.49423453655E+03  0.00000000000E+00 0. -1.
         21   -1    0    0  501  502 -0.00000000000E+00 -0.00000000000E+00 -0.92989406700E+02  0.92989406700E+02  0.00000000000E+00 0. -1.
         25    1    1    2    0    0 -0.43228748325E+02  0.20633357259E+02  0.77869586801E+02  0.15486488518E+03  0.12500000000E+03 0.  0.
         25    1    1    2    0    0 -0.35557830128E+02 -0.44391962400E+02  0.15403586530E+03  0.20636630880E+03  0.12500000000E+03 0.  0.
         25    1    1    2    0    0  0.78786578453E+02  0.23758605141E+02  0.16933967776E+03  0.22599274928E+03  0.12500000000E+03 0.  0.
</event>
<event>
 5    0  0.5510933E-005  0.3621264E+03  0.7546771E-02  0.1057745E+00
         21   -1    0    0  502  501  0.00000000000E+00  0.00000000000E+00  0.81680601608E+03  0.81680601608E+03  0.00000000000E+00 0.  1.
         21   -1    0    0  501  502 -0.00000000000E+00 -0.00000000000E+00 -0.16054672137E+03  0.16054672137E+03  0.00000000000E+00 0.  1.
         25    1    1    2    0    0  0.18225793384E+03 -0.69730897420E+02  0.18047404567E+03  0.29372816287E+03  0.12500000000E+03 0.  0.
         25    1    1    2    0    0 -0.25209300639E+03  0.19224069208E+02  0.13949904778E+03  0.31465128800E+03  0.12500000000E+03 0.  0.
         25    1    1    2    0    0  0.69835072559E+02  0.50506828213E+02  0.33628620126E+03  0.36897328658E+03  0.12500000000E+03 0.  0.
</event>
<event>
 5    0  0.5510933E-005  0.3656308E+03  0.7546771E-02  0.1056376E+00
         21   -1    0    0  502  501  0.00000000000E+00  0.00000000000E+00  0.10724495969E+04  0.10724495969E+04  0.00000000000E+00 0.  1.
         21   -1    0    0  501  502 -0.00000000000E+00 -0.00000000000E+00 -0.12465471702E+03  0.12465471702E+03  0.00000000000E+00 0.  1.
         25    1    1    2    0    0 -0.82308686420E+02 -0.87008825133E+02  0.77586480883E+03  0.79494431069E+03  0.12500000000E+03 0.  0.
         25    1    1    2    0    0  0.84284021974E+02 -0.16872431914E+02  0.18482030370E+03  0.23910671253E+03  0.12500000000E+03 0.  0.
         25    1    1    2    0    0 -0.19753355543E+01  0.10388125705E+03 -0.12890232627E+02  0.16305329072E+03  0.12500000000E+03 0.  0.
</event>
<event>
 5    0  0.5510933E-005  0.2226599E+03  0.7546771E-02  0.1131915E+00
         21   -1    0    0  502  501  0.00000000000E+00  0.00000000000E+00  0.74354180625E+02  0.74354180625E+02  0.00000000000E+00 0.  1.
         21   -1    0    0  501  502 -0.00000000000E+00 -0.00000000000E+00 -0.66677380948E+03  0.66677380948E+03  0.00000000000E+00 0.  1.
         25    1    1    2    0    0  0.33006547615E+02  0.51659997373E+02 -0.24577074259E+03  0.28246494548E+03  0.12500000000E+03 0.  0.
         25    1    1    2    0    0 -0.87143247537E+02 -0.18329384021E+02 -0.13292356202E+03  0.20303592108E+03  0.12500000000E+03 0.  0.
         25    1    1    2    0    0  0.54136699922E+02 -0.33330613352E+02 -0.21372532424E+03  0.25562712354E+03  0.12500000000E+03 0.  0.
</event>
<event>
 5    0  0.5510933E-005  0.2809789E+03  0.7546771E-02  0.1095155E+00
         21   -1    0    0  502  501  0.00000000000E+00  0.00000000000E+00  0.40608386303E+03  0.40608386303E+03  0.00000000000E+00 0. -1.
         21   -1    0    0  501  502 -0.00000000000E+00 -0.00000000000E+00 -0.19441582374E+03  0.19441582374E+03  0.00000000000E+00 0. -1.
         25    1    1    2    0    0  0.21830038488E+02 -0.99384786247E+02 -0.19181093710E+02  0.16231697593E+03  0.12500000000E+03 0.  0.
         25    1    1    2    0    0  0.86766101605E+01 -0.63009248996E+02  0.18439450787E+02  0.14145834146E+03  0.12500000000E+03 0.  0.
         25    1    1    2    0    0 -0.30506648649E+02  0.16239403524E+03  0.21240968221E+03  0.29672436939E+03  0.12500000000E+03 0.  0.
</event>
<event>
 5    0  0.5510933E-005  0.6298135E+03  0.7546771E-02  0.9845413E-01
         21   -1    0    0  502  501  0.00000000000E+00  0.00000000000E+00  0.36812013922E+03  0.36812013922E+03  0.00000000000E+00 0. -1.
         21   -1    0    0  501  502 -0.00000000000E+00 -0.00000000000E+00 -0.10775422163E+04  0.10775422163E+04  0.00000000000E+00 0. -1.
         25    1    1    2    0    0 -0.59240456004E+02  0.26622944505E+01  0.24141388316E+03  0.27824841854E+03  0.12500000000E+03 0.  0.
         25    1    1    2    0    0  0.62362908420E+02  0.29654677624E+03 -0.31994926476E+03  0.45806293767E+03  0.12500000000E+03 0.  0.
         25    1    1    2    0    0 -0.31224524163E+01 -0.29920907069E+03 -0.63088669545E+03  0.70935099928E+03  0.12500000000E+03 0.  0.
</event>
<event>
 5    0  0.5877382E-005  0.3320075E+03  0.7546771E-02  0.1070252E+00
         21   -1    0    0  502  501  0.00000000000E+00  0.00000000000E+00  0.44908196998E+03  0.44908196998E+03  0.00000000000E+00 0. -1.
         21   -1    0    0  501  502 -0.00000000000E+00 -0.00000000000E+00 -0.24545403849E+03  0.24545403849E+03  0.00000000000E+00 0. -1.
         25    1    1    2    0    0  0.43713925935E+02 -0.11799425139E+03  0.48574620438E+02  0.18389683095E+03  0.12500000000E+03 0.  0.
         25    1    1    2    0    0 -0.59191374536E+02 -0.12104357161E+03  0.15503146459E+03  0.24044733323E+03  0.12500000000E+03 0.  0.
         25    1    1    2    0    0  0.15477448601E+02  0.23903782300E+03  0.21846469319E-01  0.27019184428E+03  0.12500000000E+03 0.  0.
</event>
<event>
 5    0  0.5510933E-005  0.3274371E+03  0.7546771E-02  0.1072277E+00
         21   -1    0    0  502  501  0.00000000000E+00  0.00000000000E+00  0.77105055507E+03  0.77105055507E+03  0.00000000000E+00 0. -1.
         21   -1    0    0  501  502 -0.00000000000E+00 -0.00000000000E+00 -0.13905059848E+03  0.13905059848E+03  0.00000000000E+00 0. -1.
         25    1    1    2    0    0 -0.12584432543E+03 -0.21229545589E+03  0.29526200619E+03  0.40461192164E+03  0.12500000000E+03 0.  0.
         25    1    1    2    0    0  0.10987439525E+03  0.54698037068E+02  0.15962953806E+03  0.23700389746E+03  0.12500000000E+03 0.  0.
         25    1    1    2    0    0  0.15969930171E+02  0.15759741882E+03  0.17710841234E+03  0.26848533444E+03  0.12500000000E+03 0.  0.
</event>
<event>
 5    0  0.5510933E-005  0.2618468E+03  0.7546771E-02  0.1106039E+00
         21   -1    0    0  502  501  0.00000000000E+00  0.00000000000E+00  0.16432745072E+04  0.16432745072E+04  0.00000000000E+00 0.  1.
         21   -1    0    0  501  502 -0.00000000000E+00 -0.00000000000E+00 -0.41723843593E+02  0.41723843593E+02  0.00000000000E+00 0.  1.
         25    1    1    2    0    0 -0.13839003895E+03  0.27352402351E+02  0.65655294518E+03  0.68307153844E+03  0.12500000000E+03 0.  0.
         25    1    1    2    0    0  0.15494458076E+02  0.47764174383E+02  0.49904455861E+03  0.51690614821E+03  0.12500000000E+03 0.  0.
         25    1    1    2    0    0  0.12289558087E+03 -0.75116576734E+02  0.44595315984E+03  0.48502066417E+03  0.12500000000E+03 0.  0.
</event>
<event>
 5    0  0.5510933E-005  0.3141895E+03  0.7546771E-02  0.1078355E+00
         21   -1    0    0  502  501  0.00000000000E+00  0.00000000000E+00  0.15303471654E+04  0.15303471654E+04  0.00000000000E+00 0. -1.
         21   -1    0    0  501  502 -0.00000000000E+00 -0.00000000000E+00 -0.64504991560E+02  0.64504991560E+02  0.00000000000E+00 0. -1.
         25    1    1    2    0    0 -0.89617268360E+02  0.50548612574E+02  0.20526847632E+03  0.26143175858E+03  0.12500000000E+03 0.  0.
         25    1    1    2    0    0  0.44156078940E+02 -0.90037057415E+01  0.10467561919E+03  0.16915321835E+03  0.12500000000E+03 0.  0.
         25    1    1    2    0    0  0.45461189420E+02 -0.41544906833E+02  0.11558980783E+04  0.11642671800E+04  0.12500000000E+03 0.  0.
</event>
<event>
 5    0  0.5510933E-005  0.3263730E+03  0.7546771E-02  0.1072753E+00
         21   -1    0    0  502  501  0.00000000000E+00  0.00000000000E+00  0.79267717322E+02  0.79267717322E+02  0.00000000000E+00 0. -1.
         21   -1    0    0  501  502 -0.00000000000E+00 -0.00000000000E+00 -0.13437917435E+04  0.13437917435E+04  0.00000000000E+00 0. -1.
         25    1    1    2    0    0  0.27789644043E+02  0.11084730636E+03 -0.93631512936E+02  0.19352325405E+03  0.12500000000E+03 0.  0.
         25    1    1    2    0    0 -0.50718328025E+01  0.15227601902E+01 -0.15315073227E+03  0.19775790523E+03  0.12500000000E+03 0.  0.
         25    1    1    2    0    0 -0.22717811241E+02 -0.11237006655E+03 -0.10177417809E+04  0.10317783015E+04  0.12500000000E+03 0.  0.
</event>
<event>
 5    0  0.5510933E-005  0.2694562E+03  0.7546771E-02  0.1101591E+00
         21   -1    0    0  502  501  0.00000000000E+00  0.00000000000E+00  0.17430439766E+04  0.17430439766E+04  0.00000000000E+00 0.  1.
         21   -1    0    0  501  502 -0.00000000000E+00 -0.00000000000E+00 -0.41655094680E+02  0.41655094680E+02  0.00000000000E+00 0.  1.
         25    1    1    2    0    0 -0.43014386144E+02 -0.26498693950E+02  0.10680228961E+04  0.10764991058E+04  0.12500000000E+03 0.  0.
         25    1    1    2    0    0  0.83621399701E+02  0.47179998709E+02  0.47974162574E+03  0.50497080929E+03  0.12500000000E+03 0.  0.
         25    1    1    2    0    0 -0.40607013557E+02 -0.20681304759E+02  0.15362436008E+03  0.20322915620E+03  0.12500000000E+03 0.  0.
</event>
<event>
 5    0  0.5510933E-005  0.2881972E+03  0.7546771E-02  0.1091294E+00
         21   -1    0    0  502  501  0.00000000000E+00  0.00000000000E+00  0.84465408528E+03  0.84465408528E+03  0.00000000000E+00 0. -1.
         21   -1    0    0  501  502 -0.00000000000E+00 -0.00000000000E+00 -0.98333328508E+02  0.98333328508E+02  0.00000000000E+00 0. -1.
         25    1    1    2    0    0  0.11979081196E+03 -0.89621068009E+02  0.16037768974E+03  0.25244361317E+03  0.12500000000E+03 0.  0.
         25    1    1    2    0    0 -0.40532212799E+02 -0.68754817470E+02  0.25247497139E+03  0.29281170806E+03  0.12500000000E+03 0.  0.
         25    1    1    2    0    0 -0.79258599163E+02  0.15837588548E+03  0.33346809564E+03  0.39773209256E+03  0.12500000000E+03 0.  0.
</event>
<event>
 5    0  0.5510933E-005  0.2504580E+03  0.7546771E-02  0.1113016E+00
         21   -1    0    0  502  501  0.00000000000E+00  0.00000000000E+00  0.16083548770E+04  0.16083548770E+04  0.00000000000E+00 0.  1.
         21   -1    0    0  501  502 -0.00000000000E+00 -0.00000000000E+00 -0.39002085895E+02  0.39002085895E+02  0.00000000000E+00 0.  1.
         25    1    1    2    0    0  0.68006534475E+02  0.47628728641E+02  0.93525072207E+03  0.94721291041E+03  0.12500000000E+03 0.  0.
         25    1    1    2    0    0  0.44173822459E+01 -0.47826634378E+02  0.42795309082E+03  0.44841470556E+03  0.12500000000E+03 0.  0.
         25    1    1    2    0    0 -0.72423916721E+02  0.19790573718E+00  0.20614897820E+03  0.25172934690E+03  0.12500000000E+03 0.  0.
</event>
<event>
 5    0  0.5510933E-005  0.2707002E+03  0.7546771E-02  0.1100880E+00
         21   -1    0    0  502  501  0.00000000000E+00  0.00000000000E+00  0.13109038449E+03  0.13109038449E+03  0.00000000000E+00 0. -1.
         21   -1    0    0  501  502 -0.00000000000E+00 -0.00000000000E+00 -0.55899313222E+03  0.55899313222E+03  0.00000000000E+00 0. -1.
         25    1    1    2    0    0 -0.17740450408E+02 -0.76352889696E+01 -0.13908598681E+03  0.18799716206E+03  0.12500000000E+03 0.  0.
         25    1    1    2    0    0  0.67444438254E+02 -0.14724597245E+03 -0.12694266432E+03  0.24076870370E+03  0.12500000000E+03 0.  0.
         25    1    1    2    0    0 -0.49703987845E+02  0.15488126142E+03 -0.16187409660E+03  0.26131765095E+03  0.12500000000E+03 0.  0.
</event>
<event>
 5    0  0.5510933E-005  0.8317864E+03  0.7546771E-02  0.9515114E-01
         21   -1    0    0  502  501  0.00000000000E+00  0.00000000000E+00  0.17806377317E+04  0.17806377317E+04  0.00000000000E+00 0. -1.
         21   -1    0    0  501  502 -0.00000000000E+00 -0.00000000000E+00 -0.38855101916E+03  0.38855101916E+03  0.00000000000E+00 0. -1.
         25    1    1    2    0    0  0.72580898717E+03 -0.13709187654E+03  0.33191402619E+03  0.81938073522E+03  0.12500000000E+03 0.  0.
         25    1    1    2    0    0 -0.49396015925E+03  0.18323442410E+03  0.85800003782E+03  0.10145740771E+04  0.12500000000E+03 0.  0.
         25    1    1    2    0    0 -0.23184882792E+03 -0.46142547556E+02  0.20217264851E+03  0.33523393848E+03  0.12500000000E+03 0.  0.
</event>
<event>
 5    0  0.5510933E-005  0.3187880E+03  0.7546771E-02  0.1076208E+00
         21   -1    0    0  502  501  0.00000000000E+00  0.00000000000E+00  0.74972189805E+03  0.74972189805E+03  0.00000000000E+00 0. -1.
         21   -1    0    0  501  502 -0.00000000000E+00 -0.00000000000E+00 -0.13555128192E+03  0.13555128192E+03  0.00000000000E+00 0. -1.
         25    1    1    2    0    0 -0.34403393413E+02  0.12489446571E+03  0.27725383582E+02  0.18214257585E+03  0.12500000000E+03 0.  0.
         25    1    1    2    0    0  0.49558896552E+02 -0.21417583093E+02  0.50087666282E+03  0.51905416717E+03  0.12500000000E+03 0.  0.
         25    1    1    2    0    0 -0.15155503140E+02 -0.10347688262E+03  0.85568569727E+02  0.18407643694E+03  0.12500000000E+03 0.  0.
</event>
<event>
 5    0  0.5510933E-005  0.3050609E+03  0.7546771E-02  0.1082738E+00
         21   -1    0    0  502  501  0.00000000000E+00  0.00000000000E+00  0.16685047589E+04  0.16685047589E+04  0.00000000000E+00 0. -1.
         21   -1    0    0  501  502 -0.00000000000E+00 -0.00000000000E+00 -0.55775788190E+02  0.55775788190E+02  0.00000000000E+00 0. -1.
         25    1    1    2    0    0 -0.12893091545E+03  0.15942438061E+02  0.52636921307E+03  0.55638735676E+03  0.12500000000E+03 0.  0.
         25    1    1    2    0    0  0.77540871517E+02  0.15246599783E+03  0.57635660182E+03  0.61406058310E+03  0.12500000000E+03 0.  0.
         25    1    1    2    0    0  0.51390043932E+02 -0.16840843590E+03  0.51000315584E+03  0.55383260726E+03  0.12500000000E+03 0.  0.
</event>
<event>
 5    0  0.5510933E-005  0.2793997E+03  0.7546771E-02  0.1096017E+00
         21   -1    0    0  502  501  0.00000000000E+00  0.00000000000E+00  0.64509134043E+03  0.64509134043E+03  0.00000000000E+00 0. -1.
         21   -1    0    0  501  502 -0.00000000000E+00 -0.00000000000E+00 -0.12101263127E+03  0.12101263127E+03  0.00000000000E+00 0. -1.
         25    1    1    2    0    0 -0.13917146245E+03 -0.92599616545E+02  0.20245607415E+03  0.29078660029E+03  0.12500000000E+03 0.  0.
         25    1    1    2    0    0  0.15897504263E+03  0.94915166760E+02  0.20493823670E+03  0.30316106927E+03  0.12500000000E+03 0.  0.
         25    1    1    2    0    0 -0.19803580176E+02 -0.23155502147E+01  0.11668439831E+03  0.17215630215E+03  0.12500000000E+03 0.  0.
</event>
<event>
 5    0  0.5510933E-005  0.3104796E+03  0.7546771E-02  0.1080116E+00
         21   -1    0    0  502  501  0.00000000000E+00  0.00000000000E+00  0.14520621398E+03  0.14520621398E+03  0.00000000000E+00 0. -1.
         21   -1    0    0  501  502 -0.00000000000E+00 -0.00000000000E+00 -0.66386680239E+03  0.66386680239E+03  0.00000000000E+00 0. -1.
         25    1    1    2    0    0  0.51421374821E+02 -0.39963331045E+01 -0.42429356807E+03  0.44532028965E+03  0.12500000000E+03 0.  0.
         25    1    1    2    0    0 -0.44194867235E+02 -0.11693764905E+03 -0.38453012221E+02  0.18091775536E+03  0.12500000000E+03 0.  0.
         25    1    1    2    0    0 -0.72265075867E+01  0.12093398216E+03 -0.55914008122E+02  0.18283497137E+03  0.12500000000E+03 0.  0.
</event>
<event>
 5    0  0.5510933E-005  0.2472535E+03  0.7546771E-02  0.1115053E+00
         21   -1    0    0  502  501  0.00000000000E+00  0.00000000000E+00  0.85571169165E+02  0.85571169165E+02  0.00000000000E+00 0.  1.
         21   -1    0    0  501  502 -0.00000000000E+00 -0.00000000000E+00 -0.71442642186E+03  0.71442642186E+03  0.00000000000E+00 0.  1.
         25    1    1    2    0    0  0.38776897052E+02 -0.56151817381E+02 -0.12714757269E+03  0.19091406334E+03  0.12500000000E+03 0.  0.
         25    1    1    2    0    0 -0.13354554103E+03  0.39107712576E+02 -0.25545916133E+03  0.31661997382E+03  0.12500000000E+03 0.  0.
         25    1    1    2    0    0  0.94768643980E+02  0.17044104805E+02 -0.24624851867E+03  0.29246355386E+03  0.12500000000E+03 0.  0.
</event>
<event>
 5    0  0.5510933E-005  0.4752345E+03  0.7546771E-02  0.1020453E+00
         21   -1    0    0  502  501  0.00000000000E+00  0.00000000000E+00  0.29208249851E+03  0.29208249851E+03  0.00000000000E+00 0.  1.
         21   -1    0    0  501  502 -0.00000000000E+00 -0.00000000000E+00 -0.77323303894E+03  0.77323303894E+03  0.00000000000E+00 0.  1.
         25    1    1    2    0    0  0.17036450001E+03  0.85851955699E+02 -0.28439997406E+03  0.36455859118E+03  0.12500000000E+03 0.  0.
         25    1    1    2    0    0 -0.32691951323E+02 -0.21078993797E+03 -0.35058731393E+03  0.42899606796E+03  0.12500000000E+03 0.  0.
         25    1    1    2    0    0 -0.13767254868E+03  0.12493798227E+03  0.15383674756E+03  0.27176087830E+03  0.12500000000E+03 0.  0.
</event>
<event>
 5    0  0.6378243E-005  0.3887046E+03  0.7546771E-02  0.1047763E+00
         21   -1    0    0  502  501  0.00000000000E+00  0.00000000000E+00  0.71910790447E+03  0.71910790447E+03  0.00000000000E+00 0.  1.
         21   -1    0    0  501  502 -0.00000000000E+00 -0.00000000000E+00 -0.21010933255E+03  0.21010933255E+03  0.00000000000E+00 0.  1.
         25    1    1    2    0    0 -0.12457746684E+03  0.11741927963E+03 -0.37763416147E+02  0.21530886668E+03  0.12500000000E+03 0.  0.
         25    1    1    2    0    0  0.26440587313E+02  0.10489700555E+03  0.31434912855E+03  0.35516596269E+03  0.12500000000E+03 0.  0.
         25    1    1    2    0    0  0.98136879523E+02 -0.22231628518E+03  0.23241285952E+03  0.35874240765E+03  0.12500000000E+03 0.  0.
</event>
<event>
 5    0  0.5805001E-005  0.3441769E+03  0.7546771E-02  0.1065031E+00
         21   -1    0    0  502  501  0.00000000000E+00  0.00000000000E+00  0.14427213600E+03  0.14427213600E+03  0.00000000000E+00 0. -1.
         21   -1    0    0  501  502 -0.00000000000E+00 -0.00000000000E+00 -0.82107132363E+03  0.82107132363E+03  0.00000000000E+00 0. -1.
         25    1    1    2    0    0 -0.79710619714E+02 -0.83136672295E+02 -0.95010780018E+01  0.17023736270E+03  0.12500000000E+03 0.  0.
         25    1    1    2    0    0 -0.72810933899E+02  0.55010417762E+02 -0.53263050699E+03  0.55466010775E+03  0.12500000000E+03 0.  0.
         25    1    1    2    0    0  0.15252155361E+03  0.28126254533E+02 -0.13466760264E+03  0.24044598918E+03  0.12500000000E+03 0.  0.
</event>
<event>
 5    0  0.5510933E-005  0.5890495E+03  0.7546771E-02  0.9928389E-01
         21   -1    0    0  502  501  0.00000000000E+00  0.00000000000E+00  0.69686557543E+03  0.69686557543E+03  0.00000000000E+00 0. -1.
         21   -1    0    0  501  502 -0.00000000000E+00 -0.00000000000E+00 -0.49791432165E+03  0.49791432165E+03  0.00000000000E+00 0. -1.
         25    1    1    2    0    0  0.42526623013E+01  0.33646973067E+02  0.46906667722E+03  0.48661971971E+03  0.12500000000E+03 0.  0.
         25    1    1    2    0    0  0.22122050893E+02 -0.26096648352E+03 -0.33118900813E+03  0.44034537554E+03  0.12500000000E+03 0.  0.
         25    1    1    2    0    0 -0.26374713194E+02  0.22731951045E+03  0.61073584691E+02  0.26781480182E+03  0.12500000000E+03 0.  0.
</event>
<event>
 5    0  0.5510933E-005  0.3628376E+03  0.7546771E-02  0.1057466E+00
         21   -1    0    0  502  501  0.00000000000E+00  0.00000000000E+00  0.12150204842E+04  0.12150204842E+04  0.00000000000E+00 0. -1.
         21   -1    0    0  501  502 -0.00000000000E+00 -0.00000000000E+00 -0.10835301147E+03  0.10835301147E+03  0.00000000000E+00 0. -1.
         25    1    1    2    0    0  0.38571392228E+02 -0.19772068159E+03  0.10138822072E+03  0.25784838865E+03  0.12500000000E+03 0.  0.
         25    1    1    2    0    0 -0.23565566161E+02  0.18792773303E+03  0.64777642943E+03  0.68637560510E+03  0.12500000000E+03 0.  0.
         25    1    1    2    0    0 -0.15005826067E+02  0.97929485567E+01  0.35750282263E+03  0.37914950197E+03  0.12500000000E+03 0.  0.
</event>
<event>
 5    0  0.5510933E-005  0.2733781E+03  0.7546771E-02  0.1099362E+00
         21   -1    0    0  502  501  0.00000000000E+00  0.00000000000E+00  0.24367621165E+03  0.24367621165E+03  0.00000000000E+00 0.  1.
         21   -1    0    0  501  502 -0.00000000000E+00 -0.00000000000E+00 -0.30670028115E+03  0.30670028115E+03  0.00000000000E+00 0.  1.
         25    1    1    2    0    0 -0.50504320576E+02  0.15000480333E+03 -0.11312100050E+03  0.23124335271E+03  0.12500000000E+03 0.  0.
         25    1    1    2    0    0  0.60705867332E+02 -0.39977584988E+02  0.47751978212E+02  0.15227823565E+03  0.12500000000E+03 0.  0.
         25    1    1    2    0    0 -0.10201546755E+02 -0.11002721834E+03  0.23449527819E+01  0.16685490444E+03  0.12500000000E+03 0.  0.
</event>
<event>
 5    0  0.5510933E-005  0.2460097E+03  0.7546771E-02  0.1115853E+00
         21   -1    0    0  502  501  0.00000000000E+00  0.00000000000E+00  0.92915910380E+03  0.92915910380E+03  0.00000000000E+00 0.  1.
         21   -1    0    0  501  502 -0.00000000000E+00 -0.00000000000E+00 -0.65134977533E+02  0.65134977533E+02  0.00000000000E+00 0.  1.
         25    1    1    2    0    0  0.10358566860E+03  0.38307460750E+02  0.35709174998E+03  0.39412811393E+03  0.12500000000E+03 0.  0.
         25    1    1    2    0    0 -0.50110788664E+01 -0.62994463640E+02  0.13362179115E+03  0.19357994842E+03  0.12500000000E+03 0.  0.
         25    1    1    2    0    0 -0.98574589732E+02  0.24687002890E+02  0.37331058514E+03  0.40658601898E+03  0.12500000000E+03 0.  0.
</event>
<event>
 5    0  0.5510933E-005  0.2754584E+03  0.7546771E-02  0.1098196E+00
         21   -1    0    0  502  501  0.00000000000E+00  0.00000000000E+00  0.20587977089E+04  0.20587977089E+04  0.00000000000E+00 0.  1.
         21   -1    0    0  501  502 -0.00000000000E+00 -0.00000000000E+00 -0.36855165696E+02  0.36855165696E+02  0.00000000000E+00 0.  1.
         25    1    1    2    0    0  0.42438744918E+02 -0.13419394774E+03  0.34734903491E+03  0.39507646695E+03  0.12500000000E+03 0.  0.
         25    1    1    2    0    0 -0.56885519078E+02  0.60534980838E+02  0.88400510387E+03  0.89665515660E+03  0.12500000000E+03 0.  0.
         25    1    1    2    0    0  0.14446774160E+02  0.73658966899E+02  0.79058840444E+03  0.80392125107E+03  0.12500000000E+03 0.  0.
</event>
<event>
 5    0  0.5510933E-005  0.7450778E+03  0.7546771E-02  0.9643104E-01
         21   -1    0    0  502  501  0.00000000000E+00  0.00000000000E+00  0.73585763588E+03  0.73585763588E+03  0.00000000000E+00 0.  1.
         21   -1    0    0  501  502 -0.00000000000E+00 -0.00000000000E+00 -0.75441339374E+03  0.75441339374E+03  0.00000000000E+00 0.  1.
         25    1    1    2    0    0  0.21316121115E+03  0.49302850084E+03  0.42980804856E+03  0.69919579746E+03  0.12500000000E+03 0.  0.
         25    1    1    2    0    0 -0.21935077620E+03 -0.28549542601E+03 -0.38245087870E+03  0.53992228692E+03  0.12500000000E+03 0.  0.
         25    1    1    2    0    0  0.61895650502E+01 -0.20753307482E+03 -0.65912927730E+02  0.25115294524E+03  0.12500000000E+03 0.  0.
</event>
<event>
 5    0  0.5510933E-005  0.5154927E+03  0.7546771E-02  0.1009812E+00
         21   -1    0    0  502  501  0.00000000000E+00  0.00000000000E+00  0.13501741087E+04  0.13501741087E+04  0.00000000000E+00 0.  1.
         21   -1    0    0  501  502 -0.00000000000E+00 -0.00000000000E+00 -0.19681368573E+03  0.19681368573E+03  0.00000000000E+00 0.  1.
         25    1    1    2    0    0 -0.23582271796E+03 -0.25347067593E+03  0.25368922107E+03  0.44703798356E+03  0.12500000000E+03 0.  0.
         25    1    1    2    0    0  0.19044596661E+03  0.48265490531E+02  0.82605947614E+02  0.24707886667E+03  0.12500000000E+03 0.  0.
         25    1    1    2    0    0  0.45376751350E+02  0.20520518540E+03  0.81706525426E+03  0.85287094417E+03  0.12500000000E+03 0.  0.
</event>
<event>
 5    0  0.5510933E-005  0.2968985E+03  0.7546771E-02  0.1086801E+00
         21   -1    0    0  502  501  0.00000000000E+00  0.00000000000E+00  0.59579014575E+03  0.59579014575E+03  0.00000000000E+00 0. -1.
         21   -1    0    0  501  502 -0.00000000000E+00 -0.00000000000E+00 -0.14795267607E+03  0.14795267607E+03  0.00000000000E+00 0. -1.
         25    1    1    2    0    0 -0.12385187360E+03 -0.71894683767E+02  0.19419259098E+03  0.27174233115E+03  0.12500000000E+03 0.  0.
         25    1    1    2    0    0  0.17477000663E+03 -0.38338715357E+02  0.17958765407E+03  0.28265020398E+03  0.12500000000E+03 0.  0.
         25    1    1    2    0    0 -0.50918133030E+02  0.11023339912E+03  0.74057224633E+02  0.18935028670E+03  0.12500000000E+03 0.  0.
</event>
<event>
 5    0  0.5510933E-005  0.4054225E+03  0.7546771E-02  0.1041918E+00
         21   -1    0    0  502  501  0.00000000000E+00  0.00000000000E+00  0.12213093179E+04  0.12213093179E+04  0.00000000000E+00 0. -1.
         21   -1    0    0  501  502 -0.00000000000E+00 -0.00000000000E+00 -0.13458291601E+03  0.13458291601E+03  0.00000000000E+00 0. -1.
         25    1    1    2    0    0  0.19924952604E+03 -0.20292807918E+03  0.16318274018E+03  0.35090423999E+03  0.12500000000E+03 0.  0.
         25    1    1    2    0    0 -0.14016075792E+03  0.59584308268E+02  0.47222246773E+03  0.51167801094E+03  0.12500000000E+03 0.  0.
         25    1    1    2    0    0 -0.59088768119E+02  0.14334377091E+03  0.45132119396E+03  0.49330998297E+03  0.12500000000E+03 0.  0.
</event>
<event>
 5    0  0.5510933E-005  0.2605675E+03  0.7546771E-02  0.1106803E+00
         21   -1    0    0  502  501  0.00000000000E+00  0.00000000000E+00  0.20893554421E+03  0.20893554421E+03  0.00000000000E+00 0. -1.
         21   -1    0    0  501  502 -0.00000000000E+00 -0.00000000000E+00 -0.32495861666E+03  0.32495861666E+03  0.00000000000E+00 0. -1.
         25    1    1    2    0    0  0.58827353400E+02 -0.61058938495E+02 -0.10539110942E+03  0.18417691881E+03  0.12500000000E+03 0.  0.
         25    1    1    2    0    0  0.17166005422E+00  0.54018061005E+02  0.10292179648E+03  0.17069234480E+03  0.12500000000E+03 0.  0.
         25    1    1    2    0    0 -0.58999013454E+02  0.70408774904E+01 -0.11355375950E+03  0.17902489726E+03  0.12500000000E+03 0.  0.
</event>
<event>
 5    0  0.5510933E-005  0.3885840E+03  0.7546771E-02  0.1047806E+00
         21   -1    0    0  502  501  0.00000000000E+00  0.00000000000E+00  0.25738846678E+03  0.25738846678E+03  0.00000000000E+00 0. -1.
         21   -1    0    0  501  502 -0.00000000000E+00 -0.00000000000E+00 -0.58665234062E+03  0.58665234062E+03  0.00000000000E+00 0. -1.
         25    1    1    2    0    0 -0.13808882575E+03  0.20429722752E+03 -0.37230061131E+03  0.46372257456E+03  0.12500000000E+03 0.  0.
         25    1    1    2    0    0  0.13804721850E+03 -0.84365764486E+02  0.29398955990E+02  0.20655245185E+03  0.12500000000E+03 0.  0.
         25    1    1    2    0    0  0.41607246040E-01 -0.11993146304E+03  0.13637781489E+02  0.17376578098E+03  0.12500000000E+03 0.  0.
</event>
<event>
 5    0  0.5510933E-005  0.3398465E+03  0.7546771E-02  0.1066861E+00
         21   -1    0    0  502  501  0.00000000000E+00  0.00000000000E+00  0.67734204121E+03  0.67734204121E+03  0.00000000000E+00 0. -1.
         21   -1    0    0  501  502 -0.00000000000E+00 -0.00000000000E+00 -0.17051299551E+03  0.17051299551E+03  0.00000000000E+00 0. -1.
         25    1    1    2    0    0 -0.13476791995E+03  0.96238330609E+02  0.71862474317E+02  0.21957555361E+03  0.12500000000E+03 0.  0.
         25    1    1    2    0    0 -0.63256345148E+02 -0.11009332737E+03  0.32177557466E+03  0.36781303183E+03  0.12500000000E+03 0.  0.
         25    1    1    2    0    0  0.19802426510E+03  0.13854996760E+02  0.11319099672E+03  0.26046645128E+03  0.12500000000E+03 0.  0.
</event>
<event>
 5    0  0.5510933E-005  0.3222920E+03  0.7546771E-02  0.1074599E+00
         21   -1    0    0  502  501  0.00000000000E+00  0.00000000000E+00  0.21133327502E+03  0.21133327502E+03  0.00000000000E+00 0. -1.
         21   -1    0    0  501  502 -0.00000000000E+00 -0.00000000000E+00 -0.49150877583E+03  0.49150877583E+03  0.00000000000E+00 0. -1.
         25    1    1    2    0    0  0.56382429107E+02  0.80305729991E+02  0.74682168967E+02  0.17558591898E+03  0.12500000000E+03 0.  0.
         25    1    1    2    0    0 -0.11078572086E+03 -0.16230672744E+02 -0.33583172407E+03  0.37542623453E+03  0.12500000000E+03 0.  0.
         25    1    1    2    0    0  0.54403291755E+02 -0.64075057247E+02 -0.19025945710E+02  0.15182989734E+03  0.12500000000E+03 0.  0.
</event>
<event>
 5    0  0.5510933E-005  0.2667716E+03  0.7546771E-02  0.1103142E+00
         21   -1    0    0  502  501  0.00000000000E+00  0.00000000000E+00  0.14444214709E+03  0.14444214709E+03  0.00000000000E+00 0.  1.
         21   -1    0    0  501  502 -0.00000000000E+00 -0.00000000000E+00 -0.49270316004E+03  0.49270316004E+03  0.00000000000E+00 0.  1.
         25    1    1    2    0    0 -0.10667907889E+03 -0.37015109728E+02 -0.49793322539E+02  0.17565568363E+03  0.12500000000E+03 0.  0.
         25    1    1    2    0    0  0.11717267442E+02  0.83458439206E+02 -0.40739617301E+02  0.15616440647E+03  0.12500000000E+03 0.  0.
         25    1    1    2    0    0  0.94961811449E+02 -0.46443329478E+02 -0.25772807310E+03  0.30532521703E+03  0.12500000000E+03 0.  0.
</event>
<event>
 5    0  0.5510933E-005  0.2393253E+03  0.7546771E-02  0.1120243E+00
         21   -1    0    0  502  501  0.00000000000E+00  0.00000000000E+00  0.15884067210E+03  0.15884067210E+03  0.00000000000E+00 0. -1.
         21   -1    0    0  501  502 -0.00000000000E+00 -0.00000000000E+00 -0.36059147235E+03  0.36059147235E+03  0.00000000000E+00 0. -1.
         25    1    1    2    0    0 -0.52211654087E+02 -0.13296105947E+02 -0.85433957032E+02  0.16070720043E+03  0.12500000000E+03 0.  0.
         25    1    1    2    0    0 -0.76700191943E+02  0.16450153959E+02 -0.10027156934E+03  0.17841780916E+03  0.12500000000E+03 0.  0.
         25    1    1    2    0    0  0.12891184603E+03 -0.31540480128E+01 -0.16045273872E+02  0.18030713485E+03  0.12500000000E+03 0.  0.
</event>
<event>
 5    0  0.5510933E-005  0.3378965E+03  0.7546771E-02  0.1067695E+00
         21   -1    0    0  502  501  0.00000000000E+00  0.00000000000E+00  0.82291011841E+03  0.82291011841E+03  0.00000000000E+00 0. -1.
         21   -1    0    0  501  502 -0.00000000000E+00 -0.00000000000E+00 -0.13874427778E+03  0.13874427778E+03  0.00000000000E+00 0. -1.
         25    1    1    2    0    0  0.10858760737E+03  0.12605762172E+03  0.88381228240E+02  0.22609297639E+03  0.12500000000E+03 0.  0.
         25    1    1    2    0    0 -0.31898095001E+02 -0.20433224358E+01  0.50847763655E+03  0.52459143197E+03  0.12500000000E+03 0.  0.
         25    1    1    2    0    0 -0.76689512370E+02 -0.12401429928E+03  0.87306975847E+02  0.21096998783E+03  0.12500000000E+03 0.  0.
</event>
<event>
 5    0  0.5510933E-005  0.2937097E+03  0.7546771E-02  0.1088428E+00
         21   -1    0    0  502  501  0.00000000000E+00  0.00000000000E+00  0.42264533533E+02  0.42264533533E+02  0.00000000000E+00 0.  1.
         21   -1    0    0  501  502 -0.00000000000E+00 -0.00000000000E+00 -0.20410822657E+04  0.20410822657E+04  0.00000000000E+00 0.  1.
         25    1    1    2    0    0 -0.49935925472E+02 -0.53460999740E+02 -0.89325078814E+03  0.90491637495E+03  0.12500000000E+03 0.  0.
         25    1    1    2    0    0 -0.26266957491E+02 -0.12110367994E+03 -0.56599211090E+03  0.59272938509E+03  0.12500000000E+03 0.  0.
         25    1    1    2    0    0  0.76202882963E+02  0.17456467968E+03 -0.53957483316E+03  0.58570103922E+03  0.12500000000E+03 0.  0.
</event>
<event>
 5    0  0.5510933E-005  0.5873927E+03  0.7546771E-02  0.9931913E-01
         21   -1    0    0  502  501  0.00000000000E+00  0.00000000000E+00  0.81333440421E+03  0.81333440421E+03  0.00000000000E+00 0. -1.
         21   -1    0    0  501  502 -0.00000000000E+00 -0.00000000000E+00 -0.42421686682E+03  0.42421686682E+03  0.00000000000E+00 0. -1.
         25    1    1    2    0    0  0.67908873630E+02  0.86948423892E+02 -0.80768794177E+02  0.18525723103E+03  0.12500000000E+03 0.  0.
         25    1    1    2    0    0  0.30839911441E+03  0.24646701349E+03  0.13561976576E+03  0.43574502105E+03  0.12500000000E+03 0.  0.
         25    1    1    2    0    0 -0.37630798804E+03 -0.33341543738E+03  0.33426656581E+03  0.61654901895E+03  0.12500000000E+03 0.  0.
</event>
<event>
 5    0  0.5510933E-005  0.2588213E+03  0.7546771E-02  0.1107854E+00
         21   -1    0    0  502  501  0.00000000000E+00  0.00000000000E+00  0.49574815867E+03  0.49574815867E+03  0.00000000000E+00 0. -1.
         21   -1    0    0  501  502 -0.00000000000E+00 -0.00000000000E+00 -0.13512596954E+03  0.13512596954E+03  0.00000000000E+00 0. -1.
         25    1    1    2    0    0  0.11707100827E+03 -0.25725564313E+02  0.24327423400E+03  0.29862146367E+03  0.12500000000E+03 0.  0.
         25    1    1    2    0    0 -0.10010427999E+03  0.36442064919E+02  0.71227453870E+01  0.16439168005E+03  0.12500000000E+03 0.  0.
         25    1    1    2    0    0 -0.16966728284E+02 -0.10716500606E+02  0.11022520973E+03  0.16786098449E+03  0.12500000000E+03 0.  0.
</event>
<event>
 5    0  0.5510933E-005  0.3134237E+03  0.7546771E-02  0.1078716E+00
         21   -1    0    0  502  501  0.00000000000E+00  0.00000000000E+00  0.30394708739E+03  0.30394708739E+03  0.00000000000E+00 0.  1.
         21   -1    0    0  501  502 -0.00000000000E+00 -0.00000000000E+00 -0.32319582474E+03  0.32319582474E+03  0.00000000000E+00 0.  1.
         25    1    1    2    0    0  0.88711943338E+02  0.66349996238E+02  0.56712523421E+00  0.16702530504E+03  0.12500000000E+03 0.  0.
         25    1    1    2    0    0 -0.10635000173E+03 -0.16528909743E+03 -0.12883444348E+03  0.26618437675E+03  0.12500000000E+03 0.  0.
         25    1    1    2    0    0  0.17638058390E+02  0.98939101193E+02  0.10901858091E+03  0.19393323034E+03  0.12500000000E+03 0.  0.
</event>
<event>
 5    0  0.5510933E-005  0.3405245E+03  0.7546771E-02  0.1066573E+00
         21   -1    0    0  502  501  0.00000000000E+00  0.00000000000E+00  0.96482288666E+02  0.96482288666E+02  0.00000000000E+00 0.  1.
         21   -1    0    0  501  502 -0.00000000000E+00 -0.00000000000E+00 -0.12018467924E+04  0.12018467924E+04  0.00000000000E+00 0.  1.
         25    1    1    2    0    0 -0.14622108293E+02  0.86423368787E+02 -0.22619953367E+02  0.15433556626E+03  0.12500000000E+03 0.  0.
         25    1    1    2    0    0  0.16643009345E+02 -0.71711605358E+02 -0.95016106161E+03  0.96117146603E+03  0.12500000000E+03 0.  0.
         25    1    1    2    0    0 -0.20209010518E+01 -0.14711763429E+02 -0.13258348872E+03  0.18282204874E+03  0.12500000000E+03 0.  0.
</event>
<event>
 5    0  0.5510933E-005  0.2797041E+03  0.7546771E-02  0.1095851E+00
         21   -1    0    0  502  501  0.00000000000E+00  0.00000000000E+00  0.13303584250E+03  0.13303584250E+03  0.00000000000E+00 0.  1.
         21   -1    0    0  501  502 -0.00000000000E+00 -0.00000000000E+00 -0.58807012598E+03  0.58807012598E+03  0.00000000000E+00 0.  1.
         25    1    1    2    0    0  0.96981947476E+00 -0.79931493247E+02 -0.10666530304E+03  0.18273606933E+03  0.12500000000E+03 0.  0.
         25    1    1    2    0    0 -0.96815401674E+02 -0.70479794131E+02 -0.23774838385E+03  0.29409168197E+03  0.12500000000E+03 0.  0.
         25    1    1    2    0    0  0.95845582200E+02  0.15041128738E+03 -0.11062059659E+03  0.24427821718E+03  0.12500000000E+03 0.  0.
</event>
<event>
 5    0  0.5510933E-005  0.2543219E+03  0.7546771E-02  0.1110604E+00
         21   -1    0    0  502  501  0.00000000000E+00  0.00000000000E+00  0.70104813487E+03  0.70104813487E+03  0.00000000000E+00 0.  1.
         21   -1    0    0  501  502 -0.00000000000E+00 -0.00000000000E+00 -0.92261346124E+02  0.92261346124E+02  0.00000000000E+00 0.  1.
         25    1    1    2    0    0 -0.70728815856E+02  0.91537776401E+02  0.30264038983E+03  0.34727213458E+03  0.12500000000E+03 0.  0.
         25    1    1    2    0    0 -0.36523111751E+02 -0.86653081592E+02  0.11801617156E+03  0.19594772515E+03  0.12500000000E+03 0.  0.
         25    1    1    2    0    0  0.10725192761E+03 -0.48846948093E+01  0.18813022737E+03  0.25008962127E+03  0.12500000000E+03 0.  0.
</event>
<event>
 5    0  0.5510933E-005  0.2030703E+03  0.7546771E-02  0.1147174E+00
         21   -1    0    0  502  501  0.00000000000E+00  0.00000000000E+00  0.10576589460E+03  0.10576589460E+03  0.00000000000E+00 0. -1.
         21   -1    0    0  501  502 -0.00000000000E+00 -0.00000000000E+00 -0.38989456811E+03  0.38989456811E+03  0.00000000000E+00 0. -1.
         25    1    1    2    0    0 -0.16251289273E+02  0.21201879221E+02 -0.44796506808E+02  0.13544501138E+03  0.12500000000E+03 0.  0.
         25    1    1    2    0    0  0.78301939632E+01  0.37250028935E+02 -0.10784287827E+03  0.16942243944E+03  0.12500000000E+03 0.  0.
         25    1    1    2    0    0  0.84210953098E+01 -0.58451908156E+02 -0.13148928843E+03  0.19079301189E+03  0.12500000000E+03 0.  0.
</event>
<event>
 5    0  0.5510933E-005  0.2484557E+03  0.7546771E-02  0.1114285E+00
         21   -1    0    0  502  501  0.00000000000E+00  0.00000000000E+00  0.11460926630E+03  0.11460926630E+03  0.00000000000E+00 0.  1.
         21   -1    0    0  501  502 -0.00000000000E+00 -0.00000000000E+00 -0.53861471704E+03  0.53861471704E+03  0.00000000000E+00 0.  1.
         25    1    1    2    0    0  0.10773555914E+03 -0.11081288174E+02 -0.44427171313E+02  0.17125571290E+03  0.12500000000E+03 0.  0.
         25    1    1    2    0    0 -0.11019878826E+03  0.13845199626E+02 -0.17385471853E+03  0.24121758982E+03  0.12500000000E+03 0.  0.
         25    1    1    2    0    0  0.24632291166E+01 -0.27639114520E+01 -0.20572356090E+03  0.24075068061E+03  0.12500000000E+03 0.  0.
</event>
<event>
 5    0  0.5510933E-005  0.2578154E+03  0.7546771E-02  0.1108463E+00
         21   -1    0    0  502  501  0.00000000000E+00  0.00000000000E+00  0.19241698914E+03  0.19241698914E+03  0.00000000000E+00 0.  1.
         21   -1    0    0  501  502 -0.00000000000E+00 -0.00000000000E+00 -0.34544136628E+03  0.34544136628E+03  0.00000000000E+00 0.  1.
         25    1    1    2    0    0 -0.51465431868E+02 -0.13295982772E+03  0.28559867295E+02  0.19174898301E+03  0.12500000000E+03 0.  0.
         25    1    1    2    0    0  0.21651919318E+02  0.70528831619E+02 -0.12799038753E+03  0.19351914892E+03  0.12500000000E+03 0.  0.
         25    1    1    2    0    0  0.29813512550E+02  0.62430996104E+02 -0.53593856905E+02  0.15259022348E+03  0.12500000000E+03 0.  0.
</event>
<event>
 5    0  0.5510933E-005  0.2992551E+03  0.7546771E-02  0.1085614E+00
         21   -1    0    0  502  501  0.00000000000E+00  0.00000000000E+00  0.18421550600E+03  0.18421550600E+03  0.00000000000E+00 0.  1.
         21   -1    0    0  501  502 -0.00000000000E+00 -0.00000000000E+00 -0.48613504051E+03  0.48613504051E+03  0.00000000000E+00 0.  1.
         25    1    1    2    0    0  0.12562487570E+03  0.91144547270E+02 -0.50863145013E+02  0.20567206279E+03  0.12500000000E+03 0.  0.
         25    1    1    2    0    0 -0.95181563503E+02 -0.25387499799E+02 -0.27547610999E+03  0.31814484493E+03  0.12500000000E+03 0.  0.
         25    1    1    2    0    0 -0.30443312196E+02 -0.65757047471E+02  0.24419720494E+02  0.14653363880E+03  0.12500000000E+03 0.  0.
</event>
<event>
 5    0  0.5510933E-005  0.4278218E+03  0.7546771E-02  0.1034550E+00
         21   -1    0    0  502  501  0.00000000000E+00  0.00000000000E+00  0.13132753236E+04  0.13132753236E+04  0.00000000000E+00 0. -1.
         21   -1    0    0  501  502 -0.00000000000E+00 -0.00000000000E+00 -0.13937021268E+03  0.13937021268E+03  0.00000000000E+00 0. -1.
         25    1    1    2    0    0 -0.61170542859E+02  0.28690080393E+03  0.27995169159E+03  0.42432517747E+03  0.12500000000E+03 0.  0.
         25    1    1    2    0    0  0.15662606731E+03 -0.28245765476E+03  0.67547404301E+03  0.75908117778E+03  0.12500000000E+03 0.  0.
         25    1    1    2    0    0 -0.95455524447E+02 -0.44431491759E+01  0.21847937636E+03  0.26923918106E+03  0.12500000000E+03 0.  0.
</event>
<event>
 5    0  0.5510933E-005  0.2957808E+03  0.7546771E-02  0.1087369E+00
         21   -1    0    0  502  501  0.00000000000E+00  0.00000000000E+00  0.66109332150E+02  0.66109332150E+02  0.00000000000E+00 0.  1.
         21   -1    0    0  501  502 -0.00000000000E+00 -0.00000000000E+00 -0.13233577271E+04  0.13233577271E+04  0.00000000000E+00 0.  1.
         25    1    1    2    0    0 -0.83085149740E+02  0.32802539446E+02 -0.31237243898E+03  0.34811016838E+03  0.12500000000E+03 0.  0.
         25    1    1    2    0    0  0.20899143814E+03 -0.31674513360E+02 -0.41105128566E+03  0.47882027469E+03  0.12500000000E+03 0.  0.
         25    1    1    2    0    0 -0.12590628840E+03 -0.11280260861E+01 -0.53382467035E+03  0.56253661621E+03  0.12500000000E+03 0.  0.
</event>
<event>
 5    0  0.5510933E-005  0.3327916E+03  0.7546771E-02  0.1069908E+00
         21   -1    0    0  502  501  0.00000000000E+00  0.00000000000E+00  0.16789034336E+03  0.16789034336E+03  0.00000000000E+00 0. -1.
         21   -1    0    0  501  502 -0.00000000000E+00 -0.00000000000E+00 -0.65965842800E+03  0.65965842800E+03  0.00000000000E+00 0. -1.
         25    1    1    2    0    0 -0.19253710070E+03 -0.14305203848E+03 -0.10003010387E+03  0.28838419259E+03  0.12500000000E+03 0.  0.
         25    1    1    2    0    0  0.26230652673E+02  0.80553206038E+02 -0.19009596150E+03  0.24277219924E+03  0.12500000000E+03 0.  0.
         25    1    1    2    0    0  0.16630644803E+03  0.62498832437E+02 -0.20164201927E+03  0.29639237953E+03  0.12500000000E+03 0.  0.
</event>
<event>
 5    0  0.5510933E-005  0.2653619E+03  0.7546771E-02  0.1103964E+00
         21   -1    0    0  502  501  0.00000000000E+00  0.00000000000E+00  0.16397383537E+04  0.16397383537E+04  0.00000000000E+00 0.  1.
         21   -1    0    0  501  502 -0.00000000000E+00 -0.00000000000E+00 -0.42944018604E+02  0.42944018604E+02  0.00000000000E+00 0.  1.
         25    1    1    2    0    0  0.25886852074E+02 -0.12374673216E+03  0.47610910615E+03  0.50822068414E+03  0.12500000000E+03 0.  0.
         25    1    1    2    0    0 -0.11747089649E+03  0.57221800805E+02  0.63990690007E+03  0.66496585383E+03  0.12500000000E+03 0.  0.
         25    1    1    2    0    0  0.91584044411E+02  0.66524931352E+02  0.48077832888E+03  0.50949583434E+03  0.12500000000E+03 0.  0.
</event>
<event>
 5    0  0.5510933E-005  0.2445887E+03  0.7546771E-02  0.1116773E+00
         21   -1    0    0  502  501  0.00000000000E+00  0.00000000000E+00  0.34638293568E+03  0.34638293568E+03  0.00000000000E+00 0.  1.
         21   -1    0    0  501  502 -0.00000000000E+00 -0.00000000000E+00 -0.17270955785E+03  0.17270955785E+03  0.00000000000E+00 0.  1.
         25    1    1    2    0    0  0.90024945895E+02 -0.47620167883E+01 -0.42528650172E+02  0.15987762124E+03  0.12500000000E+03 0.  0.
         25    1    1    2    0    0 -0.12403417422E+02 -0.14203181450E+02  0.15163201346E+03  0.19741540627E+03  0.12500000000E+03 0.  0.
         25    1    1    2    0    0 -0.77621528473E+02  0.18965198238E+02  0.64570014543E+02  0.16179946602E+03  0.12500000000E+03 0.  0.
</event>
<event>
 5    0  0.5510933E-005  0.3104236E+03  0.7546771E-02  0.1080143E+00
         21   -1    0    0  502  501  0.00000000000E+00  0.00000000000E+00  0.75075971851E+02  0.75075971851E+02  0.00000000000E+00 0.  1.
         21   -1    0    0  501  502 -0.00000000000E+00 -0.00000000000E+00 -0.12835371551E+04  0.12835371551E+04  0.00000000000E+00 0.  1.
         25    1    1    2    0    0 -0.35908963350E+02 -0.11533486019E+02 -0.48805501676E+03  0.50521794736E+03  0.12500000000E+03 0.  0.
         25    1    1    2    0    0  0.18729618037E+03 -0.82079789484E+02 -0.39358755303E+03  0.46081787392E+03  0.12500000000E+03 0.  0.
         25    1    1    2    0    0 -0.15138721702E+03  0.93613275503E+02 -0.32681861346E+03  0.39257730568E+03  0.12500000000E+03 0.  0.
</event>
<event>
 5    0  0.5510933E-005  0.2535980E+03  0.7546771E-02  0.1111052E+00
         21   -1    0    0  502  501  0.00000000000E+00  0.00000000000E+00  0.10052731472E+04  0.10052731472E+04  0.00000000000E+00 0. -1.
         21   -1    0    0  501  502 -0.00000000000E+00 -0.00000000000E+00 -0.63974608882E+02  0.63974608882E+02  0.00000000000E+00 0. -1.
         25    1    1    2    0    0 -0.56685024375E+01  0.50053133595E+02  0.20107737974E+03  0.24206313380E+03  0.12500000000E+03 0.  0.
         25    1    1    2    0    0 -0.63938857286E+02  0.49226070557E+02  0.54787059479E+03  0.56771345953E+03  0.12500000000E+03 0.  0.
         25    1    1    2    0    0  0.69607359723E+02 -0.99279204152E+02  0.19235056374E+03  0.25947116270E+03  0.12500000000E+03 0.  0.
</event>
<event>
 5    0  0.5510933E-005  0.5099384E+03  0.7546771E-02  0.1011217E+00
         21   -1    0    0  502  501  0.00000000000E+00  0.00000000000E+00  0.64935988472E+03  0.64935988472E+03  0.00000000000E+00 0.  1.
         21   -1    0    0  501  502 -0.00000000000E+00 -0.00000000000E+00 -0.40045153015E+03  0.40045153015E+03  0.00000000000E+00 0. -1.
         25    1    1    2    0    0  0.11747411184E+03  0.41280293145E+03  0.15295756884E+03  0.47246951757E+03  0.12500000000E+03 0.  0.
         25    1    1    2    0    0 -0.87538332612E+02 -0.22352409161E+02 -0.40673673293E+01  0.15428588188E+03  0.12500000000E+03 0.  0.
         25    1    1    2    0    0 -0.29935779226E+02 -0.39045052229E+03  0.10001815306E+03  0.42305601541E+03  0.12500000000E+03 0.  0.
</event>
<event>
 5    0  0.5510933E-005  0.2735918E+03  0.7546771E-02  0.1099241E+00
         21   -1    0    0  502  501  0.00000000000E+00  0.00000000000E+00  0.17610955916E+03  0.17610955916E+03  0.00000000000E+00 0.  1.
         21   -1    0    0  501  502 -0.00000000000E+00 -0.00000000000E+00 -0.42503345992E+03  0.42503345992E+03  0.00000000000E+00 0.  1.
         25    1    1    2    0    0 -0.26057123664E+02  0.14239046996E+03 -0.13444974413E+03  0.23378569958E+03  0.12500000000E+03 0.  0.
         25    1    1    2    0    0  0.35462564342E+02 -0.58814395697E+02 -0.15570898995E+03  0.21115637846E+03  0.12500000000E+03 0.  0.
         25    1    1    2    0    0 -0.94054406781E+01 -0.83576074266E+02  0.41234833322E+02  0.15620094104E+03  0.12500000000E+03 0.  0.
</event>
<event>
 5    0  0.6451798E-005  0.2905006E+03  0.7546771E-02  0.1090088E+00
         21   -1    0    0  502  501  0.00000000000E+00  0.00000000000E+00  0.15348502654E+04  0.15348502654E+04  0.00000000000E+00 0.  1.
         21   -1    0    0  501  502 -0.00000000000E+00 -0.00000000000E+00 -0.54982970883E+02  0.54982970883E+02  0.00000000000E+00 0.  1.
         25    1    1    2    0    0 -0.34389317586E+02  0.87860366842E+02  0.70487832106E+03  0.72206683674E+03  0.12500000000E+03 0.  0.
         25    1    1    2    0    0  0.67994585530E+02 -0.17748479530E+03  0.38480759920E+03  0.44701902043E+03  0.12500000000E+03 0.  0.
         25    1    1    2    0    0 -0.33605267944E+02  0.89624428460E+02  0.39018137428E+03  0.42074737913E+03  0.12500000000E+03 0.  0.
</event>
<event>
 5    0  0.5510933E-005  0.2622633E+03  0.7546771E-02  0.1105791E+00
         21   -1    0    0  502  501  0.00000000000E+00  0.00000000000E+00  0.15878833056E+03  0.15878833056E+03  0.00000000000E+00 0. -1.
         21   -1    0    0  501  502 -0.00000000000E+00 -0.00000000000E+00 -0.43316798440E+03  0.43316798440E+03  0.00000000000E+00 0. -1.
         25    1    1    2    0    0 -0.49999509663E+02 -0.87280568016E+02 -0.11613949612E+03  0.19806875342E+03  0.12500000000E+03 0.  0.
         25    1    1    2    0    0 -0.44562794209E+02  0.14223114145E+03 -0.81080058305E+02  0.21074751738E+03  0.12500000000E+03 0.  0.
         25    1    1    2    0    0  0.94562303873E+02 -0.54950573433E+02 -0.77160099411E+02  0.18314004416E+03  0.12500000000E+03 0.  0.
</event>
<event>
 5    0  0.5510933E-005  0.3512404E+03  0.7546771E-02  0.1062107E+00
         21   -1    0    0  502  501  0.00000000000E+00  0.00000000000E+00  0.98951456311E+02  0.98951456311E+02  0.00000000000E+00 0.  1.
         21   -1    0    0  501  502 -0.00000000000E+00 -0.00000000000E+00 -0.12467710794E+04  0.12467710794E+04  0.00000000000E+00 0.  1.
         25    1    1    2    0    0  0.42075565813E+02  0.24634229123E+02 -0.17920392607E+03  0.22386657991E+03  0.12500000000E+03 0.  0.
         25    1    1    2    0    0 -0.22907592779E+03 -0.28869168349E+02 -0.22769412424E+03  0.34753247876E+03  0.12500000000E+03 0.  0.
         25    1    1    2    0    0  0.18700036198E+03  0.42349392261E+01 -0.74092157275E+03  0.77432347702E+03  0.12500000000E+03 0.  0.
</event>
<event>
 5    0  0.5510933E-005  0.2244323E+03  0.7546771E-02  0.1130621E+00
         21   -1    0    0  502  501  0.00000000000E+00  0.00000000000E+00  0.46427203471E+03  0.46427203471E+03  0.00000000000E+00 0.  1.
         21   -1    0    0  501  502 -0.00000000000E+00 -0.00000000000E+00 -0.10849212481E+03  0.10849212481E+03  0.00000000000E+00 0.  1.
         25    1    1    2    0    0  0.99549712267E+02  0.22492481643E+02  0.11612562692E+03  0.19881201717E+03  0.12500000000E+03 0.  0.
         25    1    1    2    0    0 -0.93576979213E+02 -0.37258732368E+02  0.14541783556E+03  0.21660150294E+03  0.12500000000E+03 0.  0.
         25    1    1    2    0    0 -0.59727330543E+01  0.14766250725E+02  0.94236447408E+02  0.15735063940E+03  0.12500000000E+03 0.  0.
</event>
<event>
 5    0  0.5510933E-005  0.4782557E+03  0.7546771E-02  0.1019616E+00
         21   -1    0    0  502  501  0.00000000000E+00  0.00000000000E+00  0.31834957513E+03  0.31834957513E+03  0.00000000000E+00 0. -1.
         21   -1    0    0  501  502 -0.00000000000E+00 -0.00000000000E+00 -0.71848234071E+03  0.71848234071E+03  0.00000000000E+00 0. -1.
         25    1    1    2    0    0  0.34310506018E+03 -0.22682063664E+03 -0.15115108065E+03  0.45567568809E+03  0.12500000000E+03 0.  0.
         25    1    1    2    0    0 -0.19079389276E+03  0.12505525940E+03 -0.24797989377E+03  0.35938858514E+03  0.12500000000E+03 0.  0.
         25    1    1    2    0    0 -0.15231116742E+03  0.10176537724E+03 -0.10017911584E+01  0.22176764261E+03  0.12500000000E+03 0.  0.
</event>
<event>
 5    0  0.5510933E-005  0.2766481E+03  0.7546771E-02  0.1097534E+00
         21   -1    0    0  502  501  0.00000000000E+00  0.00000000000E+00  0.68874035617E+03  0.68874035617E+03  0.00000000000E+00 0.  1.
         21   -1    0    0  501  502 -0.00000000000E+00 -0.00000000000E+00 -0.11112198286E+03  0.11112198286E+03  0.00000000000E+00 0.  1.
         25    1    1    2    0    0  0.63697217036E+02  0.16109085652E+02  0.61982395244E+02  0.15421950402E+03  0.12500000000E+03 0.  0.
         25    1    1    2    0    0  0.78701430220E+02 -0.81972292507E+02  0.13839938644E+03  0.21838672584E+03  0.12500000000E+03 0.  0.
         25    1    1    2    0    0 -0.14239864726E+03  0.65863206855E+02  0.37723659162E+03  0.42725610916E+03  0.12500000000E+03 0.  0.
</event>
<event>
 5    0  0.5510933E-005  0.3984100E+03  0.7546771E-02  0.1044332E+00
         21   -1    0    0  502  501  0.00000000000E+00  0.00000000000E+00  0.15630341507E+04  0.15630341507E+04  0.00000000000E+00 0. -1.
         21   -1    0    0  501  502 -0.00000000000E+00 -0.00000000000E+00 -0.10155281944E+03  0.10155281944E+03  0.00000000000E+00 0. -1.
         25    1    1    2    0    0  0.14904649583E+03 -0.24696435963E+02  0.13439390790E+03  0.23772146380E+03  0.12500000000E+03 0.  0.
         25    1    1    2    0    0  0.90881317785E+02  0.15910938815E+03  0.58580633495E+03  0.62639386443E+03  0.12500000000E+03 0.  0.
         25    1    1    2    0    0 -0.23992781362E+03 -0.13441295219E+03  0.74128108840E+03  0.80047164190E+03  0.12500000000E+03 0.  0.
</event>
<event>
 5    0  0.5510933E-005  0.2540516E+03  0.7546771E-02  0.1110771E+00
         21   -1    0    0  502  501  0.00000000000E+00  0.00000000000E+00  0.26995403711E+02  0.26995403711E+02  0.00000000000E+00 0. -1.
         21   -1    0    0  501  502 -0.00000000000E+00 -0.00000000000E+00 -0.23908597681E+04  0.23908597681E+04  0.00000000000E+00 0. -1.
         25    1    1    2    0    0  0.23523177049E+02  0.46570544876E+02 -0.43930439352E+03  0.45971241628E+03  0.12500000000E+03 0.  0.
         25    1    1    2    0    0 -0.78623389954E+02  0.59957050160E+02 -0.54739333448E+03  0.57012362515E+03  0.12500000000E+03 0.  0.
         25    1    1    2    0    0  0.55100212905E+02 -0.10652759504E+03 -0.13771666363E+04  0.13880191304E+04  0.12500000000E+03 0.  0.
</event>
<event>
 5    0  0.5510933E-005  0.3607563E+03  0.7546771E-02  0.1058285E+00
         21   -1    0    0  502  501  0.00000000000E+00  0.00000000000E+00  0.27266662533E+03  0.27266662533E+03  0.00000000000E+00 0. -1.
         21   -1    0    0  501  502 -0.00000000000E+00 -0.00000000000E+00 -0.47730478773E+03  0.47730478773E+03  0.00000000000E+00 0. -1.
         25    1    1    2    0    0  0.55020595024E+01 -0.19790121726E+03 -0.27163554781E+03  0.35861683631E+03  0.12500000000E+03 0.  0.
         25    1    1    2    0    0  0.10095624193E+03  0.13080679658E+03  0.50247649177E+02  0.21319570132E+03  0.12500000000E+03 0.  0.
         25    1    1    2    0    0 -0.10645830143E+03  0.67094420679E+02  0.16749736231E+02  0.17815887543E+03  0.12500000000E+03 0.  0.
</event>
<event>
 5    0  0.5510933E-005  0.2559319E+03  0.7546771E-02  0.1109612E+00
         21   -1    0    0  502  501  0.00000000000E+00  0.00000000000E+00  0.16719443972E+03  0.16719443972E+03  0.00000000000E+00 0.  1.
         21   -1    0    0  501  502 -0.00000000000E+00 -0.00000000000E+00 -0.39176623203E+03  0.39176623203E+03  0.00000000000E+00 0.  1.
         25    1    1    2    0    0 -0.12330353821E+03  0.66112407105E+02 -0.31810679619E+02  0.19029327956E+03  0.12500000000E+03 0.  0.
         25    1    1    2    0    0  0.13098643808E+03 -0.44320517355E+02 -0.10213375706E+03  0.21255131039E+03  0.12500000000E+03 0.  0.
         25    1    1    2    0    0 -0.76828998671E+01 -0.21791889750E+02 -0.90627355626E+02  0.15611608180E+03  0.12500000000E+03 0.  0.
</event>
<event>
 5    0  0.5510933E-005  0.2678643E+03  0.7546771E-02  0.1102508E+00
         21   -1    0    0  502  501  0.00000000000E+00  0.00000000000E+00  0.52869176147E+02  0.52869176147E+02  0.00000000000E+00 0. -1.
         21   -1    0    0  501  502 -0.00000000000E+00 -0.00000000000E+00 -0.13571476816E+04  0.13571476816E+04  0.00000000000E+00 0. -1.
         25    1    1    2    0    0 -0.12649082647E+03  0.40085387562E+02 -0.32783635365E+03  0.37511123983E+03  0.12500000000E+03 0.  0.
         25    1    1    2    0    0  0.72262222256E+02 -0.11005312436E+03 -0.41556111680E+03  0.45348600943E+03  0.12500000000E+03 0.  0.
         25    1    1    2    0    0  0.54228604210E+02  0.69967736797E+02 -0.56088103496E+03  0.58141960844E+03  0.12500000000E+03 0.  0.
</event>
<event>
 5    0  0.5510933E-005  0.5695538E+03  0.7546771E-02  0.9970667E-01
         21   -1    0    0  502  501  0.00000000000E+00  0.00000000000E+00  0.46894340145E+03  0.46894340145E+03  0.00000000000E+00 0. -1.
         21   -1    0    0  501  502 -0.00000000000E+00 -0.00000000000E+00 -0.69174976946E+03  0.69174976946E+03  0.00000000000E+00 0. -1.
         25    1    1    2    0    0  0.76864604770E+02 -0.29119917976E+03 -0.20722511439E+03  0.38635783645E+03  0.12500000000E+03 0.  0.
         25    1    1    2    0    0 -0.22771835104E+03 -0.56799544865E+02 -0.20168829354E+03  0.33374391897E+03  0.12500000000E+03 0.  0.
         25    1    1    2    0    0  0.15085374627E+03  0.34799872462E+03  0.18610703991E+03  0.44059141549E+03  0.12500000000E+03 0.  0.
</event>
<event>
 5    0  0.5510933E-005  0.3856943E+03  0.7546771E-02  0.1048849E+00
         21   -1    0    0  502  501  0.00000000000E+00  0.00000000000E+00  0.10033039620E+04  0.10033039620E+04  0.00000000000E+00 0.  1.
         21   -1    0    0  501  502 -0.00000000000E+00 -0.00000000000E+00 -0.14827019337E+03  0.14827019337E+03  0.00000000000E+00 0.  1.
         25    1    1    2    0    0 -0.12631471259E+03  0.33548262391E+02  0.12816890802E+03  0.22166001333E+03  0.12500000000E+03 0.  0.
         25    1    1    2    0    0 -0.15434322871E+03  0.82470406357E+02  0.13758509813E+03  0.25529954838E+03  0.12500000000E+03 0.  0.
         25    1    1    2    0    0  0.28065794130E+03 -0.11601866875E+03  0.58927976252E+03  0.67461459369E+03  0.12500000000E+03 0.  0.
</event>
<event>
 5    0  0.5510933E-005  0.4090199E+03  0.7546771E-02  0.1040700E+00
         21   -1    0    0  502  501  0.00000000000E+00  0.00000000000E+00  0.66052981264E+03  0.66052981264E+03  0.00000000000E+00 0.  1.
         21   -1    0    0  501  502 -0.00000000000E+00 -0.00000000000E+00 -0.25327735880E+03  0.25327735880E+03  0.00000000000E+00 0.  1.
         25    1    1    2    0    0  0.23174024331E+03 -0.17986267522E+02  0.14329656767E+03  0.30030976090E+03  0.12500000000E+03 0.  0.
         25    1    1    2    0    0  0.91897757685E+02 -0.10298679202E+03  0.81632740563E+02  0.20332334232E+03  0.12500000000E+03 0.  0.
         25    1    1    2    0    0 -0.32363800099E+03  0.12097305954E+03  0.18232314560E+03  0.41017406822E+03  0.12500000000E+03 0.  0.
</event>
<event>
 5    0  0.5510933E-005  0.3225213E+03  0.7546771E-02  0.1074495E+00
         21   -1    0    0  502  501  0.00000000000E+00  0.00000000000E+00  0.41862838963E+03  0.41862838963E+03  0.00000000000E+00 0.  1.
         21   -1    0    0  501  502 -0.00000000000E+00 -0.00000000000E+00 -0.24847814763E+03  0.24847814763E+03  0.00000000000E+00 0.  1.
         25    1    1    2    0    0 -0.13755110666E+03  0.92705385716E+02  0.65160012108E+02  0.21768193003E+03  0.12500000000E+03 0.  0.
         25    1    1    2    0    0 -0.92959476039E+02  0.56860205024E+01  0.22790068048E+02  0.15753787550E+03  0.12500000000E+03 0.  0.
         25    1    1    2    0    0  0.23051058270E+03 -0.98391406219E+02  0.82200161846E+02  0.29188673173E+03  0.12500000000E+03 0.  0.
</event>
<event>
 5    0  0.5510933E-005  0.3110213E+03  0.7546771E-02  0.1079857E+00
         21   -1    0    0  502  501  0.00000000000E+00  0.00000000000E+00  0.38231877142E+03  0.38231877142E+03  0.00000000000E+00 0. -1.
         21   -1    0    0  501  502 -0.00000000000E+00 -0.00000000000E+00 -0.25301993487E+03  0.25301993487E+03  0.00000000000E+00 0. -1.
         25    1    1    2    0    0 -0.31190277983E+02 -0.55387619027E+02 -0.53320405488E+02  0.15002895528E+03  0.12500000000E+03 0.  0.
         25    1    1    2    0    0  0.32997517029E+01 -0.11789784284E+03  0.20633245205E+03  0.26853094882E+03  0.12500000000E+03 0.  0.
         25    1    1    2    0    0  0.27890526281E+02  0.17328546186E+03 -0.23713210006E+02  0.21677880219E+03  0.12500000000E+03 0.  0.
</event>
<event>
 5    0  0.5510933E-005  0.4530733E+03  0.7546771E-02  0.1026810E+00
         21   -1    0    0  502  501  0.00000000000E+00  0.00000000000E+00  0.18554208950E+03  0.18554208950E+03  0.00000000000E+00 0. -1.
         21   -1    0    0  501  502 -0.00000000000E+00 -0.00000000000E+00 -0.11063549425E+04  0.11063549425E+04  0.00000000000E+00 0. -1.
         25    1    1    2    0    0 -0.15284501241E+02 -0.89226722254E+00 -0.44930255983E+03  0.46661783333E+03  0.12500000000E+03 0.  0.
         25    1    1    2    0    0  0.15864170057E+03  0.13419626095E+03 -0.53252482034E+03  0.58513546285E+03  0.12500000000E+03 0.  0.
         25    1    1    2    0    0 -0.14335719933E+03 -0.13330399372E+03  0.61014527139E+02  0.24014373584E+03  0.12500000000E+03 0.  0.
</event>
<event>
 5    0  0.5510933E-005  0.2985230E+03  0.7546771E-02  0.1085981E+00
         21   -1    0    0  502  501  0.00000000000E+00  0.00000000000E+00  0.33493192307E+04  0.33493192307E+04  0.00000000000E+00 0. -1.
         21   -1    0    0  501  502 -0.00000000000E+00 -0.00000000000E+00 -0.26607186211E+02  0.26607186211E+02  0.00000000000E+00 0. -1.
         25    1    1    2    0    0  0.10835940733E+03  0.99543745972E+02  0.12020933642E+04  0.12174991477E+04  0.12500000000E+03 0.  0.
         25    1    1    2    0    0 -0.12793202651E+03 -0.82556819894E+02  0.18354187293E+04  0.18459602227E+04  0.12500000000E+03 0.  0.
         25    1    1    2    0    0  0.19572619178E+02 -0.16986926078E+02  0.28519995094E+03  0.31246704642E+03  0.12500000000E+03 0.  0.
</event>
<event>
 5    0  0.5510933E-005  0.4507462E+03  0.7546771E-02  0.1027500E+00
         21   -1    0    0  502  501  0.00000000000E+00  0.00000000000E+00  0.14820348085E+04  0.14820348085E+04  0.00000000000E+00 0. -1.
         21   -1    0    0  501  502 -0.00000000000E+00 -0.00000000000E+00 -0.13708998507E+03  0.13708998507E+03  0.00000000000E+00 0. -1.
         25    1    1    2    0    0 -0.96585315423E+02 -0.12288593338E+03  0.84418716489E+02  0.21721232809E+03  0.12500000000E+03 0.  0.
         25    1    1    2    0    0 -0.47575970017E+02  0.29923554061E+03  0.49662765981E+03  0.59503732167E+03  0.12500000000E+03 0.  0.
         25    1    1    2    0    0  0.14416128544E+03 -0.17634960723E+03  0.76389844709E+03  0.80687514379E+03  0.12500000000E+03 0.  0.
</event>
<event>
 5    0  0.5510933E-005  0.4647952E+03  0.7546771E-02  0.1023400E+00
         21   -1    0    0  502  501  0.00000000000E+00  0.00000000000E+00  0.10712792558E+03  0.10712792558E+03  0.00000000000E+00 0.  1.
         21   -1    0    0  501  502 -0.00000000000E+00 -0.00000000000E+00 -0.20166034188E+04  0.20166034188E+04  0.00000000000E+00 0.  1.
         25    1    1    2    0    0  0.31871750335E+03  0.12529810875E+03 -0.47995040003E+03  0.60270876009E+03  0.12500000000E+03 0.  0.
         25    1    1    2    0    0 -0.17216897926E+03 -0.19057661170E+03 -0.10750400264E+04  0.11123388246E+04  0.12500000000E+03 0.  0.
         25    1    1    2    0    0 -0.14654852409E+03  0.65278502949E+02 -0.35448506676E+03  0.40868375967E+03  0.12500000000E+03 0.  0.
</event>
<event>
 5    0  0.5510933E-005  0.4139723E+03  0.7546771E-02  0.1039046E+00
         21   -1    0    0  502  501  0.00000000000E+00  0.00000000000E+00  0.18988474606E+03  0.18988474606E+03  0.00000000000E+00 0. -1.
         21   -1    0    0  501  502 -0.00000000000E+00 -0.00000000000E+00 -0.90251074590E+03  0.90251074590E+03  0.00000000000E+00 0. -1.
         25    1    1    2    0    0 -0.96130160695E+02 -0.12139710507E+03 -0.17203565833E+03  0.26305804046E+03  0.12500000000E+03 0.  0.
         25    1    1    2    0    0  0.50587252001E+02  0.28222645342E+03 -0.78789178253E+02  0.32255786409E+03  0.12500000000E+03 0.  0.
         25    1    1    2    0    0  0.45542908693E+02 -0.16082934835E+03 -0.46180116326E+03  0.50677958741E+03  0.12500000000E+03 0.  0.
</event>
<event>
 5    0  0.5510933E-005  0.4113127E+03  0.7546771E-02  0.1039931E+00
         21   -1    0    0  502  501  0.00000000000E+00  0.00000000000E+00  0.10193352886E+04  0.10193352886E+04  0.00000000000E+00 0.  1.
         21   -1    0    0  501  502 -0.00000000000E+00 -0.00000000000E+00 -0.16596905443E+03  0.16596905443E+03  0.00000000000E+00 0. -1.
         25    1    1    2    0    0 -0.10496714342E+03  0.10078702744E+01  0.17403841458E+03  0.23860739039E+03  0.12500000000E+03 0.  0.
         25    1    1    2    0    0 -0.69324674676E+02  0.10016150338E+03 -0.48548357075E+02  0.18116340760E+03  0.12500000000E+03 0.  0.
         25    1    1    2    0    0  0.17429181809E+03 -0.10116937365E+03  0.72787617671E+03  0.76553354508E+03  0.12500000000E+03 0.  0.
</event>
<event>
 5    0  0.5510933E-005  0.3306950E+03  0.7546771E-02  0.1070830E+00
         21   -1    0    0  502  501  0.00000000000E+00  0.00000000000E+00  0.46099408950E+02  0.46099408950E+02  0.00000000000E+00 0. -1.
         21   -1    0    0  501  502 -0.00000000000E+00 -0.00000000000E+00 -0.23722472487E+04  0.23722472487E+04  0.00000000000E+00 0. -1.
         25    1    1    2    0    0 -0.22742607036E+02 -0.16897518997E+03 -0.36486528214E+03  0.42168888426E+03  0.12500000000E+03 0.  0.
         25    1    1    2    0    0 -0.97795085436E+02  0.63546649283E+02 -0.91619526460E+03  0.93200902262E+03  0.12500000000E+03 0.  0.
         25    1    1    2    0    0  0.12053769247E+03  0.10542854069E+03 -0.10450872930E+04  0.10646487507E+04  0.12500000000E+03 0.  0.
</event>
<event>
 5    0  0.5510933E-005  0.4825039E+03  0.7546771E-02  0.1018449E+00
         21   -1    0    0  502  501  0.00000000000E+00  0.00000000000E+00  0.23512894865E+03  0.23512894865E+03  0.00000000000E+00 0.  1.
         21   -1    0    0  501  502 -0.00000000000E+00 -0.00000000000E+00 -0.99013743965E+03  0.99013743965E+03  0.00000000000E+00 0.  1.
         25    1    1    2    0    0 -0.22827649615E+03 -0.30685877513E+03 -0.26437450999E+03  0.48144713947E+03  0.12500000000E+03 0.  0.
         25    1    1    2    0    0  0.11556081208E+03 -0.31934076540E+02 -0.21322528750E+03  0.27470731654E+03  0.12500000000E+03 0.  0.
         25    1    1    2    0    0  0.11271568407E+03  0.33879285167E+03 -0.27740869352E+03  0.46911193229E+03  0.12500000000E+03 0.  0.
</event>
<event>
 5    0  0.5739184E-005  0.3793795E+03  0.7546771E-02  0.1051163E+00
         21   -1    0    0  502  501  0.00000000000E+00  0.00000000000E+00  0.31607489003E+03  0.31607489003E+03  0.00000000000E+00 0. -1.
         21   -1    0    0  501  502 -0.00000000000E+00 -0.00000000000E+00 -0.45536289452E+03  0.45536289452E+03  0.00000000000E+00 0. -1.
         25    1    1    2    0    0 -0.11381209485E+03  0.13782480431E+03 -0.47522682884E+02  0.22323143821E+03  0.12500000000E+03 0.  0.
         25    1    1    2    0    0  0.24101173150E+03 -0.60209358027E+02 -0.18348113408E+03  0.33316984869E+03  0.12500000000E+03 0.  0.
         25    1    1    2    0    0 -0.12719963664E+03 -0.77615446284E+02  0.91715812473E+02  0.21503649765E+03  0.12500000000E+03 0.  0.
</event>
<event>
 5    0  0.5510933E-005  0.3119905E+03  0.7546771E-02  0.1079396E+00
         21   -1    0    0  502  501  0.00000000000E+00  0.00000000000E+00  0.57982530048E+02  0.57982530048E+02  0.00000000000E+00 0. -1.
         21   -1    0    0  501  502 -0.00000000000E+00 -0.00000000000E+00 -0.16787485680E+04  0.16787485680E+04  0.00000000000E+00 0. -1.
         25    1    1    2    0    0  0.37133703027E+02 -0.18777837767E+03 -0.31402433769E+03  0.38842749089E+03  0.12500000000E+03 0.  0.
         25    1    1    2    0    0  0.23580096380E+02  0.10326454793E+03 -0.78001878108E+03  0.79704070576E+03  0.12500000000E+03 0.  0.
         25    1    1    2    0    0 -0.60713799406E+02  0.84513829743E+02 -0.52672291915E+03  0.55126290136E+03  0.12500000000E+03 0.  0.
</event>
<event>
 5    0  0.5510933E-005  0.2457850E+03  0.7546771E-02  0.1115998E+00
         21   -1    0    0  502  501  0.00000000000E+00  0.00000000000E+00  0.70133615678E+02  0.70133615678E+02  0.00000000000E+00 0. -1.
         21   -1    0    0  501  502 -0.00000000000E+00 -0.00000000000E+00 -0.86135972175E+03  0.86135972175E+03  0.00000000000E+00 0. -1.
         25    1    1    2    0    0 -0.25955989699E+02  0.58975807755E+02 -0.23357239857E+03  0.27264065118E+03  0.12500000000E+03 0.  0.
         25    1    1    2    0    0 -0.25672303768E+02 -0.13899145279E+03 -0.35895931605E+03  0.40552987770E+03  0.12500000000E+03 0.  0.
         25    1    1    2    0    0  0.51628293467E+02  0.80015645034E+02 -0.19869439146E+03  0.25332280855E+03  0.12500000000E+03 0.  0.
</event>
<event>
 5    0  0.5510933E-005  0.2372310E+03  0.7546771E-02  0.1121651E+00
         21   -1    0    0  502  501  0.00000000000E+00  0.00000000000E+00  0.21491797861E+04  0.21491797861E+04  0.00000000000E+00 0. -1.
         21   -1    0    0  501  502 -0.00000000000E+00 -0.00000000000E+00 -0.26186048111E+02  0.26186048111E+02  0.00000000000E+00 0. -1.
         25    1    1    2    0    0  0.77058579154E+02 -0.53637689159E+02  0.44842233722E+03  0.47489221813E+03  0.12500000000E+03 0.  0.
         25    1    1    2    0    0 -0.92934459645E+02  0.26546460371E+02  0.71266267159E+03  0.72996891155E+03  0.12500000000E+03 0.  0.
         25    1    1    2    0    0  0.15875880492E+02  0.27091228789E+02  0.96190872922E+03  0.97050470458E+03  0.12500000000E+03 0.  0.
</event>
<event>
 5    0  0.5510933E-005  0.3140085E+03  0.7546771E-02  0.1078440E+00
         21   -1    0    0  502  501  0.00000000000E+00  0.00000000000E+00  0.76932052979E+03  0.76932052979E+03  0.00000000000E+00 0.  1.
         21   -1    0    0  501  502 -0.00000000000E+00 -0.00000000000E+00 -0.12816678706E+03  0.12816678706E+03  0.00000000000E+00 0.  1.
         25    1    1    2    0    0  0.21648248899E+02  0.17088401547E+03  0.39911864224E+03  0.45231701715E+03  0.12500000000E+03 0.  0.
         25    1    1    2    0    0 -0.33913128951E+02 -0.19890385045E+03  0.11281792109E+03  0.26280358703E+03  0.12500000000E+03 0.  0.
         25    1    1    2    0    0  0.12264880053E+02  0.28019834981E+02  0.12921717940E+03  0.18236671266E+03  0.12500000000E+03 0.  0.
</event>
<event>
 5    0  0.5510933E-005  0.2511791E+03  0.7546771E-02  0.1112562E+00
         21   -1    0    0  502  501  0.00000000000E+00  0.00000000000E+00  0.53251520114E+03  0.53251520114E+03  0.00000000000E+00 0.  1.
         21   -1    0    0  501  502 -0.00000000000E+00 -0.00000000000E+00 -0.11847726545E+03  0.11847726545E+03  0.00000000000E+00 0.  1.
         25    1    1    2    0    0  0.55580407742E+02 -0.12013416675E+02  0.21589358944E+03  0.25586821972E+03  0.12500000000E+03 0.  0.
         25    1    1    2    0    0  0.82516322830E+02  0.24818094604E+01  0.12382067678E+03  0.19434933215E+03  0.12500000000E+03 0.  0.
         25    1    1    2    0    0 -0.13809673057E+03  0.95316072142E+01  0.74323669477E+02  0.20077491471E+03  0.12500000000E+03 0.  0.
</event>
<event>
 5    0  0.5510933E-005  0.2258064E+03  0.7546771E-02  0.1129627E+00
         21   -1    0    0  502  501  0.00000000000E+00  0.00000000000E+00  0.10502354646E+03  0.10502354646E+03  0.00000000000E+00 0. -1.
         21   -1    0    0  501  502 -0.00000000000E+00 -0.00000000000E+00 -0.48549599725E+03  0.48549599725E+03  0.00000000000E+00 0. -1.
         25    1    1    2    0    0 -0.43155216278E+02  0.34572883161E+01 -0.20794414439E+02  0.13390942165E+03  0.12500000000E+03 0.  0.
         25    1    1    2    0    0  0.56676336130E+02 -0.15697568684E+02 -0.26464689614E+03  0.29853241093E+03  0.12500000000E+03 0.  0.
         25    1    1    2    0    0 -0.13521119853E+02  0.12240280368E+02 -0.95031140202E+02  0.15807771112E+03  0.12500000000E+03 0.  0.
</event>
<event>
 5    0  0.5510933E-005  0.2701152E+03  0.7546771E-02  0.1101214E+00
         21   -1    0    0  502  501  0.00000000000E+00  0.00000000000E+00  0.56137980768E+03  0.56137980768E+03  0.00000000000E+00 0.  1.
         21   -1    0    0  501  502 -0.00000000000E+00 -0.00000000000E+00 -0.12996942633E+03  0.12996942633E+03  0.00000000000E+00 0.  1.
         25    1    1    2    0    0  0.10933539877E+03  0.35581018225E+01  0.25942896326E+03  0.30805076934E+03  0.12500000000E+03 0.  0.
         25    1    1    2    0    0 -0.12060866677E+03 -0.82150088480E+02  0.11905772867E+03  0.22604165610E+03  0.12500000000E+03 0.  0.
         25    1    1    2    0    0  0.11273267995E+02  0.78591986657E+02  0.52923689422E+02  0.15725680856E+03  0.12500000000E+03 0.  0.
</event>
<event>
 5    0  0.5510933E-005  0.2462954E+03  0.7546771E-02  0.1115669E+00
         21   -1    0    0  502  501  0.00000000000E+00  0.00000000000E+00  0.45608348135E+03  0.45608348135E+03  0.00000000000E+00 0. -1.
         21   -1    0    0  501  502 -0.00000000000E+00 -0.00000000000E+00 -0.13300506006E+03  0.13300506006E+03  0.00000000000E+00 0. -1.
         25    1    1    2    0    0  0.17968292604E+02 -0.33058488064E+02  0.22637510218E+03  0.26131668538E+03  0.12500000000E+03 0.  0.
         25    1    1    2    0    0 -0.37699341526E+02 -0.66277846763E+02  0.77742000991E+02  0.16577940777E+03  0.12500000000E+03 0.  0.
         25    1    1    2    0    0  0.19731048922E+02  0.99336334828E+02  0.18961318123E+02  0.16199244826E+03  0.12500000000E+03 0.  0.
</event>
