<event>
 5    0  0.5668330E-005  0.3309832E+03  0.7546771E-02  0.1070703E+00
         21   -1    0    0  502  501  0.00000000000E+00  0.00000000000E+00  0.10551123848E+04  0.10551123848E+04  0.00000000000E+00 0. -1.
         21   -1    0    0  501  502 -0.00000000000E+00 -0.00000000000E+00 -0.10382768156E+03  0.10382768156E+03  0.00000000000E+00 0. -1.
         25    1    1    2    0    0 -0.14993210223E+03  0.66255877334E+02  0.19107058027E+03  0.28107373268E+03  0.12500000000E+03 0.  0.
         25    1    1    2    0    0  0.23702803164E+03 -0.94315725723E+02  0.49445079110E+03  0.57024935661E+03  0.12500000000E+03 0.  0.
         25    1    1    2    0    0 -0.87095929411E+02  0.28059848389E+02  0.26576333189E+03  0.30761697708E+03  0.12500000000E+03 0.  0.
</event>
<event>
 5    0  0.5668330E-005  0.3459416E+03  0.7546771E-02  0.1064293E+00
         21   -1    0    0  502  501  0.00000000000E+00  0.00000000000E+00  0.49397880982E+03  0.49397880982E+03  0.00000000000E+00 0.  1.
         21   -1    0    0  501  502 -0.00000000000E+00 -0.00000000000E+00 -0.24226867319E+03  0.24226867319E+03  0.00000000000E+00 0.  1.
         25    1    1    2    0    0 -0.11031139548E+03 -0.48161439833E+02  0.25673347083E+02  0.17542020696E+03  0.12500000000E+03 0.  0.
         25    1    1    2    0    0  0.81022389399E+02  0.19124774101E+03 -0.26041033480E+02  0.24381029808E+03  0.12500000000E+03 0.  0.
         25    1    1    2    0    0  0.29289006081E+02 -0.14308630117E+03  0.25207782302E+03  0.31701697797E+03  0.12500000000E+03 0.  0.
</event>
<event>
 5    0  0.5668330E-005  0.2562571E+03  0.7546771E-02  0.1109413E+00
         21   -1    0    0  502  501  0.00000000000E+00  0.00000000000E+00  0.36922069756E+03  0.36922069756E+03  0.00000000000E+00 0. -1.
         21   -1    0    0  501  502 -0.00000000000E+00 -0.00000000000E+00 -0.17785484124E+03  0.17785484124E+03  0.00000000000E+00 0. -1.
         25    1    1    2    0    0 -0.19818609908E+02  0.29213501314E+02  0.23402458282E+03  0.26765408893E+03  0.12500000000E+03 0.  0.
         25    1    1    2    0    0  0.60559105556E+02  0.80992879150E+01 -0.14498709944E+02  0.13988644080E+03  0.12500000000E+03 0.  0.
         25    1    1    2    0    0 -0.40740495648E+02 -0.37312789229E+02 -0.28160016551E+02  0.13953500908E+03  0.12500000000E+03 0.  0.
</event>
<event>
 5    0  0.5668330E-005  0.5149197E+03  0.7546771E-02  0.1009956E+00
         21   -1    0    0  502  501  0.00000000000E+00  0.00000000000E+00  0.35735265585E+03  0.35735265585E+03  0.00000000000E+00 0. -1.
         21   -1    0    0  501  502 -0.00000000000E+00 -0.00000000000E+00 -0.74196248317E+03  0.74196248317E+03  0.00000000000E+00 0. -1.
         25    1    1    2    0    0  0.20131163035E+03 -0.28445898961E+03 -0.34876213584E+02  0.37186642704E+03  0.12500000000E+03 0.  0.
         25    1    1    2    0    0 -0.12190867598E+03 -0.11607025918E+03 -0.13608234661E+03  0.24995486673E+03  0.12500000000E+03 0.  0.
         25    1    1    2    0    0 -0.79402954377E+02  0.40052924879E+03 -0.21365126712E+03  0.47749384524E+03  0.12500000000E+03 0.  0.
</event>
<event>
 5    0  0.5668330E-005  0.4284731E+03  0.7546771E-02  0.1034343E+00
         21   -1    0    0  502  501  0.00000000000E+00  0.00000000000E+00  0.11088885935E+03  0.11088885935E+03  0.00000000000E+00 0. -1.
         21   -1    0    0  501  502 -0.00000000000E+00 -0.00000000000E+00 -0.16556141922E+04  0.16556141922E+04  0.00000000000E+00 0. -1.
         25    1    1    2    0    0  0.81250365643E+02 -0.24359796968E+02 -0.34036206623E+03  0.37237931972E+03  0.12500000000E+03 0.  0.
         25    1    1    2    0    0 -0.31039013891E+03 -0.14433998011E+03 -0.83726709544E+03  0.91313594677E+03  0.12500000000E+03 0.  0.
         25    1    1    2    0    0  0.22913977327E+03  0.16869977708E+03 -0.36709617118E+03  0.48098778506E+03  0.12500000000E+03 0.  0.
</event>
<event>
 5    0  0.5668330E-005  0.5805078E+03  0.7546771E-02  0.9946692E-01
         21   -1    0    0  502  501  0.00000000000E+00  0.00000000000E+00  0.23147703439E+04  0.23147703439E+04  0.00000000000E+00 0. -1.
         21   -1    0    0  501  502 -0.00000000000E+00 -0.00000000000E+00 -0.14558218598E+03  0.14558218598E+03  0.00000000000E+00 0. -1.
         25    1    1    2    0    0  0.20036891421E+03  0.36147679298E+03  0.13688526653E+04  0.14353382155E+04  0.12500000000E+03 0.  0.
         25    1    1    2    0    0 -0.15770507477E+03  0.31768098625E+02  0.14746118222E+03  0.25149533388E+03  0.12500000000E+03 0.  0.
         25    1    1    2    0    0 -0.42663839437E+02 -0.39324489161E+03  0.65287431038E+03  0.77351898045E+03  0.12500000000E+03 0.  0.
</event>
<event>
 5    0  0.5668330E-005  0.3459277E+03  0.7546771E-02  0.1064299E+00
         21   -1    0    0  502  501  0.00000000000E+00  0.00000000000E+00  0.67097075376E+03  0.67097075376E+03  0.00000000000E+00 0. -1.
         21   -1    0    0  501  502 -0.00000000000E+00 -0.00000000000E+00 -0.17834756270E+03  0.17834756270E+03  0.00000000000E+00 0. -1.
         25    1    1    2    0    0  0.10472590959E+03 -0.11594975507E+03  0.70016128639E+01  0.20021459593E+03  0.12500000000E+03 0.  0.
         25    1    1    2    0    0  0.88667414827E+02  0.90968312502E+01  0.29176655041E+03  0.32969286121E+03  0.12500000000E+03 0.  0.
         25    1    1    2    0    0 -0.19339332442E+03  0.10685292382E+03  0.19385502778E+03  0.31941085933E+03  0.12500000000E+03 0.  0.
</event>
<event>
 5    0  0.5668330E-005  0.2262699E+03  0.7546771E-02  0.1129293E+00
         21   -1    0    0  502  501  0.00000000000E+00  0.00000000000E+00  0.27276168970E+03  0.27276168970E+03  0.00000000000E+00 0.  1.
         21   -1    0    0  501  502 -0.00000000000E+00 -0.00000000000E+00 -0.18770250241E+03  0.18770250241E+03  0.00000000000E+00 0.  1.
         25    1    1    2    0    0  0.77964413039E+02 -0.84564616684E+02  0.46481084086E+02  0.17611108788E+03  0.12500000000E+03 0.  0.
         25    1    1    2    0    0 -0.26268907339E+02  0.14970152911E+02  0.57679517831E+01  0.12873395138E+03  0.12500000000E+03 0.  0.
         25    1    1    2    0    0 -0.51695505699E+02  0.69594463773E+02  0.32810151427E+02  0.15561915285E+03  0.12500000000E+03 0.  0.
</event>
<event>
 5    0  0.5668330E-005  0.2953567E+03  0.7546771E-02  0.1087585E+00
         21   -1    0    0  502  501  0.00000000000E+00  0.00000000000E+00  0.40695934662E+03  0.40695934662E+03  0.00000000000E+00 0.  1.
         21   -1    0    0  501  502 -0.00000000000E+00 -0.00000000000E+00 -0.21435948719E+03  0.21435948719E+03  0.00000000000E+00 0.  1.
         25    1    1    2    0    0 -0.17455415154E+03 -0.64410577836E+01 -0.34265410183E+01  0.21481941306E+03  0.12500000000E+03 0.  0.
         25    1    1    2    0    0  0.40533283596E+02  0.11504619599E+01 -0.86710363104E+01  0.13169835805E+03  0.12500000000E+03 0.  0.
         25    1    1    2    0    0  0.13402086794E+03  0.52905958237E+01  0.20469743676E+03  0.27480106270E+03  0.12500000000E+03 0.  0.
</event>
<event>
 5    0  0.5668330E-005  0.2140527E+03  0.7546771E-02  0.1138396E+00
         21   -1    0    0  502  501  0.00000000000E+00  0.00000000000E+00  0.11399483338E+03  0.11399483338E+03  0.00000000000E+00 0. -1.
         21   -1    0    0  501  502 -0.00000000000E+00 -0.00000000000E+00 -0.40193551800E+03  0.40193551800E+03  0.00000000000E+00 0. -1.
         25    1    1    2    0    0  0.16996832093E+01  0.29367270872E+02 -0.12922080335E+03  0.18217667672E+03  0.12500000000E+03 0.  0.
         25    1    1    2    0    0 -0.29573540742E+02  0.12942631633E+02 -0.49274503959E+01  0.12919514617E+03  0.12500000000E+03 0.  0.
         25    1    1    2    0    0  0.27873857533E+02 -0.42309902505E+02 -0.15379243088E+03  0.20455852849E+03  0.12500000000E+03 0.  0.
</event>
<event>
 5    0  0.5668330E-005  0.2948916E+03  0.7546771E-02  0.1087822E+00
         21   -1    0    0  502  501  0.00000000000E+00  0.00000000000E+00  0.60154397698E+03  0.60154397698E+03  0.00000000000E+00 0. -1.
         21   -1    0    0  501  502 -0.00000000000E+00 -0.00000000000E+00 -0.14456311470E+03  0.14456311470E+03  0.00000000000E+00 0. -1.
         25    1    1    2    0    0  0.16733499334E+03  0.29684744711E+02  0.24093390677E+03  0.32024417480E+03  0.12500000000E+03 0.  0.
         25    1    1    2    0    0 -0.10738208267E+03  0.86489932327E+02  0.11094520485E+03  0.21666854536E+03  0.12500000000E+03 0.  0.
         25    1    1    2    0    0 -0.59952910669E+02 -0.11617467704E+03  0.10510175066E+03  0.20919437152E+03  0.12500000000E+03 0.  0.
</event>
<event>
 5    0  0.5668330E-005  0.2142975E+03  0.7546771E-02  0.1138207E+00
         21   -1    0    0  502  501  0.00000000000E+00  0.00000000000E+00  0.26509072853E+03  0.26509072853E+03  0.00000000000E+00 0.  1.
         21   -1    0    0  501  502 -0.00000000000E+00 -0.00000000000E+00 -0.17323665852E+03  0.17323665852E+03  0.00000000000E+00 0.  1.
         25    1    1    2    0    0  0.42200164942E+02 -0.65247920557E+02 -0.86828565803E+01  0.14743994390E+03  0.12500000000E+03 0.  0.
         25    1    1    2    0    0 -0.76053486572E+01  0.45936241357E+02  0.14780915267E+02  0.13420676233E+03  0.12500000000E+03 0.  0.
         25    1    1    2    0    0 -0.34594816284E+02  0.19311679200E+02  0.85756011321E+02  0.15668068083E+03  0.12500000000E+03 0.  0.
</event>
<event>
 5    0  0.5668330E-005  0.4007586E+03  0.7546771E-02  0.1043517E+00
         21   -1    0    0  502  501  0.00000000000E+00  0.00000000000E+00  0.22692746424E+03  0.22692746424E+03  0.00000000000E+00 0.  1.
         21   -1    0    0  501  502 -0.00000000000E+00 -0.00000000000E+00 -0.70774784552E+03  0.70774784552E+03  0.00000000000E+00 0.  1.
         25    1    1    2    0    0 -0.13872652311E+03  0.14586116666E+03 -0.16861023532E+03  0.29081770856E+03  0.12500000000E+03 0.  0.
         25    1    1    2    0    0 -0.12979120165E+03  0.12134801287E+02 -0.24020919018E+03  0.30053030542E+03  0.12500000000E+03 0.  0.
         25    1    1    2    0    0  0.26851772477E+03 -0.15799596795E+03 -0.72000955776E+02  0.34332729579E+03  0.12500000000E+03 0.  0.
</event>
<event>
 5    0  0.5668330E-005  0.3852392E+03  0.7546771E-02  0.1049014E+00
         21   -1    0    0  502  501  0.00000000000E+00  0.00000000000E+00  0.16051393868E+04  0.16051393868E+04  0.00000000000E+00 0. -1.
         21   -1    0    0  501  502 -0.00000000000E+00 -0.00000000000E+00 -0.92458786697E+02  0.92458786697E+02  0.00000000000E+00 0. -1.
         25    1    1    2    0    0 -0.19659721269E+02 -0.14155726400E+03  0.11982996581E+04  0.12132485459E+04  0.12500000000E+03 0.  0.
         25    1    1    2    0    0  0.95737288946E+02  0.93344108096E+02  0.26594263093E+03  0.32284552646E+03  0.12500000000E+03 0.  0.
         25    1    1    2    0    0 -0.76077567677E+02  0.48213155905E+02  0.48438311149E+02  0.16150410116E+03  0.12500000000E+03 0.  0.
</event>
<event>
 5    0  0.5668330E-005  0.3544110E+03  0.7546771E-02  0.1060819E+00
         21   -1    0    0  502  501  0.00000000000E+00  0.00000000000E+00  0.14277467476E+04  0.14277467476E+04  0.00000000000E+00 0. -1.
         21   -1    0    0  501  502 -0.00000000000E+00 -0.00000000000E+00 -0.87975809508E+02  0.87975809508E+02  0.00000000000E+00 0. -1.
         25    1    1    2    0    0 -0.11198572384E+03 -0.21006873660E+03  0.65347565924E+03  0.70662940334E+03  0.12500000000E+03 0.  0.
         25    1    1    2    0    0  0.14594028783E+03  0.14942828112E+02  0.34461806457E+03  0.39485246125E+03  0.12500000000E+03 0.  0.
         25    1    1    2    0    0 -0.33954563988E+02  0.19512590849E+03  0.34167721424E+03  0.41424069249E+03  0.12500000000E+03 0.  0.
</event>
<event>
 5    0  0.5668330E-005  0.2714031E+03  0.7546771E-02  0.1100479E+00
         21   -1    0    0  502  501  0.00000000000E+00  0.00000000000E+00  0.60574518437E+03  0.60574518437E+03  0.00000000000E+00 0. -1.
         21   -1    0    0  501  502 -0.00000000000E+00 -0.00000000000E+00 -0.12160168661E+03  0.12160168661E+03  0.00000000000E+00 0. -1.
         25    1    1    2    0    0 -0.13738288637E+03  0.11941765253E+02  0.16554651824E+03  0.24909298048E+03  0.12500000000E+03 0.  0.
         25    1    1    2    0    0  0.16747441000E+03  0.31706477424E+02  0.13848810709E+03  0.25269929663E+03  0.12500000000E+03 0.  0.
         25    1    1    2    0    0 -0.30091523632E+02 -0.43648242677E+02  0.18010887244E+03  0.22555459387E+03  0.12500000000E+03 0.  0.
</event>
<event>
 5    0  0.5668330E-005  0.3300329E+03  0.7546771E-02  0.1071122E+00
         21   -1    0    0  502  501  0.00000000000E+00  0.00000000000E+00  0.67206636550E+03  0.67206636550E+03  0.00000000000E+00 0. -1.
         21   -1    0    0  501  502 -0.00000000000E+00 -0.00000000000E+00 -0.16206984349E+03  0.16206984349E+03  0.00000000000E+00 0. -1.
         25    1    1    2    0    0  0.61210859956E+01 -0.55562142814E+02  0.17136651256E+03  0.21935382613E+03  0.12500000000E+03 0.  0.
         25    1    1    2    0    0  0.13749087089E+03  0.83716317526E+02 -0.23025805256E+02  0.20510326449E+03  0.12500000000E+03 0.  0.
         25    1    1    2    0    0 -0.14361195689E+03 -0.28154174712E+02  0.36165581470E+03  0.40967911836E+03  0.12500000000E+03 0.  0.
</event>
<event>
 5    0  0.5668330E-005  0.2496524E+03  0.7546771E-02  0.1113525E+00
         21   -1    0    0  502  501  0.00000000000E+00  0.00000000000E+00  0.12328011976E+04  0.12328011976E+04  0.00000000000E+00 0. -1.
         21   -1    0    0  501  502 -0.00000000000E+00 -0.00000000000E+00 -0.50556681568E+02  0.50556681568E+02  0.00000000000E+00 0. -1.
         25    1    1    2    0    0  0.40532017166E+02  0.10019874769E+02  0.50378940664E+03  0.52074178683E+03  0.12500000000E+03 0.  0.
         25    1    1    2    0    0  0.43215579992E+02  0.53350390472E+02  0.50354246544E+03  0.52334870309E+03  0.12500000000E+03 0.  0.
         25    1    1    2    0    0 -0.83747597158E+02 -0.63370265241E+02  0.17491264394E+03  0.23926738925E+03  0.12500000000E+03 0.  0.
</event>
<event>
 5    0  0.5668330E-005  0.3957755E+03  0.7546771E-02  0.1045252E+00
         21   -1    0    0  502  501  0.00000000000E+00  0.00000000000E+00  0.17087467466E+03  0.17087467466E+03  0.00000000000E+00 0. -1.
         21   -1    0    0  501  502 -0.00000000000E+00 -0.00000000000E+00 -0.91668494357E+03  0.91668494357E+03  0.00000000000E+00 0. -1.
         25    1    1    2    0    0 -0.10782664334E+03  0.31555004949E+02 -0.17701127203E+03  0.24409074906E+03  0.12500000000E+03 0.  0.
         25    1    1    2    0    0  0.52965553760E+02  0.26142609034E+03 -0.21801245042E+03  0.36647425440E+03  0.12500000000E+03 0.  0.
         25    1    1    2    0    0  0.54861089580E+02 -0.29298109529E+03 -0.35078654646E+03  0.47699461478E+03  0.12500000000E+03 0.  0.
</event>
<event>
 5    0  0.5668330E-005  0.2120398E+03  0.7546771E-02  0.1139961E+00
         21   -1    0    0  502  501  0.00000000000E+00  0.00000000000E+00  0.63695822462E+03  0.63695822462E+03  0.00000000000E+00 0.  1.
         21   -1    0    0  501  502 -0.00000000000E+00 -0.00000000000E+00 -0.70586824094E+02  0.70586824094E+02  0.00000000000E+00 0.  1.
         25    1    1    2    0    0  0.53390871072E+02 -0.23153046340E+02  0.11293847604E+03  0.17823228675E+03  0.12500000000E+03 0.  0.
         25    1    1    2    0    0 -0.19322993439E+02  0.17911968779E+02  0.13687048787E+03  0.18722378895E+03  0.12500000000E+03 0.  0.
         25    1    1    2    0    0 -0.34067877633E+02  0.52410775619E+01  0.31656243662E+03  0.34208897301E+03  0.12500000000E+03 0.  0.
</event>
<event>
 5    0  0.5668330E-005  0.2727324E+03  0.7546771E-02  0.1099726E+00
         21   -1    0    0  502  501  0.00000000000E+00  0.00000000000E+00  0.19432529923E+04  0.19432529923E+04  0.00000000000E+00 0.  1.
         21   -1    0    0  501  502 -0.00000000000E+00 -0.00000000000E+00 -0.38277543105E+02  0.38277543105E+02  0.00000000000E+00 0.  1.
         25    1    1    2    0    0 -0.26149213265E+02 -0.15990355933E+03  0.93919785707E+03  0.96123386560E+03  0.12500000000E+03 0.  0.
         25    1    1    2    0    0  0.15423842859E+02  0.32280683191E+01  0.31472205234E+03  0.33900337105E+03  0.12500000000E+03 0.  0.
         25    1    1    2    0    0  0.10725370406E+02  0.15667549101E+03  0.65105553979E+03  0.68129329876E+03  0.12500000000E+03 0.  0.
</event>
<event>
 5    0  0.5668330E-005  0.3575171E+03  0.7546771E-02  0.1059571E+00
         21   -1    0    0  502  501  0.00000000000E+00  0.00000000000E+00  0.42091865391E+03  0.42091865391E+03  0.00000000000E+00 0. -1.
         21   -1    0    0  501  502 -0.00000000000E+00 -0.00000000000E+00 -0.30366543368E+03  0.30366543368E+03  0.00000000000E+00 0. -1.
         25    1    1    2    0    0  0.49578434909E+02 -0.48895977121E+02 -0.77188921245E+02  0.16257911105E+03  0.12500000000E+03 0.  0.
         25    1    1    2    0    0  0.79818299066E+01 -0.15718188184E+03 -0.57065912566E+02  0.20892910751E+03  0.12500000000E+03 0.  0.
         25    1    1    2    0    0 -0.57560264815E+02  0.20607785896E+03  0.25150805404E+03  0.35307586903E+03  0.12500000000E+03 0.  0.
</event>
<event>
 5    0  0.7622147E-005  0.2775314E+03  0.7546771E-02  0.1097045E+00
         21   -1    0    0  502  501  0.00000000000E+00  0.00000000000E+00  0.12927136098E+03  0.12927136098E+03  0.00000000000E+00 0. -1.
         21   -1    0    0  501  502 -0.00000000000E+00 -0.00000000000E+00 -0.59582924347E+03  0.59582924347E+03  0.00000000000E+00 0. -1.
         25    1    1    2    0    0  0.64907576691E+02 -0.99630181755E+02 -0.16383965532E+03  0.23792351562E+03  0.12500000000E+03 0.  0.
         25    1    1    2    0    0 -0.10135150017E+02  0.11222606546E+03 -0.15586176520E+02  0.16901283955E+03  0.12500000000E+03 0.  0.
         25    1    1    2    0    0 -0.54772426674E+02 -0.12595883701E+02 -0.28713205065E+03  0.31816424928E+03  0.12500000000E+03 0.  0.
</event>
<event>
 5    0  0.5668330E-005  0.3798035E+03  0.7546771E-02  0.1051006E+00
         21   -1    0    0  502  501  0.00000000000E+00  0.00000000000E+00  0.20405502583E+04  0.20405502583E+04  0.00000000000E+00 0. -1.
         21   -1    0    0  501  502 -0.00000000000E+00 -0.00000000000E+00 -0.70692053183E+02  0.70692053183E+02  0.00000000000E+00 0. -1.
         25    1    1    2    0    0  0.30795376070E+03  0.31756552537E+02  0.87135577680E+03  0.93312908384E+03  0.12500000000E+03 0.  0.
         25    1    1    2    0    0 -0.77739405440E+02 -0.18281784578E+02  0.55716756267E+03  0.57657465406E+03  0.12500000000E+03 0.  0.
         25    1    1    2    0    0 -0.23021435526E+03 -0.13474767959E+02  0.54133486562E+03  0.60153857355E+03  0.12500000000E+03 0.  0.
</event>
<event>
 5    0  0.5668330E-005  0.3223693E+03  0.7546771E-02  0.1074564E+00
         21   -1    0    0  502  501  0.00000000000E+00  0.00000000000E+00  0.14034992976E+03  0.14034992976E+03  0.00000000000E+00 0.  1.
         21   -1    0    0  501  502 -0.00000000000E+00 -0.00000000000E+00 -0.74044892309E+03  0.74044892309E+03  0.00000000000E+00 0.  1.
         25    1    1    2    0    0  0.56769238424E+01  0.42990263717E+02 -0.83890891124E+01  0.13257362881E+03  0.12500000000E+03 0.  0.
         25    1    1    2    0    0 -0.18540969670E+03  0.11016078491E+02 -0.22275388222E+03  0.31582020464E+03  0.12500000000E+03 0.  0.
         25    1    1    2    0    0  0.17973277285E+03 -0.54006342208E+02 -0.36895602200E+03  0.43240501940E+03  0.12500000000E+03 0.  0.
</event>
<event>
 5    0  0.5668330E-005  0.3289148E+03  0.7546771E-02  0.1071618E+00
         21   -1    0    0  502  501  0.00000000000E+00  0.00000000000E+00  0.43892239067E+02  0.43892239067E+02  0.00000000000E+00 0.  1.
         21   -1    0    0  501  502 -0.00000000000E+00 -0.00000000000E+00 -0.24647851607E+04  0.24647851607E+04  0.00000000000E+00 0.  1.
         25    1    1    2    0    0  0.99747676824E+02 -0.30933712879E+02 -0.16813149032E+04  0.16891865786E+04  0.12500000000E+03 0.  0.
         25    1    1    2    0    0 -0.76778437824E+01 -0.67742228382E+02 -0.17446148586E+03  0.22518829641E+03  0.12500000000E+03 0.  0.
         25    1    1    2    0    0 -0.92069833042E+02  0.98675941261E+02 -0.56511653262E+03  0.59430252480E+03  0.12500000000E+03 0.  0.
</event>
<event>
 5    0  0.5668330E-005  0.2378427E+03  0.7546771E-02  0.1121238E+00
         21   -1    0    0  502  501  0.00000000000E+00  0.00000000000E+00  0.38609703071E+03  0.38609703071E+03  0.00000000000E+00 0.  1.
         21   -1    0    0  501  502 -0.00000000000E+00 -0.00000000000E+00 -0.14651532216E+03  0.14651532216E+03  0.00000000000E+00 0.  1.
         25    1    1    2    0    0 -0.23335771331E+02 -0.38575303738E+02  0.11853870445E+03  0.17807031402E+03  0.12500000000E+03 0.  0.
         25    1    1    2    0    0 -0.30337411756E+02 -0.15616866901E+02  0.15719316510E+03  0.20371287695E+03  0.12500000000E+03 0.  0.
         25    1    1    2    0    0  0.53673183087E+02  0.54192170639E+02 -0.36150160994E+02  0.15082916191E+03  0.12500000000E+03 0.  0.
</event>
<event>
 5    0  0.5668330E-005  0.3846490E+03  0.7546771E-02  0.1049229E+00
         21   -1    0    0  502  501  0.00000000000E+00  0.00000000000E+00  0.10265078802E+03  0.10265078802E+03  0.00000000000E+00 0.  1.
         21   -1    0    0  501  502 -0.00000000000E+00 -0.00000000000E+00 -0.14413418153E+04  0.14413418153E+04  0.00000000000E+00 0.  1.
         25    1    1    2    0    0  0.67621818538E+02 -0.26218284403E+02 -0.13071143108E+03  0.19486042953E+03  0.12500000000E+03 0.  0.
         25    1    1    2    0    0  0.10257330327E+03 -0.20610242163E+03 -0.74525764202E+03  0.78995787465E+03  0.12500000000E+03 0.  0.
         25    1    1    2    0    0 -0.17019512181E+03  0.23232070603E+03 -0.46272195421E+03  0.55917429917E+03  0.12500000000E+03 0.  0.
</event>
<event>
 5    0  0.5668330E-005  0.2936105E+03  0.7546771E-02  0.1088479E+00
         21   -1    0    0  502  501  0.00000000000E+00  0.00000000000E+00  0.67711281556E+03  0.67711281556E+03  0.00000000000E+00 0. -1.
         21   -1    0    0  501  502 -0.00000000000E+00 -0.00000000000E+00 -0.12731574848E+03  0.12731574848E+03  0.00000000000E+00 0. -1.
         25    1    1    2    0    0  0.97065448618E+02 -0.13842633601E+03  0.22657668502E+03  0.30910442574E+03  0.12500000000E+03 0.  0.
         25    1    1    2    0    0  0.55243642134E+02  0.19935656363E+02  0.75706690229E+02  0.15749855027E+03  0.12500000000E+03 0.  0.
         25    1    1    2    0    0 -0.15230909075E+03  0.11849067965E+03  0.24751369182E+03  0.33782558803E+03  0.12500000000E+03 0.  0.
</event>
<event>
 5    0  0.5998612E-005  0.4666889E+03  0.7546771E-02  0.1022859E+00
         21   -1    0    0  502  501  0.00000000000E+00  0.00000000000E+00  0.45276388300E+03  0.45276388300E+03  0.00000000000E+00 0. -1.
         21   -1    0    0  501  502 -0.00000000000E+00 -0.00000000000E+00 -0.48104223542E+03  0.48104223542E+03  0.00000000000E+00 0. -1.
         25    1    1    2    0    0 -0.21121843460E+03  0.18698375756E+02 -0.27832290012E+02  0.24771453881E+03  0.12500000000E+03 0.  0.
         25    1    1    2    0    0  0.43664218860E+02  0.27077985929E+03 -0.96217806141E+02  0.31640348042E+03  0.12500000000E+03 0.  0.
         25    1    1    2    0    0  0.16755421574E+03 -0.28947823505E+03  0.95771743730E+02  0.36968809918E+03  0.12500000000E+03 0.  0.
</event>
<event>
 5    0  0.5668330E-005  0.3137777E+03  0.7546771E-02  0.1078549E+00
         21   -1    0    0  502  501  0.00000000000E+00  0.00000000000E+00  0.40657820960E+03  0.40657820960E+03  0.00000000000E+00 0.  1.
         21   -1    0    0  501  502 -0.00000000000E+00 -0.00000000000E+00 -0.24215863956E+03  0.24215863956E+03  0.00000000000E+00 0.  1.
         25    1    1    2    0    0  0.14187665142E+03  0.37470039708E+02 -0.34076763624E+02  0.19575294101E+03  0.12500000000E+03 0.  0.
         25    1    1    2    0    0 -0.19637646851E+03  0.52900757517E+02  0.83028779445E+02  0.25274688078E+03  0.12500000000E+03 0.  0.
         25    1    1    2    0    0  0.54499817083E+02 -0.90370797226E+02  0.11546755422E+03  0.20023702737E+03  0.12500000000E+03 0.  0.
</event>
<event>
 5    0  0.5668330E-005  0.4297935E+03  0.7546771E-02  0.1033925E+00
         21   -1    0    0  502  501  0.00000000000E+00  0.00000000000E+00  0.67599962166E+03  0.67599962166E+03  0.00000000000E+00 0. -1.
         21   -1    0    0  501  502 -0.00000000000E+00 -0.00000000000E+00 -0.27325819292E+03  0.27325819292E+03  0.00000000000E+00 0. -1.
         25    1    1    2    0    0 -0.42497266977E+02  0.14449122292E+03  0.12457878123E+03  0.23200992206E+03  0.12500000000E+03 0.  0.
         25    1    1    2    0    0 -0.18572954117E+03 -0.19991653192E+03 -0.39672754309E+02  0.30275569298E+03  0.12500000000E+03 0.  0.
         25    1    1    2    0    0  0.22822680814E+03  0.55425308997E+02  0.31783540181E+03  0.41449219954E+03  0.12500000000E+03 0.  0.
</event>
<event>
 5    0  0.5668330E-005  0.9562849E+03  0.7546771E-02  0.9357835E-01
         21   -1    0    0  502  501  0.00000000000E+00  0.00000000000E+00  0.80363656982E+03  0.80363656982E+03  0.00000000000E+00 0.  1.
         21   -1    0    0  501  502 -0.00000000000E+00 -0.00000000000E+00 -0.11379282212E+04  0.11379282212E+04  0.00000000000E+00 0.  1.
         25    1    1    2    0    0 -0.52546048155E+02  0.20547914942E+03 -0.14762987060E+03  0.28705808945E+03  0.12500000000E+03 0.  0.
         25    1    1    2    0    0  0.37492877876E+03 -0.80700492361E+03  0.99321593758E+02  0.90405658831E+03  0.12500000000E+03 0.  0.
         25    1    1    2    0    0 -0.32238273060E+03  0.60152577419E+03 -0.28598337455E+03  0.75045011328E+03  0.12500000000E+03 0.  0.
</event>
<event>
 5    0  0.5668330E-005  0.3317051E+03  0.7546771E-02  0.1070385E+00
         21   -1    0    0  502  501  0.00000000000E+00  0.00000000000E+00  0.15916023711E+03  0.15916023711E+03  0.00000000000E+00 0. -1.
         21   -1    0    0  501  502 -0.00000000000E+00 -0.00000000000E+00 -0.69130500017E+03  0.69130500017E+03  0.00000000000E+00 0. -1.
         25    1    1    2    0    0 -0.12288930874E+03 -0.15096203262E+03 -0.31567588632E+03  0.39136630246E+03  0.12500000000E+03 0.  0.
         25    1    1    2    0    0 -0.84030492241E+01 -0.14054949927E+02  0.85297591569E+01  0.12635628059E+03  0.12500000000E+03 0.  0.
         25    1    1    2    0    0  0.13129235796E+03  0.16501698255E+03 -0.22499863589E+03  0.33274265423E+03  0.12500000000E+03 0.  0.
</event>
<event>
 5    0  0.5668330E-005  0.3131830E+03  0.7546771E-02  0.1078830E+00
         21   -1    0    0  502  501  0.00000000000E+00  0.00000000000E+00  0.12872825371E+04  0.12872825371E+04  0.00000000000E+00 0. -1.
         21   -1    0    0  501  502 -0.00000000000E+00 -0.00000000000E+00 -0.76194299593E+02  0.76194299593E+02  0.00000000000E+00 0. -1.
         25    1    1    2    0    0 -0.82118388844E-01 -0.13384507678E+03  0.83141808366E+03  0.85134924746E+03  0.12500000000E+03 0.  0.
         25    1    1    2    0    0 -0.42837555301E+02  0.13802382067E+03  0.13481537067E+03  0.23384998479E+03  0.12500000000E+03 0.  0.
         25    1    1    2    0    0  0.42919673689E+02 -0.41787438930E+01  0.24485478320E+03  0.27827760446E+03  0.12500000000E+03 0.  0.
</event>
<event>
 5    0  0.5668330E-005  0.2274528E+03  0.7546771E-02  0.1128446E+00
         21   -1    0    0  502  501  0.00000000000E+00  0.00000000000E+00  0.17260794980E+04  0.17260794980E+04  0.00000000000E+00 0.  1.
         21   -1    0    0  501  502 -0.00000000000E+00 -0.00000000000E+00 -0.29972423854E+02  0.29972423854E+02  0.00000000000E+00 0.  1.
         25    1    1    2    0    0 -0.18332204122E+01  0.69612264642E+02  0.49175244109E+03  0.51214713843E+03  0.12500000000E+03 0.  0.
         25    1    1    2    0    0 -0.38479038818E+01 -0.11407443248E+02  0.91211302150E+03  0.92071716619E+03  0.12500000000E+03 0.  0.
         25    1    1    2    0    0  0.56811242940E+01 -0.58204821394E+02  0.29224161154E+03  0.32318761722E+03  0.12500000000E+03 0.  0.
</event>
<event>
 5    0  0.5668330E-005  0.2419364E+03  0.7546771E-02  0.1118510E+00
         21   -1    0    0  502  501  0.00000000000E+00  0.00000000000E+00  0.77650802233E+02  0.77650802233E+02  0.00000000000E+00 0.  1.
         21   -1    0    0  501  502 -0.00000000000E+00 -0.00000000000E+00 -0.75380083978E+03  0.75380083978E+03  0.00000000000E+00 0.  1.
         25    1    1    2    0    0  0.26469171962E+02  0.87346844303E+02 -0.92864824373E+02  0.18049643731E+03  0.12500000000E+03 0.  0.
         25    1    1    2    0    0  0.23993398854E+02 -0.51599001661E+02 -0.19604392922E+03  0.23936658569E+03  0.12500000000E+03 0.  0.
         25    1    1    2    0    0 -0.50462570816E+02 -0.35747842642E+02 -0.38724128395E+03  0.41158861902E+03  0.12500000000E+03 0.  0.
</event>
<event>
 5    0  0.5668330E-005  0.2739898E+03  0.7546771E-02  0.1099018E+00
         21   -1    0    0  502  501  0.00000000000E+00  0.00000000000E+00  0.10171257562E+04  0.10171257562E+04  0.00000000000E+00 0. -1.
         21   -1    0    0  501  502 -0.00000000000E+00 -0.00000000000E+00 -0.73806394313E+02  0.73806394313E+02  0.00000000000E+00 0. -1.
         25    1    1    2    0    0 -0.17844401423E+01 -0.13853221734E+03  0.27061662815E+03  0.32871373397E+03  0.12500000000E+03 0.  0.
         25    1    1    2    0    0  0.77554169526E+02 -0.67604865760E+01  0.21908573566E+03  0.26397710688E+03  0.12500000000E+03 0.  0.
         25    1    1    2    0    0 -0.75769729383E+02  0.14529270392E+03  0.45361699806E+03  0.49824130964E+03  0.12500000000E+03 0.  0.
</event>
<event>
 5    0  0.6675507E-005  0.5081917E+03  0.7546771E-02  0.1011663E+00
         21   -1    0    0  502  501  0.00000000000E+00  0.00000000000E+00  0.49463367678E+03  0.49463367678E+03  0.00000000000E+00 0.  1.
         21   -1    0    0  501  502 -0.00000000000E+00 -0.00000000000E+00 -0.52212133531E+03  0.52212133531E+03  0.00000000000E+00 0.  1.
         25    1    1    2    0    0  0.31373263778E+03 -0.81610964121E+02 -0.14853695142E+03  0.37785809957E+03  0.12500000000E+03 0.  0.
         25    1    1    2    0    0 -0.14336772702E+03 -0.13578779001E+03  0.21901839750E+03  0.32029156641E+03  0.12500000000E+03 0.  0.
         25    1    1    2    0    0 -0.17036491075E+03  0.21739875413E+03 -0.97969104617E+02  0.31860534612E+03  0.12500000000E+03 0.  0.
</event>
<event>
 5    0  0.5668330E-005  0.3146093E+03  0.7546771E-02  0.1078157E+00
         21   -1    0    0  502  501  0.00000000000E+00  0.00000000000E+00  0.18514051085E+04  0.18514051085E+04  0.00000000000E+00 0. -1.
         21   -1    0    0  501  502 -0.00000000000E+00 -0.00000000000E+00 -0.53461548994E+02  0.53461548994E+02  0.00000000000E+00 0. -1.
         25    1    1    2    0    0  0.85759551472E+02 -0.74832105784E+02  0.11163375052E+04  0.11290655296E+04  0.12500000000E+03 0.  0.
         25    1    1    2    0    0 -0.36940347553E+02  0.16320262496E+03  0.41282055182E+03  0.46265050964E+03  0.12500000000E+03 0.  0.
         25    1    1    2    0    0 -0.48819203919E+02 -0.88370519177E+02  0.26878550249E+03  0.31315061820E+03  0.12500000000E+03 0.  0.
</event>
<event>
 5    0  0.5668330E-005  0.2403991E+03  0.7546771E-02  0.1119527E+00
         21   -1    0    0  502  501  0.00000000000E+00  0.00000000000E+00  0.10839783338E+04  0.10839783338E+04  0.00000000000E+00 0. -1.
         21   -1    0    0  501  502 -0.00000000000E+00 -0.00000000000E+00 -0.53314473333E+02  0.53314473333E+02  0.00000000000E+00 0. -1.
         25    1    1    2    0    0 -0.72156845440E+02 -0.32776334543E+02  0.26969490893E+03  0.30763816791E+03  0.12500000000E+03 0.  0.
         25    1    1    2    0    0  0.87488537819E+01 -0.36145799439E+01  0.12360692915E+03  0.17604908567E+03  0.12500000000E+03 0.  0.
         25    1    1    2    0    0  0.63407991658E+02  0.36390914487E+02  0.63736202240E+03  0.65360555357E+03  0.12500000000E+03 0.  0.
</event>
<event>
 5    0  0.5668330E-005  0.3176744E+03  0.7546771E-02  0.1076725E+00
         21   -1    0    0  502  501  0.00000000000E+00  0.00000000000E+00  0.25495620158E+03  0.25495620158E+03  0.00000000000E+00 0. -1.
         21   -1    0    0  501  502 -0.00000000000E+00 -0.00000000000E+00 -0.39582098112E+03  0.39582098112E+03  0.00000000000E+00 0. -1.
         25    1    1    2    0    0  0.81177910711E+02 -0.19164664680E+03 -0.17491777593E+03  0.29923154706E+03  0.12500000000E+03 0.  0.
         25    1    1    2    0    0 -0.28044296359E+02  0.24311316561E+02  0.38565956084E+02  0.13597740856E+03  0.12500000000E+03 0.  0.
         25    1    1    2    0    0 -0.53133614352E+02  0.16733533024E+03 -0.45129597020E+01  0.21556822708E+03  0.12500000000E+03 0.  0.
</event>
<event>
 5    0  0.5668330E-005  0.3405786E+03  0.7546771E-02  0.1066550E+00
         21   -1    0    0  502  501  0.00000000000E+00  0.00000000000E+00  0.47594950513E+03  0.47594950513E+03  0.00000000000E+00 0.  1.
         21   -1    0    0  501  502 -0.00000000000E+00 -0.00000000000E+00 -0.24371032829E+03  0.24371032829E+03  0.00000000000E+00 0.  1.
         25    1    1    2    0    0 -0.21200834791E+03 -0.74262883565E+01  0.12232789925E+02  0.24653058734E+03  0.12500000000E+03 0.  0.
         25    1    1    2    0    0  0.10235281312E+03 -0.12047745867E+03  0.15257828557E+03  0.25277667935E+03  0.12500000000E+03 0.  0.
         25    1    1    2    0    0  0.10965553480E+03  0.12790374702E+03  0.67428101343E+02  0.22035256673E+03  0.12500000000E+03 0.  0.
</event>
<event>
 5    0  0.5668330E-005  0.3631581E+03  0.7546771E-02  0.1057340E+00
         21   -1    0    0  502  501  0.00000000000E+00  0.00000000000E+00  0.12267465905E+03  0.12267465905E+03  0.00000000000E+00 0.  1.
         21   -1    0    0  501  502 -0.00000000000E+00 -0.00000000000E+00 -0.10750697807E+04  0.10750697807E+04  0.00000000000E+00 0.  1.
         25    1    1    2    0    0 -0.12626921971E+03 -0.60620671572E+02 -0.63647190007E+03  0.66358139007E+03  0.12500000000E+03 0.  0.
         25    1    1    2    0    0  0.67793585542E+02  0.15438783322E+03 -0.42959655851E+02  0.21424776619E+03  0.12500000000E+03 0.  0.
         25    1    1    2    0    0  0.58475634165E+02 -0.93767161646E+02 -0.27296356571E+03  0.31991528347E+03  0.12500000000E+03 0.  0.
</event>
<event>
 5    0  0.5668330E-005  0.2938825E+03  0.7546771E-02  0.1088339E+00
         21   -1    0    0  502  501  0.00000000000E+00  0.00000000000E+00  0.25267780844E+03  0.25267780844E+03  0.00000000000E+00 0. -1.
         21   -1    0    0  501  502 -0.00000000000E+00 -0.00000000000E+00 -0.34180647599E+03  0.34180647599E+03  0.00000000000E+00 0. -1.
         25    1    1    2    0    0  0.75846237210E+01 -0.13512379296E+03 -0.10043203005E+02  0.18450428686E+03  0.12500000000E+03 0.  0.
         25    1    1    2    0    0 -0.10258089821E+01  0.21646194754E+03 -0.25019181796E+02  0.25121263200E+03  0.12500000000E+03 0.  0.
         25    1    1    2    0    0 -0.65588147389E+01 -0.81338154581E+02 -0.54066282749E+02  0.15876736558E+03  0.12500000000E+03 0.  0.
</event>
<event>
 5    0  0.5668330E-005  0.3303371E+03  0.7546771E-02  0.1070988E+00
         21   -1    0    0  502  501  0.00000000000E+00  0.00000000000E+00  0.12200733187E+04  0.12200733187E+04  0.00000000000E+00 0. -1.
         21   -1    0    0  501  502 -0.00000000000E+00 -0.00000000000E+00 -0.89439400364E+02  0.89439400364E+02  0.00000000000E+00 0. -1.
         25    1    1    2    0    0 -0.16350957175E+03 -0.58937835393E+02  0.49183209927E+03  0.53640736606E+03  0.12500000000E+03 0.  0.
         25    1    1    2    0    0  0.14896804263E+03 -0.10472044607E+02  0.10695566141E+03  0.22218383144E+03  0.12500000000E+03 0.  0.
         25    1    1    2    0    0  0.14541529117E+02  0.69409879999E+02  0.53184615762E+03  0.55092152153E+03  0.12500000000E+03 0.  0.
</event>
<event>
 5    0  0.5668330E-005  0.5505838E+03  0.7546771E-02  0.1001359E+00
         21   -1    0    0  502  501  0.00000000000E+00  0.00000000000E+00  0.38158863824E+03  0.38158863824E+03  0.00000000000E+00 0. -1.
         21   -1    0    0  501  502 -0.00000000000E+00 -0.00000000000E+00 -0.79442240987E+03  0.79442240987E+03  0.00000000000E+00 0. -1.
         25    1    1    2    0    0  0.10608981456E+02 -0.60440905642E+01 -0.21561953739E+02  0.12743233250E+03  0.12500000000E+03 0.  0.
         25    1    1    2    0    0  0.18700324778E+03  0.43116204856E+03 -0.22350737195E+03  0.53521161433E+03  0.12500000000E+03 0.  0.
         25    1    1    2    0    0 -0.19761222923E+03 -0.42511795799E+03 -0.16776444595E+03  0.51336710128E+03  0.12500000000E+03 0.  0.
</event>
<event>
 5    0  0.5668330E-005  0.2598920E+03  0.7546771E-02  0.1107208E+00
         21   -1    0    0  502  501  0.00000000000E+00  0.00000000000E+00  0.17294296059E+03  0.17294296059E+03  0.00000000000E+00 0. -1.
         21   -1    0    0  501  502 -0.00000000000E+00 -0.00000000000E+00 -0.39055550902E+03  0.39055550902E+03  0.00000000000E+00 0. -1.
         25    1    1    2    0    0 -0.78230044778E+02  0.42608795994E+02 -0.45983238820E+01  0.15356299679E+03  0.12500000000E+03 0.  0.
         25    1    1    2    0    0  0.18519147535E+02 -0.54782913988E+02 -0.23177885443E+03  0.26961187632E+03  0.12500000000E+03 0.  0.
         25    1    1    2    0    0  0.59710897242E+02  0.12174117994E+02  0.18764629886E+02  0.14032359649E+03  0.12500000000E+03 0.  0.
</event>
<event>
 5    0  0.5668330E-005  0.2278747E+03  0.7546771E-02  0.1128145E+00
         21   -1    0    0  502  501  0.00000000000E+00  0.00000000000E+00  0.64848465873E+03  0.64848465873E+03  0.00000000000E+00 0.  1.
         21   -1    0    0  501  502 -0.00000000000E+00 -0.00000000000E+00 -0.80074169251E+02  0.80074169251E+02  0.00000000000E+00 0.  1.
         25    1    1    2    0    0 -0.10220252295E+03  0.47699623951E+02  0.27957870405E+03  0.32635848630E+03  0.12500000000E+03 0.  0.
         25    1    1    2    0    0  0.27266345623E+02 -0.33993304402E+02  0.11916611925E+03  0.17811390267E+03  0.12500000000E+03 0.  0.
         25    1    1    2    0    0  0.74936177327E+02 -0.13706319549E+02  0.16966566618E+03  0.22408643901E+03  0.12500000000E+03 0.  0.
</event>
<event>
 5    0  0.5668330E-005  0.2500151E+03  0.7546771E-02  0.1113295E+00
         21   -1    0    0  502  501  0.00000000000E+00  0.00000000000E+00  0.70104843694E+02  0.70104843694E+02  0.00000000000E+00 0. -1.
         21   -1    0    0  501  502 -0.00000000000E+00 -0.00000000000E+00 -0.89162948076E+03  0.89162948076E+03  0.00000000000E+00 0. -1.
         25    1    1    2    0    0 -0.58036271793E+02 -0.72108900716E+02 -0.51309205542E+03  0.53614956844E+03  0.12500000000E+03 0.  0.
         25    1    1    2    0    0  0.32701967791E+02 -0.22457714207E+02 -0.10804381598E+03  0.16991831507E+03  0.12500000000E+03 0.  0.
         25    1    1    2    0    0  0.25334304002E+02  0.94566614923E+02 -0.20038876566E+03  0.25566644094E+03  0.12500000000E+03 0.  0.
</event>
<event>
 5    0  0.5668330E-005  0.2309890E+03  0.7546771E-02  0.1125946E+00
         21   -1    0    0  502  501  0.00000000000E+00  0.00000000000E+00  0.12336946474E+04  0.12336946474E+04  0.00000000000E+00 0. -1.
         21   -1    0    0  501  502 -0.00000000000E+00 -0.00000000000E+00 -0.43248869399E+02  0.43248869399E+02  0.00000000000E+00 0. -1.
         25    1    1    2    0    0  0.30012346926E+02  0.27875095604E+02  0.65485176312E+03  0.66793232710E+03  0.12500000000E+03 0.  0.
         25    1    1    2    0    0  0.41896926518E+02 -0.54604083074E+02  0.24580141434E+03  0.28421874258E+03  0.12500000000E+03 0.  0.
         25    1    1    2    0    0 -0.71909273443E+02  0.26728987469E+02  0.28979260050E+03  0.32479244709E+03  0.12500000000E+03 0.  0.
</event>
<event>
 5    0  0.5772401E-005  0.2994619E+03  0.7546771E-02  0.1085510E+00
         21   -1    0    0  502  501  0.00000000000E+00  0.00000000000E+00  0.54115077491E+03  0.54115077491E+03  0.00000000000E+00 0. -1.
         21   -1    0    0  501  502 -0.00000000000E+00 -0.00000000000E+00 -0.16571611949E+03  0.16571611949E+03  0.00000000000E+00 0. -1.
         25    1    1    2    0    0 -0.28203242832E+02 -0.85783375132E+02  0.49991578410E+02  0.16210604019E+03  0.12500000000E+03 0.  0.
         25    1    1    2    0    0 -0.40690160465E+02 -0.12335500057E+03  0.10234859468E+03  0.20729780548E+03  0.12500000000E+03 0.  0.
         25    1    1    2    0    0  0.68893403297E+02  0.20913837570E+03  0.22309448232E+03  0.33746304872E+03  0.12500000000E+03 0.  0.
</event>
<event>
 5    0  0.5668330E-005  0.2395590E+03  0.7546771E-02  0.1120087E+00
         21   -1    0    0  502  501  0.00000000000E+00  0.00000000000E+00  0.48243127733E+03  0.48243127733E+03  0.00000000000E+00 0. -1.
         21   -1    0    0  501  502 -0.00000000000E+00 -0.00000000000E+00 -0.11895686364E+03  0.11895686364E+03  0.00000000000E+00 0. -1.
         25    1    1    2    0    0 -0.28351921084E+02 -0.42360422758E+02  0.87252795006E+02  0.16073670110E+03  0.12500000000E+03 0.  0.
         25    1    1    2    0    0  0.21114741491E+02 -0.19985579609E+02 -0.29818743480E+01  0.12837113100E+03  0.12500000000E+03 0.  0.
         25    1    1    2    0    0  0.72371795929E+01  0.62346002366E+02  0.27920349304E+03  0.31228030886E+03  0.12500000000E+03 0.  0.
</event>
<event>
 5    0  0.5668330E-005  0.3227177E+03  0.7546771E-02  0.1074405E+00
         21   -1    0    0  502  501  0.00000000000E+00  0.00000000000E+00  0.46035269906E+03  0.46035269906E+03  0.00000000000E+00 0.  1.
         21   -1    0    0  501  502 -0.00000000000E+00 -0.00000000000E+00 -0.22623243293E+03  0.22623243293E+03  0.00000000000E+00 0.  1.
         25    1    1    2    0    0  0.44479648874E+02 -0.12029351914E+03  0.89661576017E+02  0.20028272048E+03  0.12500000000E+03 0.  0.
         25    1    1    2    0    0  0.12668015749E+03 -0.42111140354E+02  0.11875017750E+03  0.21805461495E+03  0.12500000000E+03 0.  0.
         25    1    1    2    0    0 -0.17115980636E+03  0.16240465949E+03  0.25708512609E+02  0.26824779656E+03  0.12500000000E+03 0.  0.
</event>
<event>
 5    0  0.5668330E-005  0.3379267E+03  0.7546771E-02  0.1067682E+00
         21   -1    0    0  502  501  0.00000000000E+00  0.00000000000E+00  0.23009447663E+04  0.23009447663E+04  0.00000000000E+00 0.  1.
         21   -1    0    0  501  502 -0.00000000000E+00 -0.00000000000E+00 -0.49629391150E+02  0.49629391150E+02  0.00000000000E+00 0.  1.
         25    1    1    2    0    0 -0.84170944275E+01  0.29265207463E+02  0.17872207545E+03  0.22021326050E+03  0.12500000000E+03 0.  0.
         25    1    1    2    0    0 -0.19344505592E+03  0.29859825925E+02  0.12786002286E+04  0.12995215055E+04  0.12500000000E+03 0.  0.
         25    1    1    2    0    0  0.20186215034E+03 -0.59125033388E+02  0.79399307110E+03  0.83083939138E+03  0.12500000000E+03 0.  0.
</event>
<event>
 5    0  0.5668330E-005  0.2393848E+03  0.7546771E-02  0.1120203E+00
         21   -1    0    0  502  501  0.00000000000E+00  0.00000000000E+00  0.50770225150E+02  0.50770225150E+02  0.00000000000E+00 0. -1.
         21   -1    0    0  501  502 -0.00000000000E+00 -0.00000000000E+00 -0.11287139567E+04  0.11287139567E+04  0.00000000000E+00 0. -1.
         25    1    1    2    0    0 -0.54891683575E+02  0.43553234355E+02 -0.54891687067E+03  0.56731359234E+03  0.12500000000E+03 0.  0.
         25    1    1    2    0    0  0.13788756598E+02 -0.34028271697E+02 -0.42393189427E+03  0.44349893355E+03  0.12500000000E+03 0.  0.
         25    1    1    2    0    0  0.41102926978E+02 -0.95249626582E+01 -0.10509496664E+03  0.16867165598E+03  0.12500000000E+03 0.  0.
</event>
<event>
 5    0  0.6066094E-005  0.4478194E+03  0.7546771E-02  0.1028374E+00
         21   -1    0    0  502  501  0.00000000000E+00  0.00000000000E+00  0.63820447022E+03  0.63820447022E+03  0.00000000000E+00 0. -1.
         21   -1    0    0  501  502 -0.00000000000E+00 -0.00000000000E+00 -0.31422879355E+03  0.31422879355E+03  0.00000000000E+00 0.  1.
         25    1    1    2    0    0 -0.16344722320E+03  0.76093332701E+02  0.19224636277E+02  0.22022664846E+03  0.12500000000E+03 0.  0.
         25    1    1    2    0    0  0.59713184969E+02 -0.24546308760E+03 -0.69653412270E+02  0.29033496117E+03  0.12500000000E+03 0.  0.
         25    1    1    2    0    0  0.10373403823E+03  0.16936975490E+03  0.37440445265E+03  0.44187165414E+03  0.12500000000E+03 0.  0.
</event>
<event>
 5    0  0.5668330E-005  0.2678785E+03  0.7546771E-02  0.1102500E+00
         21   -1    0    0  502  501  0.00000000000E+00  0.00000000000E+00  0.31101711068E+03  0.31101711068E+03  0.00000000000E+00 0. -1.
         21   -1    0    0  501  502 -0.00000000000E+00 -0.00000000000E+00 -0.23072327005E+03  0.23072327005E+03  0.00000000000E+00 0. -1.
         25    1    1    2    0    0 -0.34999323613E+02  0.86903011979E+02  0.11477219744E+03  0.19384205800E+03  0.12500000000E+03 0.  0.
         25    1    1    2    0    0  0.83601709714E+02  0.36583337677E+02  0.23617283347E+02  0.15655785683E+03  0.12500000000E+03 0.  0.
         25    1    1    2    0    0 -0.48602386101E+02 -0.12348634966E+03 -0.58095640157E+02  0.19134046590E+03  0.12500000000E+03 0.  0.
</event>
<event>
 5    0  0.5668330E-005  0.2448080E+03  0.7546771E-02  0.1116631E+00
         21   -1    0    0  502  501  0.00000000000E+00  0.00000000000E+00  0.15909093681E+03  0.15909093681E+03  0.00000000000E+00 0.  1.
         21   -1    0    0  501  502 -0.00000000000E+00 -0.00000000000E+00 -0.37670875110E+03  0.37670875110E+03  0.00000000000E+00 0.  1.
         25    1    1    2    0    0 -0.12296686313E+03  0.54712597333E+01 -0.40488071150E+02  0.18004185074E+03  0.12500000000E+03 0.  0.
         25    1    1    2    0    0  0.80724464425E+02 -0.28140773275E+02 -0.25647525237E+02  0.15359406834E+03  0.12500000000E+03 0.  0.
         25    1    1    2    0    0  0.42242398705E+02  0.22669513542E+02 -0.15148221790E+03  0.20216376884E+03  0.12500000000E+03 0.  0.
</event>
<event>
 5    0  0.5668330E-005  0.2311096E+03  0.7546771E-02  0.1125861E+00
         21   -1    0    0  502  501  0.00000000000E+00  0.00000000000E+00  0.13979183820E+03  0.13979183820E+03  0.00000000000E+00 0.  1.
         21   -1    0    0  501  502 -0.00000000000E+00 -0.00000000000E+00 -0.38207987511E+03  0.38207987511E+03  0.00000000000E+00 0.  1.
         25    1    1    2    0    0  0.14033288255E+02 -0.18819603508E+02 -0.33722025960E+01  0.12723003736E+03  0.12500000000E+03 0.  0.
         25    1    1    2    0    0 -0.80310415677E+02  0.29162621349E+02 -0.19347917813E+03  0.24568152906E+03  0.12500000000E+03 0.  0.
         25    1    1    2    0    0  0.66277127422E+02 -0.10343017841E+02 -0.45436656188E+02  0.14896014689E+03  0.12500000000E+03 0.  0.
</event>
<event>
 5    0  0.5668330E-005  0.2571641E+03  0.7546771E-02  0.1108859E+00
         21   -1    0    0  502  501  0.00000000000E+00  0.00000000000E+00  0.20723487892E+04  0.20723487892E+04  0.00000000000E+00 0. -1.
         21   -1    0    0  501  502 -0.00000000000E+00 -0.00000000000E+00 -0.31912276445E+02  0.31912276445E+02  0.00000000000E+00 0. -1.
         25    1    1    2    0    0 -0.18404403441E+02  0.10068781983E+03  0.35007603774E+03  0.38555802589E+03  0.12500000000E+03 0.  0.
         25    1    1    2    0    0  0.29246540681E+02 -0.12708559486E+03  0.89128593156E+03  0.90940734567E+03  0.12500000000E+03 0.  0.
         25    1    1    2    0    0 -0.10842137240E+02  0.26397775031E+02  0.79907454346E+03  0.80929569409E+03  0.12500000000E+03 0.  0.
</event>
<event>
 5    0  0.5668330E-005  0.3374492E+03  0.7546771E-02  0.1067888E+00
         21   -1    0    0  502  501  0.00000000000E+00  0.00000000000E+00  0.23462811856E+03  0.23462811856E+03  0.00000000000E+00 0.  1.
         21   -1    0    0  501  502 -0.00000000000E+00 -0.00000000000E+00 -0.48532957638E+03  0.48532957638E+03  0.00000000000E+00 0.  1.
         25    1    1    2    0    0  0.10851093298E+03 -0.71403320497E+02 -0.31037390276E+03  0.35892898500E+03  0.12500000000E+03 0.  0.
         25    1    1    2    0    0 -0.10006133288E+03 -0.49767552850E+02  0.79582273362E+02  0.18560015595E+03  0.12500000000E+03 0.  0.
         25    1    1    2    0    0 -0.84496001094E+01  0.12117087335E+03 -0.19909828414E+02  0.17542855400E+03  0.12500000000E+03 0.  0.
</event>
<event>
 5    0  0.5668330E-005  0.2529573E+03  0.7546771E-02  0.1111450E+00
         21   -1    0    0  502  501  0.00000000000E+00  0.00000000000E+00  0.14997726456E+03  0.14997726456E+03  0.00000000000E+00 0. -1.
         21   -1    0    0  501  502 -0.00000000000E+00 -0.00000000000E+00 -0.42664715865E+03  0.42664715865E+03  0.00000000000E+00 0. -1.
         25    1    1    2    0    0  0.33897139189E+02 -0.27685988750E+02  0.36962324794E+01  0.13249223431E+03  0.12500000000E+03 0.  0.
         25    1    1    2    0    0 -0.12517283428E+03  0.53045183636E+02 -0.18022896013E+03  0.25804942941E+03  0.12500000000E+03 0.  0.
         25    1    1    2    0    0  0.91275695090E+02 -0.25359194886E+02 -0.10013716643E+03  0.18608275949E+03  0.12500000000E+03 0.  0.
</event>
<event>
 5    0  0.5668330E-005  0.2286953E+03  0.7546771E-02  0.1127561E+00
         21   -1    0    0  502  501  0.00000000000E+00  0.00000000000E+00  0.30650074412E+03  0.30650074412E+03  0.00000000000E+00 0. -1.
         21   -1    0    0  501  502 -0.00000000000E+00 -0.00000000000E+00 -0.17064080203E+03  0.17064080203E+03  0.00000000000E+00 0. -1.
         25    1    1    2    0    0  0.60048836732E+02 -0.72794029145E+02 -0.10617245302E+02  0.15697948710E+03  0.12500000000E+03 0.  0.
         25    1    1    2    0    0 -0.61009053882E+02  0.35504378417E+02  0.33076923997E+02  0.14731513311E+03  0.12500000000E+03 0.  0.
         25    1    1    2    0    0  0.96021714994E+00  0.37289650727E+02  0.11340026340E+03  0.17284692594E+03  0.12500000000E+03 0.  0.
</event>
<event>
 5    0  0.5668330E-005  0.2833204E+03  0.7546771E-02  0.1093889E+00
         21   -1    0    0  502  501  0.00000000000E+00  0.00000000000E+00  0.44018814186E+03  0.44018814186E+03  0.00000000000E+00 0.  1.
         21   -1    0    0  501  502 -0.00000000000E+00 -0.00000000000E+00 -0.18235487528E+03  0.18235487528E+03  0.00000000000E+00 0.  1.
         25    1    1    2    0    0  0.70220791622E+02 -0.98030372919E+02  0.15870697065E+03  0.23527391722E+03  0.12500000000E+03 0.  0.
         25    1    1    2    0    0 -0.33125325696E+02 -0.81223384783E+02  0.40870132248E+02  0.15808191911E+03  0.12500000000E+03 0.  0.
         25    1    1    2    0    0 -0.37095465927E+02  0.17925375770E+03  0.58256163677E+02  0.22918718081E+03  0.12500000000E+03 0.  0.
</event>
<event>
 5    0  0.5668330E-005  0.3692628E+03  0.7546771E-02  0.1054975E+00
         21   -1    0    0  502  501  0.00000000000E+00  0.00000000000E+00  0.34389020869E+03  0.34389020869E+03  0.00000000000E+00 0. -1.
         21   -1    0    0  501  502 -0.00000000000E+00 -0.00000000000E+00 -0.39650739389E+03  0.39650739389E+03  0.00000000000E+00 0. -1.
         25    1    1    2    0    0  0.16686842107E+02  0.20749235604E+03  0.52250563132E+01  0.24286586777E+03  0.12500000000E+03 0.  0.
         25    1    1    2    0    0 -0.31387428602E+02 -0.30232754653E+03 -0.80377170502E+02  0.33833800496E+03  0.12500000000E+03 0.  0.
         25    1    1    2    0    0  0.14700586496E+02  0.94835190481E+02  0.22534928984E+02  0.15919372984E+03  0.12500000000E+03 0.  0.
</event>
<event>
 5    0  0.6499579E-005  0.2833194E+03  0.7546771E-02  0.1093890E+00
         21   -1    0    0  502  501  0.00000000000E+00  0.00000000000E+00  0.30426912085E+03  0.30426912085E+03  0.00000000000E+00 0. -1.
         21   -1    0    0  501  502 -0.00000000000E+00 -0.00000000000E+00 -0.26381214648E+03  0.26381214648E+03  0.00000000000E+00 0. -1.
         25    1    1    2    0    0  0.68858719223E+02  0.35040860890E+01  0.13098554110E+03  0.19374213225E+03  0.12500000000E+03 0.  0.
         25    1    1    2    0    0 -0.43392595840E+02  0.83889587728E+02  0.50954534733E+02  0.16474751868E+03  0.12500000000E+03 0.  0.
         25    1    1    2    0    0 -0.25466123383E+02 -0.87393673817E+02 -0.14148310147E+03  0.20959161640E+03  0.12500000000E+03 0.  0.
</event>
<event>
 5    0  0.6628386E-005  0.2822067E+03  0.7546771E-02  0.1094490E+00
         21   -1    0    0  502  501  0.00000000000E+00  0.00000000000E+00  0.97204152756E+02  0.97204152756E+02  0.00000000000E+00 0. -1.
         21   -1    0    0  501  502 -0.00000000000E+00 -0.00000000000E+00 -0.81931311161E+03  0.81931311161E+03  0.00000000000E+00 0. -1.
         25    1    1    2    0    0 -0.89886541301E+02  0.37057147389E+02 -0.16733309517E+03  0.23038703787E+03  0.12500000000E+03 0.  0.
         25    1    1    2    0    0 -0.35056498273E+02  0.57414804790E+02 -0.42325594785E+03  0.44642582281E+03  0.12500000000E+03 0.  0.
         25    1    1    2    0    0  0.12494303957E+03 -0.94471952179E+02 -0.13151991584E+03  0.23970440369E+03  0.12500000000E+03 0.  0.
</event>
<event>
 5    0  0.5668330E-005  0.5320050E+03  0.7546771E-02  0.1005747E+00
         21   -1    0    0  502  501  0.00000000000E+00  0.00000000000E+00  0.10758637594E+04  0.10758637594E+04  0.00000000000E+00 0.  1.
         21   -1    0    0  501  502 -0.00000000000E+00 -0.00000000000E+00 -0.26307172879E+03  0.26307172879E+03  0.00000000000E+00 0.  1.
         25    1    1    2    0    0 -0.32306527517E+03  0.99376962738E+02  0.76809891183E+03  0.84843850166E+03  0.12500000000E+03 0.  0.
         25    1    1    2    0    0  0.43186580155E+02 -0.37079011019E+02 -0.73912493922E+02  0.15597432648E+03  0.12500000000E+03 0.  0.
         25    1    1    2    0    0  0.27987869502E+03 -0.62297951719E+02  0.11860561268E+03  0.33452266003E+03  0.12500000000E+03 0.  0.
</event>
<event>
 5    0  0.5940104E-005  0.3276428E+03  0.7546771E-02  0.1072185E+00
         21   -1    0    0  502  501  0.00000000000E+00  0.00000000000E+00  0.66706990541E+03  0.66706990541E+03  0.00000000000E+00 0.  1.
         21   -1    0    0  501  502 -0.00000000000E+00 -0.00000000000E+00 -0.16092739162E+03  0.16092739162E+03  0.00000000000E+00 0.  1.
         25    1    1    2    0    0  0.14811762432E+03  0.16928502806E+02  0.30434884294E+03  0.36121824849E+03  0.12500000000E+03 0.  0.
         25    1    1    2    0    0  0.64961135927E+02  0.72179045361E+02  0.76609607259E+02  0.17585162977E+03  0.12500000000E+03 0.  0.
         25    1    1    2    0    0 -0.21307876025E+03 -0.89107548167E+02  0.12518406360E+03  0.29092741877E+03  0.12500000000E+03 0.  0.
</event>
<event>
 5    0  0.5668330E-005  0.4402455E+03  0.7546771E-02  0.1030672E+00
         21   -1    0    0  502  501  0.00000000000E+00  0.00000000000E+00  0.57794653891E+03  0.57794653891E+03  0.00000000000E+00 0. -1.
         21   -1    0    0  501  502 -0.00000000000E+00 -0.00000000000E+00 -0.33535296378E+03  0.33535296378E+03  0.00000000000E+00 0.  1.
         25    1    1    2    0    0 -0.23099650094E+03  0.17309720029E+03 -0.13600899989E+03  0.34270318389E+03  0.12500000000E+03 0.  0.
         25    1    1    2    0    0  0.51721509820E+02 -0.15762562300E+03  0.17866130558E+03  0.27398141126E+03  0.12500000000E+03 0.  0.
         25    1    1    2    0    0  0.17927499112E+03 -0.15471577291E+02  0.19994126945E+03  0.29661490754E+03  0.12500000000E+03 0.  0.
</event>
<event>
 5    0  0.5668330E-005  0.4331248E+03  0.7546771E-02  0.1032877E+00
         21   -1    0    0  502  501  0.00000000000E+00  0.00000000000E+00  0.21254791853E+04  0.21254791853E+04  0.00000000000E+00 0.  1.
         21   -1    0    0  501  502 -0.00000000000E+00 -0.00000000000E+00 -0.88261074967E+02  0.88261074967E+02  0.00000000000E+00 0.  1.
         25    1    1    2    0    0 -0.24101561562E+03  0.90908403016E+02  0.85283299688E+03  0.89961213047E+03  0.12500000000E+03 0.  0.
         25    1    1    2    0    0  0.20364465714E+03 -0.10199714315E+03  0.21868572896E+03  0.33959241988E+03  0.12500000000E+03 0.  0.
         25    1    1    2    0    0  0.37370958480E+02  0.11088740135E+02  0.96569938452E+03  0.97453570994E+03  0.12500000000E+03 0.  0.
</event>
<event>
 5    0  0.5668330E-005  0.2398996E+03  0.7546771E-02  0.1119860E+00
         21   -1    0    0  502  501  0.00000000000E+00  0.00000000000E+00  0.12303199463E+04  0.12303199463E+04  0.00000000000E+00 0.  1.
         21   -1    0    0  501  502 -0.00000000000E+00 -0.00000000000E+00 -0.46777919305E+02  0.46777919305E+02  0.00000000000E+00 0.  1.
         25    1    1    2    0    0  0.94762699726E+01 -0.39657693999E+02  0.25487934784E+03  0.28679437641E+03  0.12500000000E+03 0.  0.
         25    1    1    2    0    0 -0.22326967173E+02  0.13562955109E+03  0.49644239069E+03  0.53006972736E+03  0.12500000000E+03 0.  0.
         25    1    1    2    0    0  0.12850697200E+02 -0.95971857091E+02  0.43222028852E+03  0.46023376189E+03  0.12500000000E+03 0.  0.
</event>
<event>
 5    0  0.5668330E-005  0.2355925E+03  0.7546771E-02  0.1122764E+00
         21   -1    0    0  502  501  0.00000000000E+00  0.00000000000E+00  0.12143923554E+03  0.12143923554E+03  0.00000000000E+00 0. -1.
         21   -1    0    0  501  502 -0.00000000000E+00 -0.00000000000E+00 -0.45705013177E+03  0.45705013177E+03  0.00000000000E+00 0. -1.
         25    1    1    2    0    0 -0.10228511468E+03  0.24553479942E+02 -0.19039874070E+03  0.25088204105E+03  0.12500000000E+03 0.  0.
         25    1    1    2    0    0  0.53818385747E+02  0.16064614754E+02 -0.12609421234E+03  0.18622363136E+03  0.12500000000E+03 0.  0.
         25    1    1    2    0    0  0.48466728929E+02 -0.40618094695E+02 -0.19117943188E+02  0.14138369489E+03  0.12500000000E+03 0.  0.
</event>
<event>
 5    0  0.5668330E-005  0.3272240E+03  0.7546771E-02  0.1072372E+00
         21   -1    0    0  502  501  0.00000000000E+00  0.00000000000E+00  0.60588888069E+03  0.60588888069E+03  0.00000000000E+00 0. -1.
         21   -1    0    0  501  502 -0.00000000000E+00 -0.00000000000E+00 -0.17672477679E+03  0.17672477679E+03  0.00000000000E+00 0. -1.
         25    1    1    2    0    0 -0.14587984032E+03 -0.60058785483E+02  0.14461525395E+03  0.24784381615E+03  0.12500000000E+03 0.  0.
         25    1    1    2    0    0  0.12678578394E+03 -0.10850659031E+03  0.24264463173E+03  0.31992144733E+03  0.12500000000E+03 0.  0.
         25    1    1    2    0    0  0.19094056380E+02  0.16856537579E+03  0.41904218214E+02  0.21484839401E+03  0.12500000000E+03 0.  0.
</event>
<event>
 5    0  0.5668330E-005  0.2541352E+03  0.7546771E-02  0.1110719E+00
         21   -1    0    0  502  501  0.00000000000E+00  0.00000000000E+00  0.19207162610E+03  0.19207162610E+03  0.00000000000E+00 0.  1.
         21   -1    0    0  501  502 -0.00000000000E+00 -0.00000000000E+00 -0.33625310657E+03  0.33625310657E+03  0.00000000000E+00 0.  1.
         25    1    1    2    0    0  0.11173061878E+03 -0.61447894835E+02 -0.11592794494E+03  0.21289401911E+03  0.12500000000E+03 0.  0.
         25    1    1    2    0    0 -0.11884326149E+03  0.74762644749E+02 -0.10505872829E+02  0.18827784579E+03  0.12500000000E+03 0.  0.
         25    1    1    2    0    0  0.71126427057E+01 -0.13314749913E+02 -0.17747662699E+02  0.12715286777E+03  0.12500000000E+03 0.  0.
</event>
<event>
 5    0  0.5668330E-005  0.3907379E+03  0.7546771E-02  0.1047035E+00
         21   -1    0    0  502  501  0.00000000000E+00  0.00000000000E+00  0.22268958635E+03  0.22268958635E+03  0.00000000000E+00 0.  1.
         21   -1    0    0  501  502 -0.00000000000E+00 -0.00000000000E+00 -0.68560055961E+03  0.68560055961E+03  0.00000000000E+00 0.  1.
         25    1    1    2    0    0 -0.24293301512E+03 -0.13239855583E+02 -0.25064790498E+03  0.37100015617E+03  0.12500000000E+03 0.  0.
         25    1    1    2    0    0 -0.42641934370E+02  0.20278008557E+02  0.36372396519E+02  0.13848279108E+03  0.12500000000E+03 0.  0.
         25    1    1    2    0    0  0.28557494949E+03 -0.70381529740E+01 -0.24863546481E+03  0.39880719870E+03  0.12500000000E+03 0.  0.
</event>
<event>
 5    0  0.5668330E-005  0.3026242E+03  0.7546771E-02  0.1083936E+00
         21   -1    0    0  502  501  0.00000000000E+00  0.00000000000E+00  0.72192645504E+02  0.72192645504E+02  0.00000000000E+00 0. -1.
         21   -1    0    0  501  502 -0.00000000000E+00 -0.00000000000E+00 -0.12685699149E+04  0.12685699149E+04  0.00000000000E+00 0. -1.
         25    1    1    2    0    0 -0.68143051919E+02  0.78585989778E+01 -0.43989220597E+03  0.46242338390E+03  0.12500000000E+03 0.  0.
         25    1    1    2    0    0  0.15612843265E+03  0.92937075524E+02 -0.22017249426E+03  0.31163169723E+03  0.12500000000E+03 0.  0.
         25    1    1    2    0    0 -0.87985380732E+02 -0.10079567450E+03 -0.53631256912E+03  0.56670747923E+03  0.12500000000E+03 0.  0.
</event>
<event>
 5    0  0.5668330E-005  0.3287502E+03  0.7546771E-02  0.1071691E+00
         21   -1    0    0  502  501  0.00000000000E+00  0.00000000000E+00  0.12848423502E+03  0.12848423502E+03  0.00000000000E+00 0. -1.
         21   -1    0    0  501  502 -0.00000000000E+00 -0.00000000000E+00 -0.84116672556E+03  0.84116672556E+03  0.00000000000E+00 0. -1.
         25    1    1    2    0    0 -0.35885934804E+02 -0.42085329832E+02 -0.61916458848E+03  0.63407315267E+03  0.12500000000E+03 0.  0.
         25    1    1    2    0    0 -0.51343182987E+02  0.99763190179E+01 -0.11577223517E+03  0.17822418415E+03  0.12500000000E+03 0.  0.
         25    1    1    2    0    0  0.87229117791E+02  0.32109010814E+02  0.22254333110E+02  0.15735362375E+03  0.12500000000E+03 0.  0.
</event>
<event>
 5    0  0.5668330E-005  0.3103073E+03  0.7546771E-02  0.1080199E+00
         21   -1    0    0  502  501  0.00000000000E+00  0.00000000000E+00  0.35445892622E+04  0.35445892622E+04  0.00000000000E+00 0.  1.
         21   -1    0    0  501  502 -0.00000000000E+00 -0.00000000000E+00 -0.27165515209E+02  0.27165515209E+02  0.00000000000E+00 0.  1.
         25    1    1    2    0    0 -0.78008109837E+02 -0.95469245267E+01  0.21684631326E+04  0.21734842457E+04  0.12500000000E+03 0.  0.
         25    1    1    2    0    0  0.14106044800E+03  0.87516052180E+02  0.76506302856E+03  0.79278215611E+03  0.12500000000E+03 0.  0.
         25    1    1    2    0    0 -0.63052338161E+02 -0.77969127653E+02  0.58389758581E+03  0.60548837556E+03  0.12500000000E+03 0.  0.
</event>
<event>
 5    0  0.5668330E-005  0.2569951E+03  0.7546771E-02  0.1108962E+00
         21   -1    0    0  502  501  0.00000000000E+00  0.00000000000E+00  0.11997608555E+04  0.11997608555E+04  0.00000000000E+00 0. -1.
         21   -1    0    0  501  502 -0.00000000000E+00 -0.00000000000E+00 -0.55049702183E+02  0.55049702183E+02  0.00000000000E+00 0. -1.
         25    1    1    2    0    0  0.11991216564E+02 -0.43120027948E+02  0.32517635719E+03  0.35123751132E+03  0.12500000000E+03 0.  0.
         25    1    1    2    0    0 -0.11394276312E+03 -0.57623256430E+02  0.50874732816E+03  0.53921446277E+03  0.12500000000E+03 0.  0.
         25    1    1    2    0    0  0.10195154656E+03  0.10074328438E+03  0.31078746799E+03  0.36435858361E+03  0.12500000000E+03 0.  0.
</event>
<event>
 5    0  0.5668330E-005  0.2557758E+03  0.7546771E-02  0.1109708E+00
         21   -1    0    0  502  501  0.00000000000E+00  0.00000000000E+00  0.53586628280E+03  0.53586628280E+03  0.00000000000E+00 0.  1.
         21   -1    0    0  501  502 -0.00000000000E+00 -0.00000000000E+00 -0.12208507259E+03  0.12208507259E+03  0.00000000000E+00 0.  1.
         25    1    1    2    0    0 -0.89930903294E+02 -0.14365099979E+02  0.29622294657E+03  0.33416606282E+03  0.12500000000E+03 0.  0.
         25    1    1    2    0    0 -0.98009991100E+01  0.89648008328E+01  0.79052021002E+00  0.12570621369E+03  0.12500000000E+03 0.  0.
         25    1    1    2    0    0  0.99731902404E+02  0.54002991458E+01  0.11676774343E+03  0.19807907889E+03  0.12500000000E+03 0.  0.
</event>
<event>
 5    0  0.5668330E-005  0.3785564E+03  0.7546771E-02  0.1051469E+00
         21   -1    0    0  502  501  0.00000000000E+00  0.00000000000E+00  0.11412184654E+03  0.11412184654E+03  0.00000000000E+00 0. -1.
         21   -1    0    0  501  502 -0.00000000000E+00 -0.00000000000E+00 -0.12557185264E+04  0.12557185264E+04  0.00000000000E+00 0. -1.
         25    1    1    2    0    0 -0.26285730973E+02 -0.10752700300E+03 -0.13935114150E+03  0.21747812916E+03  0.12500000000E+03 0.  0.
         25    1    1    2    0    0  0.11085829397E+03 -0.15473817958E+03 -0.23327751214E+03  0.32600132398E+03  0.12500000000E+03 0.  0.
         25    1    1    2    0    0 -0.84572562996E+02  0.26226518259E+03 -0.76896802619E+03  0.82636091976E+03  0.12500000000E+03 0.  0.
</event>
<event>
 5    0  0.6730309E-005  0.2911103E+03  0.7546771E-02  0.1089771E+00
         21   -1    0    0  502  501  0.00000000000E+00  0.00000000000E+00  0.59978709535E+03  0.59978709535E+03  0.00000000000E+00 0.  1.
         21   -1    0    0  501  502 -0.00000000000E+00 -0.00000000000E+00 -0.14129214134E+03  0.14129214134E+03  0.00000000000E+00 0.  1.
         25    1    1    2    0    0 -0.97449981133E+02 -0.61568081859E+02  0.73925542008E+02  0.18541066120E+03  0.12500000000E+03 0.  0.
         25    1    1    2    0    0  0.13075822294E+03  0.87686654229E+02  0.37232680687E+03  0.42312990122E+03  0.12500000000E+03 0.  0.
         25    1    1    2    0    0 -0.33308241804E+02 -0.26118572370E+02  0.12242605139E+02  0.13253867426E+03  0.12500000000E+03 0.  0.
</event>
<event>
 5    0  0.5668330E-005  0.2237102E+03  0.7546771E-02  0.1131147E+00
         21   -1    0    0  502  501  0.00000000000E+00  0.00000000000E+00  0.94861884442E+02  0.94861884442E+02  0.00000000000E+00 0. -1.
         21   -1    0    0  501  502 -0.00000000000E+00 -0.00000000000E+00 -0.52756950376E+03  0.52756950376E+03  0.00000000000E+00 0. -1.
         25    1    1    2    0    0  0.70866143960E+02  0.48636929496E+02 -0.10398443341E+03  0.18391662150E+03  0.12500000000E+03 0.  0.
         25    1    1    2    0    0 -0.44839624516E+02 -0.26902399288E+02 -0.78074341662E+02  0.15638073360E+03  0.12500000000E+03 0.  0.
         25    1    1    2    0    0 -0.26026519444E+02 -0.21734530208E+02 -0.25064884425E+03  0.28213403311E+03  0.12500000000E+03 0.  0.
</event>
<event>
 5    0  0.5668330E-005  0.4106456E+03  0.7546771E-02  0.1040155E+00
         21   -1    0    0  502  501  0.00000000000E+00  0.00000000000E+00  0.13970096697E+04  0.13970096697E+04  0.00000000000E+00 0. -1.
         21   -1    0    0  501  502 -0.00000000000E+00 -0.00000000000E+00 -0.12070767352E+03  0.12070767352E+03  0.00000000000E+00 0. -1.
         25    1    1    2    0    0  0.16281893153E+03 -0.26926872908E+02  0.59631683347E+03  0.63123199129E+03  0.12500000000E+03 0.  0.
         25    1    1    2    0    0  0.15737663934E+03  0.59011803936E+02  0.35596686850E+03  0.41302204673E+03  0.12500000000E+03 0.  0.
         25    1    1    2    0    0 -0.32019557087E+03 -0.32084931028E+02  0.32401829423E+03  0.47346330523E+03  0.12500000000E+03 0.  0.
</event>
<event>
 5    0  0.5668330E-005  0.3672261E+03  0.7546771E-02  0.1055759E+00
         21   -1    0    0  502  501  0.00000000000E+00  0.00000000000E+00  0.10216736043E+04  0.10216736043E+04  0.00000000000E+00 0.  1.
         21   -1    0    0  501  502 -0.00000000000E+00 -0.00000000000E+00 -0.13199420700E+03  0.13199420700E+03  0.00000000000E+00 0.  1.
         25    1    1    2    0    0 -0.62966008720E+02  0.19130705972E+03  0.80806048401E+02  0.25043507504E+03  0.12500000000E+03 0.  0.
         25    1    1    2    0    0 -0.79074252579E+02 -0.12258504290E+03  0.48788535472E+03  0.52434430435E+03  0.12500000000E+03 0.  0.
         25    1    1    2    0    0  0.14204026130E+03 -0.68722016828E+02  0.32098799419E+03  0.37888843192E+03  0.12500000000E+03 0.  0.
</event>
<event>
 5    0  0.5668330E-005  0.3485606E+03  0.7546771E-02  0.1063207E+00
         21   -1    0    0  502  501  0.00000000000E+00  0.00000000000E+00  0.72588225536E+03  0.72588225536E+03  0.00000000000E+00 0. -1.
         21   -1    0    0  501  502 -0.00000000000E+00 -0.00000000000E+00 -0.16737495841E+03  0.16737495841E+03  0.00000000000E+00 0. -1.
         25    1    1    2    0    0  0.19423001796E+03  0.17833848540E+03  0.22724279056E+03  0.36985700090E+03  0.12500000000E+03 0.  0.
         25    1    1    2    0    0 -0.58367251278E+02 -0.56969799597E+02  0.34099395653E+02  0.15310147900E+03  0.12500000000E+03 0.  0.
         25    1    1    2    0    0 -0.13586276668E+03 -0.12136868580E+03  0.29716511073E+03  0.37029873386E+03  0.12500000000E+03 0.  0.
</event>
<event>
 5    0  0.5668330E-005  0.3250754E+03  0.7546771E-02  0.1073337E+00
         21   -1    0    0  502  501  0.00000000000E+00  0.00000000000E+00  0.28206546485E+03  0.28206546485E+03  0.00000000000E+00 0. -1.
         21   -1    0    0  501  502 -0.00000000000E+00 -0.00000000000E+00 -0.37464359622E+03  0.37464359622E+03  0.00000000000E+00 0. -1.
         25    1    1    2    0    0 -0.46965784490E+02 -0.36631562994E+02  0.14975776250E+03  0.20396088779E+03  0.12500000000E+03 0.  0.
         25    1    1    2    0    0  0.58547493561E+02  0.14206233265E+03 -0.20409773491E+03  0.28441237799E+03  0.12500000000E+03 0.  0.
         25    1    1    2    0    0 -0.11581709071E+02 -0.10543076965E+03 -0.38238158955E+02  0.16833579529E+03  0.12500000000E+03 0.  0.
</event>
<event>
 5    0  0.5668330E-005  0.3158994E+03  0.7546771E-02  0.1077552E+00
         21   -1    0    0  502  501  0.00000000000E+00  0.00000000000E+00  0.43398241590E+03  0.43398241590E+03  0.00000000000E+00 0. -1.
         21   -1    0    0  501  502 -0.00000000000E+00 -0.00000000000E+00 -0.22994585327E+03  0.22994585327E+03  0.00000000000E+00 0. -1.
         25    1    1    2    0    0 -0.36906796257E+02 -0.29783557235E+02  0.19408705866E+03  0.23567765747E+03  0.12500000000E+03 0.  0.
         25    1    1    2    0    0 -0.74153738467E+02  0.14760462887E+03 -0.53752043030E+02  0.21400977903E+03  0.12500000000E+03 0.  0.
         25    1    1    2    0    0  0.11106053472E+03 -0.11782107163E+03  0.63701547001E+02  0.21424083267E+03  0.12500000000E+03 0.  0.
</event>
<event>
 5    0  0.5668330E-005  0.3079909E+03  0.7546771E-02  0.1081313E+00
         21   -1    0    0  502  501  0.00000000000E+00  0.00000000000E+00  0.25073419000E+03  0.25073419000E+03  0.00000000000E+00 0.  1.
         21   -1    0    0  501  502 -0.00000000000E+00 -0.00000000000E+00 -0.37832249999E+03  0.37832249999E+03  0.00000000000E+00 0.  1.
         25    1    1    2    0    0  0.48138017167E+02 -0.72514548065E+02  0.12953332441E+03  0.19994876971E+03  0.12500000000E+03 0.  0.
         25    1    1    2    0    0 -0.12662266860E+03  0.64552031432E+01 -0.10284932324E+03  0.20561603328E+03  0.12500000000E+03 0.  0.
         25    1    1    2    0    0  0.78484651436E+02  0.66059344922E+02 -0.15427231116E+03  0.22349188700E+03  0.12500000000E+03 0.  0.
</event>
<event>
 5    0  0.5668330E-005  0.2646966E+03  0.7546771E-02  0.1104354E+00
         21   -1    0    0  502  501  0.00000000000E+00  0.00000000000E+00  0.19315276802E+03  0.19315276802E+03  0.00000000000E+00 0.  1.
         21   -1    0    0  501  502 -0.00000000000E+00 -0.00000000000E+00 -0.36274030904E+03  0.36274030904E+03  0.00000000000E+00 0.  1.
         25    1    1    2    0    0  0.51817908087E+02  0.48833320081E+02 -0.24341202820E+02  0.14590162063E+03  0.12500000000E+03 0.  0.
         25    1    1    2    0    0 -0.15918457627E+03  0.15132286630E+02 -0.10580131349E+03  0.22888344928E+03  0.12500000000E+03 0.  0.
         25    1    1    2    0    0  0.10736666818E+03 -0.63965606711E+02 -0.39445024714E+02  0.18110800715E+03  0.12500000000E+03 0.  0.
</event>
<event>
 5    0  0.5668330E-005  0.2222909E+03  0.7546771E-02  0.1132187E+00
         21   -1    0    0  502  501  0.00000000000E+00  0.00000000000E+00  0.37507480208E+03  0.37507480208E+03  0.00000000000E+00 0. -1.
         21   -1    0    0  501  502 -0.00000000000E+00 -0.00000000000E+00 -0.13174242230E+03  0.13174242230E+03  0.00000000000E+00 0. -1.
         25    1    1    2    0    0  0.16778957236E+02 -0.50528613398E+02  0.65567596671E+00  0.13586796565E+03  0.12500000000E+03 0.  0.
         25    1    1    2    0    0  0.20270924094E+01  0.69403966943E+02  0.17609490246E+03  0.22683790337E+03  0.12500000000E+03 0.  0.
         25    1    1    2    0    0 -0.18806049646E+02 -0.18875353545E+02  0.66581801345E+02  0.14411135536E+03  0.12500000000E+03 0.  0.
</event>
<event>
 5    0  0.5668330E-005  0.3324528E+03  0.7546771E-02  0.1070057E+00
         21   -1    0    0  502  501  0.00000000000E+00  0.00000000000E+00  0.42120211515E+03  0.42120211515E+03  0.00000000000E+00 0. -1.
         21   -1    0    0  501  502 -0.00000000000E+00 -0.00000000000E+00 -0.26240334870E+03  0.26240334870E+03  0.00000000000E+00 0. -1.
         25    1    1    2    0    0  0.63716777317E+02  0.17349834329E+03 -0.56843409478E+02  0.23025567537E+03  0.12500000000E+03 0.  0.
         25    1    1    2    0    0 -0.13501938840E+03 -0.17337963270E+03  0.15923353399E+03  0.29878261433E+03  0.12500000000E+03 0.  0.
         25    1    1    2    0    0  0.71302611087E+02 -0.11871059738E+00  0.56408641941E+02  0.15456717415E+03  0.12500000000E+03 0.  0.
</event>
<event>
 5    0  0.5668330E-005  0.2489529E+03  0.7546771E-02  0.1113968E+00
         21   -1    0    0  502  501  0.00000000000E+00  0.00000000000E+00  0.63211216701E+03  0.63211216701E+03  0.00000000000E+00 0. -1.
         21   -1    0    0  501  502 -0.00000000000E+00 -0.00000000000E+00 -0.98048306128E+02  0.98048306128E+02  0.00000000000E+00 0. -1.
         25    1    1    2    0    0 -0.80443785735E+02 -0.27498917763E+02  0.33702946649E+03  0.36937955333E+03  0.12500000000E+03 0.  0.
         25    1    1    2    0    0  0.24879976173E+02  0.44002658487E+02  0.17551233065E+03  0.22132515758E+03  0.12500000000E+03 0.  0.
         25    1    1    2    0    0  0.55563809562E+02 -0.16503740724E+02  0.21522063754E+02  0.13945576223E+03  0.12500000000E+03 0.  0.
</event>
<event>
 5    0  0.5668330E-005  0.2849842E+03  0.7546771E-02  0.1092997E+00
         21   -1    0    0  502  501  0.00000000000E+00  0.00000000000E+00  0.10677681376E+04  0.10677681376E+04  0.00000000000E+00 0.  1.
         21   -1    0    0  501  502 -0.00000000000E+00 -0.00000000000E+00 -0.76061450369E+02  0.76061450369E+02  0.00000000000E+00 0.  1.
         25    1    1    2    0    0 -0.49048516608E+02  0.11843755926E+03  0.40681206755E+03  0.44447077601E+03  0.12500000000E+03 0.  0.
         25    1    1    2    0    0  0.13831114954E+03 -0.72106930818E+02  0.43960003687E+03  0.48291052585E+03  0.12500000000E+03 0.  0.
         25    1    1    2    0    0 -0.89262632931E+02 -0.46330628443E+02  0.14529458284E+03  0.21644828614E+03  0.12500000000E+03 0.  0.
</event>
<event>
 5    0  0.5668330E-005  0.3353708E+03  0.7546771E-02  0.1068785E+00
         21   -1    0    0  502  501  0.00000000000E+00  0.00000000000E+00  0.13069316490E+04  0.13069316490E+04  0.00000000000E+00 0.  1.
         21   -1    0    0  501  502 -0.00000000000E+00 -0.00000000000E+00 -0.86059270049E+02  0.86059270049E+02  0.00000000000E+00 0.  1.
         25    1    1    2    0    0 -0.24007369370E+03  0.19065815365E+02  0.64673088817E+03  0.70134494041E+03  0.12500000000E+03 0.  0.
         25    1    1    2    0    0  0.56172065668E+02 -0.45423450772E+02  0.33094071958E+03  0.36106142236E+03  0.12500000000E+03 0.  0.
         25    1    1    2    0    0  0.18390162804E+03  0.26357635407E+02  0.24320077121E+03  0.33058455628E+03  0.12500000000E+03 0.  0.
</event>
<event>
 5    0  0.5719022E-005  0.3514395E+03  0.7546771E-02  0.1062026E+00
         21   -1    0    0  502  501  0.00000000000E+00  0.00000000000E+00  0.36564719142E+03  0.36564719142E+03  0.00000000000E+00 0. -1.
         21   -1    0    0  501  502 -0.00000000000E+00 -0.00000000000E+00 -0.33778388180E+03  0.33778388180E+03  0.00000000000E+00 0. -1.
         25    1    1    2    0    0 -0.72980789250E+02  0.12559549234E+03 -0.61971793388E+02  0.20140984700E+03  0.12500000000E+03 0.  0.
         25    1    1    2    0    0  0.72912198289E+02  0.10356140919E+03  0.15161183964E+03  0.23377832246E+03  0.12500000000E+03 0.  0.
         25    1    1    2    0    0  0.68590961103E-01 -0.22915690153E+03 -0.61776736643E+02  0.26824290375E+03  0.12500000000E+03 0.  0.
</event>
<event>
 5    0  0.5668330E-005  0.3825334E+03  0.7546771E-02  0.1050001E+00
         21   -1    0    0  502  501  0.00000000000E+00  0.00000000000E+00  0.88836856711E+03  0.88836856711E+03  0.00000000000E+00 0. -1.
         21   -1    0    0  501  502 -0.00000000000E+00 -0.00000000000E+00 -0.16471971318E+03  0.16471971318E+03  0.00000000000E+00 0. -1.
         25    1    1    2    0    0  0.11164837990E+03 -0.16437956660E+03  0.43520016725E+02  0.23875718734E+03  0.12500000000E+03 0.  0.
         25    1    1    2    0    0 -0.16460756045E+03  0.20959719958E+03  0.37022474542E+03  0.47298836894E+03  0.12500000000E+03 0.  0.
         25    1    1    2    0    0  0.52959180554E+02 -0.45217632978E+02  0.30990409179E+03  0.34134272402E+03  0.12500000000E+03 0.  0.
</event>
<event>
 5    0  0.5668330E-005  0.3547615E+03  0.7546771E-02  0.1060678E+00
         21   -1    0    0  502  501  0.00000000000E+00  0.00000000000E+00  0.35095937095E+02  0.35095937095E+02  0.00000000000E+00 0.  1.
         21   -1    0    0  501  502 -0.00000000000E+00 -0.00000000000E+00 -0.35860473997E+04  0.35860473997E+04  0.00000000000E+00 0.  1.
         25    1    1    2    0    0 -0.68633589364E+02  0.17653382349E+03 -0.14089705257E+04  0.14271291822E+04  0.12500000000E+03 0.  0.
         25    1    1    2    0    0  0.13821137473E+03  0.31763089191E+02 -0.53789497083E+03  0.57014671584E+03  0.12500000000E+03 0.  0.
         25    1    1    2    0    0 -0.69577785367E+02 -0.20829691269E+03 -0.16040859661E+04  0.16238674387E+04  0.12500000000E+03 0.  0.
</event>
<event>
 5    0  0.5668330E-005  0.3283689E+03  0.7546771E-02  0.1071861E+00
         21   -1    0    0  502  501  0.00000000000E+00  0.00000000000E+00  0.51505115843E+03  0.51505115843E+03  0.00000000000E+00 0.  1.
         21   -1    0    0  501  502 -0.00000000000E+00 -0.00000000000E+00 -0.20935033779E+03  0.20935033779E+03  0.00000000000E+00 0.  1.
         25    1    1    2    0    0 -0.16042493687E+02 -0.51968336497E+02  0.16843066335E+03  0.21668400485E+03  0.12500000000E+03 0.  0.
         25    1    1    2    0    0  0.20402599128E+03 -0.23644145021E+02  0.12078463186E+03  0.26907169678E+03  0.12500000000E+03 0.  0.
         25    1    1    2    0    0 -0.18798349759E+03  0.75612481518E+02  0.16485525432E+02  0.23864579460E+03  0.12500000000E+03 0.  0.
</event>
<event>
 5    0  0.6079097E-005  0.3616773E+03  0.7546771E-02  0.1057922E+00
         21   -1    0    0  502  501  0.00000000000E+00  0.00000000000E+00  0.33311646353E+03  0.33311646353E+03  0.00000000000E+00 0.  1.
         21   -1    0    0  501  502 -0.00000000000E+00 -0.00000000000E+00 -0.39268696832E+03  0.39268696832E+03  0.00000000000E+00 0.  1.
         25    1    1    2    0    0  0.24217775534E+03 -0.51153722316E+02 -0.10111907892E+03  0.29515561423E+03  0.12500000000E+03 0.  0.
         25    1    1    2    0    0 -0.43581783864E+02 -0.26076490587E+02  0.11024015439E+03  0.17423331165E+03  0.12500000000E+03 0.  0.
         25    1    1    2    0    0 -0.19859597148E+03  0.77230212903E+02 -0.68691580264E+02  0.25641450597E+03  0.12500000000E+03 0.  0.
</event>
<event>
 5    0  0.8428625E-005  0.2774551E+03  0.7546771E-02  0.1097087E+00
         21   -1    0    0  502  501  0.00000000000E+00  0.00000000000E+00  0.18738492298E+03  0.18738492298E+03  0.00000000000E+00 0. -1.
         21   -1    0    0  501  502 -0.00000000000E+00 -0.00000000000E+00 -0.41081928934E+03  0.41081928934E+03  0.00000000000E+00 0. -1.
         25    1    1    2    0    0  0.78925936663E+01 -0.99023811527E+02 -0.13623625218E+02  0.16024547247E+03  0.12500000000E+03 0.  0.
         25    1    1    2    0    0 -0.26682927151E+02  0.18156807494E+03 -0.71666741691E+02  0.23332395141E+03  0.12500000000E+03 0.  0.
         25    1    1    2    0    0  0.18790333485E+02 -0.82544263411E+02 -0.13814399945E+03  0.20463478844E+03  0.12500000000E+03 0.  0.
</event>
<event>
 5    0  0.5668330E-005  0.2458416E+03  0.7546771E-02  0.1115961E+00
         21   -1    0    0  502  501  0.00000000000E+00  0.00000000000E+00  0.23038242837E+02  0.23038242837E+02  0.00000000000E+00 0.  1.
         21   -1    0    0  501  502 -0.00000000000E+00 -0.00000000000E+00 -0.26233808383E+04  0.26233808383E+04  0.00000000000E+00 0.  1.
         25    1    1    2    0    0  0.77237206270E+02  0.74247017428E+02 -0.60135375154E+03  0.62348178812E+03  0.12500000000E+03 0.  0.
         25    1    1    2    0    0 -0.51719324519E+02 -0.44437382343E+01 -0.53942690324E+03  0.55614837883E+03  0.12500000000E+03 0.  0.
         25    1    1    2    0    0 -0.25517881751E+02 -0.69803279193E+02 -0.14595619407E+04  0.14667889142E+04  0.12500000000E+03 0.  0.
</event>
<event>
 5    0  0.5668330E-005  0.2257528E+03  0.7546771E-02  0.1129665E+00
         21   -1    0    0  502  501  0.00000000000E+00  0.00000000000E+00  0.10280588958E+03  0.10280588958E+03  0.00000000000E+00 0. -1.
         21   -1    0    0  501  502 -0.00000000000E+00 -0.00000000000E+00 -0.49573354454E+03  0.49573354454E+03  0.00000000000E+00 0. -1.
         25    1    1    2    0    0 -0.31647925589E+02  0.65189859636E+01 -0.10522015054E+03  0.16655440088E+03  0.12500000000E+03 0.  0.
         25    1    1    2    0    0  0.16426618617E+02  0.12636037941E+02 -0.10773334206E+02  0.12716354817E+03  0.12500000000E+03 0.  0.
         25    1    1    2    0    0  0.15221306972E+02 -0.19155023904E+02 -0.27693417021E+03  0.30482148506E+03  0.12500000000E+03 0.  0.
</event>
<event>
 5    0  0.5668330E-005  0.2185997E+03  0.7546771E-02  0.1134931E+00
         21   -1    0    0  502  501  0.00000000000E+00  0.00000000000E+00  0.18823889993E+03  0.18823889993E+03  0.00000000000E+00 0. -1.
         21   -1    0    0  501  502 -0.00000000000E+00 -0.00000000000E+00 -0.25385741651E+03  0.25385741651E+03  0.00000000000E+00 0. -1.
         25    1    1    2    0    0  0.59989879818E+01 -0.41712360103E+02 -0.73162397338E+02  0.15084311461E+03  0.12500000000E+03 0.  0.
         25    1    1    2    0    0 -0.48615616084E+02 -0.33206592893E+02 -0.93161556754E+01  0.13848446373E+03  0.12500000000E+03 0.  0.
         25    1    1    2    0    0  0.42616628103E+02  0.74918952996E+02  0.16860036435E+02  0.15276873809E+03  0.12500000000E+03 0.  0.
</event>
<event>
 5    0  0.5668330E-005  0.3150218E+03  0.7546771E-02  0.1077964E+00
         21   -1    0    0  502  501  0.00000000000E+00  0.00000000000E+00  0.64766654339E+03  0.64766654339E+03  0.00000000000E+00 0.  1.
         21   -1    0    0  501  502 -0.00000000000E+00 -0.00000000000E+00 -0.15322502810E+03  0.15322502810E+03  0.00000000000E+00 0.  1.
         25    1    1    2    0    0  0.91042003521E+02 -0.47342107465E+02  0.59126775883E+02  0.17219435871E+03  0.12500000000E+03 0.  0.
         25    1    1    2    0    0 -0.20592083100E+03 -0.43873104330E+02  0.32407238301E+03  0.40617255859E+03  0.12500000000E+03 0.  0.
         25    1    1    2    0    0  0.11487882748E+03  0.91215211795E+02  0.11124235640E+03  0.22252465419E+03  0.12500000000E+03 0.  0.
</event>
<event>
 5    0  0.5668330E-005  0.2266666E+03  0.7546771E-02  0.1129008E+00
         21   -1    0    0  502  501  0.00000000000E+00  0.00000000000E+00  0.46767362668E+03  0.46767362668E+03  0.00000000000E+00 0. -1.
         21   -1    0    0  501  502 -0.00000000000E+00 -0.00000000000E+00 -0.10985813665E+03  0.10985813665E+03  0.00000000000E+00 0. -1.
         25    1    1    2    0    0 -0.20116163056E+02  0.61437759713E+02  0.67052353818E+02  0.15588545951E+03  0.12500000000E+03 0.  0.
         25    1    1    2    0    0 -0.17276573500E+02  0.78920879996E+01  0.22884079538E+03  0.26144573944E+03  0.12500000000E+03 0.  0.
         25    1    1    2    0    0  0.37392736556E+02 -0.69329847713E+02  0.61922340840E+02  0.16020056438E+03  0.12500000000E+03 0.  0.
</event>
<event>
 5    0  0.6700669E-005  0.3053680E+03  0.7546771E-02  0.1082588E+00
         21   -1    0    0  502  501  0.00000000000E+00  0.00000000000E+00  0.15760595849E+03  0.15760595849E+03  0.00000000000E+00 0. -1.
         21   -1    0    0  501  502 -0.00000000000E+00 -0.00000000000E+00 -0.59166315849E+03  0.59166315849E+03  0.00000000000E+00 0. -1.
         25    1    1    2    0    0  0.17731864912E+03  0.45222810147E+02 -0.35925475607E+03  0.42210897366E+03  0.12500000000E+03 0.  0.
         25    1    1    2    0    0 -0.10675504141E+03 -0.54264506372E+02 -0.56924944822E+02  0.18222712438E+03  0.12500000000E+03 0.  0.
         25    1    1    2    0    0 -0.70563607714E+02  0.90416962254E+01 -0.17877499110E+02  0.14493301894E+03  0.12500000000E+03 0.  0.
</event>
<event>
 5    0  0.5668330E-005  0.3288606E+03  0.7546771E-02  0.1071642E+00
         21   -1    0    0  502  501  0.00000000000E+00  0.00000000000E+00  0.10626878362E+03  0.10626878362E+03  0.00000000000E+00 0.  1.
         21   -1    0    0  501  502 -0.00000000000E+00 -0.00000000000E+00 -0.10176956401E+04  0.10176956401E+04  0.00000000000E+00 0.  1.
         25    1    1    2    0    0  0.82691327677E+02 -0.32688228661E+02 -0.65331167385E+02  0.16673193275E+03  0.12500000000E+03 0.  0.
         25    1    1    2    0    0 -0.51696966829E+02 -0.10620778941E+03 -0.69200835358E+03  0.71305906651E+03  0.12500000000E+03 0.  0.
         25    1    1    2    0    0 -0.30994360848E+02  0.13889601807E+03 -0.15408733548E+03  0.24417342442E+03  0.12500000000E+03 0.  0.
</event>
<event>
 5    0  0.5668330E-005  0.4197537E+03  0.7546771E-02  0.1037146E+00
         21   -1    0    0  502  501  0.00000000000E+00  0.00000000000E+00  0.27704710370E+03  0.27704710370E+03  0.00000000000E+00 0.  1.
         21   -1    0    0  501  502 -0.00000000000E+00 -0.00000000000E+00 -0.63596833703E+03  0.63596833703E+03  0.00000000000E+00 0.  1.
         25    1    1    2    0    0  0.14859589337E+03 -0.14772950975E+03 -0.56587198410E+02  0.25046328793E+03  0.12500000000E+03 0.  0.
         25    1    1    2    0    0 -0.10620618002E+03  0.67528544413E+02 -0.42808806824E+03  0.46338348174E+03  0.12500000000E+03 0.  0.
         25    1    1    2    0    0 -0.42389713345E+02  0.80200965333E+02  0.12575403331E+03  0.19916867106E+03  0.12500000000E+03 0.  0.
</event>
<event>
 5    0  0.5668330E-005  0.3209719E+03  0.7546771E-02  0.1075203E+00
         21   -1    0    0  502  501  0.00000000000E+00  0.00000000000E+00  0.23594063506E+03  0.23594063506E+03  0.00000000000E+00 0. -1.
         21   -1    0    0  501  502 -0.00000000000E+00 -0.00000000000E+00 -0.43664793485E+03  0.43664793485E+03  0.00000000000E+00 0. -1.
         25    1    1    2    0    0 -0.29001216526E+02  0.34580028702E+02 -0.14632338507E+03  0.19766735179E+03  0.12500000000E+03 0.  0.
         25    1    1    2    0    0 -0.12042928382E+03  0.12881502081E+03 -0.69306570422E+01  0.21626270135E+03  0.12500000000E+03 0.  0.
         25    1    1    2    0    0  0.14943050034E+03 -0.16339504951E+03 -0.47453257685E+02  0.25865851678E+03  0.12500000000E+03 0.  0.
</event>
<event>
 5    0  0.5668330E-005  0.3561465E+03  0.7546771E-02  0.1060120E+00
         21   -1    0    0  502  501  0.00000000000E+00  0.00000000000E+00  0.13306454455E+03  0.13306454455E+03  0.00000000000E+00 0. -1.
         21   -1    0    0  501  502 -0.00000000000E+00 -0.00000000000E+00 -0.95322422518E+03  0.95322422518E+03  0.00000000000E+00 0. -1.
         25    1    1    2    0    0 -0.23463196658E+03  0.20937792917E+02 -0.15996635761E+03  0.31097393215E+03  0.12500000000E+03 0.  0.
         25    1    1    2    0    0  0.16383198629E+03 -0.14689676779E+02 -0.56824694589E+03  0.60463732753E+03  0.12500000000E+03 0.  0.
         25    1    1    2    0    0  0.70799980290E+02 -0.62481161382E+01 -0.91946377127E+02  0.17067751003E+03  0.12500000000E+03 0.  0.
</event>
<event>
 5    0  0.5668330E-005  0.3834142E+03  0.7546771E-02  0.1049679E+00
         21   -1    0    0  502  501  0.00000000000E+00  0.00000000000E+00  0.36945143132E+03  0.36945143132E+03  0.00000000000E+00 0.  1.
         21   -1    0    0  501  502 -0.00000000000E+00 -0.00000000000E+00 -0.39790472426E+03  0.39790472426E+03  0.00000000000E+00 0.  1.
         25    1    1    2    0    0  0.12002532856E+03  0.12495800467E+03 -0.19639383114E+03  0.29020013669E+03  0.12500000000E+03 0.  0.
         25    1    1    2    0    0 -0.14032385327E+03  0.65882485107E+02  0.14629510595E+03  0.24710027047E+03  0.12500000000E+03 0.  0.
         25    1    1    2    0    0  0.20298524706E+02 -0.19084048978E+03  0.21645432257E+02  0.23005574842E+03  0.12500000000E+03 0.  0.
</event>
<event>
 5    0  0.5668330E-005  0.2451233E+03  0.7546771E-02  0.1116426E+00
         21   -1    0    0  502  501  0.00000000000E+00  0.00000000000E+00  0.58304912058E+02  0.58304912058E+02  0.00000000000E+00 0.  1.
         21   -1    0    0  501  502 -0.00000000000E+00 -0.00000000000E+00 -0.10305379639E+04  0.10305379639E+04  0.00000000000E+00 0.  1.
         25    1    1    2    0    0 -0.21119380466E+02  0.31904201927E+02 -0.43384828733E+03  0.45311504362E+03  0.12500000000E+03 0.  0.
         25    1    1    2    0    0  0.54316596358E+02  0.59236309908E+02 -0.39565243357E+03  0.42264060529E+03  0.12500000000E+03 0.  0.
         25    1    1    2    0    0 -0.33197215893E+02 -0.91140511835E+02 -0.14273233097E+03  0.21308722708E+03  0.12500000000E+03 0.  0.
</event>
<event>
 5    0  0.5668330E-005  0.2531826E+03  0.7546771E-02  0.1111310E+00
         21   -1    0    0  502  501  0.00000000000E+00  0.00000000000E+00  0.13067907947E+03  0.13067907947E+03  0.00000000000E+00 0.  1.
         21   -1    0    0  501  502 -0.00000000000E+00 -0.00000000000E+00 -0.49052555227E+03  0.49052555227E+03  0.00000000000E+00 0.  1.
         25    1    1    2    0    0 -0.68515790419E+02 -0.87942166950E+02 -0.18588329633E+01  0.16750132395E+03  0.12500000000E+03 0.  0.
         25    1    1    2    0    0  0.17558353787E+02  0.58051972970E+02 -0.20322781606E+03  0.24618056904E+03  0.12500000000E+03 0.  0.
         25    1    1    2    0    0  0.50957436632E+02  0.29890193980E+02 -0.15475982378E+03  0.20752273875E+03  0.12500000000E+03 0.  0.
</event>
<event>
 5    0  0.5668330E-005  0.3690772E+03  0.7546771E-02  0.1055046E+00
         21   -1    0    0  502  501  0.00000000000E+00  0.00000000000E+00  0.23833626301E+03  0.23833626301E+03  0.00000000000E+00 0.  1.
         21   -1    0    0  501  502 -0.00000000000E+00 -0.00000000000E+00 -0.57153693409E+03  0.57153693409E+03  0.00000000000E+00 0.  1.
         25    1    1    2    0    0 -0.16872830880E+03  0.25836855473E+02 -0.39670376213E+03  0.44959499573E+03  0.12500000000E+03 0.  0.
         25    1    1    2    0    0  0.17199306680E+02  0.56293841423E+02  0.23937649285E+00  0.13816609582E+03  0.12500000000E+03 0.  0.
         25    1    1    2    0    0  0.15152900212E+03 -0.82130696896E+02  0.63263714555E+02  0.22211210556E+03  0.12500000000E+03 0.  0.
</event>
<event>
 5    0  0.5668330E-005  0.3283738E+03  0.7546771E-02  0.1071859E+00
         21   -1    0    0  502  501  0.00000000000E+00  0.00000000000E+00  0.53686062539E+03  0.53686062539E+03  0.00000000000E+00 0.  1.
         21   -1    0    0  501  502 -0.00000000000E+00 -0.00000000000E+00 -0.20085167793E+03  0.20085167793E+03  0.00000000000E+00 0.  1.
         25    1    1    2    0    0 -0.17849621512E+03 -0.53371003018E+02  0.23112475063E+03  0.32210714542E+03  0.12500000000E+03 0.  0.
         25    1    1    2    0    0  0.88927457882E+02  0.54033996418E+02  0.18157242239E+03  0.24376486643E+03  0.12500000000E+03 0.  0.
         25    1    1    2    0    0  0.89568757239E+02 -0.66299339984E+00 -0.76688225558E+02  0.17184029147E+03  0.12500000000E+03 0.  0.
</event>
<event>
 5    0  0.5668330E-005  0.4115871E+03  0.7546771E-02  0.1039840E+00
         21   -1    0    0  502  501  0.00000000000E+00  0.00000000000E+00  0.64550374395E+03  0.64550374395E+03  0.00000000000E+00 0. -1.
         21   -1    0    0  501  502 -0.00000000000E+00 -0.00000000000E+00 -0.26243676432E+03  0.26243676432E+03  0.00000000000E+00 0. -1.
         25    1    1    2    0    0  0.65600583248E+02 -0.19098868423E+02  0.29170745452E+03  0.32463278072E+03  0.12500000000E+03 0.  0.
         25    1    1    2    0    0  0.38033026107E+02  0.19018115356E+03  0.21640645042E+03  0.31634179937E+03  0.12500000000E+03 0.  0.
         25    1    1    2    0    0 -0.10363360935E+03 -0.17108228514E+03 -0.12504692532E+03  0.26696592818E+03  0.12500000000E+03 0.  0.
</event>
<event>
 5    0  0.5668330E-005  0.6172685E+03  0.7546771E-02  0.9870213E-01
         21   -1    0    0  502  501  0.00000000000E+00  0.00000000000E+00  0.11800182598E+04  0.11800182598E+04  0.00000000000E+00 0. -1.
         21   -1    0    0  501  502 -0.00000000000E+00 -0.00000000000E+00 -0.32289367632E+03  0.32289367632E+03  0.00000000000E+00 0. -1.
         25    1    1    2    0    0 -0.34849939418E+03 -0.24764000906E+03  0.54290044744E+03  0.70224162342E+03  0.12500000000E+03 0.  0.
         25    1    1    2    0    0 -0.13811191839E+03  0.47581848991E+02  0.49260180362E+02  0.19847040012E+03  0.12500000000E+03 0.  0.
         25    1    1    2    0    0  0.48661131257E+03  0.20005816007E+03  0.26496395569E+03  0.60219991261E+03  0.12500000000E+03 0.  0.
</event>
<event>
 5    0  0.5668330E-005  0.2530694E+03  0.7546771E-02  0.1111380E+00
         21   -1    0    0  502  501  0.00000000000E+00  0.00000000000E+00  0.23346769064E+03  0.23346769064E+03  0.00000000000E+00 0.  1.
         21   -1    0    0  501  502 -0.00000000000E+00 -0.00000000000E+00 -0.27431680206E+03  0.27431680206E+03  0.00000000000E+00 0.  1.
         25    1    1    2    0    0  0.21344985801E+02  0.63540635671E+02 -0.15343576582E+02  0.14266550439E+03  0.12500000000E+03 0.  0.
         25    1    1    2    0    0 -0.68272305264E+02 -0.89244982315E+02  0.86431357073E+02  0.18900040746E+03  0.12500000000E+03 0.  0.
         25    1    1    2    0    0  0.46927319463E+02  0.25704346644E+02 -0.11193689191E+03  0.17611858085E+03  0.12500000000E+03 0.  0.
</event>
<event>
 5    0  0.5668330E-005  0.2573965E+03  0.7546771E-02  0.1108718E+00
         21   -1    0    0  502  501  0.00000000000E+00  0.00000000000E+00  0.47118617140E+02  0.47118617140E+02  0.00000000000E+00 0.  1.
         21   -1    0    0  501  502 -0.00000000000E+00 -0.00000000000E+00 -0.14060884836E+04  0.14060884836E+04  0.00000000000E+00 0.  1.
         25    1    1    2    0    0  0.58650064621E+02 -0.81246607685E+02 -0.66240180655E+03  0.68149981267E+03  0.12500000000E+03 0.  0.
         25    1    1    2    0    0 -0.10430348303E+03  0.10428844485E+03 -0.46567400612E+03  0.50421481164E+03  0.12500000000E+03 0.  0.
         25    1    1    2    0    0  0.45653418413E+02 -0.23041837166E+02 -0.23089405377E+03  0.26749247642E+03  0.12500000000E+03 0.  0.
</event>
<event>
 5    0  0.5668330E-005  0.2527063E+03  0.7546771E-02  0.1111606E+00
         21   -1    0    0  502  501  0.00000000000E+00  0.00000000000E+00  0.19605973388E+03  0.19605973388E+03  0.00000000000E+00 0. -1.
         21   -1    0    0  501  502 -0.00000000000E+00 -0.00000000000E+00 -0.32571945702E+03  0.32571945702E+03  0.00000000000E+00 0. -1.
         25    1    1    2    0    0 -0.19230089834E+02 -0.14539215753E+03  0.19799205746E+02  0.19371547272E+03  0.12500000000E+03 0.  0.
         25    1    1    2    0    0  0.18628221586E+02  0.64682306181E+02 -0.57676527645E+02  0.15323965940E+03  0.12500000000E+03 0.  0.
         25    1    1    2    0    0  0.60186824839E+00  0.80709851345E+02 -0.91782401238E+02  0.17482405877E+03  0.12500000000E+03 0.  0.
</event>
<event>
 5    0  0.5668330E-005  0.4353718E+03  0.7546771E-02  0.1032176E+00
         21   -1    0    0  502  501  0.00000000000E+00  0.00000000000E+00  0.92151802876E+02  0.92151802876E+02  0.00000000000E+00 0.  1.
         21   -1    0    0  501  502 -0.00000000000E+00 -0.00000000000E+00 -0.20569167295E+04  0.20569167295E+04  0.00000000000E+00 0.  1.
         25    1    1    2    0    0  0.14966964258E+03 -0.13795906712E+03 -0.31634037541E+03  0.39639618972E+03  0.12500000000E+03 0.  0.
         25    1    1    2    0    0 -0.17055744006E+03 -0.14400710492E+03 -0.47857512919E+03  0.54266660198E+03  0.12500000000E+03 0.  0.
         25    1    1    2    0    0  0.20887797484E+02  0.28196617203E+03 -0.11698494220E+04  0.12100057407E+04  0.12500000000E+03 0.  0.
</event>
<event>
 5    0  0.6313857E-005  0.4204783E+03  0.7546771E-02  0.1036911E+00
         21   -1    0    0  502  501  0.00000000000E+00  0.00000000000E+00  0.64158561287E+03  0.64158561287E+03  0.00000000000E+00 0. -1.
         21   -1    0    0  501  502 -0.00000000000E+00 -0.00000000000E+00 -0.27557038828E+03  0.27557038828E+03  0.00000000000E+00 0. -1.
         25    1    1    2    0    0 -0.47401173682E+02 -0.21313550816E+03  0.40380073954E+02  0.25481202185E+03  0.12500000000E+03 0.  0.
         25    1    1    2    0    0 -0.12043017790E+03  0.12786038971E+03 -0.52452003794E+02  0.22187365708E+03  0.12500000000E+03 0.  0.
         25    1    1    2    0    0  0.16783135158E+03  0.85275118450E+02  0.37808715443E+03  0.44047032221E+03  0.12500000000E+03 0.  0.
</event>
<event>
 5    0  0.7273102E-005  0.2690762E+03  0.7546771E-02  0.1101809E+00
         21   -1    0    0  502  501  0.00000000000E+00  0.00000000000E+00  0.24390813364E+03  0.24390813364E+03  0.00000000000E+00 0.  1.
         21   -1    0    0  501  502 -0.00000000000E+00 -0.00000000000E+00 -0.29684135989E+03  0.29684135989E+03  0.00000000000E+00 0.  1.
         25    1    1    2    0    0 -0.39220051733E+02  0.99623665933E+02  0.11674184477E+03  0.20178390816E+03  0.12500000000E+03 0.  0.
         25    1    1    2    0    0 -0.16818065861E+02 -0.10361898415E+02 -0.99754921797E+02  0.16114049988E+03  0.12500000000E+03 0.  0.
         25    1    1    2    0    0  0.56038117594E+02 -0.89261767518E+02 -0.69920149223E+02  0.17782508549E+03  0.12500000000E+03 0.  0.
</event>
<event>
 5    0  0.5668330E-005  0.3196704E+03  0.7546771E-02  0.1075801E+00
         21   -1    0    0  502  501  0.00000000000E+00  0.00000000000E+00  0.31051705283E+03  0.31051705283E+03  0.00000000000E+00 0.  1.
         21   -1    0    0  501  502 -0.00000000000E+00 -0.00000000000E+00 -0.32909365345E+03  0.32909365345E+03  0.00000000000E+00 0.  1.
         25    1    1    2    0    0 -0.10584594116E+03  0.65915796993E+02 -0.71741428933E+02  0.19057829934E+03  0.12500000000E+03 0.  0.
         25    1    1    2    0    0  0.10733789127E+03 -0.15095565513E+03  0.15032127938E+03  0.26931490815E+03  0.12500000000E+03 0.  0.
         25    1    1    2    0    0 -0.14919501119E+01  0.85039858141E+02 -0.97156451061E+02  0.17971749879E+03  0.12500000000E+03 0.  0.
</event>
<event>
 5    0  0.5668330E-005  0.3126359E+03  0.7546771E-02  0.1079089E+00
         21   -1    0    0  502  501  0.00000000000E+00  0.00000000000E+00  0.20170945748E+03  0.20170945748E+03  0.00000000000E+00 0.  1.
         21   -1    0    0  501  502 -0.00000000000E+00 -0.00000000000E+00 -0.48456420614E+03  0.48456420614E+03  0.00000000000E+00 0.  1.
         25    1    1    2    0    0 -0.34986992041E+02  0.14984466690E+03 -0.21444387890E+03  0.29204227607E+03  0.12500000000E+03 0.  0.
         25    1    1    2    0    0 -0.25568180365E+01 -0.19238844192E+03 -0.10475415858E+03  0.25222665133E+03  0.12500000000E+03 0.  0.
         25    1    1    2    0    0  0.37543810077E+02  0.42543775022E+02  0.36343288813E+02  0.14200473622E+03  0.12500000000E+03 0.  0.
</event>
<event>
 5    0  0.5668330E-005  0.2536103E+03  0.7546771E-02  0.1111044E+00
         21   -1    0    0  502  501  0.00000000000E+00  0.00000000000E+00  0.51630719517E+03  0.51630719517E+03  0.00000000000E+00 0.  1.
         21   -1    0    0  501  502 -0.00000000000E+00 -0.00000000000E+00 -0.12457350816E+03  0.12457350816E+03  0.00000000000E+00 0.  1.
         25    1    1    2    0    0  0.20023354060E+02  0.31226960654E+02  0.24608381659E+02  0.13268997787E+03  0.12500000000E+03 0.  0.
         25    1    1    2    0    0  0.85459513176E+02  0.61047346592E+02  0.18184083190E+03  0.24437920342E+03  0.12500000000E+03 0.  0.
         25    1    1    2    0    0 -0.10548286724E+03 -0.92274307245E+02  0.18528447345E+03  0.26381152204E+03  0.12500000000E+03 0.  0.
</event>
<event>
 5    0  0.5668330E-005  0.3067746E+03  0.7546771E-02  0.1081902E+00
         21   -1    0    0  502  501  0.00000000000E+00  0.00000000000E+00  0.21277666663E+03  0.21277666663E+03  0.00000000000E+00 0.  1.
         21   -1    0    0  501  502 -0.00000000000E+00 -0.00000000000E+00 -0.44229773784E+03  0.44229773784E+03  0.00000000000E+00 0.  1.
         25    1    1    2    0    0  0.12753990902E+02  0.13060894181E+02  0.11517153024E+03  0.17094657826E+03  0.12500000000E+03 0.  0.
         25    1    1    2    0    0 -0.18846076998E+02 -0.11528700827E+03 -0.22682987589E+03  0.28411804147E+03  0.12500000000E+03 0.  0.
         25    1    1    2    0    0  0.60920860964E+01  0.10222611409E+03 -0.11786272556E+03  0.20000978474E+03  0.12500000000E+03 0.  0.
</event>
<event>
 5    0  0.5668330E-005  0.2967819E+03  0.7546771E-02  0.1086860E+00
         21   -1    0    0  502  501  0.00000000000E+00  0.00000000000E+00  0.11590850244E+04  0.11590850244E+04  0.00000000000E+00 0. -1.
         21   -1    0    0  501  502 -0.00000000000E+00 -0.00000000000E+00 -0.75990561908E+02  0.75990561908E+02  0.00000000000E+00 0. -1.
         25    1    1    2    0    0 -0.13153337508E+03  0.67291729724E+02  0.30622068135E+03  0.36225034346E+03  0.12500000000E+03 0.  0.
         25    1    1    2    0    0 -0.18148261694E+02 -0.91727871788E+02  0.55446956962E+03  0.57602505631E+03  0.12500000000E+03 0.  0.
         25    1    1    2    0    0  0.14968163677E+03  0.24436142064E+02  0.22240421152E+03  0.29680018654E+03  0.12500000000E+03 0.  0.
</event>
<event>
 5    0  0.5668330E-005  0.4737407E+03  0.7546771E-02  0.1020870E+00
         21   -1    0    0  502  501  0.00000000000E+00  0.00000000000E+00  0.29961563954E+04  0.29961563954E+04  0.00000000000E+00 0.  1.
         21   -1    0    0  501  502 -0.00000000000E+00 -0.00000000000E+00 -0.74906038075E+02  0.74906038075E+02  0.00000000000E+00 0.  1.
         25    1    1    2    0    0 -0.77787156825E+02  0.19502262333E+03  0.58195443868E+03  0.63117401252E+03  0.12500000000E+03 0.  0.
         25    1    1    2    0    0  0.15489425788E+03 -0.50960510369E+02  0.18711226894E+03  0.27789423515E+03  0.12500000000E+03 0.  0.
         25    1    1    2    0    0 -0.77107101055E+02 -0.14406211296E+03  0.21521836497E+04  0.21619941858E+04  0.12500000000E+03 0.  0.
</event>
<event>
 5    0  0.5668330E-005  0.2672861E+03  0.7546771E-02  0.1102843E+00
         21   -1    0    0  502  501  0.00000000000E+00  0.00000000000E+00  0.99008608775E+02  0.99008608775E+02  0.00000000000E+00 0.  1.
         21   -1    0    0  501  502 -0.00000000000E+00 -0.00000000000E+00 -0.72157197492E+03  0.72157197492E+03  0.00000000000E+00 0.  1.
         25    1    1    2    0    0 -0.52002981486E+02  0.52645640828E+02 -0.35748616235E+02  0.14959557863E+03  0.12500000000E+03 0.  0.
         25    1    1    2    0    0  0.58946323473E+02 -0.89023235109E+01 -0.48330809727E+03  0.50275803057E+03  0.12500000000E+03 0.  0.
         25    1    1    2    0    0 -0.69433419871E+01 -0.43743317317E+02 -0.10350665263E+03  0.16822697449E+03  0.12500000000E+03 0.  0.
</event>
<event>
 5    0  0.5668330E-005  0.3204173E+03  0.7546771E-02  0.1075457E+00
         21   -1    0    0  502  501  0.00000000000E+00  0.00000000000E+00  0.77565356187E+03  0.77565356187E+03  0.00000000000E+00 0.  1.
         21   -1    0    0  501  502 -0.00000000000E+00 -0.00000000000E+00 -0.13236221058E+03  0.13236221058E+03  0.00000000000E+00 0.  1.
         25    1    1    2    0    0  0.49156249398E+02  0.24827592093E+02  0.47604448195E+03  0.49525356635E+03  0.12500000000E+03 0.  0.
         25    1    1    2    0    0 -0.52715329130E+02 -0.14742617413E+03  0.68590140303E+02  0.21176163508E+03  0.12500000000E+03 0.  0.
         25    1    1    2    0    0  0.35590797325E+01  0.12259858204E+03  0.98656729031E+02  0.20100057102E+03  0.12500000000E+03 0.  0.
</event>
<event>
 5    0  0.5668330E-005  0.2738216E+03  0.7546771E-02  0.1099112E+00
         21   -1    0    0  502  501  0.00000000000E+00  0.00000000000E+00  0.38823498724E+03  0.38823498724E+03  0.00000000000E+00 0. -1.
         21   -1    0    0  501  502 -0.00000000000E+00 -0.00000000000E+00 -0.19312603719E+03  0.19312603719E+03  0.00000000000E+00 0. -1.
         25    1    1    2    0    0 -0.86240743540E+02 -0.10799406545E+03  0.10627408515E+02  0.18664974104E+03  0.12500000000E+03 0.  0.
         25    1    1    2    0    0  0.35320129346E+02 -0.56654817585E+01 -0.12065765124E+02  0.13057638343E+03  0.12500000000E+03 0.  0.
         25    1    1    2    0    0  0.50920614194E+02  0.11365954721E+03  0.19654730667E+03  0.26413489996E+03  0.12500000000E+03 0.  0.
</event>
<event>
 5    0  0.5668330E-005  0.2913062E+03  0.7546771E-02  0.1089669E+00
         21   -1    0    0  502  501  0.00000000000E+00  0.00000000000E+00  0.10549078021E+03  0.10549078021E+03  0.00000000000E+00 0.  1.
         21   -1    0    0  501  502 -0.00000000000E+00 -0.00000000000E+00 -0.80442397872E+03  0.80442397872E+03  0.00000000000E+00 0.  1.
         25    1    1    2    0    0 -0.35099260604E+02  0.12531124532E+03 -0.26342658980E+03  0.31930147903E+03  0.12500000000E+03 0.  0.
         25    1    1    2    0    0  0.11065500659E+03 -0.70204628211E+02 -0.38677280777E+03  0.42707309109E+03  0.12500000000E+03 0.  0.
         25    1    1    2    0    0 -0.75555745989E+02 -0.55106617105E+02 -0.48733800938E+02  0.16354018881E+03  0.12500000000E+03 0.  0.
</event>
<event>
 5    0  0.5668330E-005  0.3452791E+03  0.7546771E-02  0.1064570E+00
         21   -1    0    0  502  501  0.00000000000E+00  0.00000000000E+00  0.47513324000E+03  0.47513324000E+03  0.00000000000E+00 0. -1.
         21   -1    0    0  501  502 -0.00000000000E+00 -0.00000000000E+00 -0.25091416572E+03  0.25091416572E+03  0.00000000000E+00 0. -1.
         25    1    1    2    0    0 -0.10456237535E+03  0.97646928949E+02  0.53452395888E+02  0.19735848525E+03  0.12500000000E+03 0.  0.
         25    1    1    2    0    0 -0.11285998885E+03 -0.70109604415E+01 -0.57057240876E+02  0.17795240764E+03  0.12500000000E+03 0.  0.
         25    1    1    2    0    0  0.21742236420E+03 -0.90635968508E+02  0.22782391926E+03  0.35073651283E+03  0.12500000000E+03 0.  0.
</event>
<event>
 5    0  0.5668330E-005  0.4723566E+03  0.7546771E-02  0.1021257E+00
         21   -1    0    0  502  501  0.00000000000E+00  0.00000000000E+00  0.25312987814E+03  0.25312987814E+03  0.00000000000E+00 0. -1.
         21   -1    0    0  501  502 -0.00000000000E+00 -0.00000000000E+00 -0.88144770320E+03  0.88144770320E+03  0.00000000000E+00 0. -1.
         25    1    1    2    0    0 -0.35930090781E+02 -0.12687857448E+03  0.69600103062E+02  0.19457214197E+03  0.12500000000E+03 0.  0.
         25    1    1    2    0    0 -0.13915828620E+03  0.23791485483E+03 -0.14330835038E+03  0.33485935862E+03  0.12500000000E+03 0.  0.
         25    1    1    2    0    0  0.17508837698E+03 -0.11103628035E+03 -0.55460957774E+03  0.60514608073E+03  0.12500000000E+03 0.  0.
</event>
<event>
 5    0  0.5668330E-005  0.2917061E+03  0.7546771E-02  0.1089462E+00
         21   -1    0    0  502  501  0.00000000000E+00  0.00000000000E+00  0.45332599166E+02  0.45332599166E+02  0.00000000000E+00 0. -1.
         21   -1    0    0  501  502 -0.00000000000E+00 -0.00000000000E+00 -0.18770698933E+04  0.18770698933E+04  0.00000000000E+00 0. -1.
         25    1    1    2    0    0  0.11713114698E+02 -0.10949270454E+03 -0.90128555307E+03  0.91655141568E+03  0.12500000000E+03 0.  0.
         25    1    1    2    0    0  0.64950162398E+02 -0.63337684599E+02 -0.41302622633E+03  0.44096014505E+03  0.12500000000E+03 0.  0.
         25    1    1    2    0    0 -0.76663277096E+02  0.17283038914E+03 -0.51742551471E+03  0.56489093172E+03  0.12500000000E+03 0.  0.
</event>
<event>
 5    0  0.5668330E-005  0.2808389E+03  0.7546771E-02  0.1095232E+00
         21   -1    0    0  502  501  0.00000000000E+00  0.00000000000E+00  0.29138076189E+03  0.29138076189E+03  0.00000000000E+00 0.  1.
         21   -1    0    0  501  502 -0.00000000000E+00 -0.00000000000E+00 -0.27067838005E+03  0.27067838005E+03  0.00000000000E+00 0.  1.
         25    1    1    2    0    0  0.53160848021E+02 -0.38229028593E+02  0.79141207034E+02  0.16178957025E+03  0.12500000000E+03 0.  0.
         25    1    1    2    0    0 -0.11822428403E+03  0.10085661133E+03  0.57250174440E+02  0.20748884273E+03  0.12500000000E+03 0.  0.
         25    1    1    2    0    0  0.65063436004E+02 -0.62627582741E+02 -0.11568899963E+03  0.19278072897E+03  0.12500000000E+03 0.  0.
</event>
<event>
 5    0  0.5668330E-005  0.3242853E+03  0.7546771E-02  0.1073694E+00
         21   -1    0    0  502  501  0.00000000000E+00  0.00000000000E+00  0.25044521529E+03  0.25044521529E+03  0.00000000000E+00 0. -1.
         21   -1    0    0  501  502 -0.00000000000E+00 -0.00000000000E+00 -0.41989601877E+03  0.41989601877E+03  0.00000000000E+00 0. -1.
         25    1    1    2    0    0 -0.13332910061E+03 -0.21395315092E+03 -0.73384719761E+02  0.29079703738E+03  0.12500000000E+03 0.  0.
         25    1    1    2    0    0  0.74862167125E+02  0.52828683289E+02 -0.37218580916E+02  0.15939082976E+03  0.12500000000E+03 0.  0.
         25    1    1    2    0    0  0.58466933485E+02  0.16112446763E+03 -0.58847502811E+02  0.22015336692E+03  0.12500000000E+03 0.  0.
</event>
<event>
 5    0  0.6221848E-005  0.3047488E+03  0.7546771E-02  0.1082891E+00
         21   -1    0    0  502  501  0.00000000000E+00  0.00000000000E+00  0.96605150159E+03  0.96605150159E+03  0.00000000000E+00 0. -1.
         21   -1    0    0  501  502 -0.00000000000E+00 -0.00000000000E+00 -0.96135506432E+02  0.96135506432E+02  0.00000000000E+00 0. -1.
         25    1    1    2    0    0  0.79529431629E+02  0.20336597567E+03  0.26442980491E+03  0.36500790715E+03  0.12500000000E+03 0.  0.
         25    1    1    2    0    0 -0.48226080309E+01 -0.94290580007E+02  0.35072733284E+03  0.38412059698E+03  0.12500000000E+03 0.  0.
         25    1    1    2    0    0 -0.74706823598E+02 -0.10907539566E+03  0.25475885740E+03  0.31305850389E+03  0.12500000000E+03 0.  0.
</event>
<event>
 5    0  0.5668330E-005  0.3817414E+03  0.7546771E-02  0.1050292E+00
         21   -1    0    0  502  501  0.00000000000E+00  0.00000000000E+00  0.22532443857E+03  0.22532443857E+03  0.00000000000E+00 0.  1.
         21   -1    0    0  501  502 -0.00000000000E+00 -0.00000000000E+00 -0.64674078364E+03  0.64674078364E+03  0.00000000000E+00 0.  1.
         25    1    1    2    0    0 -0.10937070883E+03  0.14892269013E+02  0.77386615066E+02  0.18384074580E+03  0.12500000000E+03 0.  0.
         25    1    1    2    0    0 -0.53762883295E+02  0.62994696747E+02 -0.76513873009E+01  0.15014101094E+03  0.12500000000E+03 0.  0.
         25    1    1    2    0    0  0.16313359212E+03 -0.77886965760E+02 -0.49115157283E+03  0.53808346547E+03  0.12500000000E+03 0.  0.
</event>
<event>
 5    0  0.5668330E-005  0.2547299E+03  0.7546771E-02  0.1110352E+00
         21   -1    0    0  502  501  0.00000000000E+00  0.00000000000E+00  0.12110783659E+03  0.12110783659E+03  0.00000000000E+00 0. -1.
         21   -1    0    0  501  502 -0.00000000000E+00 -0.00000000000E+00 -0.53578150247E+03  0.53578150247E+03  0.00000000000E+00 0. -1.
         25    1    1    2    0    0  0.81728943301E+02  0.19984903656E+02 -0.19491662194E+03  0.24636660905E+03  0.12500000000E+03 0.  0.
         25    1    1    2    0    0 -0.10304907833E+03 -0.10483251936E+03 -0.10557530862E+03  0.21995480319E+03  0.12500000000E+03 0.  0.
         25    1    1    2    0    0  0.21320135025E+02  0.84847615699E+02 -0.11418173532E+03  0.19056792681E+03  0.12500000000E+03 0.  0.
</event>
<event>
 5    0  0.5668330E-005  0.3235409E+03  0.7546771E-02  0.1074031E+00
         21   -1    0    0  502  501  0.00000000000E+00  0.00000000000E+00  0.67438401359E+03  0.67438401359E+03  0.00000000000E+00 0.  1.
         21   -1    0    0  501  502 -0.00000000000E+00 -0.00000000000E+00 -0.15522126677E+03  0.15522126677E+03  0.00000000000E+00 0.  1.
         25    1    1    2    0    0 -0.76953836687E+02 -0.62430845968E+02  0.32923529333E+03  0.36584201766E+03  0.12500000000E+03 0.  0.
         25    1    1    2    0    0 -0.83173551584E+02 -0.80986531263E+02  0.46997670992E+02  0.17694756005E+03  0.12500000000E+03 0.  0.
         25    1    1    2    0    0  0.16012738827E+03  0.14341737723E+03  0.14292978249E+03  0.28681570266E+03  0.12500000000E+03 0.  0.
</event>
<event>
 5    0  0.5668330E-005  0.5578557E+03  0.7546771E-02  0.9996918E-01
         21   -1    0    0  502  501  0.00000000000E+00  0.00000000000E+00  0.75905209694E+03  0.75905209694E+03  0.00000000000E+00 0. -1.
         21   -1    0    0  501  502 -0.00000000000E+00 -0.00000000000E+00 -0.40998889453E+03  0.40998889453E+03  0.00000000000E+00 0. -1.
         25    1    1    2    0    0  0.16229928657E+03  0.29440495600E+01  0.37574546700E+02  0.20829443681E+03  0.12500000000E+03 0.  0.
         25    1    1    2    0    0  0.85855242752E+02 -0.26938238664E+03  0.45485146082E+03  0.54995712956E+03  0.12500000000E+03 0.  0.
         25    1    1    2    0    0 -0.24815452932E+03  0.26643833708E+03 -0.14336280511E+03  0.41078942510E+03  0.12500000000E+03 0.  0.
</event>
<event>
 5    0  0.5668330E-005  0.2120573E+03  0.7546771E-02  0.1139947E+00
         21   -1    0    0  502  501  0.00000000000E+00  0.00000000000E+00  0.60413278072E+03  0.60413278072E+03  0.00000000000E+00 0.  1.
         21   -1    0    0  501  502 -0.00000000000E+00 -0.00000000000E+00 -0.74434492248E+02  0.74434492248E+02  0.00000000000E+00 0.  1.
         25    1    1    2    0    0 -0.54215866627E+01 -0.34826883869E+02  0.12679276778E+03  0.18150402586E+03  0.12500000000E+03 0.  0.
         25    1    1    2    0    0 -0.25981656390E+02  0.18881693224E+01  0.87605111310E+02  0.15484917559E+03  0.12500000000E+03 0.  0.
         25    1    1    2    0    0  0.31403243053E+02  0.32938714547E+02  0.31530040939E+03  0.34221407152E+03  0.12500000000E+03 0.  0.
</event>
<event>
 5    0  0.5668330E-005  0.2579697E+03  0.7546771E-02  0.1108369E+00
         21   -1    0    0  502  501  0.00000000000E+00  0.00000000000E+00  0.20945675810E+03  0.20945675810E+03  0.00000000000E+00 0. -1.
         21   -1    0    0  501  502 -0.00000000000E+00 -0.00000000000E+00 -0.31771894323E+03  0.31771894323E+03  0.00000000000E+00 0. -1.
         25    1    1    2    0    0  0.72885650543E+02 -0.45858022444E+02 -0.14971756502E+03  0.21320324939E+03  0.12500000000E+03 0.  0.
         25    1    1    2    0    0 -0.11701637907E+03  0.31949630755E+01  0.12298718373E+02  0.17169536754E+03  0.12500000000E+03 0.  0.
         25    1    1    2    0    0  0.44130728527E+02  0.42663059368E+02  0.29156661515E+02  0.14227708440E+03  0.12500000000E+03 0.  0.
</event>
<event>
 5    0  0.5668330E-005  0.4740578E+03  0.7546771E-02  0.1020781E+00
         21   -1    0    0  502  501  0.00000000000E+00  0.00000000000E+00  0.98364269034E+03  0.98364269034E+03  0.00000000000E+00 0. -1.
         21   -1    0    0  501  502 -0.00000000000E+00 -0.00000000000E+00 -0.22846792354E+03  0.22846792354E+03  0.00000000000E+00 0. -1.
         25    1    1    2    0    0  0.68635553005E+02  0.13917051449E+03  0.24959458200E+03  0.31937709154E+03  0.12500000000E+03 0.  0.
         25    1    1    2    0    0  0.22352931767E+03  0.10630047853E+03  0.38309659833E+03  0.47291981482E+03  0.12500000000E+03 0.  0.
         25    1    1    2    0    0 -0.29216487067E+03 -0.24547099302E+03  0.12248358647E+03  0.41981370752E+03  0.12500000000E+03 0.  0.
</event>
<event>
 5    0  0.5668330E-005  0.3814066E+03  0.7546771E-02  0.1050415E+00
         21   -1    0    0  502  501  0.00000000000E+00  0.00000000000E+00  0.54150336918E+03  0.54150336918E+03  0.00000000000E+00 0.  1.
         21   -1    0    0  501  502 -0.00000000000E+00 -0.00000000000E+00 -0.26864282539E+03  0.26864282539E+03  0.00000000000E+00 0.  1.
         25    1    1    2    0    0  0.27469388050E+02 -0.16989515138E+03  0.23364101154E+03  0.31596210535E+03  0.12500000000E+03 0.  0.
         25    1    1    2    0    0 -0.49856589359E+02  0.12110953844E+03  0.20907367103E+03  0.27656825508E+03  0.12500000000E+03 0.  0.
         25    1    1    2    0    0  0.22387201309E+02  0.48785612944E+02 -0.16985413877E+03  0.21761583414E+03  0.12500000000E+03 0.  0.
</event>
<event>
 5    0  0.6599569E-005  0.3307199E+03  0.7546771E-02  0.1070819E+00
         21   -1    0    0  502  501  0.00000000000E+00  0.00000000000E+00  0.34299936579E+03  0.34299936579E+03  0.00000000000E+00 0. -1.
         21   -1    0    0  501  502 -0.00000000000E+00 -0.00000000000E+00 -0.31888000968E+03  0.31888000968E+03  0.00000000000E+00 0.  1.
         25    1    1    2    0    0  0.13108874895E+03  0.81632635156E+02 -0.88666431089E+02  0.21756581355E+03  0.12500000000E+03 0.  0.
         25    1    1    2    0    0 -0.16463469221E+03 -0.71488455333E+02 -0.61300431736E+02  0.22715176437E+03  0.12500000000E+03 0.  0.
         25    1    1    2    0    0  0.33545943251E+02 -0.10144179823E+02  0.17408621894E+03  0.21716179756E+03  0.12500000000E+03 0.  0.
</event>
<event>
 5    0  0.5668330E-005  0.2274237E+03  0.7546771E-02  0.1128466E+00
         21   -1    0    0  502  501  0.00000000000E+00  0.00000000000E+00  0.38026309862E+02  0.38026309862E+02  0.00000000000E+00 0.  1.
         21   -1    0    0  501  502 -0.00000000000E+00 -0.00000000000E+00 -0.13601519947E+04  0.13601519947E+04  0.00000000000E+00 0.  1.
         25    1    1    2    0    0 -0.44286889687E+02 -0.17866315085E+02 -0.21294747240E+03  0.25149982071E+03  0.12500000000E+03 0.  0.
         25    1    1    2    0    0  0.91369711006E+02  0.24349906945E+02 -0.56897635363E+03  0.59016983407E+03  0.12500000000E+03 0.  0.
         25    1    1    2    0    0 -0.47082821319E+02 -0.64835918601E+01 -0.54020185878E+03  0.55650864975E+03  0.12500000000E+03 0.  0.
</event>
<event>
 5    0  0.5668330E-005  0.4696157E+03  0.7546771E-02  0.1022029E+00
         21   -1    0    0  502  501  0.00000000000E+00  0.00000000000E+00  0.10949927258E+04  0.10949927258E+04  0.00000000000E+00 0.  1.
         21   -1    0    0  501  502 -0.00000000000E+00 -0.00000000000E+00 -0.20140674907E+03  0.20140674907E+03  0.00000000000E+00 0.  1.
         25    1    1    2    0    0  0.16451031267E+03  0.22726646563E+03  0.19109429621E+03  0.36173985048E+03  0.12500000000E+03 0.  0.
         25    1    1    2    0    0 -0.27316778942E+03 -0.19653553668E+03  0.21398523781E+03  0.41792528083E+03  0.12500000000E+03 0.  0.
         25    1    1    2    0    0  0.10865747675E+03 -0.30730928956E+02  0.48850644271E+03  0.51673434356E+03  0.12500000000E+03 0.  0.
</event>
<event>
 5    0  0.5668330E-005  0.5155617E+03  0.7546771E-02  0.1009795E+00
         21   -1    0    0  502  501  0.00000000000E+00  0.00000000000E+00  0.83743406329E+03  0.83743406329E+03  0.00000000000E+00 0. -1.
         21   -1    0    0  501  502 -0.00000000000E+00 -0.00000000000E+00 -0.31740273520E+03  0.31740273520E+03  0.00000000000E+00 0. -1.
         25    1    1    2    0    0 -0.18508693705E+03  0.17472428744E+03  0.67665160274E+03  0.73366759665E+03  0.12500000000E+03 0.  0.
         25    1    1    2    0    0  0.17159391549E+03 -0.14914083722E+03 -0.12975452890E+03  0.29008395152E+03  0.12500000000E+03 0.  0.
         25    1    1    2    0    0  0.13493021551E+02 -0.25583450222E+02 -0.26865745754E+02  0.13108525032E+03  0.12500000000E+03 0.  0.
</event>
<event>
 5    0  0.5668330E-005  0.4676739E+03  0.7546771E-02  0.1022579E+00
         21   -1    0    0  502  501  0.00000000000E+00  0.00000000000E+00  0.65540786409E+03  0.65540786409E+03  0.00000000000E+00 0.  1.
         21   -1    0    0  501  502 -0.00000000000E+00 -0.00000000000E+00 -0.33371419347E+03  0.33371419347E+03  0.00000000000E+00 0.  1.
         25    1    1    2    0    0  0.25522167093E+03 -0.17223273726E+02  0.32662496489E+03  0.43329390737E+03  0.12500000000E+03 0.  0.
         25    1    1    2    0    0  0.52346900885E+02 -0.26730688208E+02  0.13475005315E+03  0.19296969852E+03  0.12500000000E+03 0.  0.
         25    1    1    2    0    0 -0.30756857182E+03  0.43953961935E+02 -0.13968134741E+03  0.36285845168E+03  0.12500000000E+03 0.  0.
</event>
<event>
 5    0  0.5687347E-005  0.4320511E+03  0.7546771E-02  0.1033214E+00
         21   -1    0    0  502  501  0.00000000000E+00  0.00000000000E+00  0.52379086818E+03  0.52379086818E+03  0.00000000000E+00 0. -1.
         21   -1    0    0  501  502 -0.00000000000E+00 -0.00000000000E+00 -0.35637917180E+03  0.35637917180E+03  0.00000000000E+00 0. -1.
         25    1    1    2    0    0 -0.10435687467E+03 -0.23700827984E+03 -0.14474148714E+03  0.32192915386E+03  0.12500000000E+03 0.  0.
         25    1    1    2    0    0 -0.86912638333E+02  0.14020055004E+03  0.91949754788E+02  0.22647242291E+03  0.12500000000E+03 0.  0.
         25    1    1    2    0    0  0.19126951300E+03  0.96807729805E+02  0.22020342873E+03  0.33176846321E+03  0.12500000000E+03 0.  0.
</event>
<event>
 5    0  0.5668330E-005  0.2626404E+03  0.7546771E-02  0.1105567E+00
         21   -1    0    0  502  501  0.00000000000E+00  0.00000000000E+00  0.45734919294E+02  0.45734919294E+02  0.00000000000E+00 0. -1.
         21   -1    0    0  501  502 -0.00000000000E+00 -0.00000000000E+00 -0.15082561723E+04  0.15082561723E+04  0.00000000000E+00 0. -1.
         25    1    1    2    0    0  0.37255981665E+02  0.29660173821E+02 -0.62257513420E+03  0.63678295502E+03  0.12500000000E+03 0.  0.
         25    1    1    2    0    0 -0.47333834503E+02 -0.86320280147E+02 -0.71112921237E+03  0.72871217867E+03  0.12500000000E+03 0.  0.
         25    1    1    2    0    0  0.10077852838E+02  0.56660106325E+02 -0.12881690647E+03  0.18849595794E+03  0.12500000000E+03 0.  0.
</event>
<event>
 5    0  0.5668330E-005  0.3376842E+03  0.7546771E-02  0.1067787E+00
         21   -1    0    0  502  501  0.00000000000E+00  0.00000000000E+00  0.15307172059E+03  0.15307172059E+03  0.00000000000E+00 0. -1.
         21   -1    0    0  501  502 -0.00000000000E+00 -0.00000000000E+00 -0.74494916067E+03  0.74494916067E+03  0.00000000000E+00 0. -1.
         25    1    1    2    0    0  0.95147152581E+02  0.15206267185E+03 -0.15548126692E+03  0.26828242801E+03  0.12500000000E+03 0.  0.
         25    1    1    2    0    0 -0.43879166644E+02 -0.21403171728E+03 -0.40649850487E+03  0.47812236063E+03  0.12500000000E+03 0.  0.
         25    1    1    2    0    0 -0.51267985937E+02  0.61969045435E+02 -0.29897668293E+02  0.15161609263E+03  0.12500000000E+03 0.  0.
</event>
<event>
 5    0  0.5668330E-005  0.3433743E+03  0.7546771E-02  0.1065368E+00
         21   -1    0    0  502  501  0.00000000000E+00  0.00000000000E+00  0.12427107541E+03  0.12427107541E+03  0.00000000000E+00 0. -1.
         21   -1    0    0  501  502 -0.00000000000E+00 -0.00000000000E+00 -0.94878019530E+03  0.94878019530E+03  0.00000000000E+00 0. -1.
         25    1    1    2    0    0  0.10571502419E+03 -0.11390474482E+03 -0.50055903108E+02  0.20562234963E+03  0.12500000000E+03 0.  0.
         25    1    1    2    0    0 -0.16620042362E+03  0.12419213545E+03 -0.57733956048E+03  0.62609283291E+03  0.12500000000E+03 0.  0.
         25    1    1    2    0    0  0.60485399428E+02 -0.10287390630E+02 -0.19711365631E+03  0.24133608817E+03  0.12500000000E+03 0.  0.
</event>
<event>
 5    0  0.5668330E-005  0.3020772E+03  0.7546771E-02  0.1084207E+00
         21   -1    0    0  502  501  0.00000000000E+00  0.00000000000E+00  0.79357092260E+03  0.79357092260E+03  0.00000000000E+00 0.  1.
         21   -1    0    0  501  502 -0.00000000000E+00 -0.00000000000E+00 -0.11498735013E+03  0.11498735013E+03  0.00000000000E+00 0.  1.
         25    1    1    2    0    0 -0.22197509201E+02 -0.38600650879E+02  0.52255295296E+03  0.53913757828E+03  0.12500000000E+03 0.  0.
         25    1    1    2    0    0 -0.31311334055E+02  0.10035151508E+03  0.14997481065E+02  0.16401448307E+03  0.12500000000E+03 0.  0.
         25    1    1    2    0    0  0.53508843256E+02 -0.61750864201E+02  0.14103313844E+03  0.20540621139E+03  0.12500000000E+03 0.  0.
</event>
<event>
 5    0  0.5668330E-005  0.2512825E+03  0.7546771E-02  0.1112497E+00
         21   -1    0    0  502  501  0.00000000000E+00  0.00000000000E+00  0.59589245341E+03  0.59589245341E+03  0.00000000000E+00 0. -1.
         21   -1    0    0  501  502 -0.00000000000E+00 -0.00000000000E+00 -0.10596360699E+03  0.10596360699E+03  0.00000000000E+00 0. -1.
         25    1    1    2    0    0 -0.12441595187E+03 -0.51815153054E+02  0.30125139949E+03  0.35290444154E+03  0.12500000000E+03 0.  0.
         25    1    1    2    0    0  0.38360947798E+02  0.19432882331E+00  0.10749975801E+03  0.16927137399E+03  0.12500000000E+03 0.  0.
         25    1    1    2    0    0  0.86055004068E+02  0.51620824231E+02  0.81177688925E+02  0.17968024488E+03  0.12500000000E+03 0.  0.
</event>
<event>
 5    0  0.5668330E-005  0.3155960E+03  0.7546771E-02  0.1077694E+00
         21   -1    0    0  502  501  0.00000000000E+00  0.00000000000E+00  0.36316656253E+03  0.36316656253E+03  0.00000000000E+00 0. -1.
         21   -1    0    0  501  502 -0.00000000000E+00 -0.00000000000E+00 -0.27425666231E+03  0.27425666231E+03  0.00000000000E+00 0. -1.
         25    1    1    2    0    0 -0.14621178809E+03 -0.16570057811E+03 -0.18970141875E+01  0.25389597717E+03  0.12500000000E+03 0.  0.
         25    1    1    2    0    0  0.39704019930E-01  0.11911888979E+03  0.62447833409E+02  0.18361384310E+03  0.12500000000E+03 0.  0.
         25    1    1    2    0    0  0.14617208407E+03  0.46581688312E+02  0.28359080991E+02  0.19991340456E+03  0.12500000000E+03 0.  0.
</event>
<event>
 5    0  0.5668330E-005  0.2980792E+03  0.7546771E-02  0.1086205E+00
         21   -1    0    0  502  501  0.00000000000E+00  0.00000000000E+00  0.13241065561E+03  0.13241065561E+03  0.00000000000E+00 0.  1.
         21   -1    0    0  501  502 -0.00000000000E+00 -0.00000000000E+00 -0.67102741687E+03  0.67102741687E+03  0.00000000000E+00 0.  1.
         25    1    1    2    0    0  0.41015851482E+02 -0.27737123733E+02 -0.27628254328E+03  0.30725997434E+03  0.12500000000E+03 0.  0.
         25    1    1    2    0    0 -0.88843068485E+02  0.13179454492E+03 -0.23895466178E+02  0.20361455300E+03  0.12500000000E+03 0.  0.
         25    1    1    2    0    0  0.47827217004E+02 -0.10405742119E+03 -0.23843875180E+03  0.29256354515E+03  0.12500000000E+03 0.  0.
</event>
<event>
 5    0  0.7412180E-005  0.4479114E+03  0.7546771E-02  0.1028347E+00
         21   -1    0    0  502  501  0.00000000000E+00  0.00000000000E+00  0.39767569083E+03  0.39767569083E+03  0.00000000000E+00 0. -1.
         21   -1    0    0  501  502 -0.00000000000E+00 -0.00000000000E+00 -0.50449310030E+03  0.50449310030E+03  0.00000000000E+00 0. -1.
         25    1    1    2    0    0 -0.15340851568E+03  0.15558389458E+03  0.13136264263E+03  0.28393954430E+03  0.12500000000E+03 0.  0.
         25    1    1    2    0    0  0.49897327951E+02  0.13531878256E+02 -0.33754839356E+03  0.36364374470E+03  0.12500000000E+03 0.  0.
         25    1    1    2    0    0  0.10351118773E+03 -0.16911577284E+03  0.99368341468E+02  0.25458550213E+03  0.12500000000E+03 0.  0.
</event>
<event>
 5    0  0.5668330E-005  0.3127078E+03  0.7546771E-02  0.1079055E+00
         21   -1    0    0  502  501  0.00000000000E+00  0.00000000000E+00  0.42946675748E+03  0.42946675748E+03  0.00000000000E+00 0.  1.
         21   -1    0    0  501  502 -0.00000000000E+00 -0.00000000000E+00 -0.22769199329E+03  0.22769199329E+03  0.00000000000E+00 0.  1.
         25    1    1    2    0    0  0.31556964192E+02  0.17702493688E+02  0.12282652100E+03  0.17894293653E+03  0.12500000000E+03 0.  0.
         25    1    1    2    0    0  0.91193331743E+02  0.69598287708E+02  0.18873985576E+03  0.25378707327E+03  0.12500000000E+03 0.  0.
         25    1    1    2    0    0 -0.12275029594E+03 -0.87300781396E+02 -0.10979161257E+03  0.22442874097E+03  0.12500000000E+03 0.  0.
</event>
<event>
 5    0  0.5668330E-005  0.2868126E+03  0.7546771E-02  0.1092025E+00
         21   -1    0    0  502  501  0.00000000000E+00  0.00000000000E+00  0.20735389571E+03  0.20735389571E+03  0.00000000000E+00 0.  1.
         21   -1    0    0  501  502 -0.00000000000E+00 -0.00000000000E+00 -0.39672018732E+03  0.39672018732E+03  0.00000000000E+00 0.  1.
         25    1    1    2    0    0 -0.49965801502E+02 -0.13952265526E+03 -0.19813118045E+03  0.27720771512E+03  0.12500000000E+03 0.  0.
         25    1    1    2    0    0  0.31142582725E+02 -0.85197650228E+01 -0.18055242704E+02  0.13035888402E+03  0.12500000000E+03 0.  0.
         25    1    1    2    0    0  0.18823218777E+02  0.14804242028E+03  0.26820131553E+02  0.19650748389E+03  0.12500000000E+03 0.  0.
</event>
<event>
 5    0  0.5771579E-005  0.3197461E+03  0.7546771E-02  0.1075766E+00
         21   -1    0    0  502  501  0.00000000000E+00  0.00000000000E+00  0.17928957768E+03  0.17928957768E+03  0.00000000000E+00 0. -1.
         21   -1    0    0  501  502 -0.00000000000E+00 -0.00000000000E+00 -0.57023715798E+03  0.57023715798E+03  0.00000000000E+00 0. -1.
         25    1    1    2    0    0  0.40170216407E+02 -0.15025613246E+03 -0.42314409133E+02  0.20397563788E+03  0.12500000000E+03 0.  0.
         25    1    1    2    0    0 -0.62818794546E+02 -0.75177717861E+02 -0.10691027780E+03  0.19144894283E+03  0.12500000000E+03 0.  0.
         25    1    1    2    0    0  0.22648578139E+02  0.22543385032E+03 -0.24172289336E+03  0.35410215495E+03  0.12500000000E+03 0.  0.
</event>
<event>
 5    0  0.5668330E-005  0.3284876E+03  0.7546771E-02  0.1071808E+00
         21   -1    0    0  502  501  0.00000000000E+00  0.00000000000E+00  0.64311125408E+03  0.64311125408E+03  0.00000000000E+00 0. -1.
         21   -1    0    0  501  502 -0.00000000000E+00 -0.00000000000E+00 -0.16778453296E+03  0.16778453296E+03  0.00000000000E+00 0. -1.
         25    1    1    2    0    0  0.75342653002E+02 -0.15636187142E+03  0.82736635627E+02  0.22933796256E+03  0.12500000000E+03 0.  0.
         25    1    1    2    0    0 -0.13656078725E+03 -0.11324681413E+02  0.83597443855E+02  0.20344687179E+03  0.12500000000E+03 0.  0.
         25    1    1    2    0    0  0.61218134246E+02  0.16768655283E+03  0.30899264164E+03  0.37811095269E+03  0.12500000000E+03 0.  0.
</event>
<event>
 5    0  0.5668330E-005  0.2317082E+03  0.7546771E-02  0.1125443E+00
         21   -1    0    0  502  501  0.00000000000E+00  0.00000000000E+00  0.28544827963E+03  0.28544827963E+03  0.00000000000E+00 0. -1.
         21   -1    0    0  501  502 -0.00000000000E+00 -0.00000000000E+00 -0.18808558584E+03  0.18808558584E+03  0.00000000000E+00 0. -1.
         25    1    1    2    0    0  0.18501099481E+02  0.43933353180E+02  0.37159576986E+02  0.13884618960E+03  0.12500000000E+03 0.  0.
         25    1    1    2    0    0 -0.95639905081E+02 -0.17147840251E+02 -0.28718927395E+02  0.16090623562E+03  0.12500000000E+03 0.  0.
         25    1    1    2    0    0  0.77138805601E+02 -0.26785512929E+02  0.88922044207E+02  0.17378144026E+03  0.12500000000E+03 0.  0.
</event>
<event>
 5    0  0.5788640E-005  0.4145173E+03  0.7546771E-02  0.1038866E+00
         21   -1    0    0  502  501  0.00000000000E+00  0.00000000000E+00  0.33105501540E+03  0.33105501540E+03  0.00000000000E+00 0.  1.
         21   -1    0    0  501  502 -0.00000000000E+00 -0.00000000000E+00 -0.51902136994E+03  0.51902136994E+03  0.00000000000E+00 0.  1.
         25    1    1    2    0    0 -0.84266968371E+02  0.40209814178E+02  0.94824004476E+02  0.18257695073E+03  0.12500000000E+03 0.  0.
         25    1    1    2    0    0  0.71366598608E+01 -0.28689961076E+03 -0.10680241401E+03  0.33074775011E+03  0.12500000000E+03 0.  0.
         25    1    1    2    0    0  0.77130308510E+02  0.24668979658E+03 -0.17598794500E+03  0.33675168450E+03  0.12500000000E+03 0.  0.
</event>
<event>
 5    0  0.5824300E-005  0.4382142E+03  0.7546771E-02  0.1031296E+00
         21   -1    0    0  502  501  0.00000000000E+00  0.00000000000E+00  0.38338194529E+03  0.38338194529E+03  0.00000000000E+00 0.  1.
         21   -1    0    0  501  502 -0.00000000000E+00 -0.00000000000E+00 -0.50088862314E+03  0.50088862314E+03  0.00000000000E+00 0.  1.
         25    1    1    2    0    0 -0.11654255519E+03 -0.14947181020E+03 -0.45706028134E+02  0.23159885626E+03  0.12500000000E+03 0.  0.
         25    1    1    2    0    0  0.10450018588E+02 -0.16826284296E+02 -0.30034299672E+03  0.32591907341E+03  0.12500000000E+03 0.  0.
         25    1    1    2    0    0  0.10609253660E+03  0.16629809450E+03  0.22854234701E+03  0.32675263875E+03  0.12500000000E+03 0.  0.
</event>
<event>
 5    0  0.5668330E-005  0.2615315E+03  0.7546771E-02  0.1106227E+00
         21   -1    0    0  502  501  0.00000000000E+00  0.00000000000E+00  0.11809272910E+04  0.11809272910E+04  0.00000000000E+00 0.  1.
         21   -1    0    0  501  502 -0.00000000000E+00 -0.00000000000E+00 -0.57919525950E+02  0.57919525950E+02  0.00000000000E+00 0.  1.
         25    1    1    2    0    0 -0.83704301355E+02 -0.24417813143E+02  0.34867005351E+03  0.38052390974E+03  0.12500000000E+03 0.  0.
         25    1    1    2    0    0  0.14135525013E+03 -0.65705788552E+02  0.34715101202E+03  0.40054635503E+03  0.12500000000E+03 0.  0.
         25    1    1    2    0    0 -0.57650948775E+02  0.90123601696E+02  0.42718669953E+03  0.45777655219E+03  0.12500000000E+03 0.  0.
</event>
<event>
 5    0  0.5668330E-005  0.3069882E+03  0.7546771E-02  0.1081799E+00
         21   -1    0    0  502  501  0.00000000000E+00  0.00000000000E+00  0.62204609651E+02  0.62204609651E+02  0.00000000000E+00 0.  1.
         21   -1    0    0  501  502 -0.00000000000E+00 -0.00000000000E+00 -0.15150280642E+04  0.15150280642E+04  0.00000000000E+00 0.  1.
         25    1    1    2    0    0  0.93883414318E+02 -0.11363279440E+03 -0.81744437874E+03  0.83998024963E+03  0.12500000000E+03 0.  0.
         25    1    1    2    0    0 -0.12598547370E+03  0.15499220197E+03 -0.35874583316E+03  0.42920682085E+03  0.12500000000E+03 0.  0.
         25    1    1    2    0    0  0.32102059384E+02 -0.41359407564E+02 -0.27663324262E+03  0.30804560333E+03  0.12500000000E+03 0.  0.
</event>
<event>
 5    0  0.5668330E-005  0.3132265E+03  0.7546771E-02  0.1078810E+00
         21   -1    0    0  502  501  0.00000000000E+00  0.00000000000E+00  0.50018797069E+02  0.50018797069E+02  0.00000000000E+00 0. -1.
         21   -1    0    0  501  502 -0.00000000000E+00 -0.00000000000E+00 -0.19614791801E+04  0.19614791801E+04  0.00000000000E+00 0. -1.
         25    1    1    2    0    0  0.55607260201E+02  0.18572007664E+02 -0.13948019214E+04  0.14016185240E+04  0.12500000000E+03 0.  0.
         25    1    1    2    0    0 -0.77921743916E+02  0.75857616174E+02 -0.27319833598E+03  0.31951292132E+03  0.12500000000E+03 0.  0.
         25    1    1    2    0    0  0.22314483715E+02 -0.94429623838E+02 -0.24346012564E+03  0.29036653185E+03  0.12500000000E+03 0.  0.
</event>
<event>
 5    0  0.5668330E-005  0.6278874E+03  0.7546771E-02  0.9849180E-01
         21   -1    0    0  502  501  0.00000000000E+00  0.00000000000E+00  0.26621899032E+03  0.26621899032E+03  0.00000000000E+00 0. -1.
         21   -1    0    0  501  502 -0.00000000000E+00 -0.00000000000E+00 -0.14808958543E+04  0.14808958543E+04  0.00000000000E+00 0. -1.
         25    1    1    2    0    0 -0.39168597989E+03  0.13887130928E+02  0.19273728317E+02  0.41183399064E+03  0.12500000000E+03 0.  0.
         25    1    1    2    0    0  0.15016930478E+03  0.78573202320E+02 -0.38187697006E+03  0.43609584781E+03  0.12500000000E+03 0.  0.
         25    1    1    2    0    0  0.24151667510E+03 -0.92460333248E+02 -0.85207362224E+03  0.89918500616E+03  0.12500000000E+03 0.  0.
</event>
<event>
 5    0  0.5668330E-005  0.2726412E+03  0.7546771E-02  0.1099777E+00
         21   -1    0    0  502  501  0.00000000000E+00  0.00000000000E+00  0.56284138334E+03  0.56284138334E+03  0.00000000000E+00 0. -1.
         21   -1    0    0  501  502 -0.00000000000E+00 -0.00000000000E+00 -0.13206783850E+03  0.13206783850E+03  0.00000000000E+00 0. -1.
         25    1    1    2    0    0 -0.56543404571E+02 -0.37728890314E+01  0.36666869184E+03  0.39151286168E+03  0.12500000000E+03 0.  0.
         25    1    1    2    0    0  0.34223285554E+02 -0.63562255683E+02  0.68119595096E+02  0.15961413740E+03  0.12500000000E+03 0.  0.
         25    1    1    2    0    0  0.22320119017E+02  0.67335144715E+02 -0.40147420816E+01  0.14378222276E+03  0.12500000000E+03 0.  0.
</event>
<event>
 5    0  0.5668330E-005  0.3143542E+03  0.7546771E-02  0.1078277E+00
         21   -1    0    0  502  501  0.00000000000E+00  0.00000000000E+00  0.71947838050E+03  0.71947838050E+03  0.00000000000E+00 0. -1.
         21   -1    0    0  501  502 -0.00000000000E+00 -0.00000000000E+00 -0.13734753976E+03  0.13734753976E+03  0.00000000000E+00 0. -1.
         25    1    1    2    0    0  0.51168671906E+02 -0.36598025661E+02  0.52949618692E+02  0.14962055536E+03  0.12500000000E+03 0.  0.
         25    1    1    2    0    0  0.51593340662E+02  0.11724235733E+03  0.49074776756E+03  0.52236578613E+03  0.12500000000E+03 0.  0.
         25    1    1    2    0    0 -0.10276201257E+03 -0.80644331665E+02  0.38433454477E+02  0.18483957877E+03  0.12500000000E+03 0.  0.
</event>
<event>
 5    0  0.5668330E-005  0.2550884E+03  0.7546771E-02  0.1110131E+00
         21   -1    0    0  502  501  0.00000000000E+00  0.00000000000E+00  0.31269822265E+03  0.31269822265E+03  0.00000000000E+00 0. -1.
         21   -1    0    0  501  502 -0.00000000000E+00 -0.00000000000E+00 -0.20809226796E+03  0.20809226796E+03  0.00000000000E+00 0. -1.
         25    1    1    2    0    0 -0.22785456929E+02  0.11466098566E+03  0.22544082457E+02  0.17262547418E+03  0.12500000000E+03 0.  0.
         25    1    1    2    0    0  0.66800082397E+02 -0.17133766555E+02  0.11133217769E+03  0.18104052241E+03  0.12500000000E+03 0.  0.
         25    1    1    2    0    0 -0.44014625468E+02 -0.97527219110E+02 -0.29270305461E+02  0.16712449403E+03  0.12500000000E+03 0.  0.
</event>
<event>
 5    0  0.5668330E-005  0.2975832E+03  0.7546771E-02  0.1086455E+00
         21   -1    0    0  502  501  0.00000000000E+00  0.00000000000E+00  0.12528960525E+04  0.12528960525E+04  0.00000000000E+00 0.  1.
         21   -1    0    0  501  502 -0.00000000000E+00 -0.00000000000E+00 -0.70680847851E+02  0.70680847851E+02  0.00000000000E+00 0.  1.
         25    1    1    2    0    0 -0.47506243121E+02 -0.16593425987E+03  0.36745012147E+03  0.42477713393E+03  0.12500000000E+03 0.  0.
         25    1    1    2    0    0  0.10025819158E+02  0.19301738511E+03  0.63191793404E+03  0.67253364478E+03  0.12500000000E+03 0.  0.
         25    1    1    2    0    0  0.37480423963E+02 -0.27083125239E+02  0.18284714910E+03  0.22626612161E+03  0.12500000000E+03 0.  0.
</event>
<event>
 5    0  0.5668330E-005  0.2658304E+03  0.7546771E-02  0.1103690E+00
         21   -1    0    0  502  501  0.00000000000E+00  0.00000000000E+00  0.54035364944E+03  0.54035364944E+03  0.00000000000E+00 0.  1.
         21   -1    0    0  501  502 -0.00000000000E+00 -0.00000000000E+00 -0.13077699766E+03  0.13077699766E+03  0.00000000000E+00 0.  1.
         25    1    1    2    0    0 -0.54625853940E+02  0.16070567998E+02  0.99545947923E+02  0.16963679678E+03  0.12500000000E+03 0.  0.
         25    1    1    2    0    0 -0.24402362052E+02  0.68811073189E+02  0.29709877008E+03  0.33048921049E+03  0.12500000000E+03 0.  0.
         25    1    1    2    0    0  0.79028215993E+02 -0.84881641187E+02  0.12931933773E+02  0.17100463983E+03  0.12500000000E+03 0.  0.
</event>
<event>
 5    0  0.5668330E-005  0.3092807E+03  0.7546771E-02  0.1080691E+00
         21   -1    0    0  502  501  0.00000000000E+00  0.00000000000E+00  0.13606675418E+03  0.13606675418E+03  0.00000000000E+00 0. -1.
         21   -1    0    0  501  502 -0.00000000000E+00 -0.00000000000E+00 -0.70299706266E+03  0.70299706266E+03  0.00000000000E+00 0. -1.
         25    1    1    2    0    0  0.38329294710E+02  0.94948945115E+02 -0.40248184554E+03  0.43370620586E+03  0.12500000000E+03 0.  0.
         25    1    1    2    0    0  0.10258954192E+03 -0.46348379323E+02 -0.11762329450E+03  0.20526330843E+03  0.12500000000E+03 0.  0.
         25    1    1    2    0    0 -0.14091883663E+03 -0.48600565792E+02 -0.46825168442E+02  0.20009430255E+03  0.12500000000E+03 0.  0.
</event>
<event>
 5    0  0.5780523E-005  0.3155367E+03  0.7546771E-02  0.1077722E+00
         21   -1    0    0  502  501  0.00000000000E+00  0.00000000000E+00  0.91606781382E+03  0.91606781382E+03  0.00000000000E+00 0.  1.
         21   -1    0    0  501  502 -0.00000000000E+00 -0.00000000000E+00 -0.10868561033E+03  0.10868561033E+03  0.00000000000E+00 0.  1.
         25    1    1    2    0    0  0.15603075013E+03  0.22154805201E+02  0.10581852625E+03  0.22728614317E+03  0.12500000000E+03 0.  0.
         25    1    1    2    0    0  0.35313316463E+02  0.31653103101E+01  0.38401996013E+03  0.40540520382E+03  0.12500000000E+03 0.  0.
         25    1    1    2    0    0 -0.19134406659E+03 -0.25320115511E+02  0.31754371711E+03  0.39206207716E+03  0.12500000000E+03 0.  0.
</event>
<event>
 5    0  0.5668330E-005  0.2312703E+03  0.7546771E-02  0.1125749E+00
         21   -1    0    0  502  501  0.00000000000E+00  0.00000000000E+00  0.43147985247E+03  0.43147985247E+03  0.00000000000E+00 0.  1.
         21   -1    0    0  501  502 -0.00000000000E+00 -0.00000000000E+00 -0.12395929097E+03  0.12395929097E+03  0.00000000000E+00 0.  1.
         25    1    1    2    0    0 -0.22217896891E+02 -0.53135434164E+02  0.15691910903E+03  0.20872377940E+03  0.12500000000E+03 0.  0.
         25    1    1    2    0    0  0.14136720957E+02 -0.62738476848E+02  0.53685005407E+02  0.15047605511E+03  0.12500000000E+03 0.  0.
         25    1    1    2    0    0  0.80811759340E+01  0.11587391101E+03  0.96916447056E+02  0.19623930893E+03  0.12500000000E+03 0.  0.
</event>
<event>
 5    0  0.5668330E-005  0.2389769E+03  0.7546771E-02  0.1120476E+00
         21   -1    0    0  502  501  0.00000000000E+00  0.00000000000E+00  0.25131040930E+03  0.25131040930E+03  0.00000000000E+00 0. -1.
         21   -1    0    0  501  502 -0.00000000000E+00 -0.00000000000E+00 -0.22724863079E+03  0.22724863079E+03  0.00000000000E+00 0. -1.
         25    1    1    2    0    0 -0.19727481323E+02  0.55200795679E+02  0.57156645695E+02  0.14942618081E+03  0.12500000000E+03 0.  0.
         25    1    1    2    0    0  0.66531994998E+02 -0.37878214875E+02 -0.10136238975E+03  0.17821503746E+03  0.12500000000E+03 0.  0.
         25    1    1    2    0    0 -0.46804513675E+02 -0.17322580804E+02  0.68267522563E+02  0.15091782182E+03  0.12500000000E+03 0.  0.
</event>
<event>
 5    0  0.5668330E-005  0.4484879E+03  0.7546771E-02  0.1028174E+00
         21   -1    0    0  502  501  0.00000000000E+00  0.00000000000E+00  0.26458035983E+03  0.26458035983E+03  0.00000000000E+00 0.  1.
         21   -1    0    0  501  502 -0.00000000000E+00 -0.00000000000E+00 -0.76022808152E+03  0.76022808152E+03  0.00000000000E+00 0.  1.
         25    1    1    2    0    0  0.44734596017E+02  0.22325102673E+03 -0.42341158693E+03  0.49673390962E+03  0.12500000000E+03 0.  0.
         25    1    1    2    0    0  0.51057123143E+02 -0.30676745203E+03  0.14884466234E+01  0.33517206763E+03  0.12500000000E+03 0.  0.
         25    1    1    2    0    0 -0.95791719160E+02  0.83516425295E+02 -0.73724581378E+02  0.19290246409E+03  0.12500000000E+03 0.  0.
</event>
<event>
 5    0  0.5668330E-005  0.2937779E+03  0.7546771E-02  0.1088393E+00
         21   -1    0    0  502  501  0.00000000000E+00  0.00000000000E+00  0.17163221818E+04  0.17163221818E+04  0.00000000000E+00 0.  1.
         21   -1    0    0  501  502 -0.00000000000E+00 -0.00000000000E+00 -0.50285107688E+02  0.50285107688E+02  0.00000000000E+00 0.  1.
         25    1    1    2    0    0  0.86105533813E+02  0.89428618267E+02  0.59856773312E+03  0.62395510404E+03  0.12500000000E+03 0.  0.
         25    1    1    2    0    0 -0.39293116165E+02 -0.39803833187E+02  0.11279335922E+03  0.17741374241E+03  0.12500000000E+03 0.  0.
         25    1    1    2    0    0 -0.46812417648E+02 -0.49624785079E+02  0.95467598175E+03  0.96523844301E+03  0.12500000000E+03 0.  0.
</event>
<event>
 5    0  0.5827174E-005  0.3015741E+03  0.7546771E-02  0.1084456E+00
         21   -1    0    0  502  501  0.00000000000E+00  0.00000000000E+00  0.73275786510E+03  0.73275786510E+03  0.00000000000E+00 0.  1.
         21   -1    0    0  501  502 -0.00000000000E+00 -0.00000000000E+00 -0.12411592755E+03  0.12411592755E+03  0.00000000000E+00 0.  1.
         25    1    1    2    0    0 -0.56346105200E+02  0.49430895754E+02  0.34011446812E+03  0.37002857789E+03  0.12500000000E+03 0.  0.
         25    1    1    2    0    0  0.52215424031E+02 -0.14912754943E+03  0.36063076174E+02  0.20467296345E+03  0.12500000000E+03 0.  0.
         25    1    1    2    0    0  0.41306811696E+01  0.99696653672E+02  0.23246439325E+03  0.28217225131E+03  0.12500000000E+03 0.  0.
</event>
<event>
 5    0  0.5668330E-005  0.2119857E+03  0.7546771E-02  0.1140003E+00
         21   -1    0    0  502  501  0.00000000000E+00  0.00000000000E+00  0.24780582455E+03  0.24780582455E+03  0.00000000000E+00 0. -1.
         21   -1    0    0  501  502 -0.00000000000E+00 -0.00000000000E+00 -0.18134338012E+03  0.18134338012E+03  0.00000000000E+00 0. -1.
         25    1    1    2    0    0 -0.34130068135E+02  0.10008317383E+02  0.14437947486E+02  0.13076116509E+03  0.12500000000E+03 0.  0.
         25    1    1    2    0    0 -0.14179599236E+02 -0.69843912956E+02  0.39189532605E+01  0.14394301444E+03  0.12500000000E+03 0.  0.
         25    1    1    2    0    0  0.48309667371E+02  0.59835595573E+02  0.48105543678E+02  0.15444502514E+03  0.12500000000E+03 0.  0.
</event>
<event>
 5    0  0.5668330E-005  0.3275872E+03  0.7546771E-02  0.1072209E+00
         21   -1    0    0  502  501  0.00000000000E+00  0.00000000000E+00  0.26602264236E+03  0.26602264236E+03  0.00000000000E+00 0.  1.
         21   -1    0    0  501  502 -0.00000000000E+00 -0.00000000000E+00 -0.40339932590E+03  0.40339932590E+03  0.00000000000E+00 0.  1.
         25    1    1    2    0    0  0.15862029366E+03  0.94829846975E+02  0.69010227644E+02  0.23353909514E+03  0.12500000000E+03 0.  0.
         25    1    1    2    0    0  0.32665427541E+02 -0.61421503920E+02 -0.32233439273E+02  0.14664114671E+03  0.12500000000E+03 0.  0.
         25    1    1    2    0    0 -0.19128572120E+03 -0.33408343055E+02 -0.17415347192E+03  0.28924172642E+03  0.12500000000E+03 0.  0.
</event>
<event>
 5    0  0.5668330E-005  0.4884379E+03  0.7546771E-02  0.1016842E+00
         21   -1    0    0  502  501  0.00000000000E+00  0.00000000000E+00  0.22536978172E+04  0.22536978172E+04  0.00000000000E+00 0.  1.
         21   -1    0    0  501  502 -0.00000000000E+00 -0.00000000000E+00 -0.10585784891E+03  0.10585784891E+03  0.00000000000E+00 0.  1.
         25    1    1    2    0    0  0.40622396637E+03 -0.21242645300E+02  0.87930960821E+03  0.97687232939E+03  0.12500000000E+03 0.  0.
         25    1    1    2    0    0 -0.46131956266E+02  0.79666070710E+02  0.25837756907E+03  0.30142794895E+03  0.12500000000E+03 0.  0.
         25    1    1    2    0    0 -0.36009201011E+03 -0.58423425410E+02  0.10101527910E+04  0.10812553878E+04  0.12500000000E+03 0.  0.
</event>
<event>
 5    0  0.5818592E-005  0.2880034E+03  0.7546771E-02  0.1091396E+00
         21   -1    0    0  502  501  0.00000000000E+00  0.00000000000E+00  0.12216156777E+03  0.12216156777E+03  0.00000000000E+00 0. -1.
         21   -1    0    0  501  502 -0.00000000000E+00 -0.00000000000E+00 -0.67898571692E+03  0.67898571692E+03  0.00000000000E+00 0. -1.
         25    1    1    2    0    0 -0.14285351836E+03  0.85190762614E+01 -0.11065334613E+03  0.21988375424E+03  0.12500000000E+03 0.  0.
         25    1    1    2    0    0  0.19871022554E+03 -0.16166523405E+02 -0.27478201345E+03  0.36176962992E+03  0.12500000000E+03 0.  0.
         25    1    1    2    0    0 -0.55856707180E+02  0.76474471436E+01 -0.17138878957E+03  0.21949390054E+03  0.12500000000E+03 0.  0.
</event>
<event>
 5    0  0.5674599E-005  0.3180969E+03  0.7546771E-02  0.1076528E+00
         21   -1    0    0  502  501  0.00000000000E+00  0.00000000000E+00  0.61780257344E+03  0.61780257344E+03  0.00000000000E+00 0. -1.
         21   -1    0    0  501  502 -0.00000000000E+00 -0.00000000000E+00 -0.16378317709E+03  0.16378317709E+03  0.00000000000E+00 0. -1.
         25    1    1    2    0    0  0.67828992240E+02  0.23671658566E+02  0.21297342802E+02  0.14573845209E+03  0.12500000000E+03 0.  0.
         25    1    1    2    0    0 -0.22011971692E+03 -0.64433292046E+02  0.28253275411E+03  0.38477798280E+03  0.12500000000E+03 0.  0.
         25    1    1    2    0    0  0.15229072468E+03  0.40761633480E+02  0.15018929945E+03  0.25106931564E+03  0.12500000000E+03 0.  0.
</event>
<event>
 5    0  0.5668330E-005  0.2888664E+03  0.7546771E-02  0.1090942E+00
         21   -1    0    0  502  501  0.00000000000E+00  0.00000000000E+00  0.10653997873E+03  0.10653997873E+03  0.00000000000E+00 0.  1.
         21   -1    0    0  501  502 -0.00000000000E+00 -0.00000000000E+00 -0.78321605806E+03  0.78321605806E+03  0.00000000000E+00 0.  1.
         25    1    1    2    0    0 -0.10088011406E+02  0.11671470831E+03 -0.15326756267E+03  0.22986960843E+03  0.12500000000E+03 0.  0.
         25    1    1    2    0    0  0.38333629658E+02 -0.20199355845E+03 -0.25593836470E+03  0.35128380456E+03  0.12500000000E+03 0.  0.
         25    1    1    2    0    0 -0.28245618252E+02  0.85278850141E+02 -0.26747015196E+03  0.30860262381E+03  0.12500000000E+03 0.  0.
</event>
<event>
 5    0  0.5668330E-005  0.2931041E+03  0.7546771E-02  0.1088740E+00
         21   -1    0    0  502  501  0.00000000000E+00  0.00000000000E+00  0.13284124915E+04  0.13284124915E+04  0.00000000000E+00 0.  1.
         21   -1    0    0  501  502 -0.00000000000E+00 -0.00000000000E+00 -0.64671170368E+02  0.64671170368E+02  0.00000000000E+00 0.  1.
         25    1    1    2    0    0  0.30550882115E+02 -0.52919851337E+02  0.85800090515E+03  0.86920907744E+03  0.12500000000E+03 0.  0.
         25    1    1    2    0    0 -0.97513889281E+02  0.87327089888E+02  0.18140811786E+03  0.25625940852E+03  0.12500000000E+03 0.  0.
         25    1    1    2    0    0  0.66963007166E+02 -0.34407238551E+02  0.22433229811E+03  0.26761517590E+03  0.12500000000E+03 0.  0.
</event>
<event>
 5    0  0.5668330E-005  0.4620571E+03  0.7546771E-02  0.1024186E+00
         21   -1    0    0  502  501  0.00000000000E+00  0.00000000000E+00  0.35479205173E+03  0.35479205173E+03  0.00000000000E+00 0. -1.
         21   -1    0    0  501  502 -0.00000000000E+00 -0.00000000000E+00 -0.60175176811E+03  0.60175176811E+03  0.00000000000E+00 0. -1.
         25    1    1    2    0    0  0.25868009824E+03 -0.14265282658E+03 -0.65522476340E+02  0.32738878579E+03  0.12500000000E+03 0.  0.
         25    1    1    2    0    0 -0.18958300926E+03  0.11489059955E+03 -0.33296279787E+03  0.41908327577E+03  0.12500000000E+03 0.  0.
         25    1    1    2    0    0 -0.69097088979E+02  0.27762227031E+02  0.15152555783E+03  0.21007175829E+03  0.12500000000E+03 0.  0.
</event>
<event>
 5    0  0.5668330E-005  0.3396594E+03  0.7546771E-02  0.1066941E+00
         21   -1    0    0  502  501  0.00000000000E+00  0.00000000000E+00  0.23964712923E+04  0.23964712923E+04  0.00000000000E+00 0. -1.
         21   -1    0    0  501  502 -0.00000000000E+00 -0.00000000000E+00 -0.48140995466E+02  0.48140995466E+02  0.00000000000E+00 0. -1.
         25    1    1    2    0    0 -0.65950875863E+02 -0.51967778108E+02  0.19646506249E+03  0.24753522733E+03  0.12500000000E+03 0.  0.
         25    1    1    2    0    0  0.20444422373E+03 -0.13982704697E+02  0.13488114991E+04  0.13700038017E+04  0.12500000000E+03 0.  0.
         25    1    1    2    0    0 -0.13849334786E+03  0.65950482805E+02  0.80305373521E+03  0.82707325868E+03  0.12500000000E+03 0.  0.
</event>
<event>
 5    0  0.5668330E-005  0.3789558E+03  0.7546771E-02  0.1051320E+00
         21   -1    0    0  502  501  0.00000000000E+00  0.00000000000E+00  0.51207008821E+03  0.51207008821E+03  0.00000000000E+00 0. -1.
         21   -1    0    0  501  502 -0.00000000000E+00 -0.00000000000E+00 -0.28044494485E+03  0.28044494485E+03  0.00000000000E+00 0. -1.
         25    1    1    2    0    0 -0.23665140295E+02  0.69098053567E+02  0.40604976967E+02  0.15036071304E+03  0.12500000000E+03 0.  0.
         25    1    1    2    0    0 -0.22379361409E+03  0.81148580968E+02  0.18571302759E+03  0.32677668601E+03  0.12500000000E+03 0.  0.
         25    1    1    2    0    0  0.24745875439E+03 -0.15024663453E+03  0.53071387886E+01  0.31537763401E+03  0.12500000000E+03 0.  0.
</event>
<event>
 5    0  0.5668330E-005  0.5253786E+03  0.7546771E-02  0.1007359E+00
         21   -1    0    0  502  501  0.00000000000E+00  0.00000000000E+00  0.18173809370E+04  0.18173809370E+04  0.00000000000E+00 0.  1.
         21   -1    0    0  501  502 -0.00000000000E+00 -0.00000000000E+00 -0.15187938507E+03  0.15187938507E+03  0.00000000000E+00 0.  1.
         25    1    1    2    0    0 -0.29189416259E+03 -0.84486717166E+02  0.38701016076E+03  0.50768304292E+03  0.12500000000E+03 0.  0.
         25    1    1    2    0    0 -0.31142908469E+02 -0.20574567816E+03  0.31775747366E+03  0.39986994998E+03  0.12500000000E+03 0.  0.
         25    1    1    2    0    0  0.32303707106E+03  0.29023239532E+03  0.96073391755E+03  0.10617073292E+04  0.12500000000E+03 0.  0.
</event>
<event>
 5    0  0.5668330E-005  0.4251957E+03  0.7546771E-02  0.1035388E+00
         21   -1    0    0  502  501  0.00000000000E+00  0.00000000000E+00  0.12678829668E+04  0.12678829668E+04  0.00000000000E+00 0.  1.
         21   -1    0    0  501  502 -0.00000000000E+00 -0.00000000000E+00 -0.14259308675E+03  0.14259308675E+03  0.00000000000E+00 0.  1.
         25    1    1    2    0    0  0.14046087436E+03 -0.14979536834E+03  0.88182329894E+02  0.25606450927E+03  0.12500000000E+03 0.  0.
         25    1    1    2    0    0  0.78401295866E+02  0.77024815865E+02  0.13313377540E+03  0.21314123863E+03  0.12500000000E+03 0.  0.
         25    1    1    2    0    0 -0.21886217023E+03  0.72770552478E+02  0.90397377479E+03  0.94127030569E+03  0.12500000000E+03 0.  0.
</event>
<event>
 5    0  0.5668330E-005  0.3134352E+03  0.7546771E-02  0.1078711E+00
         21   -1    0    0  502  501  0.00000000000E+00  0.00000000000E+00  0.67691918886E+02  0.67691918886E+02  0.00000000000E+00 0.  1.
         21   -1    0    0  501  502 -0.00000000000E+00 -0.00000000000E+00 -0.14513049922E+04  0.14513049922E+04  0.00000000000E+00 0.  1.
         25    1    1    2    0    0 -0.94546153892E+02  0.73807817451E+02 -0.36973137867E+03  0.40830486344E+03  0.12500000000E+03 0.  0.
         25    1    1    2    0    0  0.99344186636E+02 -0.38759578003E+02 -0.11047604872E+03  0.19799376163E+03  0.12500000000E+03 0.  0.
         25    1    1    2    0    0 -0.47980327448E+01 -0.35048239448E+02 -0.90340564589E+03  0.91269828598E+03  0.12500000000E+03 0.  0.
</event>
<event>
 5    0  0.5668330E-005  0.2966626E+03  0.7546771E-02  0.1086921E+00
         21   -1    0    0  502  501  0.00000000000E+00  0.00000000000E+00  0.48338035773E+02  0.48338035773E+02  0.00000000000E+00 0.  1.
         21   -1    0    0  501  502 -0.00000000000E+00 -0.00000000000E+00 -0.18206929552E+04  0.18206929552E+04  0.00000000000E+00 0.  1.
         25    1    1    2    0    0 -0.14975918109E+03  0.29273328352E+02 -0.88417408687E+03  0.90591034654E+03  0.12500000000E+03 0.  0.
         25    1    1    2    0    0  0.16724790057E+03  0.50633400040E+02 -0.61956637341E+03  0.65576146007E+03  0.12500000000E+03 0.  0.
         25    1    1    2    0    0 -0.17488719488E+02 -0.79906728392E+02 -0.26861445911E+03  0.30735918434E+03  0.12500000000E+03 0.  0.
</event>
<event>
 5    0  0.5668330E-005  0.3074601E+03  0.7546771E-02  0.1081570E+00
         21   -1    0    0  502  501  0.00000000000E+00  0.00000000000E+00  0.19692216393E+03  0.19692216393E+03  0.00000000000E+00 0.  1.
         21   -1    0    0  501  502 -0.00000000000E+00 -0.00000000000E+00 -0.48004594072E+03  0.48004594072E+03  0.00000000000E+00 0.  1.
         25    1    1    2    0    0 -0.83475766133E+02  0.73677945385E+01 -0.29797028713E+02  0.15341235559E+03  0.12500000000E+03 0.  0.
         25    1    1    2    0    0  0.21035418578E+03 -0.37045433755E+02 -0.23632337664E+03  0.34219144639E+03  0.12500000000E+03 0.  0.
         25    1    1    2    0    0 -0.12687841964E+03  0.29677639216E+02 -0.17003371441E+02  0.18136430267E+03  0.12500000000E+03 0.  0.
</event>
<event>
 5    0  0.5668330E-005  0.3737134E+03  0.7546771E-02  0.1053282E+00
         21   -1    0    0  502  501  0.00000000000E+00  0.00000000000E+00  0.11293333308E+04  0.11293333308E+04  0.00000000000E+00 0.  1.
         21   -1    0    0  501  502 -0.00000000000E+00 -0.00000000000E+00 -0.12366737247E+03  0.12366737247E+03  0.00000000000E+00 0.  1.
         25    1    1    2    0    0 -0.31394616065E+02 -0.92487516591E+02  0.55561057000E+03  0.57781283141E+03  0.12500000000E+03 0.  0.
         25    1    1    2    0    0 -0.91199639893E+00  0.17906566812E+03  0.21650328084E+02  0.21945177589E+03  0.12500000000E+03 0.  0.
         25    1    1    2    0    0  0.32306612464E+02 -0.86578151525E+02  0.42840506025E+03  0.45573609598E+03  0.12500000000E+03 0.  0.
</event>
<event>
 5    0  0.5668330E-005  0.3353127E+03  0.7546771E-02  0.1068810E+00
         21   -1    0    0  502  501  0.00000000000E+00  0.00000000000E+00  0.86631526266E+02  0.86631526266E+02  0.00000000000E+00 0. -1.
         21   -1    0    0  501  502 -0.00000000000E+00 -0.00000000000E+00 -0.12978485233E+04  0.12978485233E+04  0.00000000000E+00 0. -1.
         25    1    1    2    0    0  0.17256508842E+03 -0.13386584730E+03 -0.31562397471E+03  0.40366108089E+03  0.12500000000E+03 0.  0.
         25    1    1    2    0    0 -0.14808977114E+03  0.57497302723E+01 -0.63343145650E+03  0.66243795921E+03  0.12500000000E+03 0.  0.
         25    1    1    2    0    0 -0.24475317271E+02  0.12811611703E+03 -0.26216156586E+03  0.31838100951E+03  0.12500000000E+03 0.  0.
</event>
<event>
 5    0  0.5668330E-005  0.3298243E+03  0.7546771E-02  0.1071215E+00
         21   -1    0    0  502  501  0.00000000000E+00  0.00000000000E+00  0.87728083104E+02  0.87728083104E+02  0.00000000000E+00 0. -1.
         21   -1    0    0  501  502 -0.00000000000E+00 -0.00000000000E+00 -0.12400138605E+04  0.12400138605E+04  0.00000000000E+00 0. -1.
         25    1    1    2    0    0  0.38882277313E+02  0.11079517813E+02 -0.74527178388E+02  0.15104266789E+03  0.12500000000E+03 0.  0.
         25    1    1    2    0    0  0.16833337642E+03 -0.73185999296E+02 -0.48386459257E+03  0.53239295643E+03  0.12500000000E+03 0.  0.
         25    1    1    2    0    0 -0.20721565374E+03  0.62106481483E+02 -0.59389400646E+03  0.64430631931E+03  0.12500000000E+03 0.  0.
</event>
<event>
 5    0  0.6944107E-005  0.4058034E+03  0.7546771E-02  0.1041789E+00
         21   -1    0    0  502  501  0.00000000000E+00  0.00000000000E+00  0.22576479394E+03  0.22576479394E+03  0.00000000000E+00 0.  1.
         21   -1    0    0  501  502 -0.00000000000E+00 -0.00000000000E+00 -0.72941562522E+03  0.72941562522E+03  0.00000000000E+00 0.  1.
         25    1    1    2    0    0  0.12648110457E+02  0.20482450763E+03 -0.13348961119E+03  0.27487729975E+03  0.12500000000E+03 0.  0.
         25    1    1    2    0    0 -0.13610541545E+02 -0.13272834803E+03  0.85864986848E+02  0.20198974523E+03  0.12500000000E+03 0.  0.
         25    1    1    2    0    0  0.96243108773E+00 -0.72096159601E+02 -0.45602620693E+03  0.47831337417E+03  0.12500000000E+03 0.  0.
</event>
<event>
 5    0  0.5668330E-005  0.2543008E+03  0.7546771E-02  0.1110617E+00
         21   -1    0    0  502  501  0.00000000000E+00  0.00000000000E+00  0.58894504262E+03  0.58894504262E+03  0.00000000000E+00 0. -1.
         21   -1    0    0  501  502 -0.00000000000E+00 -0.00000000000E+00 -0.10980467940E+03  0.10980467940E+03  0.00000000000E+00 0. -1.
         25    1    1    2    0    0  0.62161776747E+02  0.11188644622E+03  0.22932575323E+03  0.29085729221E+03  0.12500000000E+03 0.  0.
         25    1    1    2    0    0  0.45520289685E+02 -0.51947224090E+02  0.14461366065E+03  0.20324547156E+03  0.12500000000E+03 0.  0.
         25    1    1    2    0    0 -0.10768206643E+03 -0.59939222134E+02  0.10520094933E+03  0.20464695825E+03  0.12500000000E+03 0.  0.
</event>
<event>
 5    0  0.5668330E-005  0.2595563E+03  0.7546771E-02  0.1107410E+00
         21   -1    0    0  502  501  0.00000000000E+00  0.00000000000E+00  0.12999472194E+03  0.12999472194E+03  0.00000000000E+00 0. -1.
         21   -1    0    0  501  502 -0.00000000000E+00 -0.00000000000E+00 -0.51824765782E+03  0.51824765782E+03  0.00000000000E+00 0. -1.
         25    1    1    2    0    0  0.13730644915E+03 -0.21754461048E+02 -0.85719133218E+02  0.20566741928E+03  0.12500000000E+03 0.  0.
         25    1    1    2    0    0 -0.53923928013E+02 -0.35796487808E+01 -0.24382316598E+03  0.27927645831E+03  0.12500000000E+03 0.  0.
         25    1    1    2    0    0 -0.83382521136E+02  0.25334109829E+02 -0.58710636675E+02  0.16329850217E+03  0.12500000000E+03 0.  0.
</event>
<event>
 5    0  0.5668330E-005  0.2349487E+03  0.7546771E-02  0.1123204E+00
         21   -1    0    0  502  501  0.00000000000E+00  0.00000000000E+00  0.37301283939E+03  0.37301283939E+03  0.00000000000E+00 0.  1.
         21   -1    0    0  501  502 -0.00000000000E+00 -0.00000000000E+00 -0.14798651888E+03  0.14798651888E+03  0.00000000000E+00 0.  1.
         25    1    1    2    0    0  0.48884887150E+02  0.78186146321E+02  0.14631502048E+02  0.15601886591E+03  0.12500000000E+03 0.  0.
         25    1    1    2    0    0  0.34290076340E+02 -0.45933403976E+02  0.13933714664E+03  0.19576906643E+03  0.12500000000E+03 0.  0.
         25    1    1    2    0    0 -0.83174963490E+02 -0.32252742345E+02  0.71057671827E+02  0.16921142593E+03  0.12500000000E+03 0.  0.
</event>
<event>
 5    0  0.5668330E-005  0.5956778E+03  0.7546771E-02  0.9914414E-01
         21   -1    0    0  502  501  0.00000000000E+00  0.00000000000E+00  0.22546221261E+04  0.22546221261E+04  0.00000000000E+00 0. -1.
         21   -1    0    0  501  502 -0.00000000000E+00 -0.00000000000E+00 -0.15737982191E+03  0.15737982191E+03  0.00000000000E+00 0. -1.
         25    1    1    2    0    0  0.35350804999E+03  0.13263736050E+03  0.71374641257E+03  0.81707989344E+03  0.12500000000E+03 0.  0.
         25    1    1    2    0    0  0.27893869052E+02  0.14386942647E+03  0.85319267787E+03  0.87466520759E+03  0.12500000000E+03 0.  0.
         25    1    1    2    0    0 -0.38140191904E+03 -0.27650678698E+03  0.53030321375E+03  0.72025684697E+03  0.12500000000E+03 0.  0.
</event>
<event>
 5    0  0.5668330E-005  0.2842335E+03  0.7546771E-02  0.1093399E+00
         21   -1    0    0  502  501  0.00000000000E+00  0.00000000000E+00  0.26292410488E+03  0.26292410488E+03  0.00000000000E+00 0.  1.
         21   -1    0    0  501  502 -0.00000000000E+00 -0.00000000000E+00 -0.30727005531E+03  0.30727005531E+03  0.00000000000E+00 0.  1.
         25    1    1    2    0    0  0.52666559808E+01 -0.58797591877E+02  0.41460135884E+02  0.14432199189E+03  0.12500000000E+03 0.  0.
         25    1    1    2    0    0 -0.17633735881E+02 -0.59661869597E+02 -0.18108970736E+03  0.22866781460E+03  0.12500000000E+03 0.  0.
         25    1    1    2    0    0  0.12367079901E+02  0.11845946147E+03  0.95283621041E+02  0.19720435370E+03  0.12500000000E+03 0.  0.
</event>
<event>
 5    0  0.6180424E-005  0.3991940E+03  0.7546771E-02  0.1044059E+00
         21   -1    0    0  502  501  0.00000000000E+00  0.00000000000E+00  0.22089935490E+03  0.22089935490E+03  0.00000000000E+00 0.  1.
         21   -1    0    0  501  502 -0.00000000000E+00 -0.00000000000E+00 -0.72139560269E+03  0.72139560269E+03  0.00000000000E+00 0.  1.
         25    1    1    2    0    0 -0.23350932944E+03  0.18073689904E+03 -0.10298931381E+03  0.33678514274E+03  0.12500000000E+03 0.  0.
         25    1    1    2    0    0  0.38540025917E+02 -0.14812627154E+03 -0.28282156634E+03  0.34502139688E+03  0.12500000000E+03 0.  0.
         25    1    1    2    0    0  0.19496930353E+03 -0.32610627503E+02 -0.11468536763E+03  0.26048841796E+03  0.12500000000E+03 0.  0.
</event>
<event>
 5    0  0.5668330E-005  0.2555818E+03  0.7546771E-02  0.1109827E+00
         21   -1    0    0  502  501  0.00000000000E+00  0.00000000000E+00  0.76090225237E+02  0.76090225237E+02  0.00000000000E+00 0. -1.
         21   -1    0    0  501  502 -0.00000000000E+00 -0.00000000000E+00 -0.85848178175E+03  0.85848178175E+03  0.00000000000E+00 0. -1.
         25    1    1    2    0    0 -0.66888406702E+02 -0.13577313331E+02 -0.42278454824E+03  0.44612798233E+03  0.12500000000E+03 0.  0.
         25    1    1    2    0    0  0.23484235580E+02  0.39069281391E+02 -0.35902380419E+02  0.13781109893E+03  0.12500000000E+03 0.  0.
         25    1    1    2    0    0  0.43404171122E+02 -0.25491968061E+02 -0.32370462785E+03  0.35063292572E+03  0.12500000000E+03 0.  0.
</event>
<event>
 5    0  0.5668330E-005  0.3248124E+03  0.7546771E-02  0.1073456E+00
         21   -1    0    0  502  501  0.00000000000E+00  0.00000000000E+00  0.20352968610E+03  0.20352968610E+03  0.00000000000E+00 0. -1.
         21   -1    0    0  501  502 -0.00000000000E+00 -0.00000000000E+00 -0.51836701119E+03  0.51836701119E+03  0.00000000000E+00 0. -1.
         25    1    1    2    0    0 -0.13876845524E+03 -0.38820472510E+02 -0.37588206801E+01  0.19079528817E+03  0.12500000000E+03 0.  0.
         25    1    1    2    0    0  0.12729340336E+03 -0.42704347486E+02 -0.33264941260E+03  0.37987880112E+03  0.12500000000E+03 0.  0.
         25    1    1    2    0    0  0.11475051881E+02  0.81524819995E+02  0.21570908191E+02  0.15122260800E+03  0.12500000000E+03 0.  0.
</event>
<event>
 5    0  0.5668330E-005  0.3012115E+03  0.7546771E-02  0.1084637E+00
         21   -1    0    0  502  501  0.00000000000E+00  0.00000000000E+00  0.65379688821E+03  0.65379688821E+03  0.00000000000E+00 0. -1.
         21   -1    0    0  501  502 -0.00000000000E+00 -0.00000000000E+00 -0.13877148288E+03  0.13877148288E+03  0.00000000000E+00 0. -1.
         25    1    1    2    0    0  0.59039929350E+02 -0.10114290135E+03  0.93985757706E+02  0.19538147917E+03  0.12500000000E+03 0.  0.
         25    1    1    2    0    0  0.55149155658E+02 -0.34817484928E+02  0.21729544573E+02  0.14265643951E+03  0.12500000000E+03 0.  0.
         25    1    1    2    0    0 -0.11418908501E+03  0.13596038627E+03  0.39931010305E+03  0.45453045241E+03  0.12500000000E+03 0.  0.
</event>
<event>
 5    0  0.5668330E-005  0.3422983E+03  0.7546771E-02  0.1065821E+00
         21   -1    0    0  502  501  0.00000000000E+00  0.00000000000E+00  0.19383433965E+04  0.19383433965E+04  0.00000000000E+00 0.  1.
         21   -1    0    0  501  502 -0.00000000000E+00 -0.00000000000E+00 -0.60447558793E+02  0.60447558793E+02  0.00000000000E+00 0.  1.
         25    1    1    2    0    0  0.29646211010E+02 -0.71333745710E+02  0.87302612824E+03  0.88530617399E+03  0.12500000000E+03 0.  0.
         25    1    1    2    0    0 -0.18506632815E+03  0.29855662288E+02  0.27393376796E+03  0.35469087332E+03  0.12500000000E+03 0.  0.
         25    1    1    2    0    0  0.15542011714E+03  0.41478083422E+02  0.73093594146E+03  0.75879390794E+03  0.12500000000E+03 0.  0.
</event>
<event>
 5    0  0.7040440E-005  0.3608700E+03  0.7546771E-02  0.1058240E+00
         21   -1    0    0  502  501  0.00000000000E+00  0.00000000000E+00  0.33745396986E+03  0.33745396986E+03  0.00000000000E+00 0. -1.
         21   -1    0    0  501  502 -0.00000000000E+00 -0.00000000000E+00 -0.38591089715E+03  0.38591089715E+03  0.00000000000E+00 0. -1.
         25    1    1    2    0    0  0.56778668298E+02  0.75031199002E+02  0.12606042544E+03  0.20092219604E+03  0.12500000000E+03 0.  0.
         25    1    1    2    0    0  0.81579162339E+02  0.14202586548E+03 -0.81206391508E+02  0.22146327961E+03  0.12500000000E+03 0.  0.
         25    1    1    2    0    0 -0.13835783064E+03 -0.21705706448E+03 -0.93310961229E+02  0.30097939136E+03  0.12500000000E+03 0.  0.
</event>
<event>
 5    0  0.5668330E-005  0.3524269E+03  0.7546771E-02  0.1061623E+00
         21   -1    0    0  502  501  0.00000000000E+00  0.00000000000E+00  0.51535475671E+03  0.51535475671E+03  0.00000000000E+00 0.  1.
         21   -1    0    0  501  502 -0.00000000000E+00 -0.00000000000E+00 -0.24100817931E+03  0.24100817931E+03  0.00000000000E+00 0.  1.
         25    1    1    2    0    0  0.19070583226E+02 -0.15469735742E+03  0.26580339726E+03  0.33252278949E+03  0.12500000000E+03 0.  0.
         25    1    1    2    0    0  0.10169891940E+03  0.94952891963E+02  0.10685004525E+03  0.21540811050E+03  0.12500000000E+03 0.  0.
         25    1    1    2    0    0 -0.12076950263E+03  0.59744465453E+02 -0.98306865100E+02  0.20843203603E+03  0.12500000000E+03 0.  0.
</event>
<event>
 5    0  0.5668330E-005  0.3382606E+03  0.7546771E-02  0.1067539E+00
         21   -1    0    0  502  501  0.00000000000E+00  0.00000000000E+00  0.13572492409E+04  0.13572492409E+04  0.00000000000E+00 0.  1.
         21   -1    0    0  501  502 -0.00000000000E+00 -0.00000000000E+00 -0.84303043663E+02  0.84303043663E+02  0.00000000000E+00 0.  1.
         25    1    1    2    0    0  0.20850802816E+03 -0.39739586678E+02  0.34276644149E+03  0.42210030321E+03  0.12500000000E+03 0.  0.
         25    1    1    2    0    0 -0.55401144013E+02  0.13705078650E+03  0.37177125711E+03  0.41915518898E+03  0.12500000000E+03 0.  0.
         25    1    1    2    0    0 -0.15310688415E+03 -0.97311199824E+02  0.55840849866E+03  0.60029679240E+03  0.12500000000E+03 0.  0.
</event>
<event>
 5    0  0.5668330E-005  0.4006022E+03  0.7546771E-02  0.1043571E+00
         21   -1    0    0  502  501  0.00000000000E+00  0.00000000000E+00  0.24971829636E+03  0.24971829636E+03  0.00000000000E+00 0.  1.
         21   -1    0    0  501  502 -0.00000000000E+00 -0.00000000000E+00 -0.64265260814E+03  0.64265260814E+03  0.00000000000E+00 0.  1.
         25    1    1    2    0    0 -0.23274722108E+03 -0.13507193307E+03 -0.16936739546E+03  0.34165188521E+03  0.12500000000E+03 0.  0.
         25    1    1    2    0    0  0.27316711600E+03  0.94785476891E+02 -0.26012585721E+03  0.40852787113E+03  0.12500000000E+03 0.  0.
         25    1    1    2    0    0 -0.40419894928E+02  0.40286456180E+02  0.36558940895E+02  0.14219114817E+03  0.12500000000E+03 0.  0.
</event>
<event>
 5    0  0.5668330E-005  0.3255585E+03  0.7546771E-02  0.1073119E+00
         21   -1    0    0  502  501  0.00000000000E+00  0.00000000000E+00  0.35209168048E+03  0.35209168048E+03  0.00000000000E+00 0. -1.
         21   -1    0    0  501  502 -0.00000000000E+00 -0.00000000000E+00 -0.30102480055E+03  0.30102480055E+03  0.00000000000E+00 0. -1.
         25    1    1    2    0    0  0.14904581559E+03 -0.16153145549E+02  0.18918574103E+03  0.27183050577E+03  0.12500000000E+03 0.  0.
         25    1    1    2    0    0 -0.52441953725E+02  0.55882888873E+02 -0.15988975848E+03  0.21693960138E+03  0.12500000000E+03 0.  0.
         25    1    1    2    0    0 -0.96603861868E+02 -0.39729743325E+02  0.21770897382E+02  0.16434637387E+03  0.12500000000E+03 0.  0.
</event>
<event>
 5    0  0.5668330E-005  0.3311639E+03  0.7546771E-02  0.1070623E+00
         21   -1    0    0  502  501  0.00000000000E+00  0.00000000000E+00  0.14970046020E+04  0.14970046020E+04  0.00000000000E+00 0.  1.
         21   -1    0    0  501  502 -0.00000000000E+00 -0.00000000000E+00 -0.73259313548E+02  0.73259313548E+02  0.00000000000E+00 0.  1.
         25    1    1    2    0    0 -0.27014331668E+02 -0.11256457672E+03  0.15401246553E+03  0.22966366188E+03  0.12500000000E+03 0.  0.
         25    1    1    2    0    0 -0.62820336451E+02 -0.90562959749E+02  0.63767779822E+03  0.65909484803E+03  0.12500000000E+03 0.  0.
         25    1    1    2    0    0  0.89834668119E+02  0.20312753647E+03  0.63205502468E+03  0.68150540563E+03  0.12500000000E+03 0.  0.
</event>
<event>
 5    0  0.5668330E-005  0.3577004E+03  0.7546771E-02  0.1059498E+00
         21   -1    0    0  502  501  0.00000000000E+00  0.00000000000E+00  0.88805616446E+02  0.88805616446E+02  0.00000000000E+00 0. -1.
         21   -1    0    0  501  502 -0.00000000000E+00 -0.00000000000E+00 -0.14407828051E+04  0.14407828051E+04  0.00000000000E+00 0. -1.
         25    1    1    2    0    0 -0.60429668451E+01  0.83381369874E+02 -0.35530600600E+03  0.38581903555E+03  0.12500000000E+03 0.  0.
         25    1    1    2    0    0  0.13834983420E+03  0.34032785835E+02 -0.86790074288E+02  0.20846204482E+03  0.12500000000E+03 0.  0.
         25    1    1    2    0    0 -0.13230686735E+03 -0.11741415571E+03 -0.90988110836E+03  0.93530734118E+03  0.12500000000E+03 0.  0.
</event>
<event>
 5    0  0.5668330E-005  0.5116192E+03  0.7546771E-02  0.1010790E+00
         21   -1    0    0  502  501  0.00000000000E+00  0.00000000000E+00  0.23235713161E+03  0.23235713161E+03  0.00000000000E+00 0.  1.
         21   -1    0    0  501  502 -0.00000000000E+00 -0.00000000000E+00 -0.11265166190E+04  0.11265166190E+04  0.00000000000E+00 0.  1.
         25    1    1    2    0    0 -0.25562877819E+03 -0.11015070217E+02 -0.19746041140E+03  0.34652996708E+03  0.12500000000E+03 0.  0.
         25    1    1    2    0    0 -0.36300504206E+02  0.27387061016E+03 -0.18485100226E+03  0.35513058268E+03  0.12500000000E+03 0.  0.
         25    1    1    2    0    0  0.29192928240E+03 -0.26285553995E+03 -0.51184807373E+03  0.65721320086E+03  0.12500000000E+03 0.  0.
</event>
<event>
 5    0  0.5668330E-005  0.2356284E+03  0.7546771E-02  0.1122740E+00
         21   -1    0    0  502  501  0.00000000000E+00  0.00000000000E+00  0.33641784467E+03  0.33641784467E+03  0.00000000000E+00 0.  1.
         21   -1    0    0  501  502 -0.00000000000E+00 -0.00000000000E+00 -0.16503512447E+03  0.16503512447E+03  0.00000000000E+00 0.  1.
         25    1    1    2    0    0 -0.54801571214E+01  0.46335911328E+02  0.24675282260E+02  0.13568683929E+03  0.12500000000E+03 0.  0.
         25    1    1    2    0    0  0.58772273780E+02  0.58459488068E+02  0.12002861319E+03  0.19210299294E+03  0.12500000000E+03 0.  0.
         25    1    1    2    0    0 -0.53292116659E+02 -0.10479539940E+03  0.26678824746E+02  0.17366313691E+03  0.12500000000E+03 0.  0.
</event>
<event>
 5    0  0.5668330E-005  0.3606048E+03  0.7546771E-02  0.1058345E+00
         21   -1    0    0  502  501  0.00000000000E+00  0.00000000000E+00  0.50185938813E+03  0.50185938813E+03  0.00000000000E+00 0.  1.
         21   -1    0    0  501  502 -0.00000000000E+00 -0.00000000000E+00 -0.25910804798E+03  0.25910804798E+03  0.00000000000E+00 0.  1.
         25    1    1    2    0    0 -0.13058488476E+03 -0.18505993644E+03 -0.86173034169E+02  0.27267266827E+03  0.12500000000E+03 0.  0.
         25    1    1    2    0    0  0.84248863543E+02  0.16859522578E+03  0.21746624774E+03  0.31374956585E+03  0.12500000000E+03 0.  0.
         25    1    1    2    0    0  0.46336021222E+02  0.16464710661E+02  0.11145812658E+03  0.17454520200E+03  0.12500000000E+03 0.  0.
</event>
<event>
 5    0  0.5668330E-005  0.2889825E+03  0.7546771E-02  0.1090882E+00
         21   -1    0    0  502  501  0.00000000000E+00  0.00000000000E+00  0.98696244934E+03  0.98696244934E+03  0.00000000000E+00 0. -1.
         21   -1    0    0  501  502 -0.00000000000E+00 -0.00000000000E+00 -0.84614031392E+02  0.84614031392E+02  0.00000000000E+00 0. -1.
         25    1    1    2    0    0  0.64792582153E+02 -0.22900522979E+02  0.51178754682E+03  0.53129465058E+03  0.12500000000E+03 0.  0.
         25    1    1    2    0    0 -0.11388798816E+03  0.11550627475E+03  0.17124568574E+03  0.26694991710E+03  0.12500000000E+03 0.  0.
         25    1    1    2    0    0  0.49095406005E+02 -0.92605751773E+02  0.21931518539E+03  0.27333191305E+03  0.12500000000E+03 0.  0.
</event>
<event>
 5    0  0.5668330E-005  0.6592455E+03  0.7546771E-02  0.9789584E-01
         21   -1    0    0  502  501  0.00000000000E+00  0.00000000000E+00  0.28280371103E+04  0.28280371103E+04  0.00000000000E+00 0.  1.
         21   -1    0    0  501  502 -0.00000000000E+00 -0.00000000000E+00 -0.15367712019E+03  0.15367712019E+03  0.00000000000E+00 0.  1.
         25    1    1    2    0    0  0.12865155951E+03 -0.14038532912E+03  0.17780683331E+03  0.28896285985E+03  0.12500000000E+03 0.  0.
         25    1    1    2    0    0 -0.23800575209E+03 -0.33890646814E+03  0.67360657687E+03  0.80054678351E+03  0.12500000000E+03 0.  0.
         25    1    1    2    0    0  0.10935419258E+03  0.47929179726E+03  0.18229465800E+04  0.18922045872E+04  0.12500000000E+03 0.  0.
</event>
<event>
 5    0  0.5668330E-005  0.2665827E+03  0.7546771E-02  0.1103252E+00
         21   -1    0    0  502  501  0.00000000000E+00  0.00000000000E+00  0.98658246993E+02  0.98658246993E+02  0.00000000000E+00 0.  1.
         21   -1    0    0  501  502 -0.00000000000E+00 -0.00000000000E+00 -0.72032819022E+03  0.72032819022E+03  0.00000000000E+00 0.  1.
         25    1    1    2    0    0 -0.14574691938E+03 -0.64134032917E+02 -0.16026934081E+03  0.25819876121E+03  0.12500000000E+03 0.  0.
         25    1    1    2    0    0  0.91250288397E+02 -0.23279405427E+02 -0.23797865807E+03  0.28482869860E+03  0.12500000000E+03 0.  0.
         25    1    1    2    0    0  0.54496630985E+02  0.87413438344E+02 -0.22342194435E+03  0.27595897740E+03  0.12500000000E+03 0.  0.
</event>
<event>
 5    0  0.5668330E-005  0.2233129E+03  0.7546771E-02  0.1131437E+00
         21   -1    0    0  502  501  0.00000000000E+00  0.00000000000E+00  0.12864819945E+03  0.12864819945E+03  0.00000000000E+00 0.  1.
         21   -1    0    0  501  502 -0.00000000000E+00 -0.00000000000E+00 -0.38763576836E+03  0.38763576836E+03  0.00000000000E+00 0.  1.
         25    1    1    2    0    0 -0.53244198880E+01 -0.25194870753E+02 -0.13825940417E+03  0.18815895886E+03  0.12500000000E+03 0.  0.
         25    1    1    2    0    0  0.48729172228E+01  0.96205192342E+02 -0.38237241961E+02  0.16237694119E+03  0.12500000000E+03 0.  0.
         25    1    1    2    0    0  0.45150266522E+00 -0.71010321589E+02 -0.82490922784E+02  0.16574806777E+03  0.12500000000E+03 0.  0.
</event>
<event>
 5    0  0.5668330E-005  0.4194780E+03  0.7546771E-02  0.1037236E+00
         21   -1    0    0  502  501  0.00000000000E+00  0.00000000000E+00  0.22733515102E+03  0.22733515102E+03  0.00000000000E+00 0.  1.
         21   -1    0    0  501  502 -0.00000000000E+00 -0.00000000000E+00 -0.77401945825E+03  0.77401945825E+03  0.00000000000E+00 0.  1.
         25    1    1    2    0    0 -0.83718898242E+02 -0.30352023372E+03 -0.33871747699E+03  0.47904896975E+03  0.12500000000E+03 0.  0.
         25    1    1    2    0    0  0.13593157536E+03  0.92542235304E+02 -0.17229181868E+02  0.20727591081E+03  0.12500000000E+03 0.  0.
         25    1    1    2    0    0 -0.52212677121E+02  0.21097799842E+03 -0.19073764837E+03  0.31502972871E+03  0.12500000000E+03 0.  0.
</event>
<event>
 5    0  0.5668330E-005  0.4659925E+03  0.7546771E-02  0.1023057E+00
         21   -1    0    0  502  501  0.00000000000E+00  0.00000000000E+00  0.66492200713E+03  0.66492200713E+03  0.00000000000E+00 0.  1.
         21   -1    0    0  501  502 -0.00000000000E+00 -0.00000000000E+00 -0.32657819965E+03  0.32657819965E+03  0.00000000000E+00 0.  1.
         25    1    1    2    0    0 -0.19976041595E+02 -0.33970889323E+03  0.13466692806E+03  0.38673163290E+03  0.12500000000E+03 0.  0.
         25    1    1    2    0    0  0.12985569104E+03  0.38644541673E+02 -0.32921275375E+02  0.18725573815E+03  0.12500000000E+03 0.  0.
         25    1    1    2    0    0 -0.10987964944E+03  0.30106435155E+03  0.23659815480E+03  0.41751283572E+03  0.12500000000E+03 0.  0.
</event>
<event>
 5    0  0.5668330E-005  0.4976357E+03  0.7546771E-02  0.1014398E+00
         21   -1    0    0  502  501  0.00000000000E+00  0.00000000000E+00  0.59192204507E+03  0.59192204507E+03  0.00000000000E+00 0. -1.
         21   -1    0    0  501  502 -0.00000000000E+00 -0.00000000000E+00 -0.41836813120E+03  0.41836813120E+03  0.00000000000E+00 0. -1.
         25    1    1    2    0    0  0.11635764952E+03  0.12996100530E+03 -0.21090717727E+03  0.30089167972E+03  0.12500000000E+03 0.  0.
         25    1    1    2    0    0  0.88269328589E+02 -0.17525033117E+03 -0.23691633444E+02  0.23385988634E+03  0.12500000000E+03 0.  0.
         25    1    1    2    0    0 -0.20462697811E+03  0.45289325869E+02  0.40815272459E+03  0.47553861021E+03  0.12500000000E+03 0.  0.
</event>
<event>
 5    0  0.6025741E-005  0.2602123E+03  0.7546771E-02  0.1107016E+00
         21   -1    0    0  502  501  0.00000000000E+00  0.00000000000E+00  0.20552821409E+03  0.20552821409E+03  0.00000000000E+00 0. -1.
         21   -1    0    0  501  502 -0.00000000000E+00 -0.00000000000E+00 -0.32944597332E+03  0.32944597332E+03  0.00000000000E+00 0. -1.
         25    1    1    2    0    0 -0.15062100901E+03 -0.77240286482E+02 -0.30955725428E+02  0.21268758108E+03  0.12500000000E+03 0.  0.
         25    1    1    2    0    0  0.42236204231E+02  0.25409507833E+02 -0.28788757253E+02  0.13741663866E+03  0.12500000000E+03 0.  0.
         25    1    1    2    0    0  0.10838480477E+03  0.51830778649E+02 -0.64173276557E+02  0.18486996767E+03  0.12500000000E+03 0.  0.
</event>
<event>
 5    0  0.5668330E-005  0.3888261E+03  0.7546771E-02  0.1047719E+00
         21   -1    0    0  502  501  0.00000000000E+00  0.00000000000E+00  0.14015013835E+03  0.14015013835E+03  0.00000000000E+00 0.  1.
         21   -1    0    0  501  502 -0.00000000000E+00 -0.00000000000E+00 -0.10787413391E+04  0.10787413391E+04  0.00000000000E+00 0.  1.
         25    1    1    2    0    0 -0.35137679512E+02 -0.62204853365E+02 -0.20612124673E+03  0.25142606997E+03  0.12500000000E+03 0.  0.
         25    1    1    2    0    0 -0.56731906744E+02  0.14213111545E+03  0.16640781295E+02  0.19829694608E+03  0.12500000000E+03 0.  0.
         25    1    1    2    0    0  0.91869586256E+02 -0.79926262086E+02 -0.74911073530E+03  0.76916846139E+03  0.12500000000E+03 0.  0.
</event>
<event>
 5    0  0.5668330E-005  0.3165319E+03  0.7546771E-02  0.1077257E+00
         21   -1    0    0  502  501  0.00000000000E+00  0.00000000000E+00  0.82718110727E+03  0.82718110727E+03  0.00000000000E+00 0. -1.
         21   -1    0    0  501  502 -0.00000000000E+00 -0.00000000000E+00 -0.12112519677E+03  0.12112519677E+03  0.00000000000E+00 0. -1.
         25    1    1    2    0    0 -0.31769822501E+02 -0.10582852982E+03  0.23824682524E+03  0.29085314006E+03  0.12500000000E+03 0.  0.
         25    1    1    2    0    0 -0.31594682532E+02  0.13093798123E+03  0.48057260244E+03  0.51450753649E+03  0.12500000000E+03 0.  0.
         25    1    1    2    0    0  0.63364505033E+02 -0.25109451410E+02 -0.12763517176E+02  0.14294562749E+03  0.12500000000E+03 0.  0.
</event>
<event>
 5    0  0.5668330E-005  0.2865548E+03  0.7546771E-02  0.1092162E+00
         21   -1    0    0  502  501  0.00000000000E+00  0.00000000000E+00  0.42076881704E+03  0.42076881704E+03  0.00000000000E+00 0.  1.
         21   -1    0    0  501  502 -0.00000000000E+00 -0.00000000000E+00 -0.19515144953E+03  0.19515144953E+03  0.00000000000E+00 0.  1.
         25    1    1    2    0    0 -0.11357211534E+03  0.58983685521E+02  0.64989932501E+02  0.19033231955E+03  0.12500000000E+03 0.  0.
         25    1    1    2    0    0  0.25642694409E+02  0.93684817152E+02  0.13500937648E+03  0.20805509962E+03  0.12500000000E+03 0.  0.
         25    1    1    2    0    0  0.87929420929E+02 -0.15266850267E+03  0.25618058529E+02  0.21753284740E+03  0.12500000000E+03 0.  0.
</event>
<event>
 5    0  0.5668330E-005  0.2255607E+03  0.7546771E-02  0.1129804E+00
         21   -1    0    0  502  501  0.00000000000E+00  0.00000000000E+00  0.74855084183E+02  0.74855084183E+02  0.00000000000E+00 0.  1.
         21   -1    0    0  501  502 -0.00000000000E+00 -0.00000000000E+00 -0.67968160704E+03  0.67968160704E+03  0.00000000000E+00 0.  1.
         25    1    1    2    0    0 -0.33296590576E+02  0.47327505010E+00 -0.21329398013E+03  0.24945582554E+03  0.12500000000E+03 0.  0.
         25    1    1    2    0    0  0.17767686265E+02  0.64132722835E+02 -0.31217283459E+03  0.34279086258E+03  0.12500000000E+03 0.  0.
         25    1    1    2    0    0  0.15528904311E+02 -0.64605997885E+02 -0.79359708129E+02  0.16229000310E+03  0.12500000000E+03 0.  0.
</event>
<event>
 5    0  0.5668330E-005  0.2488991E+03  0.7546771E-02  0.1114003E+00
         21   -1    0    0  502  501  0.00000000000E+00  0.00000000000E+00  0.44161154011E+03  0.44161154011E+03  0.00000000000E+00 0. -1.
         21   -1    0    0  501  502 -0.00000000000E+00 -0.00000000000E+00 -0.14028343477E+03  0.14028343477E+03  0.00000000000E+00 0. -1.
         25    1    1    2    0    0 -0.32954112152E+02 -0.84285646976E+02  0.22930668538E+03  0.27639934833E+03  0.12500000000E+03 0.  0.
         25    1    1    2    0    0  0.16973454494E+02  0.77725081603E+02  0.96678795630E+02  0.17692110104E+03  0.12500000000E+03 0.  0.
         25    1    1    2    0    0  0.15980657658E+02  0.65605653729E+01 -0.24657375678E+02  0.12857452552E+03  0.12500000000E+03 0.  0.
</event>
<event>
 5    0  0.5668330E-005  0.5113233E+03  0.7546771E-02  0.1010865E+00
         21   -1    0    0  502  501  0.00000000000E+00  0.00000000000E+00  0.51288905504E+03  0.51288905504E+03  0.00000000000E+00 0.  1.
         21   -1    0    0  501  502 -0.00000000000E+00 -0.00000000000E+00 -0.50976229758E+03  0.50976229758E+03  0.00000000000E+00 0.  1.
         25    1    1    2    0    0  0.21277888547E+03  0.27472142883E+03 -0.12227416533E+02  0.36948779042E+03  0.12500000000E+03 0.  0.
         25    1    1    2    0    0 -0.33758964650E+03 -0.30733776123E+03  0.90397294874E+01  0.47342368510E+03  0.12500000000E+03 0.  0.
         25    1    1    2    0    0  0.12481076104E+03  0.32616332406E+02  0.63144445096E+01  0.17973987710E+03  0.12500000000E+03 0.  0.
</event>
<event>
 5    0  0.5668330E-005  0.2797840E+03  0.7546771E-02  0.1095807E+00
         21   -1    0    0  502  501  0.00000000000E+00  0.00000000000E+00  0.14603282760E+04  0.14603282760E+04  0.00000000000E+00 0. -1.
         21   -1    0    0  501  502 -0.00000000000E+00 -0.00000000000E+00 -0.53603773080E+02  0.53603773080E+02  0.00000000000E+00 0. -1.
         25    1    1    2    0    0 -0.55127344420E+02  0.41007064754E+02  0.35253797972E+03  0.38030071076E+03  0.12500000000E+03 0.  0.
         25    1    1    2    0    0  0.16461883922E+03  0.50801316381E+02  0.40869097405E+03  0.46079653671E+03  0.12500000000E+03 0.  0.
         25    1    1    2    0    0 -0.10949149480E+03 -0.91808381134E+02  0.64549554915E+03  0.67283480160E+03  0.12500000000E+03 0.  0.
</event>
<event>
 5    0  0.5668330E-005  0.5445453E+03  0.7546771E-02  0.1002764E+00
         21   -1    0    0  502  501  0.00000000000E+00  0.00000000000E+00  0.77824837891E+03  0.77824837891E+03  0.00000000000E+00 0.  1.
         21   -1    0    0  501  502 -0.00000000000E+00 -0.00000000000E+00 -0.38102174111E+03  0.38102174111E+03  0.00000000000E+00 0.  1.
         25    1    1    2    0    0  0.15103852359E+03  0.15774273575E+03 -0.27295244582E+03  0.37124579994E+03  0.12500000000E+03 0.  0.
         25    1    1    2    0    0 -0.20464976400E+03 -0.12569802757E+03  0.49209521125E+03  0.56166201312E+03  0.12500000000E+03 0.  0.
         25    1    1    2    0    0  0.53611240408E+02 -0.32044708183E+02  0.17808387236E+03  0.22636230697E+03  0.12500000000E+03 0.  0.
</event>
<event>
 5    0  0.6313125E-005  0.4041470E+03  0.7546771E-02  0.1042353E+00
         21   -1    0    0  502  501  0.00000000000E+00  0.00000000000E+00  0.73483411498E+03  0.73483411498E+03  0.00000000000E+00 0. -1.
         21   -1    0    0  501  502 -0.00000000000E+00 -0.00000000000E+00 -0.22227440425E+03  0.22227440425E+03  0.00000000000E+00 0. -1.
         25    1    1    2    0    0 -0.57864684714E+02 -0.21245841513E+03  0.17971348304E+03  0.31049772283E+03  0.12500000000E+03 0.  0.
         25    1    1    2    0    0 -0.16541050184E+03  0.17501737517E+03  0.75176863511E+02  0.28154622452E+03  0.12500000000E+03 0.  0.
         25    1    1    2    0    0  0.22327518656E+03  0.37441039955E+02  0.25766936418E+03  0.36506457188E+03  0.12500000000E+03 0.  0.
</event>
<event>
 5    0  0.5668330E-005  0.3022784E+03  0.7546771E-02  0.1084107E+00
         21   -1    0    0  502  501  0.00000000000E+00  0.00000000000E+00  0.12641173437E+04  0.12641173437E+04  0.00000000000E+00 0. -1.
         21   -1    0    0  501  502 -0.00000000000E+00 -0.00000000000E+00 -0.72281454934E+02  0.72281454934E+02  0.00000000000E+00 0. -1.
         25    1    1    2    0    0 -0.13034983885E+02  0.29884953347E+02  0.26781219536E+03  0.29734053411E+03  0.12500000000E+03 0.  0.
         25    1    1    2    0    0 -0.18310303966E+03  0.53510232329E+02  0.43550388754E+03  0.49160828325E+03  0.12500000000E+03 0.  0.
         25    1    1    2    0    0  0.19613802354E+03 -0.83395185676E+02  0.48851980586E+03  0.54744998127E+03  0.12500000000E+03 0.  0.
</event>
<event>
 5    0  0.5668330E-005  0.2261531E+03  0.7546771E-02  0.1129377E+00
         21   -1    0    0  502  501  0.00000000000E+00  0.00000000000E+00  0.37978927495E+03  0.37978927495E+03  0.00000000000E+00 0. -1.
         21   -1    0    0  501  502 -0.00000000000E+00 -0.00000000000E+00 -0.13466737972E+03  0.13466737972E+03  0.00000000000E+00 0. -1.
         25    1    1    2    0    0 -0.71452377376E+01 -0.67388473312E+02  0.66166146565E+02  0.15682863166E+03  0.12500000000E+03 0.  0.
         25    1    1    2    0    0 -0.42319905842E+01 -0.38479489828E+02  0.13419288428E+03  0.18743348440E+03  0.12500000000E+03 0.  0.
         25    1    1    2    0    0  0.11377228322E+02  0.10586796314E+03  0.44762864390E+02  0.17019453861E+03  0.12500000000E+03 0.  0.
</event>
<event>
 5    0  0.5668330E-005  0.4031580E+03  0.7546771E-02  0.1042692E+00
         21   -1    0    0  502  501  0.00000000000E+00  0.00000000000E+00  0.18014376908E+03  0.18014376908E+03  0.00000000000E+00 0.  1.
         21   -1    0    0  501  502 -0.00000000000E+00 -0.00000000000E+00 -0.90225907841E+03  0.90225907841E+03  0.00000000000E+00 0.  1.
         25    1    1    2    0    0 -0.11739365290E+03 -0.12870771890E+03 -0.45455278571E+03  0.50258350713E+03  0.12500000000E+03 0.  0.
         25    1    1    2    0    0  0.21702251917E+03  0.17579068234E+03 -0.27723996137E+03  0.41290208767E+03  0.12500000000E+03 0.  0.
         25    1    1    2    0    0 -0.99628866278E+02 -0.47082963444E+02  0.96774377471E+01  0.16691725268E+03  0.12500000000E+03 0.  0.
</event>
<event>
 5    0  0.5668330E-005  0.3880047E+03  0.7546771E-02  0.1048014E+00
         21   -1    0    0  502  501  0.00000000000E+00  0.00000000000E+00  0.44285658471E+03  0.44285658471E+03  0.00000000000E+00 0.  1.
         21   -1    0    0  501  502 -0.00000000000E+00 -0.00000000000E+00 -0.33994668460E+03  0.33994668460E+03  0.00000000000E+00 0.  1.
         25    1    1    2    0    0  0.25706143110E+03 -0.32318991139E+02  0.13901920914E+03  0.31949403289E+03  0.12500000000E+03 0.  0.
         25    1    1    2    0    0 -0.24133705931E+02  0.56874999892E+02 -0.12096255597E+03  0.18459182355E+03  0.12500000000E+03 0.  0.
         25    1    1    2    0    0 -0.23292772517E+03 -0.24556008752E+02  0.84853246949E+02  0.27871741287E+03  0.12500000000E+03 0.  0.
</event>
<event>
 5    0  0.5840239E-005  0.4239465E+03  0.7546771E-02  0.1035789E+00
         21   -1    0    0  502  501  0.00000000000E+00  0.00000000000E+00  0.48079510606E+03  0.48079510606E+03  0.00000000000E+00 0.  1.
         21   -1    0    0  501  502 -0.00000000000E+00 -0.00000000000E+00 -0.37381967991E+03  0.37381967991E+03  0.00000000000E+00 0.  1.
         25    1    1    2    0    0  0.46378003562E+00  0.11442164720E+03  0.12240818290E+03  0.20904853905E+03  0.12500000000E+03 0.  0.
         25    1    1    2    0    0  0.54853278771E+02 -0.20378566643E+03  0.23949589134E+03  0.34281301317E+03  0.12500000000E+03 0.  0.
         25    1    1    2    0    0 -0.55317058807E+02  0.89364019227E+02 -0.25492864809E+03  0.30275323374E+03  0.12500000000E+03 0.  0.
</event>
<event>
 5    0  0.5974182E-005  0.2980607E+03  0.7546771E-02  0.1086214E+00
         21   -1    0    0  502  501  0.00000000000E+00  0.00000000000E+00  0.37650175194E+03  0.37650175194E+03  0.00000000000E+00 0. -1.
         21   -1    0    0  501  502 -0.00000000000E+00 -0.00000000000E+00 -0.23596211996E+03  0.23596211996E+03  0.00000000000E+00 0. -1.
         25    1    1    2    0    0  0.44809280048E+02  0.10144976182E+03  0.25111895124E+02  0.16898382475E+03  0.12500000000E+03 0.  0.
         25    1    1    2    0    0 -0.42931278478E+02  0.78285273710E+02  0.15808582013E+03  0.22042641693E+03  0.12500000000E+03 0.  0.
         25    1    1    2    0    0 -0.18780015701E+01 -0.17973503553E+03 -0.42658083279E+02  0.22305363022E+03  0.12500000000E+03 0.  0.
</event>
<event>
 5    0  0.5668330E-005  0.4358275E+03  0.7546771E-02  0.1032035E+00
         21   -1    0    0  502  501  0.00000000000E+00  0.00000000000E+00  0.45436099080E+03  0.45436099080E+03  0.00000000000E+00 0. -1.
         21   -1    0    0  501  502 -0.00000000000E+00 -0.00000000000E+00 -0.41804994923E+03  0.41804994923E+03  0.00000000000E+00 0. -1.
         25    1    1    2    0    0  0.65955472538E+02  0.27174146796E+03  0.20676932545E+03  0.36955663127E+03  0.12500000000E+03 0.  0.
         25    1    1    2    0    0 -0.33294133339E+02 -0.36309786631E+02  0.61716761507E+02  0.14785418009E+03  0.12500000000E+03 0.  0.
         25    1    1    2    0    0 -0.32661339199E+02 -0.23543168133E+03 -0.23217504538E+03  0.35500012866E+03  0.12500000000E+03 0.  0.
</event>
<event>
 5    0  0.5668330E-005  0.3029956E+03  0.7546771E-02  0.1083753E+00
         21   -1    0    0  502  501  0.00000000000E+00  0.00000000000E+00  0.63084657300E+03  0.63084657300E+03  0.00000000000E+00 0.  1.
         21   -1    0    0  501  502 -0.00000000000E+00 -0.00000000000E+00 -0.14552874572E+03  0.14552874572E+03  0.00000000000E+00 0.  1.
         25    1    1    2    0    0 -0.70339378671E+02  0.22403241210E+02  0.49397963493E+02  0.15334501037E+03  0.12500000000E+03 0.  0.
         25    1    1    2    0    0 -0.82919599210E+02 -0.14635556785E+03  0.23690724627E+03  0.31629994547E+03  0.12500000000E+03 0.  0.
         25    1    1    2    0    0  0.15325897788E+03  0.12395232664E+03  0.19901261752E+03  0.30673036288E+03  0.12500000000E+03 0.  0.
</event>
<event>
 5    0  0.5668330E-005  0.2238708E+03  0.7546771E-02  0.1131030E+00
         21   -1    0    0  502  501  0.00000000000E+00  0.00000000000E+00  0.58954975747E+03  0.58954975747E+03  0.00000000000E+00 0.  1.
         21   -1    0    0  501  502 -0.00000000000E+00 -0.00000000000E+00 -0.85010899637E+02  0.85010899637E+02  0.00000000000E+00 0.  1.
         25    1    1    2    0    0 -0.50000312652E+02 -0.63322965001E+02  0.21305438278E+03  0.25985957589E+03  0.12500000000E+03 0.  0.
         25    1    1    2    0    0 -0.35047541242E+02  0.23178754185E+02  0.90161260854E+02  0.15974867058E+03  0.12500000000E+03 0.  0.
         25    1    1    2    0    0  0.85047853894E+02  0.40144210817E+02  0.20132321420E+03  0.25495241064E+03  0.12500000000E+03 0.  0.
</event>
<event>
 5    0  0.5668330E-005  0.2787290E+03  0.7546771E-02  0.1096385E+00
         21   -1    0    0  502  501  0.00000000000E+00  0.00000000000E+00  0.11443557341E+03  0.11443557341E+03  0.00000000000E+00 0.  1.
         21   -1    0    0  501  502 -0.00000000000E+00 -0.00000000000E+00 -0.67889613845E+03  0.67889613845E+03  0.00000000000E+00 0.  1.
         25    1    1    2    0    0  0.37015986039E+02  0.72985446925E+02 -0.16642292724E+03  0.22364849518E+03  0.12500000000E+03 0.  0.
         25    1    1    2    0    0 -0.12939433263E+03  0.23250973772E+02 -0.70583981779E+02  0.19465507849E+03  0.12500000000E+03 0.  0.
         25    1    1    2    0    0  0.92378346592E+02 -0.96236420697E+02 -0.32745365602E+03  0.37502813818E+03  0.12500000000E+03 0.  0.
</event>
<event>
 5    0  0.5668330E-005  0.2480888E+03  0.7546771E-02  0.1114519E+00
         21   -1    0    0  502  501  0.00000000000E+00  0.00000000000E+00  0.73520438453E+02  0.73520438453E+02  0.00000000000E+00 0. -1.
         21   -1    0    0  501  502 -0.00000000000E+00 -0.00000000000E+00 -0.83715579139E+03  0.83715579139E+03  0.00000000000E+00 0. -1.
         25    1    1    2    0    0  0.88832363396E+02 -0.72411497021E+01 -0.42111792776E+03  0.44822866052E+03  0.12500000000E+03 0.  0.
         25    1    1    2    0    0  0.13826638539E+02 -0.39964269598E+02 -0.93293909959E+02  0.16160777337E+03  0.12500000000E+03 0.  0.
         25    1    1    2    0    0 -0.10265900194E+03  0.47205419300E+02 -0.24922351522E+03  0.30083979596E+03  0.12500000000E+03 0.  0.
</event>
<event>
 5    0  0.5668330E-005  0.2779789E+03  0.7546771E-02  0.1096798E+00
         21   -1    0    0  502  501  0.00000000000E+00  0.00000000000E+00  0.26063840838E+03  0.26063840838E+03  0.00000000000E+00 0. -1.
         21   -1    0    0  501  502 -0.00000000000E+00 -0.00000000000E+00 -0.29647298487E+03  0.29647298487E+03  0.00000000000E+00 0. -1.
         25    1    1    2    0    0  0.84930674211E+01  0.15474141504E+03 -0.53693215645E+02  0.20621590416E+03  0.12500000000E+03 0.  0.
         25    1    1    2    0    0  0.10347551269E+02  0.23554445034E+02 -0.19694272793E+02  0.12913074026E+03  0.12500000000E+03 0.  0.
         25    1    1    2    0    0 -0.18840618690E+02 -0.17829586007E+03  0.37552911946E+02  0.22176474884E+03  0.12500000000E+03 0.  0.
</event>
<event>
 5    0  0.5668330E-005  0.2489321E+03  0.7546771E-02  0.1113982E+00
         21   -1    0    0  502  501  0.00000000000E+00  0.00000000000E+00  0.13867986935E+04  0.13867986935E+04  0.00000000000E+00 0. -1.
         21   -1    0    0  501  502 -0.00000000000E+00 -0.00000000000E+00 -0.44683610144E+02  0.44683610144E+02  0.00000000000E+00 0. -1.
         25    1    1    2    0    0  0.38906290900E+02 -0.61707524106E+02  0.17953271270E+03  0.23060466806E+03  0.12500000000E+03 0.  0.
         25    1    1    2    0    0 -0.69891607190E+02  0.37197633110E+02  0.83551691493E+03  0.84851754006E+03  0.12500000000E+03 0.  0.
         25    1    1    2    0    0  0.30985316290E+02  0.24509890997E+02  0.32706545573E+03  0.35236009552E+03  0.12500000000E+03 0.  0.
</event>
<event>
 5    0  0.5668330E-005  0.4434824E+03  0.7546771E-02  0.1029684E+00
         21   -1    0    0  502  501  0.00000000000E+00  0.00000000000E+00  0.15323014446E+03  0.15323014446E+03  0.00000000000E+00 0.  1.
         21   -1    0    0  501  502 -0.00000000000E+00 -0.00000000000E+00 -0.12835375898E+04  0.12835375898E+04  0.00000000000E+00 0.  1.
         25    1    1    2    0    0  0.98246070471E+02  0.61150580930E+01  0.44645661707E+02  0.16525107990E+03  0.12500000000E+03 0.  0.
         25    1    1    2    0    0 -0.16628972142E+03  0.22241123581E+02 -0.10753319770E+04  0.10954956868E+04  0.12500000000E+03 0.  0.
         25    1    1    2    0    0  0.68043650948E+02 -0.28356181674E+02 -0.99621130061E+02  0.17602096758E+03  0.12500000000E+03 0.  0.
</event>
<event>
 5    0  0.5668330E-005  0.2200294E+03  0.7546771E-02  0.1133861E+00
         21   -1    0    0  502  501  0.00000000000E+00  0.00000000000E+00  0.58040480909E+02  0.58040480909E+02  0.00000000000E+00 0. -1.
         21   -1    0    0  501  502 -0.00000000000E+00 -0.00000000000E+00 -0.83412382625E+03  0.83412382625E+03  0.00000000000E+00 0. -1.
         25    1    1    2    0    0  0.22929377004E+02  0.36459627945E+02 -0.21483552638E+03  0.25225852650E+03  0.12500000000E+03 0.  0.
         25    1    1    2    0    0 -0.80024171068E+00 -0.10279810339E+03 -0.33649485289E+03  0.37339238941E+03  0.12500000000E+03 0.  0.
         25    1    1    2    0    0 -0.22129135294E+02  0.66338475450E+02 -0.22475296608E+03  0.26651339125E+03  0.12500000000E+03 0.  0.
</event>
<event>
 5    0  0.5668330E-005  0.1946919E+03  0.7546771E-02  0.1154296E+00
         21   -1    0    0  502  501  0.00000000000E+00  0.00000000000E+00  0.21691621770E+03  0.21691621770E+03  0.00000000000E+00 0. -1.
         21   -1    0    0  501  502 -0.00000000000E+00 -0.00000000000E+00 -0.17474452514E+03  0.17474452514E+03  0.00000000000E+00 0. -1.
         25    1    1    2    0    0  0.27529791889E+02  0.22849966672E+02  0.43661723862E+01  0.13009255889E+03  0.12500000000E+03 0.  0.
         25    1    1    2    0    0 -0.32237525595E+02 -0.23053600260E+02  0.85221157295E+00  0.13113524624E+03  0.12500000000E+03 0.  0.
         25    1    1    2    0    0  0.47077337064E+01  0.20363358788E+00  0.36953308596E+02  0.13043293771E+03  0.12500000000E+03 0.  0.
</event>
<event>
 5    0  0.5668330E-005  0.3093849E+03  0.7546771E-02  0.1080641E+00
         21   -1    0    0  502  501  0.00000000000E+00  0.00000000000E+00  0.35250501175E+03  0.35250501175E+03  0.00000000000E+00 0.  1.
         21   -1    0    0  501  502 -0.00000000000E+00 -0.00000000000E+00 -0.27153936407E+03  0.27153936407E+03  0.00000000000E+00 0.  1.
         25    1    1    2    0    0  0.10768058085E+03 -0.32132957486E+02  0.19023413457E+03  0.25385362003E+03  0.12500000000E+03 0.  0.
         25    1    1    2    0    0 -0.13617117563E+03  0.63251890031E+02 -0.13273353940E+03  0.23619183548E+03  0.12500000000E+03 0.  0.
         25    1    1    2    0    0  0.28490594782E+02 -0.31118932545E+02  0.23465052508E+02  0.13399892031E+03  0.12500000000E+03 0.  0.
</event>
<event>
 5    0  0.5668330E-005  0.2731736E+03  0.7546771E-02  0.1099477E+00
         21   -1    0    0  502  501  0.00000000000E+00  0.00000000000E+00  0.82443119718E+03  0.82443119718E+03  0.00000000000E+00 0. -1.
         21   -1    0    0  501  502 -0.00000000000E+00 -0.00000000000E+00 -0.90515506692E+02  0.90515506692E+02  0.00000000000E+00 0. -1.
         25    1    1    2    0    0 -0.46706389833E+02 -0.77434293937E+02  0.37734126666E+03  0.40766283649E+03  0.12500000000E+03 0.  0.
         25    1    1    2    0    0  0.70760384871E+02  0.10123816263E+03  0.33176052571E+03  0.37542808108E+03  0.12500000000E+03 0.  0.
         25    1    1    2    0    0 -0.24053995038E+02 -0.23803868694E+02  0.24813898110E+02  0.13185578630E+03  0.12500000000E+03 0.  0.
</event>
<event>
 5    0  0.5668330E-005  0.4873726E+03  0.7546771E-02  0.1017128E+00
         21   -1    0    0  502  501  0.00000000000E+00  0.00000000000E+00  0.15190482425E+04  0.15190482425E+04  0.00000000000E+00 0. -1.
         21   -1    0    0  501  502 -0.00000000000E+00 -0.00000000000E+00 -0.15636901548E+03  0.15636901548E+03  0.00000000000E+00 0. -1.
         25    1    1    2    0    0 -0.11607530630E+02 -0.50263249647E+02  0.62289899685E+03  0.63740825952E+03  0.12500000000E+03 0.  0.
         25    1    1    2    0    0 -0.25223168296E+03 -0.18925263506E+03  0.25971317715E+03  0.42721577236E+03  0.12500000000E+03 0.  0.
         25    1    1    2    0    0  0.26383921359E+03  0.23951588471E+03  0.48006705301E+03  0.61079322609E+03  0.12500000000E+03 0.  0.
</event>
<event>
 5    0  0.5668330E-005  0.4041522E+03  0.7546771E-02  0.1042351E+00
         21   -1    0    0  502  501  0.00000000000E+00  0.00000000000E+00  0.52925919204E+03  0.52925919204E+03  0.00000000000E+00 0. -1.
         21   -1    0    0  501  502 -0.00000000000E+00 -0.00000000000E+00 -0.30861823931E+03  0.30861823931E+03  0.00000000000E+00 0. -1.
         25    1    1    2    0    0  0.19916926101E+02 -0.28576946838E+03  0.18112933246E+03  0.36123912867E+03  0.12500000000E+03 0.  0.
         25    1    1    2    0    0 -0.54138946228E+02  0.43323277712E+02 -0.93938958382E+02  0.17104812128E+03  0.12500000000E+03 0.  0.
         25    1    1    2    0    0  0.34222020128E+02  0.24244619067E+03  0.13345057864E+03  0.30559018141E+03  0.12500000000E+03 0.  0.
</event>
<event>
 5    0  0.5668330E-005  0.3059184E+03  0.7546771E-02  0.1082319E+00
         21   -1    0    0  502  501  0.00000000000E+00  0.00000000000E+00  0.11158708571E+03  0.11158708571E+03  0.00000000000E+00 0. -1.
         21   -1    0    0  501  502 -0.00000000000E+00 -0.00000000000E+00 -0.83868197759E+03  0.83868197759E+03  0.00000000000E+00 0. -1.
         25    1    1    2    0    0 -0.51387711090E+02  0.52972079674E+01 -0.37834853437E+03  0.40179767386E+03  0.12500000000E+03 0.  0.
         25    1    1    2    0    0 -0.72285334543E+02  0.55079524897E+02 -0.32649847703E+03  0.36122732338E+03  0.12500000000E+03 0.  0.
         25    1    1    2    0    0  0.12367304563E+03 -0.60376732865E+02 -0.22247880477E+02  0.18724406606E+03  0.12500000000E+03 0.  0.
</event>
<event>
 5    0  0.5668330E-005  0.3049200E+03  0.7546771E-02  0.1082807E+00
         21   -1    0    0  502  501  0.00000000000E+00  0.00000000000E+00  0.20152201976E+03  0.20152201976E+03  0.00000000000E+00 0.  1.
         21   -1    0    0  501  502 -0.00000000000E+00 -0.00000000000E+00 -0.46137003562E+03  0.46137003562E+03  0.00000000000E+00 0.  1.
         25    1    1    2    0    0 -0.11100083746E+02  0.89023550227E+02  0.80875358539E+02  0.17382240354E+03  0.12500000000E+03 0.  0.
         25    1    1    2    0    0 -0.10736373025E+03 -0.22949923602E+02 -0.16451134116E+03  0.23397147462E+03  0.12500000000E+03 0.  0.
         25    1    1    2    0    0  0.11846381399E+03 -0.66073626625E+02 -0.17621203325E+03  0.25509817722E+03  0.12500000000E+03 0.  0.
</event>
<event>
 5    0  0.5668330E-005  0.3228395E+03  0.7546771E-02  0.1074350E+00
         21   -1    0    0  502  501  0.00000000000E+00  0.00000000000E+00  0.10451327892E+03  0.10451327892E+03  0.00000000000E+00 0. -1.
         21   -1    0    0  501  502 -0.00000000000E+00 -0.00000000000E+00 -0.99724510700E+03  0.99724510700E+03  0.00000000000E+00 0. -1.
         25    1    1    2    0    0  0.16570097556E+03  0.71624773381E+02 -0.68708374590E+03  0.72131546174E+03  0.12500000000E+03 0.  0.
         25    1    1    2    0    0 -0.71816197508E+02 -0.51701242470E+02 -0.55863844928E+02  0.16302255632E+03  0.12500000000E+03 0.  0.
         25    1    1    2    0    0 -0.93884778048E+02 -0.19923530911E+02 -0.14978423725E+03  0.21742036786E+03  0.12500000000E+03 0.  0.
</event>
<event>
 5    0  0.5668330E-005  0.3619477E+03  0.7546771E-02  0.1057815E+00
         21   -1    0    0  502  501  0.00000000000E+00  0.00000000000E+00  0.42732354470E+03  0.42732354470E+03  0.00000000000E+00 0. -1.
         21   -1    0    0  501  502 -0.00000000000E+00 -0.00000000000E+00 -0.30657370154E+03  0.30657370154E+03  0.00000000000E+00 0. -1.
         25    1    1    2    0    0  0.10043814090E+03  0.36421699857E+02  0.15185349669E+03  0.22382771237E+03  0.12500000000E+03 0.  0.
         25    1    1    2    0    0  0.16210241178E+03 -0.50969689182E+02  0.28563219392E+02  0.21287545331E+03  0.12500000000E+03 0.  0.
         25    1    1    2    0    0 -0.26254055268E+03  0.14547989324E+02 -0.59666872920E+02  0.29719408056E+03  0.12500000000E+03 0.  0.
</event>
<event>
 5    0  0.5668330E-005  0.3721634E+03  0.7546771E-02  0.1053869E+00
         21   -1    0    0  502  501  0.00000000000E+00  0.00000000000E+00  0.13410470040E+04  0.13410470040E+04  0.00000000000E+00 0.  1.
         21   -1    0    0  501  502 -0.00000000000E+00 -0.00000000000E+00 -0.10328169239E+03  0.10328169239E+03  0.00000000000E+00 0.  1.
         25    1    1    2    0    0 -0.25932299531E+03  0.11339829677E+02  0.41341721513E+03  0.50390058682E+03  0.12500000000E+03 0.  0.
         25    1    1    2    0    0  0.26186888046E+03  0.13529685941E+01  0.37687620720E+03  0.47564463272E+03  0.12500000000E+03 0.  0.
         25    1    1    2    0    0 -0.25458851496E+01 -0.12692798271E+02  0.44747188931E+03  0.46478347688E+03  0.12500000000E+03 0.  0.
</event>
<event>
 5    0  0.5668330E-005  0.2428293E+03  0.7546771E-02  0.1117922E+00
         21   -1    0    0  502  501  0.00000000000E+00  0.00000000000E+00  0.27897091419E+03  0.27897091419E+03  0.00000000000E+00 0. -1.
         21   -1    0    0  501  502 -0.00000000000E+00 -0.00000000000E+00 -0.21136993504E+03  0.21136993504E+03  0.00000000000E+00 0. -1.
         25    1    1    2    0    0 -0.30612716720E+02 -0.30617221264E+02 -0.50786681883E+02  0.14169982258E+03  0.12500000000E+03 0.  0.
         25    1    1    2    0    0  0.46636041475E+02 -0.21877648283E+02  0.15658846940E+03  0.20687798483E+03  0.12500000000E+03 0.  0.
         25    1    1    2    0    0 -0.16023324755E+02  0.52494869547E+02 -0.38200808368E+02  0.14176304182E+03  0.12500000000E+03 0.  0.
</event>
<event>
 5    0  0.6401120E-005  0.4943832E+03  0.7546771E-02  0.1015255E+00
         21   -1    0    0  502  501  0.00000000000E+00  0.00000000000E+00  0.29742699916E+03  0.29742699916E+03  0.00000000000E+00 0.  1.
         21   -1    0    0  501  502 -0.00000000000E+00 -0.00000000000E+00 -0.82176375481E+03  0.82176375481E+03  0.00000000000E+00 0.  1.
         25    1    1    2    0    0  0.30647639027E+03 -0.55416246105E+02 -0.24609662596E+03  0.41615776748E+03  0.12500000000E+03 0.  0.
         25    1    1    2    0    0 -0.15820365108E+03  0.93562664988E+02  0.12423884794E+03  0.25464221730E+03  0.12500000000E+03 0.  0.
         25    1    1    2    0    0 -0.14827273919E+03 -0.38146418883E+02 -0.40247897763E+03  0.44839076919E+03  0.12500000000E+03 0.  0.
</event>
<event>
 5    0  0.5668330E-005  0.6437730E+03  0.7546771E-02  0.9818534E-01
         21   -1    0    0  502  501  0.00000000000E+00  0.00000000000E+00  0.85478526036E+03  0.85478526036E+03  0.00000000000E+00 0.  1.
         21   -1    0    0  501  502 -0.00000000000E+00 -0.00000000000E+00 -0.48485129021E+03  0.48485129021E+03  0.00000000000E+00 0.  1.
         25    1    1    2    0    0 -0.19547057001E+03  0.38043707214E+03  0.66710437064E+02  0.45057340358E+03  0.12500000000E+03 0.  0.
         25    1    1    2    0    0  0.27435217142E+03 -0.47718678749E+03  0.31965447382E+02  0.56535222113E+03  0.12500000000E+03 0.  0.
         25    1    1    2    0    0 -0.78881601408E+02  0.96749715342E+02  0.27125808570E+03  0.32371092586E+03  0.12500000000E+03 0.  0.
</event>
<event>
 5    0  0.5668330E-005  0.4429053E+03  0.7546771E-02  0.1029859E+00
         21   -1    0    0  502  501  0.00000000000E+00  0.00000000000E+00  0.21863096060E+04  0.21863096060E+04  0.00000000000E+00 0. -1.
         21   -1    0    0  501  502 -0.00000000000E+00 -0.00000000000E+00 -0.89724317291E+02  0.89724317291E+02  0.00000000000E+00 0. -1.
         25    1    1    2    0    0 -0.18758855700E+02  0.14815913913E+03  0.13406791172E+03  0.23643652452E+03  0.12500000000E+03 0.  0.
         25    1    1    2    0    0  0.18637111927E+03 -0.20799300564E+03  0.14651681597E+04  0.14967758752E+04  0.12500000000E+03 0.  0.
         25    1    1    2    0    0 -0.16761226357E+03  0.59833866508E+02  0.49734921734E+03  0.54282152359E+03  0.12500000000E+03 0.  0.
</event>
<event>
 5    0  0.5668330E-005  0.3457539E+03  0.7546771E-02  0.1064371E+00
         21   -1    0    0  502  501  0.00000000000E+00  0.00000000000E+00  0.10813286049E+04  0.10813286049E+04  0.00000000000E+00 0. -1.
         21   -1    0    0  501  502 -0.00000000000E+00 -0.00000000000E+00 -0.11055453455E+03  0.11055453455E+03  0.00000000000E+00 0. -1.
         25    1    1    2    0    0  0.50001049479E+02 -0.84169030462E+01  0.21508449852E+02  0.13659634922E+03  0.12500000000E+03 0.  0.
         25    1    1    2    0    0  0.52706101469E+02  0.17535391082E+02  0.85895781860E+03  0.86978098232E+03  0.12500000000E+03 0.  0.
         25    1    1    2    0    0 -0.10270715095E+03 -0.91184880362E+01  0.90307801886E+02  0.18550580789E+03  0.12500000000E+03 0.  0.
</event>
<event>
 5    0  0.5668330E-005  0.2899517E+03  0.7546771E-02  0.1090374E+00
         21   -1    0    0  502  501  0.00000000000E+00  0.00000000000E+00  0.60430946917E+03  0.60430946917E+03  0.00000000000E+00 0. -1.
         21   -1    0    0  501  502 -0.00000000000E+00 -0.00000000000E+00 -0.13912074548E+03  0.13912074548E+03  0.00000000000E+00 0. -1.
         25    1    1    2    0    0  0.12873564916E+03  0.67153214017E+02  0.12016003418E+03  0.22615449439E+03  0.12500000000E+03 0.  0.
         25    1    1    2    0    0 -0.14565503970E+03 -0.11149812022E+02  0.61362215397E+02  0.20181682382E+03  0.12500000000E+03 0.  0.
         25    1    1    2    0    0  0.16919390533E+02 -0.56003401996E+02  0.28366647412E+03  0.31545889645E+03  0.12500000000E+03 0.  0.
</event>
<event>
 5    0  0.5668330E-005  0.2412996E+03  0.7546771E-02  0.1118930E+00
         21   -1    0    0  502  501  0.00000000000E+00  0.00000000000E+00  0.39775213284E+03  0.39775213284E+03  0.00000000000E+00 0.  1.
         21   -1    0    0  501  502 -0.00000000000E+00 -0.00000000000E+00 -0.14638640646E+03  0.14638640646E+03  0.00000000000E+00 0.  1.
         25    1    1    2    0    0 -0.54934656748E+02 -0.27238704096E+02  0.81459187247E+02  0.16130828466E+03  0.12500000000E+03 0.  0.
         25    1    1    2    0    0 -0.47076535435E+02  0.98579514721E+02  0.70695343007E+02  0.18043545227E+03  0.12500000000E+03 0.  0.
         25    1    1    2    0    0  0.10201119218E+03 -0.71340810625E+02  0.99211196130E+02  0.20239480238E+03  0.12500000000E+03 0.  0.
</event>
<event>
 5    0  0.5668330E-005  0.2328659E+03  0.7546771E-02  0.1124639E+00
         21   -1    0    0  502  501  0.00000000000E+00  0.00000000000E+00  0.31984722570E+02  0.31984722570E+02  0.00000000000E+00 0.  1.
         21   -1    0    0  501  502 -0.00000000000E+00 -0.00000000000E+00 -0.16953887192E+04  0.16953887192E+04  0.00000000000E+00 0.  1.
         25    1    1    2    0    0 -0.40549902315E+02 -0.50219331207E+02 -0.58399624371E+03  0.60070199640E+03  0.12500000000E+03 0.  0.
         25    1    1    2    0    0  0.13464860846E+02  0.19058560956E+02 -0.19684411190E+03  0.23434405393E+03  0.12500000000E+03 0.  0.
         25    1    1    2    0    0  0.27085041468E+02  0.31160770251E+02 -0.88256364106E+03  0.89232739149E+03  0.12500000000E+03 0.  0.
</event>
<event>
 5    0  0.5668330E-005  0.3756771E+03  0.7546771E-02  0.1052543E+00
         21   -1    0    0  502  501  0.00000000000E+00  0.00000000000E+00  0.96535860345E+02  0.96535860345E+02  0.00000000000E+00 0.  1.
         21   -1    0    0  501  502 -0.00000000000E+00 -0.00000000000E+00 -0.14619778580E+04  0.14619778580E+04  0.00000000000E+00 0.  1.
         25    1    1    2    0    0 -0.15537743876E+03  0.65547304868E+02 -0.41648449627E+03  0.46639353907E+03  0.12500000000E+03 0.  0.
         25    1    1    2    0    0  0.12684262510E+03  0.12472483373E+03 -0.77295209939E+03  0.80294787106E+03  0.12500000000E+03 0.  0.
         25    1    1    2    0    0  0.28534813661E+02 -0.19027213860E+03 -0.17600540204E+03  0.28917230826E+03  0.12500000000E+03 0.  0.
</event>
<event>
 5    0  0.5668330E-005  0.3769971E+03  0.7546771E-02  0.1052049E+00
         21   -1    0    0  502  501  0.00000000000E+00  0.00000000000E+00  0.11017002242E+04  0.11017002242E+04  0.00000000000E+00 0.  1.
         21   -1    0    0  501  502 -0.00000000000E+00 -0.00000000000E+00 -0.12900681186E+03  0.12900681186E+03  0.00000000000E+00 0.  1.
         25    1    1    2    0    0 -0.21882022174E+02 -0.87914181865E+02  0.31987800882E+03  0.35518258233E+03  0.12500000000E+03 0.  0.
         25    1    1    2    0    0  0.22325026064E+03  0.18692155811E+03  0.43845432252E+03  0.54096907555E+03  0.12500000000E+03 0.  0.
         25    1    1    2    0    0 -0.20136823847E+03 -0.99007376249E+02  0.21436108099E+03  0.33455537816E+03  0.12500000000E+03 0.  0.
</event>
<event>
 5    0  0.5668330E-005  0.3751969E+03  0.7546771E-02  0.1052723E+00
         21   -1    0    0  502  501  0.00000000000E+00  0.00000000000E+00  0.56699541746E+03  0.56699541746E+03  0.00000000000E+00 0. -1.
         21   -1    0    0  501  502 -0.00000000000E+00 -0.00000000000E+00 -0.24827843833E+03  0.24827843833E+03  0.00000000000E+00 0. -1.
         25    1    1    2    0    0  0.21011041966E+03 -0.11901408484E+03  0.32277495370E+03  0.42204195476E+03  0.12500000000E+03 0.  0.
         25    1    1    2    0    0 -0.15670692800E+02  0.12668838761E+01  0.35326923605E+02  0.13084405657E+03  0.12500000000E+03 0.  0.
         25    1    1    2    0    0 -0.19443972686E+03  0.11774720096E+03 -0.39384898172E+02  0.26238784446E+03  0.12500000000E+03 0.  0.
</event>
<event>
 5    0  0.5668330E-005  0.2418048E+03  0.7546771E-02  0.1118596E+00
         21   -1    0    0  502  501  0.00000000000E+00  0.00000000000E+00  0.17839518372E+03  0.17839518372E+03  0.00000000000E+00 0.  1.
         21   -1    0    0  501  502 -0.00000000000E+00 -0.00000000000E+00 -0.32775310149E+03  0.32775310149E+03  0.00000000000E+00 0.  1.
         25    1    1    2    0    0 -0.31811011412E+02 -0.19990867677E+02 -0.66185258784E+02  0.14634569935E+03  0.12500000000E+03 0.  0.
         25    1    1    2    0    0  0.10012313010E+03  0.96314685114E+02 -0.61523110638E+02  0.19675175449E+03  0.12500000000E+03 0.  0.
         25    1    1    2    0    0 -0.68312118692E+02 -0.76323817437E+02 -0.21649548355E+02  0.16305083138E+03  0.12500000000E+03 0.  0.
</event>
<event>
 5    0  0.6035859E-005  0.2597415E+03  0.7546771E-02  0.1107299E+00
         21   -1    0    0  502  501  0.00000000000E+00  0.00000000000E+00  0.68372368847E+03  0.68372368847E+03  0.00000000000E+00 0. -1.
         21   -1    0    0  501  502 -0.00000000000E+00 -0.00000000000E+00 -0.98673825842E+02  0.98673825842E+02  0.00000000000E+00 0. -1.
         25    1    1    2    0    0 -0.69446646106E+02  0.48231251652E+02  0.26587205110E+03  0.30571561597E+03  0.12500000000E+03 0.  0.
         25    1    1    2    0    0 -0.82694438745E+02 -0.46962769678E+02  0.13671037557E+03  0.20822727661E+03  0.12500000000E+03 0.  0.
         25    1    1    2    0    0  0.15214108485E+03 -0.12684819747E+01  0.18246743597E+03  0.26845462174E+03  0.12500000000E+03 0.  0.
</event>
<event>
 5    0  0.5668330E-005  0.3595282E+03  0.7546771E-02  0.1058771E+00
         21   -1    0    0  502  501  0.00000000000E+00  0.00000000000E+00  0.63982048075E+03  0.63982048075E+03  0.00000000000E+00 0.  1.
         21   -1    0    0  501  502 -0.00000000000E+00 -0.00000000000E+00 -0.20202624651E+03  0.20202624651E+03  0.00000000000E+00 0.  1.
         25    1    1    2    0    0 -0.39015447014E+02 -0.12982402242E+03 -0.95173852456E+02  0.20750793742E+03  0.12500000000E+03 0.  0.
         25    1    1    2    0    0  0.26600975202E+02  0.80550414318E+02  0.10083174579E+03  0.18162605014E+03  0.12500000000E+03 0.  0.
         25    1    1    2    0    0  0.12414471812E+02  0.49273608097E+02  0.43213634090E+03  0.45271273970E+03  0.12500000000E+03 0.  0.
</event>
<event>
 5    0  0.5668330E-005  0.3183245E+03  0.7546771E-02  0.1076423E+00
         21   -1    0    0  502  501  0.00000000000E+00  0.00000000000E+00  0.10911143664E+03  0.10911143664E+03  0.00000000000E+00 0. -1.
         21   -1    0    0  501  502 -0.00000000000E+00 -0.00000000000E+00 -0.92868817665E+03  0.92868817665E+03  0.00000000000E+00 0. -1.
         25    1    1    2    0    0  0.12447966729E+03 -0.11311418483E+03 -0.26798159221E+03  0.34018985896E+03  0.12500000000E+03 0.  0.
         25    1    1    2    0    0 -0.11285064386E+03  0.15374878134E+03 -0.14521769298E+03  0.27034632222E+03  0.12500000000E+03 0.  0.
         25    1    1    2    0    0 -0.11629023426E+02 -0.40634596510E+02 -0.40637745482E+03  0.42726343210E+03  0.12500000000E+03 0.  0.
</event>
<event>
 5    0  0.5668330E-005  0.3485024E+03  0.7546771E-02  0.1063231E+00
         21   -1    0    0  502  501  0.00000000000E+00  0.00000000000E+00  0.15043914108E+03  0.15043914108E+03  0.00000000000E+00 0.  1.
         21   -1    0    0  501  502 -0.00000000000E+00 -0.00000000000E+00 -0.80732941903E+03  0.80732941903E+03  0.00000000000E+00 0.  1.
         25    1    1    2    0    0  0.99744278317E+02 -0.23126199391E+03 -0.16668548577E+03  0.32686401155E+03  0.12500000000E+03 0.  0.
         25    1    1    2    0    0 -0.35051111617E+02  0.16256791465E+03 -0.39817457419E+03  0.44924926135E+03  0.12500000000E+03 0.  0.
         25    1    1    2    0    0 -0.64693166700E+02  0.68694079262E+02 -0.92030217992E+02  0.18165528720E+03  0.12500000000E+03 0.  0.
</event>
<event>
 5    0  0.5668330E-005  0.2985545E+03  0.7546771E-02  0.1085965E+00
         21   -1    0    0  502  501  0.00000000000E+00  0.00000000000E+00  0.18473351433E+04  0.18473351433E+04  0.00000000000E+00 0.  1.
         21   -1    0    0  501  502 -0.00000000000E+00 -0.00000000000E+00 -0.48250457530E+02  0.48250457530E+02  0.00000000000E+00 0.  1.
         25    1    1    2    0    0  0.93915996101E+02  0.39805869178E+02  0.40140256534E+03  0.43261269168E+03  0.12500000000E+03 0.  0.
         25    1    1    2    0    0 -0.37779091722E+02  0.13792702385E+03  0.85256750311E+03  0.87346864342E+03  0.12500000000E+03 0.  0.
         25    1    1    2    0    0 -0.56136904378E+02 -0.17773289303E+03  0.54511461737E+03  0.58950426577E+03  0.12500000000E+03 0.  0.
</event>
<event>
 5    0  0.5668330E-005  0.3809688E+03  0.7546771E-02  0.1050576E+00
         21   -1    0    0  502  501  0.00000000000E+00  0.00000000000E+00  0.72078303975E+03  0.72078303975E+03  0.00000000000E+00 0. -1.
         21   -1    0    0  501  502 -0.00000000000E+00 -0.00000000000E+00 -0.20136053302E+03  0.20136053302E+03  0.00000000000E+00 0. -1.
         25    1    1    2    0    0 -0.37039329956E+02  0.10085006330E+03  0.72514466539E+02  0.18007219410E+03  0.12500000000E+03 0.  0.
         25    1    1    2    0    0  0.18050124954E+03  0.13031797929E+03  0.78034581642E+02  0.26697916162E+03  0.12500000000E+03 0.  0.
         25    1    1    2    0    0 -0.14346191958E+03 -0.23116804259E+03  0.36887345855E+03  0.47509221705E+03  0.12500000000E+03 0.  0.
</event>
<event>
 5    0  0.9432657E-005  0.6555328E+03  0.7546771E-02  0.9796452E-01
         21   -1    0    0  502  501  0.00000000000E+00  0.00000000000E+00  0.85586518301E+03  0.85586518301E+03  0.00000000000E+00 0. -1.
         21   -1    0    0  501  502 -0.00000000000E+00 -0.00000000000E+00 -0.50209229438E+03  0.50209229438E+03  0.00000000000E+00 0. -1.
         25    1    1    2    0    0 -0.19919553881E+03  0.29277746990E+03  0.38139739676E+03  0.53524432161E+03  0.12500000000E+03 0.  0.
         25    1    1    2    0    0 -0.64844912289E+02 -0.42262042596E+03 -0.16461823664E+03  0.47490741300E+03  0.12500000000E+03 0.  0.
         25    1    1    2    0    0  0.26404045110E+03  0.12984295606E+03  0.13699372852E+03  0.34780574278E+03  0.12500000000E+03 0.  0.
</event>
<event>
 5    0  0.5668330E-005  0.2287825E+03  0.7546771E-02  0.1127500E+00
         21   -1    0    0  502  501  0.00000000000E+00  0.00000000000E+00  0.70154103147E+02  0.70154103147E+02  0.00000000000E+00 0. -1.
         21   -1    0    0  501  502 -0.00000000000E+00 -0.00000000000E+00 -0.74609243541E+03  0.74609243541E+03  0.00000000000E+00 0. -1.
         25    1    1    2    0    0 -0.66085988780E+02 -0.57741746147E+02 -0.14770895108E+03  0.21247211909E+03  0.12500000000E+03 0.  0.
         25    1    1    2    0    0  0.67014535311E+02  0.95447372705E+01 -0.17172155035E+03  0.22292451818E+03  0.12500000000E+03 0.  0.
         25    1    1    2    0    0 -0.92854653049E+00  0.48197008877E+02 -0.35650783084E+03  0.38084990129E+03  0.12500000000E+03 0.  0.
</event>
<event>
 5    0  0.5668330E-005  0.2265868E+03  0.7546771E-02  0.1129065E+00
         21   -1    0    0  502  501  0.00000000000E+00  0.00000000000E+00  0.14351910906E+03  0.14351910906E+03  0.00000000000E+00 0. -1.
         21   -1    0    0  501  502 -0.00000000000E+00 -0.00000000000E+00 -0.35773338669E+03  0.35773338669E+03  0.00000000000E+00 0. -1.
         25    1    1    2    0    0  0.46246583175E+01 -0.49926140588E+02 -0.34389839706E+02  0.13900240305E+03  0.12500000000E+03 0.  0.
         25    1    1    2    0    0 -0.88906988013E+02 -0.50406861505E+01 -0.77491811288E+02  0.17192975848E+03  0.12500000000E+03 0.  0.
         25    1    1    2    0    0  0.84282329695E+02  0.54966826739E+02 -0.10233262664E+03  0.19032033421E+03  0.12500000000E+03 0.  0.
</event>
<event>
 5    0  0.5668330E-005  0.4543140E+03  0.7546771E-02  0.1026443E+00
         21   -1    0    0  502  501  0.00000000000E+00  0.00000000000E+00  0.29126904904E+03  0.29126904904E+03  0.00000000000E+00 0.  1.
         21   -1    0    0  501  502 -0.00000000000E+00 -0.00000000000E+00 -0.70862735055E+03  0.70862735055E+03  0.00000000000E+00 0.  1.
         25    1    1    2    0    0 -0.10312755558E+03 -0.29347368642E+03  0.12239167615E+02  0.33546519129E+03  0.12500000000E+03 0.  0.
         25    1    1    2    0    0 -0.61169161765E+01 -0.16764735369E+02 -0.22336569225E+03  0.25658469458E+03  0.12500000000E+03 0.  0.
         25    1    1    2    0    0  0.10924447176E+03  0.31023842179E+03 -0.20623177687E+03  0.40784651372E+03  0.12500000000E+03 0.  0.
</event>
<event>
 5    0  0.5668330E-005  0.1955287E+03  0.7546771E-02  0.1153567E+00
         21   -1    0    0  502  501  0.00000000000E+00  0.00000000000E+00  0.12731646893E+04  0.12731646893E+04  0.00000000000E+00 0.  1.
         21   -1    0    0  501  502 -0.00000000000E+00 -0.00000000000E+00 -0.30028702519E+02  0.30028702519E+02  0.00000000000E+00 0.  1.
         25    1    1    2    0    0 -0.35689134773E+01 -0.26698131409E+02  0.56429891745E+03  0.57860504284E+03  0.12500000000E+03 0.  0.
         25    1    1    2    0    0  0.11996448298E+02  0.21792319728E+02  0.36632261321E+03  0.38786089893E+03  0.12500000000E+03 0.  0.
         25    1    1    2    0    0 -0.84275348202E+01  0.49058116810E+01  0.31251445612E+03  0.33672745004E+03  0.12500000000E+03 0.  0.
</event>
<event>
 5    0  0.5668330E-005  0.2738896E+03  0.7546771E-02  0.1099074E+00
         21   -1    0    0  502  501  0.00000000000E+00  0.00000000000E+00  0.13198239570E+04  0.13198239570E+04  0.00000000000E+00 0. -1.
         21   -1    0    0  501  502 -0.00000000000E+00 -0.00000000000E+00 -0.56837527186E+02  0.56837527186E+02  0.00000000000E+00 0. -1.
         25    1    1    2    0    0 -0.78444428920E+02 -0.59739754015E+02  0.45240922819E+03  0.47960554249E+03  0.12500000000E+03 0.  0.
         25    1    1    2    0    0 -0.87716001167E+02 -0.90762745200E+00  0.46283447072E+03  0.48737631039E+03  0.12500000000E+03 0.  0.
         25    1    1    2    0    0  0.16616043009E+03  0.60647381467E+02  0.34774273092E+03  0.40967963131E+03  0.12500000000E+03 0.  0.
</event>
<event>
 5    0  0.5919511E-005  0.2683267E+03  0.7546771E-02  0.1102241E+00
         21   -1    0    0  502  501  0.00000000000E+00  0.00000000000E+00  0.47463553437E+03  0.47463553437E+03  0.00000000000E+00 0.  1.
         21   -1    0    0  501  502 -0.00000000000E+00 -0.00000000000E+00 -0.15169372031E+03  0.15169372031E+03  0.00000000000E+00 0.  1.
         25    1    1    2    0    0  0.12836648008E+03  0.17719451012E+02  0.72163089157E+02  0.19397021315E+03  0.12500000000E+03 0.  0.
         25    1    1    2    0    0 -0.14347956208E+03  0.36422965183E+02  0.71116185696E+02  0.20638684308E+03  0.12500000000E+03 0.  0.
         25    1    1    2    0    0  0.15113081994E+02 -0.54142416195E+02  0.17966253921E+03  0.22597219846E+03  0.12500000000E+03 0.  0.
</event>
<event>
 5    0  0.6561086E-005  0.3750605E+03  0.7546771E-02  0.1052775E+00
         21   -1    0    0  502  501  0.00000000000E+00  0.00000000000E+00  0.12341122771E+04  0.12341122771E+04  0.00000000000E+00 0.  1.
         21   -1    0    0  501  502 -0.00000000000E+00 -0.00000000000E+00 -0.11398507598E+03  0.11398507598E+03  0.00000000000E+00 0.  1.
         25    1    1    2    0    0  0.77104075884E+02  0.22335895423E+03  0.29235809860E+03  0.39614709234E+03  0.12500000000E+03 0.  0.
         25    1    1    2    0    0 -0.92183544582E+02 -0.12977183735E+03  0.75004616159E+03  0.77687372216E+03  0.12500000000E+03 0.  0.
         25    1    1    2    0    0  0.15079468697E+02 -0.93587116877E+02  0.77722940958E+02  0.17507653861E+03  0.12500000000E+03 0.  0.
</event>
<event>
 5    0  0.5668330E-005  0.4347501E+03  0.7546771E-02  0.1032370E+00
         21   -1    0    0  502  501  0.00000000000E+00  0.00000000000E+00  0.16754499245E+04  0.16754499245E+04  0.00000000000E+00 0. -1.
         21   -1    0    0  501  502 -0.00000000000E+00 -0.00000000000E+00 -0.11281010648E+03  0.11281010648E+03  0.00000000000E+00 0. -1.
         25    1    1    2    0    0 -0.16298173770E+03  0.22531998167E+02  0.68605595183E+03  0.71649738786E+03  0.12500000000E+03 0.  0.
         25    1    1    2    0    0 -0.28439740564E+02  0.79854274337E+02  0.79364748672E+03  0.80789037446E+03  0.12500000000E+03 0.  0.
         25    1    1    2    0    0  0.19142147826E+03 -0.10238627250E+03  0.82936379482E+02  0.26387226868E+03  0.12500000000E+03 0.  0.
</event>
<event>
 5    0  0.6558813E-005  0.2878782E+03  0.7546771E-02  0.1091462E+00
         21   -1    0    0  502  501  0.00000000000E+00  0.00000000000E+00  0.24374327055E+03  0.24374327055E+03  0.00000000000E+00 0.  1.
         21   -1    0    0  501  502 -0.00000000000E+00 -0.00000000000E+00 -0.34000476340E+03  0.34000476340E+03  0.00000000000E+00 0.  1.
         25    1    1    2    0    0 -0.16911812880E+03 -0.32386219962E+02 -0.83703555778E+02  0.22865059366E+03  0.12500000000E+03 0.  0.
         25    1    1    2    0    0  0.57412623615E+02  0.62428596197E+02 -0.81170790736E+02  0.17148538201E+03  0.12500000000E+03 0.  0.
         25    1    1    2    0    0  0.11170550519E+03 -0.30042376235E+02  0.68612853662E+02  0.18361205828E+03  0.12500000000E+03 0.  0.
</event>
<event>
 5    0  0.5668330E-005  0.2685159E+03  0.7546771E-02  0.1102132E+00
         21   -1    0    0  502  501  0.00000000000E+00  0.00000000000E+00  0.35381369401E+02  0.35381369401E+02  0.00000000000E+00 0.  1.
         21   -1    0    0  501  502 -0.00000000000E+00 -0.00000000000E+00 -0.20378177374E+04  0.20378177374E+04  0.00000000000E+00 0.  1.
         25    1    1    2    0    0  0.11956082848E+03 -0.93546525835E+02 -0.81269560435E+03  0.83614884413E+03  0.12500000000E+03 0.  0.
         25    1    1    2    0    0 -0.10618782007E+03 -0.16740914543E+02 -0.71351146721E+03  0.73231122154E+03  0.12500000000E+03 0.  0.
         25    1    1    2    0    0 -0.13373008414E+02  0.11028744038E+03 -0.47622929640E+03  0.50473904110E+03  0.12500000000E+03 0.  0.
</event>
<event>
 5    0  0.5668330E-005  0.4808568E+03  0.7546771E-02  0.1018900E+00
         21   -1    0    0  502  501  0.00000000000E+00  0.00000000000E+00  0.56245772877E+03  0.56245772877E+03  0.00000000000E+00 0. -1.
         21   -1    0    0  501  502 -0.00000000000E+00 -0.00000000000E+00 -0.41109439236E+03  0.41109439236E+03  0.00000000000E+00 0. -1.
         25    1    1    2    0    0 -0.12810695102E+03  0.24649068963E+03  0.40202292580E+03  0.50439714892E+03  0.12500000000E+03 0.  0.
         25    1    1    2    0    0  0.45644295885E+01 -0.13892451615E+03 -0.87894623384E+02  0.20657037548E+03  0.12500000000E+03 0.  0.
         25    1    1    2    0    0  0.12354252143E+03 -0.10756617347E+03 -0.16276496601E+03  0.26258459673E+03  0.12500000000E+03 0.  0.
</event>
<event>
 5    0  0.5668330E-005  0.4559404E+03  0.7546771E-02  0.1025965E+00
         21   -1    0    0  502  501  0.00000000000E+00  0.00000000000E+00  0.95872577058E+03  0.95872577058E+03  0.00000000000E+00 0.  1.
         21   -1    0    0  501  502 -0.00000000000E+00 -0.00000000000E+00 -0.21683118207E+03  0.21683118207E+03  0.00000000000E+00 0.  1.
         25    1    1    2    0    0 -0.55500628449E+01 -0.35135190204E+03  0.14257661328E+03  0.39928943502E+03  0.12500000000E+03 0.  0.
         25    1    1    2    0    0 -0.54697328889E+02  0.31322887861E+03  0.48087243416E+03  0.58988763856E+03  0.12500000000E+03 0.  0.
         25    1    1    2    0    0  0.60247391734E+02  0.38123023422E+02  0.11844554106E+03  0.18637987907E+03  0.12500000000E+03 0.  0.
</event>
<event>
 5    0  0.5668330E-005  0.3287016E+03  0.7546771E-02  0.1071713E+00
         21   -1    0    0  502  501  0.00000000000E+00  0.00000000000E+00  0.14926171364E+03  0.14926171364E+03  0.00000000000E+00 0. -1.
         21   -1    0    0  501  502 -0.00000000000E+00 -0.00000000000E+00 -0.72386108826E+03  0.72386108826E+03  0.00000000000E+00 0. -1.
         25    1    1    2    0    0 -0.55837955482E+01  0.49856130500E+02 -0.16641315202E+03  0.21409145169E+03  0.12500000000E+03 0.  0.
         25    1    1    2    0    0 -0.37373446311E+01 -0.24534489813E+03 -0.28440667958E+03  0.39587908024E+03  0.12500000000E+03 0.  0.
         25    1    1    2    0    0  0.93211401793E+01  0.19548876763E+03 -0.12377954300E+03  0.26315226997E+03  0.12500000000E+03 0.  0.
</event>
<event>
 5    0  0.5668330E-005  0.2805501E+03  0.7546771E-02  0.1095389E+00
         21   -1    0    0  502  501  0.00000000000E+00  0.00000000000E+00  0.16156783724E+03  0.16156783724E+03  0.00000000000E+00 0.  1.
         21   -1    0    0  501  502 -0.00000000000E+00 -0.00000000000E+00 -0.48715360851E+03  0.48715360851E+03  0.00000000000E+00 0.  1.
         25    1    1    2    0    0 -0.27418436581E+02  0.13776624119E+03 -0.17996087133E+03  0.26027336222E+03  0.12500000000E+03 0.  0.
         25    1    1    2    0    0  0.36302143724E+02 -0.62875646366E+02 -0.18733038456E+03  0.23661966428E+03  0.12500000000E+03 0.  0.
         25    1    1    2    0    0 -0.88837071435E+01 -0.74890594820E+02  0.41705484606E+02  0.15182841925E+03  0.12500000000E+03 0.  0.
</event>
<event>
 5    0  0.5668330E-005  0.2366784E+03  0.7546771E-02  0.1122026E+00
         21   -1    0    0  502  501  0.00000000000E+00  0.00000000000E+00  0.19078530773E+04  0.19078530773E+04  0.00000000000E+00 0.  1.
         21   -1    0    0  501  502 -0.00000000000E+00 -0.00000000000E+00 -0.29361097265E+02  0.29361097265E+02  0.00000000000E+00 0.  1.
         25    1    1    2    0    0  0.30785995181E+02 -0.86685216617E+01  0.55371587315E+03  0.56855007602E+03  0.12500000000E+03 0.  0.
         25    1    1    2    0    0  0.13694335502E+02  0.24100778043E+02  0.10982583628E+04  0.11056965288E+04  0.12500000000E+03 0.  0.
         25    1    1    2    0    0 -0.44480330683E+02 -0.15432256381E+02  0.22651774409E+03  0.26296756976E+03  0.12500000000E+03 0.  0.
</event>
<event>
 5    0  0.5668330E-005  0.4011225E+03  0.7546771E-02  0.1043392E+00
         21   -1    0    0  502  501  0.00000000000E+00  0.00000000000E+00  0.52142184166E+03  0.52142184166E+03  0.00000000000E+00 0. -1.
         21   -1    0    0  501  502 -0.00000000000E+00 -0.00000000000E+00 -0.30857789622E+03  0.30857789622E+03  0.00000000000E+00 0. -1.
         25    1    1    2    0    0  0.14645989575E+03  0.26756765788E+03  0.21128381441E+03  0.39154668028E+03  0.12500000000E+03 0.  0.
         25    1    1    2    0    0 -0.14609073796E+03 -0.24492375115E+03  0.37643563024E+01  0.31139896913E+03  0.12500000000E+03 0.  0.
         25    1    1    2    0    0 -0.36915778653E+00 -0.22643906727E+02 -0.22042252859E+01  0.12705408848E+03  0.12500000000E+03 0.  0.
</event>
<event>
 5    0  0.5668330E-005  0.3822907E+03  0.7546771E-02  0.1050090E+00
         21   -1    0    0  502  501  0.00000000000E+00  0.00000000000E+00  0.21494014531E+03  0.21494014531E+03  0.00000000000E+00 0.  1.
         21   -1    0    0  501  502 -0.00000000000E+00 -0.00000000000E+00 -0.67993907334E+03  0.67993907334E+03  0.00000000000E+00 0.  1.
         25    1    1    2    0    0 -0.25635863017E+03  0.64914500527E+02 -0.20081480243E+03  0.35480307850E+03  0.12500000000E+03 0.  0.
         25    1    1    2    0    0  0.24990262246E+03 -0.21193300669E+02 -0.29188952563E+03  0.40462942538E+03  0.12500000000E+03 0.  0.
         25    1    1    2    0    0  0.64560077049E+01 -0.43721199858E+02  0.27705400034E+02  0.13544671478E+03  0.12500000000E+03 0.  0.
</event>
<event>
 5    0  0.5668330E-005  0.2819816E+03  0.7546771E-02  0.1094612E+00
         21   -1    0    0  502  501  0.00000000000E+00  0.00000000000E+00  0.20092577344E+03  0.20092577344E+03  0.00000000000E+00 0. -1.
         21   -1    0    0  501  502 -0.00000000000E+00 -0.00000000000E+00 -0.39573619885E+03  0.39573619885E+03  0.00000000000E+00 0. -1.
         25    1    1    2    0    0  0.76397419689E+02  0.50095799770E+02  0.20383103571E+02  0.15616217788E+03  0.12500000000E+03 0.  0.
         25    1    1    2    0    0  0.92964536310E+02 -0.72339432067E+02 -0.81186003254E+02  0.18997780283E+03  0.12500000000E+03 0.  0.
         25    1    1    2    0    0 -0.16936195600E+03  0.22243632297E+02 -0.13400752573E+03  0.25052199159E+03  0.12500000000E+03 0.  0.
</event>
<event>
 5    0  0.5668330E-005  0.2902169E+03  0.7546771E-02  0.1090236E+00
         21   -1    0    0  502  501  0.00000000000E+00  0.00000000000E+00  0.14985211502E+03  0.14985211502E+03  0.00000000000E+00 0.  1.
         21   -1    0    0  501  502 -0.00000000000E+00 -0.00000000000E+00 -0.56205972093E+03  0.56205972093E+03  0.00000000000E+00 0.  1.
         25    1    1    2    0    0 -0.92751452099E+02 -0.41618439361E+01  0.14973097039E+00  0.15570862285E+03  0.12500000000E+03 0.  0.
         25    1    1    2    0    0 -0.32349647480E+01  0.17159185253E+02 -0.13248611834E+02  0.12690716430E+03  0.12500000000E+03 0.  0.
         25    1    1    2    0    0  0.95986416847E+02 -0.12997341317E+02 -0.39910872505E+03  0.42929604879E+03  0.12500000000E+03 0.  0.
</event>
<event>
 5    0  0.5668330E-005  0.2844538E+03  0.7546771E-02  0.1093281E+00
         21   -1    0    0  502  501  0.00000000000E+00  0.00000000000E+00  0.53753295740E+02  0.53753295740E+02  0.00000000000E+00 0.  1.
         21   -1    0    0  501  502 -0.00000000000E+00 -0.00000000000E+00 -0.15052839036E+04  0.15052839036E+04  0.00000000000E+00 0.  1.
         25    1    1    2    0    0 -0.19539269916E+03 -0.44301856327E+02 -0.66700728067E+03  0.70757662047E+03  0.12500000000E+03 0.  0.
         25    1    1    2    0    0  0.12397847740E+03  0.34104879524E+02 -0.52108979749E+03  0.55108382549E+03  0.12500000000E+03 0.  0.
         25    1    1    2    0    0  0.71414221760E+02  0.10196976802E+02 -0.26343352968E+03  0.30037675337E+03  0.12500000000E+03 0.  0.
</event>
<event>
 5    0  0.5778664E-005  0.2739367E+03  0.7546771E-02  0.1099047E+00
         21   -1    0    0  502  501  0.00000000000E+00  0.00000000000E+00  0.44204824791E+03  0.44204824791E+03  0.00000000000E+00 0. -1.
         21   -1    0    0  501  502 -0.00000000000E+00 -0.00000000000E+00 -0.16975819331E+03  0.16975819331E+03  0.00000000000E+00 0. -1.
         25    1    1    2    0    0  0.48218209672E+02  0.74661181355E+02  0.23319897544E+02  0.15513898726E+03  0.12500000000E+03 0.  0.
         25    1    1    2    0    0 -0.54814420464E+00  0.10169083342E+03  0.11436613982E+03  0.19760045547E+03  0.12500000000E+03 0.  0.
         25    1    1    2    0    0 -0.47670065468E+02 -0.17635201478E+03  0.13460401724E+03  0.25906699850E+03  0.12500000000E+03 0.  0.
</event>
<event>
 5    0  0.6838755E-005  0.2731307E+03  0.7546771E-02  0.1099501E+00
         21   -1    0    0  502  501  0.00000000000E+00  0.00000000000E+00  0.64744386556E+03  0.64744386556E+03  0.00000000000E+00 0.  1.
         21   -1    0    0  501  502 -0.00000000000E+00 -0.00000000000E+00 -0.11522295726E+03  0.11522295726E+03  0.00000000000E+00 0.  1.
         25    1    1    2    0    0 -0.22655674526E+02 -0.72230764209E+02  0.53346842325E+02  0.15556814736E+03  0.12500000000E+03 0.  0.
         25    1    1    2    0    0  0.13362547356E+03  0.86736188913E+02  0.29906254561E+03  0.36116802162E+03  0.12500000000E+03 0.  0.
         25    1    1    2    0    0 -0.11096979903E+03 -0.14505424703E+02  0.17981152036E+03  0.24593065384E+03  0.12500000000E+03 0.  0.
</event>
<event>
 5    0  0.5795748E-005  0.2882633E+03  0.7546771E-02  0.1091259E+00
         21   -1    0    0  502  501  0.00000000000E+00  0.00000000000E+00  0.87269838438E+03  0.87269838438E+03  0.00000000000E+00 0.  1.
         21   -1    0    0  501  502 -0.00000000000E+00 -0.00000000000E+00 -0.95217026682E+02  0.95217026682E+02  0.00000000000E+00 0.  1.
         25    1    1    2    0    0  0.30295377403E+01 -0.19035364249E+03  0.20109899608E+03  0.30382477439E+03  0.12500000000E+03 0.  0.
         25    1    1    2    0    0  0.46980842932E+02  0.10321145821E+03  0.31712466615E+03  0.35923927762E+03  0.12500000000E+03 0.  0.
         25    1    1    2    0    0 -0.50010380672E+02  0.87142184276E+02  0.25925769547E+03  0.30485135905E+03  0.12500000000E+03 0.  0.
</event>
<event>
 5    0  0.5668330E-005  0.2779751E+03  0.7546771E-02  0.1096800E+00
         21   -1    0    0  502  501  0.00000000000E+00  0.00000000000E+00  0.25630237429E+04  0.25630237429E+04  0.00000000000E+00 0. -1.
         21   -1    0    0  501  502 -0.00000000000E+00 -0.00000000000E+00 -0.30148039329E+02  0.30148039329E+02  0.00000000000E+00 0. -1.
         25    1    1    2    0    0  0.10848750387E+03  0.84667159483E+02  0.10634296534E+04  0.10795581013E+04  0.12500000000E+03 0.  0.
         25    1    1    2    0    0  0.45553942338E+02 -0.94959453536E+02  0.61122238442E+03  0.63270076869E+03  0.12500000000E+03 0.  0.
         25    1    1    2    0    0 -0.15404144621E+03  0.10292294052E+02  0.85822366572E+03  0.88091291220E+03  0.12500000000E+03 0.  0.
</event>
<event>
 5    0  0.5943720E-005  0.3379299E+03  0.7546771E-02  0.1067681E+00
         21   -1    0    0  502  501  0.00000000000E+00  0.00000000000E+00  0.74446529496E+03  0.74446529496E+03  0.00000000000E+00 0.  1.
         21   -1    0    0  501  502 -0.00000000000E+00 -0.00000000000E+00 -0.15339417054E+03  0.15339417054E+03  0.00000000000E+00 0.  1.
         25    1    1    2    0    0 -0.48932810339E+02 -0.26612537783E+02  0.48969794939E+03  0.50846015452E+03  0.12500000000E+03 0.  0.
         25    1    1    2    0    0  0.75210939568E+02 -0.11229407099E+03  0.24850323789E+02  0.18576647277E+03  0.12500000000E+03 0.  0.
         25    1    1    2    0    0 -0.26278129229E+02  0.13890660878E+03  0.76522851247E+02  0.20363283822E+03  0.12500000000E+03 0.  0.
</event>
<event>
 5    0  0.5668330E-005  0.3324957E+03  0.7546771E-02  0.1070038E+00
         21   -1    0    0  502  501  0.00000000000E+00  0.00000000000E+00  0.41560777206E+02  0.41560777206E+02  0.00000000000E+00 0. -1.
         21   -1    0    0  501  502 -0.00000000000E+00 -0.00000000000E+00 -0.26600420537E+04  0.26600420537E+04  0.00000000000E+00 0. -1.
         25    1    1    2    0    0  0.11203861594E+03  0.13206774794E+03 -0.84555988005E+03  0.87211871455E+03  0.12500000000E+03 0.  0.
         25    1    1    2    0    0 -0.20759355275E+03 -0.15847417338E+03 -0.12291163064E+04  0.12627592967E+04  0.12500000000E+03 0.  0.
         25    1    1    2    0    0  0.95554936816E+02  0.26406425435E+02 -0.54380509012E+03  0.56672481972E+03  0.12500000000E+03 0.  0.
</event>
<event>
 5    0  0.5668330E-005  0.4122897E+03  0.7546771E-02  0.1039605E+00
         21   -1    0    0  502  501  0.00000000000E+00  0.00000000000E+00  0.38833224997E+03  0.38833224997E+03  0.00000000000E+00 0. -1.
         21   -1    0    0  501  502 -0.00000000000E+00 -0.00000000000E+00 -0.43772522508E+03  0.43772522508E+03  0.00000000000E+00 0. -1.
         25    1    1    2    0    0 -0.12879405546E+03 -0.59019465623E+02  0.27899608648E+03  0.33694958424E+03  0.12500000000E+03 0.  0.
         25    1    1    2    0    0  0.99729408619E+02  0.55321052266E+02 -0.40646110132E+02  0.17402149303E+03  0.12500000000E+03 0.  0.
         25    1    1    2    0    0  0.29064646843E+02  0.36984133570E+01 -0.28774295146E+03  0.31508639779E+03  0.12500000000E+03 0.  0.
</event>
<event>
 5    0  0.5668330E-005  0.2853397E+03  0.7546771E-02  0.1092808E+00
         21   -1    0    0  502  501  0.00000000000E+00  0.00000000000E+00  0.45914638326E+03  0.45914638326E+03  0.00000000000E+00 0. -1.
         21   -1    0    0  501  502 -0.00000000000E+00 -0.00000000000E+00 -0.17732629006E+03  0.17732629006E+03  0.00000000000E+00 0. -1.
         25    1    1    2    0    0 -0.70114529286E+02 -0.13886925146E+03  0.19934490319E+03  0.28207110211E+03  0.12500000000E+03 0.  0.
         25    1    1    2    0    0 -0.17812149327E+02  0.12820123507E+03 -0.99059829775E+00  0.17994113099E+03  0.12500000000E+03 0.  0.
         25    1    1    2    0    0  0.87926678613E+02  0.10668016383E+02  0.83465788303E+02  0.17446044022E+03  0.12500000000E+03 0.  0.
</event>
<event>
 5    0  0.5668330E-005  0.4683437E+03  0.7546771E-02  0.1022389E+00
         21   -1    0    0  502  501  0.00000000000E+00  0.00000000000E+00  0.43324532131E+03  0.43324532131E+03  0.00000000000E+00 0.  1.
         21   -1    0    0  501  502 -0.00000000000E+00 -0.00000000000E+00 -0.50628551913E+03  0.50628551913E+03  0.00000000000E+00 0.  1.
         25    1    1    2    0    0  0.89328553697E+02 -0.51515086818E+02 -0.49728111092E+02  0.16950303746E+03  0.12500000000E+03 0.  0.
         25    1    1    2    0    0 -0.30105030683E+03 -0.13183245042E+03  0.18689378281E+03  0.39820267237E+03  0.12500000000E+03 0.  0.
         25    1    1    2    0    0  0.21172175314E+03  0.18334753724E+03 -0.21020586954E+03  0.37182513061E+03  0.12500000000E+03 0.  0.
</event>
<event>
 5    0  0.5668330E-005  0.2922239E+03  0.7546771E-02  0.1089194E+00
         21   -1    0    0  502  501  0.00000000000E+00  0.00000000000E+00  0.15467150765E+03  0.15467150765E+03  0.00000000000E+00 0.  1.
         21   -1    0    0  501  502 -0.00000000000E+00 -0.00000000000E+00 -0.55210444053E+03  0.55210444053E+03  0.00000000000E+00 0.  1.
         25    1    1    2    0    0  0.17803085912E+03 -0.18195090870E+02 -0.45675328624E+02  0.22301857271E+03  0.12500000000E+03 0.  0.
         25    1    1    2    0    0 -0.73923854328E+02 -0.52871487915E+02 -0.16064555743E+03  0.22291730663E+03  0.12500000000E+03 0.  0.
         25    1    1    2    0    0 -0.10410700479E+03  0.71066578785E+02 -0.19111204683E+03  0.26084006883E+03  0.12500000000E+03 0.  0.
</event>
<event>
 5    0  0.5668330E-005  0.3267647E+03  0.7546771E-02  0.1072577E+00
         21   -1    0    0  502  501  0.00000000000E+00  0.00000000000E+00  0.10022404715E+03  0.10022404715E+03  0.00000000000E+00 0. -1.
         21   -1    0    0  501  502 -0.00000000000E+00 -0.00000000000E+00 -0.10653647569E+04  0.10653647569E+04  0.00000000000E+00 0. -1.
         25    1    1    2    0    0  0.16782278144E+03  0.40663987764E+01 -0.67323783733E+03  0.70502142321E+03  0.12500000000E+03 0.  0.
         25    1    1    2    0    0 -0.12579690639E+02  0.48606751342E+02 -0.18353780482E+03  0.22766640220E+03  0.12500000000E+03 0.  0.
         25    1    1    2    0    0 -0.15524309080E+03 -0.52673150118E+02 -0.10836506763E+03  0.23290097867E+03  0.12500000000E+03 0.  0.
</event>
<event>
 5    0  0.5668330E-005  0.3837632E+03  0.7546771E-02  0.1049552E+00
         21   -1    0    0  502  501  0.00000000000E+00  0.00000000000E+00  0.78995607594E+02  0.78995607594E+02  0.00000000000E+00 0. -1.
         21   -1    0    0  501  502 -0.00000000000E+00 -0.00000000000E+00 -0.18643340569E+04  0.18643340569E+04  0.00000000000E+00 0. -1.
         25    1    1    2    0    0  0.58512912008E+02 -0.13190444364E+03 -0.28147886512E+03  0.34011453164E+03  0.12500000000E+03 0.  0.
         25    1    1    2    0    0 -0.16844005868E+03 -0.10556698344E+03 -0.41955732723E+03  0.48080119820E+03  0.12500000000E+03 0.  0.
         25    1    1    2    0    0  0.10992714667E+03  0.23747142708E+03 -0.10843022570E+04  0.11224139347E+04  0.12500000000E+03 0.  0.
</event>
<event>
 5    0  0.5776181E-005  0.2956221E+03  0.7546771E-02  0.1087450E+00
         21   -1    0    0  502  501  0.00000000000E+00  0.00000000000E+00  0.27431825172E+03  0.27431825172E+03  0.00000000000E+00 0. -1.
         21   -1    0    0  501  502 -0.00000000000E+00 -0.00000000000E+00 -0.31858038112E+03  0.31858038112E+03  0.00000000000E+00 0. -1.
         25    1    1    2    0    0  0.14850239004E+03 -0.30648183697E+02 -0.12266915659E+02  0.19689527224E+03  0.12500000000E+03 0.  0.
         25    1    1    2    0    0 -0.94574136626E+02 -0.16305433911E+02  0.11123565492E+03  0.19289506323E+03  0.12500000000E+03 0.  0.
         25    1    1    2    0    0 -0.53928253410E+02  0.46953617608E+02 -0.14323086866E+03  0.20310829737E+03  0.12500000000E+03 0.  0.
</event>
<event>
 5    0  0.5668330E-005  0.3449965E+03  0.7546771E-02  0.1064688E+00
         21   -1    0    0  502  501  0.00000000000E+00  0.00000000000E+00  0.87514395680E+02  0.87514395680E+02  0.00000000000E+00 0. -1.
         21   -1    0    0  501  502 -0.00000000000E+00 -0.00000000000E+00 -0.13600343629E+04  0.13600343629E+04  0.00000000000E+00 0. -1.
         25    1    1    2    0    0 -0.61160986018E+02 -0.75259773789E+02 -0.40144498890E+03  0.43149481906E+03  0.12500000000E+03 0.  0.
         25    1    1    2    0    0 -0.11854945888E+03 -0.99619323950E+02 -0.57480876190E+03  0.60828290841E+03  0.12500000000E+03 0.  0.
         25    1    1    2    0    0  0.17971044490E+03  0.17487909774E+03 -0.29626621646E+03  0.40777103115E+03  0.12500000000E+03 0.  0.
</event>
<event>
 5    0  0.5668330E-005  0.4255361E+03  0.7546771E-02  0.1035279E+00
         21   -1    0    0  502  501  0.00000000000E+00  0.00000000000E+00  0.36199528264E+03  0.36199528264E+03  0.00000000000E+00 0. -1.
         21   -1    0    0  501  502 -0.00000000000E+00 -0.00000000000E+00 -0.50023026361E+03  0.50023026361E+03  0.00000000000E+00 0. -1.
         25    1    1    2    0    0 -0.25999602952E+03  0.11529421214E+03 -0.18694767112E+03  0.36258119429E+03  0.12500000000E+03 0.  0.
         25    1    1    2    0    0  0.22978549770E+03  0.32283933372E+02 -0.67399687975E+02  0.27205026235E+03  0.12500000000E+03 0.  0.
         25    1    1    2    0    0  0.30210531814E+02 -0.14757814551E+03  0.11611237813E+03  0.22759408960E+03  0.12500000000E+03 0.  0.
</event>
<event>
 5    0  0.5668330E-005  0.2390977E+03  0.7546771E-02  0.1120395E+00
         21   -1    0    0  502  501  0.00000000000E+00  0.00000000000E+00  0.86690167914E+03  0.86690167914E+03  0.00000000000E+00 0.  1.
         21   -1    0    0  501  502 -0.00000000000E+00 -0.00000000000E+00 -0.65944886275E+02  0.65944886275E+02  0.00000000000E+00 0.  1.
         25    1    1    2    0    0 -0.92481883236E+01 -0.19352900600E+02  0.55559879210E+03  0.56989041186E+03  0.12500000000E+03 0.  0.
         25    1    1    2    0    0  0.41228106216E+02 -0.14833533209E+02  0.14158614856E+03  0.19388508946E+03  0.12500000000E+03 0.  0.
         25    1    1    2    0    0 -0.31979917893E+02  0.34186433809E+02  0.10377185221E+03  0.16907106410E+03  0.12500000000E+03 0.  0.
</event>
<event>
 5    0  0.8858347E-005  0.4295506E+03  0.7546771E-02  0.1034002E+00
         21   -1    0    0  502  501  0.00000000000E+00  0.00000000000E+00  0.72163329323E+03  0.72163329323E+03  0.00000000000E+00 0. -1.
         21   -1    0    0  501  502 -0.00000000000E+00 -0.00000000000E+00 -0.25568905301E+03  0.25568905301E+03  0.00000000000E+00 0. -1.
         25    1    1    2    0    0  0.97730659031E+02 -0.45810421861E+02  0.43142639042E+03  0.46195628236E+03  0.12500000000E+03 0.  0.
         25    1    1    2    0    0 -0.40570827488E+01  0.23435869042E+03 -0.12962290121E+02  0.26595765953E+03  0.12500000000E+03 0.  0.
         25    1    1    2    0    0 -0.93673576282E+02 -0.18854826856E+03  0.47480139920E+02  0.24940840435E+03  0.12500000000E+03 0.  0.
</event>
<event>
 5    0  0.5668330E-005  0.2728621E+03  0.7546771E-02  0.1099653E+00
         21   -1    0    0  502  501  0.00000000000E+00  0.00000000000E+00  0.60593224606E+03  0.60593224606E+03  0.00000000000E+00 0.  1.
         21   -1    0    0  501  502 -0.00000000000E+00 -0.00000000000E+00 -0.12287464562E+03  0.12287464562E+03  0.00000000000E+00 0.  1.
         25    1    1    2    0    0  0.11570041429E+01  0.26220682314E+00  0.84053071241E+02  0.15063640395E+03  0.12500000000E+03 0.  0.
         25    1    1    2    0    0  0.16168695790E+03 -0.41563403189E+02  0.18547352111E+03  0.27909786075E+03  0.12500000000E+03 0.  0.
         25    1    1    2    0    0 -0.16284396204E+03  0.41301196366E+02  0.21353100808E+03  0.29907262698E+03  0.12500000000E+03 0.  0.
</event>
<event>
 5    0  0.5668330E-005  0.2169911E+03  0.7546771E-02  0.1136146E+00
         21   -1    0    0  502  501  0.00000000000E+00  0.00000000000E+00  0.10162115683E+03  0.10162115683E+03  0.00000000000E+00 0.  1.
         21   -1    0    0  501  502 -0.00000000000E+00 -0.00000000000E+00 -0.46333980548E+03  0.46333980548E+03  0.00000000000E+00 0.  1.
         25    1    1    2    0    0 -0.21138664248E+01  0.18462069433E+02 -0.42423655612E+02  0.13330447477E+03  0.12500000000E+03 0.  0.
         25    1    1    2    0    0  0.40844075693E+02 -0.58587431748E+02 -0.21853387593E+03  0.26169214854E+03  0.12500000000E+03 0.  0.
         25    1    1    2    0    0 -0.38730209268E+02  0.40125362315E+02 -0.10076111710E+03  0.16996433900E+03  0.12500000000E+03 0.  0.
</event>
<event>
 5    0  0.5668330E-005  0.4300461E+03  0.7546771E-02  0.1033845E+00
         21   -1    0    0  502  501  0.00000000000E+00  0.00000000000E+00  0.80184170450E+03  0.80184170450E+03  0.00000000000E+00 0.  1.
         21   -1    0    0  501  502 -0.00000000000E+00 -0.00000000000E+00 -0.23064360271E+03  0.23064360271E+03  0.00000000000E+00 0.  1.
         25    1    1    2    0    0 -0.75049388461E+02  0.90624750592E+02  0.38170052909E+03  0.41852783663E+03  0.12500000000E+03 0.  0.
         25    1    1    2    0    0  0.16436628521E+02  0.66563182855E+02 -0.15519728513E+03  0.21074158911E+03  0.12500000000E+03 0.  0.
         25    1    1    2    0    0  0.58612759939E+02 -0.15718793345E+03  0.34469485784E+03  0.40321588147E+03  0.12500000000E+03 0.  0.
</event>
<event>
 5    0  0.5668330E-005  0.3584476E+03  0.7546771E-02  0.1059200E+00
         21   -1    0    0  502  501  0.00000000000E+00  0.00000000000E+00  0.27800501147E+03  0.27800501147E+03  0.00000000000E+00 0. -1.
         21   -1    0    0  501  502 -0.00000000000E+00 -0.00000000000E+00 -0.46216680540E+03  0.46216680540E+03  0.00000000000E+00 0. -1.
         25    1    1    2    0    0  0.23193838028E+03  0.85476284366E+02 -0.18458194649E+02  0.27761000051E+03  0.12500000000E+03 0.  0.
         25    1    1    2    0    0 -0.19213649195E+03 -0.10752909905E+03 -0.40606905420E+01  0.25322011746E+03  0.12500000000E+03 0.  0.
         25    1    1    2    0    0 -0.39801888331E+02  0.22052814684E+02 -0.16164290874E+03  0.20934169890E+03  0.12500000000E+03 0.  0.
</event>
<event>
 5    0  0.6548525E-005  0.3182168E+03  0.7546771E-02  0.1076473E+00
         21   -1    0    0  502  501  0.00000000000E+00  0.00000000000E+00  0.29665396842E+03  0.29665396842E+03  0.00000000000E+00 0. -1.
         21   -1    0    0  501  502 -0.00000000000E+00 -0.00000000000E+00 -0.34134706182E+03  0.34134706182E+03  0.00000000000E+00 0. -1.
         25    1    1    2    0    0 -0.10516414220E+03 -0.10665392148E+03  0.68630698778E+02  0.20680843451E+03  0.12500000000E+03 0.  0.
         25    1    1    2    0    0  0.81390728200E+02  0.13375164264E+03  0.64847950440E+02  0.21058064778E+03  0.12500000000E+03 0.  0.
         25    1    1    2    0    0  0.23773414002E+02 -0.27097721161E+02 -0.17817174262E+03  0.22061194794E+03  0.12500000000E+03 0.  0.
</event>
<event>
 5    0  0.5668330E-005  0.4224155E+03  0.7546771E-02  0.1036283E+00
         21   -1    0    0  502  501  0.00000000000E+00  0.00000000000E+00  0.96578932299E+02  0.96578932299E+02  0.00000000000E+00 0. -1.
         21   -1    0    0  501  502 -0.00000000000E+00 -0.00000000000E+00 -0.18475545949E+04  0.18475545949E+04  0.00000000000E+00 0. -1.
         25    1    1    2    0    0 -0.31310324254E+01 -0.16683640358E+03 -0.10993430672E+04  0.11189389476E+04  0.12500000000E+03 0.  0.
         25    1    1    2    0    0 -0.14812153958E+03 -0.63247213382E+02 -0.26546261799E+03  0.33471719710E+03  0.12500000000E+03 0.  0.
         25    1    1    2    0    0  0.15125257201E+03  0.23008361696E+03 -0.38616997736E+03  0.49047738251E+03  0.12500000000E+03 0.  0.
</event>
<event>
 5    0  0.5668330E-005  0.3541369E+03  0.7546771E-02  0.1060930E+00
         21   -1    0    0  502  501  0.00000000000E+00  0.00000000000E+00  0.38555744622E+03  0.38555744622E+03  0.00000000000E+00 0. -1.
         21   -1    0    0  501  502 -0.00000000000E+00 -0.00000000000E+00 -0.32527690381E+03  0.32527690381E+03  0.00000000000E+00 0. -1.
         25    1    1    2    0    0 -0.43593296995E+02 -0.27800315667E+03  0.10259071151E+01  0.30791587024E+03  0.12500000000E+03 0.  0.
         25    1    1    2    0    0 -0.31608574428E+02  0.15236298271E+03  0.66144546379E+02  0.21027049601E+03  0.12500000000E+03 0.  0.
         25    1    1    2    0    0  0.75201871423E+02  0.12564017396E+03 -0.68899110865E+01  0.19264798378E+03  0.12500000000E+03 0.  0.
</event>
<event>
 5    0  0.5668330E-005  0.2894393E+03  0.7546771E-02  0.1090642E+00
         21   -1    0    0  502  501  0.00000000000E+00  0.00000000000E+00  0.18834283539E+04  0.18834283539E+04  0.00000000000E+00 0. -1.
         21   -1    0    0  501  502 -0.00000000000E+00 -0.00000000000E+00 -0.44480120909E+02  0.44480120909E+02  0.00000000000E+00 0. -1.
         25    1    1    2    0    0  0.51617050152E+02 -0.61858682280E+02  0.50781528197E+03  0.52914287016E+03  0.12500000000E+03 0.  0.
         25    1    1    2    0    0 -0.10669099222E+03  0.11229080437E+03  0.31752313421E+03  0.37475076161E+03  0.12500000000E+03 0.  0.
         25    1    1    2    0    0  0.55073942065E+02 -0.50432122093E+02  0.10136098168E+04  0.10240148430E+04  0.12500000000E+03 0.  0.
</event>
<event>
 5    0  0.5668330E-005  0.2578382E+03  0.7546771E-02  0.1108449E+00
         21   -1    0    0  502  501  0.00000000000E+00  0.00000000000E+00  0.16587753634E+03  0.16587753634E+03  0.00000000000E+00 0. -1.
         21   -1    0    0  501  502 -0.00000000000E+00 -0.00000000000E+00 -0.40078088226E+03  0.40078088226E+03  0.00000000000E+00 0. -1.
         25    1    1    2    0    0 -0.19857232903E+02 -0.91651497575E+02  0.25932527159E+02  0.15840392252E+03  0.12500000000E+03 0.  0.
         25    1    1    2    0    0  0.91942483682E+02  0.36480872996E+02 -0.12558599112E+03  0.20293130751E+03  0.12500000000E+03 0.  0.
         25    1    1    2    0    0 -0.72085250779E+02  0.55170624579E+02 -0.13524988195E+03  0.20532318857E+03  0.12500000000E+03 0.  0.
</event>
<event>
 5    0  0.5668330E-005  0.2272408E+03  0.7546771E-02  0.1128597E+00
         21   -1    0    0  502  501  0.00000000000E+00  0.00000000000E+00  0.37468612439E+03  0.37468612439E+03  0.00000000000E+00 0.  1.
         21   -1    0    0  501  502 -0.00000000000E+00 -0.00000000000E+00 -0.13781767784E+03  0.13781767784E+03  0.00000000000E+00 0.  1.
         25    1    1    2    0    0 -0.18026482442E+01 -0.41046849164E+02  0.11654399948E+03  0.17577143449E+03  0.12500000000E+03 0.  0.
         25    1    1    2    0    0 -0.52153249895E+02  0.72297340256E+02  0.18091068358E+01  0.15354198042E+03  0.12500000000E+03 0.  0.
         25    1    1    2    0    0  0.53955898139E+02 -0.31250491092E+02  0.11851534023E+03  0.18319038732E+03  0.12500000000E+03 0.  0.
</event>
<event>
 5    0  0.5668330E-005  0.4262498E+03  0.7546771E-02  0.1035051E+00
         21   -1    0    0  502  501  0.00000000000E+00  0.00000000000E+00  0.29675172785E+03  0.29675172785E+03  0.00000000000E+00 0.  1.
         21   -1    0    0  501  502 -0.00000000000E+00 -0.00000000000E+00 -0.61225894855E+03  0.61225894855E+03  0.00000000000E+00 0.  1.
         25    1    1    2    0    0 -0.23385438732E+03 -0.25963556067E+03 -0.11092115168E+02  0.37127689646E+03  0.12500000000E+03 0.  0.
         25    1    1    2    0    0  0.13735344600E+03  0.11632634653E+03 -0.94979100160E+02  0.23883847574E+03  0.12500000000E+03 0.  0.
         25    1    1    2    0    0  0.96500941316E+02  0.14330921413E+03 -0.20943600537E+03  0.29889530420E+03  0.12500000000E+03 0.  0.
</event>
<event>
 5    0  0.6468290E-005  0.5462863E+03  0.7546771E-02  0.1002357E+00
         21   -1    0    0  502  501  0.00000000000E+00  0.00000000000E+00  0.69419608903E+03  0.69419608903E+03  0.00000000000E+00 0. -1.
         21   -1    0    0  501  502 -0.00000000000E+00 -0.00000000000E+00 -0.42989106051E+03  0.42989106051E+03  0.00000000000E+00 0. -1.
         25    1    1    2    0    0  0.34325058710E+03  0.19452529844E+03  0.72148991499E+02  0.42010895521E+03  0.12500000000E+03 0.  0.
         25    1    1    2    0    0 -0.67284362539E+02 -0.47155225979E+02  0.31231803410E+03  0.34629229735E+03  0.12500000000E+03 0.  0.
         25    1    1    2    0    0 -0.27596622456E+03 -0.14737007246E+03 -0.12016199708E+03  0.35768589698E+03  0.12500000000E+03 0.  0.
</event>
<event>
 5    0  0.5668330E-005  0.2186717E+03  0.7546771E-02  0.1134877E+00
         21   -1    0    0  502  501  0.00000000000E+00  0.00000000000E+00  0.10273815823E+03  0.10273815823E+03  0.00000000000E+00 0.  1.
         21   -1    0    0  501  502 -0.00000000000E+00 -0.00000000000E+00 -0.46542908870E+03  0.46542908870E+03  0.00000000000E+00 0.  1.
         25    1    1    2    0    0 -0.19484470953E+02 -0.32609490603E+02 -0.12382806149E+03  0.18000392301E+03  0.12500000000E+03 0.  0.
         25    1    1    2    0    0  0.79136203808E+02  0.47182311187E+02 -0.73011221359E+02  0.17159355374E+03  0.12500000000E+03 0.  0.
         25    1    1    2    0    0 -0.59651732855E+02 -0.14572820585E+02 -0.16585164763E+03  0.21656977017E+03  0.12500000000E+03 0.  0.
</event>
<event>
 5    0  0.5668330E-005  0.3204750E+03  0.7546771E-02  0.1075431E+00
         21   -1    0    0  502  501  0.00000000000E+00  0.00000000000E+00  0.20402892255E+03  0.20402892255E+03  0.00000000000E+00 0.  1.
         21   -1    0    0  501  502 -0.00000000000E+00 -0.00000000000E+00 -0.50338078535E+03  0.50338078535E+03  0.00000000000E+00 0.  1.
         25    1    1    2    0    0 -0.19217702999E+03 -0.66821753760E+02 -0.25110909014E+03  0.34652262954E+03  0.12500000000E+03 0.  0.
         25    1    1    2    0    0  0.98617551072E+02  0.11063409058E+03 -0.92714060137E+01  0.19410379272E+03  0.12500000000E+03 0.  0.
         25    1    1    2    0    0  0.93559478918E+02 -0.43812336822E+02 -0.38971366643E+02  0.16678328565E+03  0.12500000000E+03 0.  0.
</event>
<event>
 5    0  0.5804806E-005  0.3455243E+03  0.7546771E-02  0.1064467E+00
         21   -1    0    0  502  501  0.00000000000E+00  0.00000000000E+00  0.59139970455E+03  0.59139970455E+03  0.00000000000E+00 0. -1.
         21   -1    0    0  501  502 -0.00000000000E+00 -0.00000000000E+00 -0.20187194556E+03  0.20187194556E+03  0.00000000000E+00 0. -1.
         25    1    1    2    0    0 -0.79469479258E+02 -0.10862473561E+02 -0.71323539867E+02  0.16475872907E+03  0.12500000000E+03 0.  0.
         25    1    1    2    0    0  0.15943538134E+03  0.12266508912E+03  0.30397804916E+03  0.38534921731E+03  0.12500000000E+03 0.  0.
         25    1    1    2    0    0 -0.79965902080E+02 -0.11180261556E+03  0.15687324969E+03  0.24316370373E+03  0.12500000000E+03 0.  0.
</event>
<event>
 5    0  0.5668330E-005  0.2353032E+03  0.7546771E-02  0.1122962E+00
         21   -1    0    0  502  501  0.00000000000E+00  0.00000000000E+00  0.28823258432E+02  0.28823258432E+02  0.00000000000E+00 0.  1.
         21   -1    0    0  501  502 -0.00000000000E+00 -0.00000000000E+00 -0.19209354389E+04  0.19209354389E+04  0.00000000000E+00 0.  1.
         25    1    1    2    0    0  0.75805991025E+02 -0.33643523341E+02 -0.46690638876E+03  0.49041310219E+03  0.12500000000E+03 0.  0.
         25    1    1    2    0    0 -0.90828219389E+02  0.86607992060E+02 -0.78697808077E+03  0.80666610772E+03  0.12500000000E+03 0.  0.
         25    1    1    2    0    0  0.15022228364E+02 -0.52964468719E+02 -0.63822771092E+03  0.65267948740E+03  0.12500000000E+03 0.  0.
</event>
<event>
 5    0  0.6276032E-005  0.3973781E+03  0.7546771E-02  0.1044691E+00
         21   -1    0    0  502  501  0.00000000000E+00  0.00000000000E+00  0.77268512307E+03  0.77268512307E+03  0.00000000000E+00 0.  1.
         21   -1    0    0  501  502 -0.00000000000E+00 -0.00000000000E+00 -0.20436440240E+03  0.20436440240E+03  0.00000000000E+00 0.  1.
         25    1    1    2    0    0  0.26342764468E+02  0.10123845868E+03 -0.36278620425E+02  0.16698594269E+03  0.12500000000E+03 0.  0.
         25    1    1    2    0    0  0.97246409149E+02  0.25881485207E+02  0.56779118697E+03  0.59003266636E+03  0.12500000000E+03 0.  0.
         25    1    1    2    0    0 -0.12358917362E+03 -0.12711994389E+03  0.36808154125E+02  0.22003091642E+03  0.12500000000E+03 0.  0.
</event>
<event>
 5    0  0.5668330E-005  0.2536116E+03  0.7546771E-02  0.1111043E+00
         21   -1    0    0  502  501  0.00000000000E+00  0.00000000000E+00  0.58475421920E+03  0.58475421920E+03  0.00000000000E+00 0. -1.
         21   -1    0    0  501  502 -0.00000000000E+00 -0.00000000000E+00 -0.10999297610E+03  0.10999297610E+03  0.00000000000E+00 0. -1.
         25    1    1    2    0    0 -0.62905415723E+01 -0.15049759672E+03  0.10885125275E+03  0.22397029436E+03  0.12500000000E+03 0.  0.
         25    1    1    2    0    0  0.12328172160E+02  0.56699317975E+02  0.19883719278E+03  0.24192566155E+03  0.12500000000E+03 0.  0.
         25    1    1    2    0    0 -0.60376305881E+01  0.93798278747E+02  0.16707279757E+03  0.22885123939E+03  0.12500000000E+03 0.  0.
</event>
<event>
 5    0  0.5668330E-005  0.4659860E+03  0.7546771E-02  0.1023059E+00
         21   -1    0    0  502  501  0.00000000000E+00  0.00000000000E+00  0.87538224227E+03  0.87538224227E+03  0.00000000000E+00 0.  1.
         21   -1    0    0  501  502 -0.00000000000E+00 -0.00000000000E+00 -0.24805504389E+03  0.24805504389E+03  0.00000000000E+00 0. -1.
         25    1    1    2    0    0  0.20846835372E+03  0.23519690030E+03 -0.41283619339E+01  0.33825830335E+03  0.12500000000E+03 0.  0.
         25    1    1    2    0    0 -0.19253534270E+03 -0.22148723476E+03  0.54586020622E+03  0.63223003574E+03  0.12500000000E+03 0.  0.
         25    1    1    2    0    0 -0.15933011016E+02 -0.13709665541E+02  0.85595354093E+02  0.15294894708E+03  0.12500000000E+03 0.  0.
</event>
<event>
 5    0  0.5668330E-005  0.3199048E+03  0.7546771E-02  0.1075693E+00
         21   -1    0    0  502  501  0.00000000000E+00  0.00000000000E+00  0.83806318241E+03  0.83806318241E+03  0.00000000000E+00 0. -1.
         21   -1    0    0  501  502 -0.00000000000E+00 -0.00000000000E+00 -0.12211378502E+03  0.12211378502E+03  0.00000000000E+00 0. -1.
         25    1    1    2    0    0 -0.46951664166E+02 -0.96275733433E+02  0.16306290145E+03  0.23170667976E+03  0.12500000000E+03 0.  0.
         25    1    1    2    0    0  0.31608647196E+02 -0.14280060239E+03  0.31155918489E+03  0.36617652070E+03  0.12500000000E+03 0.  0.
         25    1    1    2    0    0  0.15343016970E+02  0.23907633583E+03  0.24132731104E+03  0.36229376696E+03  0.12500000000E+03 0.  0.
</event>
<event>
 5    0  0.5668330E-005  0.2891461E+03  0.7546771E-02  0.1090796E+00
         21   -1    0    0  502  501  0.00000000000E+00  0.00000000000E+00  0.39428295121E+03  0.39428295121E+03  0.00000000000E+00 0.  1.
         21   -1    0    0  501  502 -0.00000000000E+00 -0.00000000000E+00 -0.21204429877E+03  0.21204429877E+03  0.00000000000E+00 0.  1.
         25    1    1    2    0    0  0.59180123811E+02 -0.15041709091E+03  0.11390742907E+03  0.23393907474E+03  0.12500000000E+03 0.  0.
         25    1    1    2    0    0 -0.19356843291E+02  0.17279728918E+03  0.98831734952E+02  0.23585228929E+03  0.12500000000E+03 0.  0.
         25    1    1    2    0    0 -0.39823280520E+02 -0.22380198264E+02 -0.30500511580E+02  0.13653588595E+03  0.12500000000E+03 0.  0.
</event>
<event>
 5    0  0.5668330E-005  0.5204248E+03  0.7546771E-02  0.1008581E+00
         21   -1    0    0  502  501  0.00000000000E+00  0.00000000000E+00  0.19880208903E+03  0.19880208903E+03  0.00000000000E+00 0.  1.
         21   -1    0    0  501  502 -0.00000000000E+00 -0.00000000000E+00 -0.13623700078E+04  0.13623700078E+04  0.00000000000E+00 0.  1.
         25    1    1    2    0    0  0.11326634825E+03  0.10154632090E+02  0.22592690818E+02  0.17049284993E+03  0.12500000000E+03 0.  0.
         25    1    1    2    0    0  0.14204874484E+03  0.18552922261E+03 -0.91259642330E+03  0.95029267606E+03  0.12500000000E+03 0.  0.
         25    1    1    2    0    0 -0.25531509310E+03 -0.19568385470E+03 -0.27356418627E+03  0.44038657083E+03  0.12500000000E+03 0.  0.
</event>
<event>
 5    0  0.5668330E-005  0.3349170E+03  0.7546771E-02  0.1068982E+00
         21   -1    0    0  502  501  0.00000000000E+00  0.00000000000E+00  0.85783307667E+03  0.85783307667E+03  0.00000000000E+00 0.  1.
         21   -1    0    0  501  502 -0.00000000000E+00 -0.00000000000E+00 -0.13075900998E+03  0.13075900998E+03  0.00000000000E+00 0.  1.
         25    1    1    2    0    0 -0.11016061145E+03  0.91856114137E+01 -0.10243507949E+02  0.16718153375E+03  0.12500000000E+03 0.  0.
         25    1    1    2    0    0  0.15256053931E+03 -0.74117000304E+02  0.37089276394E+03  0.42656123854E+03  0.12500000000E+03 0.  0.
         25    1    1    2    0    0 -0.42399927855E+02  0.64931388890E+02  0.36642481071E+03  0.39484931436E+03  0.12500000000E+03 0.  0.
</event>
<event>
 5    0  0.5668330E-005  0.5127607E+03  0.7546771E-02  0.1010501E+00
         21   -1    0    0  502  501  0.00000000000E+00  0.00000000000E+00  0.13160390817E+04  0.13160390817E+04  0.00000000000E+00 0.  1.
         21   -1    0    0  501  502 -0.00000000000E+00 -0.00000000000E+00 -0.19978400287E+03  0.19978400287E+03  0.00000000000E+00 0.  1.
         25    1    1    2    0    0 -0.36966533590E+03 -0.57718693901E+01  0.85805790737E+03  0.94264210995E+03  0.12500000000E+03 0.  0.
         25    1    1    2    0    0  0.83636850916E+02 -0.97742409572E+02  0.12363123184E+03  0.21784945019E+03  0.12500000000E+03 0.  0.
         25    1    1    2    0    0  0.28602848499E+03  0.10351427896E+03  0.13456593966E+03  0.35533152448E+03  0.12500000000E+03 0.  0.
</event>
<event>
 5    0  0.5668330E-005  0.2598846E+03  0.7546771E-02  0.1107213E+00
         21   -1    0    0  502  501  0.00000000000E+00  0.00000000000E+00  0.50309925887E+03  0.50309925887E+03  0.00000000000E+00 0.  1.
         21   -1    0    0  501  502 -0.00000000000E+00 -0.00000000000E+00 -0.13424786084E+03  0.13424786084E+03  0.00000000000E+00 0.  1.
         25    1    1    2    0    0  0.25347642960E+02 -0.54299964158E+02  0.11028062329E+03  0.17713781353E+03  0.12500000000E+03 0.  0.
         25    1    1    2    0    0 -0.88575919472E+02 -0.14893926602E+02 -0.47821072042E+01  0.15399802307E+03  0.12500000000E+03 0.  0.
         25    1    1    2    0    0  0.63228276513E+02  0.69193890760E+02  0.26335288195E+03  0.30621128311E+03  0.12500000000E+03 0.  0.
</event>
<event>
 5    0  0.5668330E-005  0.2990035E+03  0.7546771E-02  0.1085740E+00
         21   -1    0    0  502  501  0.00000000000E+00  0.00000000000E+00  0.97574505138E+03  0.97574505138E+03  0.00000000000E+00 0. -1.
         21   -1    0    0  501  502 -0.00000000000E+00 -0.00000000000E+00 -0.91625434341E+02  0.91625434341E+02  0.00000000000E+00 0. -1.
         25    1    1    2    0    0 -0.12524845919E+03 -0.54091913869E+02  0.25958997252E+03  0.31878686533E+03  0.12500000000E+03 0.  0.
         25    1    1    2    0    0  0.15787747934E+03  0.10687594549E+03  0.53817787540E+03  0.58447257573E+03  0.12500000000E+03 0.  0.
         25    1    1    2    0    0 -0.32629020151E+02 -0.52784031618E+02  0.86351769115E+02  0.16411104466E+03  0.12500000000E+03 0.  0.
</event>
<event>
 5    0  0.5668330E-005  0.2470662E+03  0.7546771E-02  0.1115173E+00
         21   -1    0    0  502  501  0.00000000000E+00  0.00000000000E+00  0.23898951916E+02  0.23898951916E+02  0.00000000000E+00 0.  1.
         21   -1    0    0  501  502 -0.00000000000E+00 -0.00000000000E+00 -0.25541576174E+04  0.25541576174E+04  0.00000000000E+00 0.  1.
         25    1    1    2    0    0  0.58906160550E+02 -0.11710347158E+03 -0.89393433464E+03  0.91210018827E+03  0.12500000000E+03 0.  0.
         25    1    1    2    0    0  0.30497473509E+02  0.86874863961E+02 -0.87908716490E+03  0.89269064147E+03  0.12500000000E+03 0.  0.
         25    1    1    2    0    0 -0.89403634059E+02  0.30228607621E+02 -0.75723716594E+03  0.77326573956E+03  0.12500000000E+03 0.  0.
</event>
<event>
 5    0  0.5668330E-005  0.3908559E+03  0.7546771E-02  0.1046993E+00
         21   -1    0    0  502  501  0.00000000000E+00  0.00000000000E+00  0.12426945652E+04  0.12426945652E+04  0.00000000000E+00 0.  1.
         21   -1    0    0  501  502 -0.00000000000E+00 -0.00000000000E+00 -0.12293310825E+03  0.12293310825E+03  0.00000000000E+00 0.  1.
         25    1    1    2    0    0  0.11066668330E+02 -0.27849946612E+03  0.25454962506E+03  0.39762411320E+03  0.12500000000E+03 0.  0.
         25    1    1    2    0    0  0.75028028497E+02  0.10728246127E+03  0.54627053560E+03  0.57547826164E+03  0.12500000000E+03 0.  0.
         25    1    1    2    0    0 -0.86094696826E+02  0.17121700486E+03  0.31894129632E+03  0.39252529864E+03  0.12500000000E+03 0.  0.
</event>
<event>
 5    0  0.5668330E-005  0.2546446E+03  0.7546771E-02  0.1110404E+00
         21   -1    0    0  502  501  0.00000000000E+00  0.00000000000E+00  0.77713870865E+02  0.77713870865E+02  0.00000000000E+00 0. -1.
         21   -1    0    0  501  502 -0.00000000000E+00 -0.00000000000E+00 -0.83439271303E+03  0.83439271303E+03  0.00000000000E+00 0. -1.
         25    1    1    2    0    0  0.11125390217E+02 -0.50986464026E+02 -0.55700592819E+03  0.57323991300E+03  0.12500000000E+03 0.  0.
         25    1    1    2    0    0 -0.53643816634E+02  0.20296706404E+02 -0.11272413985E+03  0.17782392150E+03  0.12500000000E+03 0.  0.
         25    1    1    2    0    0  0.42518426417E+02  0.30689757622E+02 -0.86948774120E+02  0.16104274938E+03  0.12500000000E+03 0.  0.
</event>
<event>
 5    0  0.5872509E-005  0.3268284E+03  0.7546771E-02  0.1072549E+00
         21   -1    0    0  502  501  0.00000000000E+00  0.00000000000E+00  0.21685683959E+03  0.21685683959E+03  0.00000000000E+00 0. -1.
         21   -1    0    0  501  502 -0.00000000000E+00 -0.00000000000E+00 -0.49256840621E+03  0.49256840621E+03  0.00000000000E+00 0. -1.
         25    1    1    2    0    0  0.15168557988E+03  0.98354580188E+02 -0.48229673891E+02  0.22501831043E+03  0.12500000000E+03 0.  0.
         25    1    1    2    0    0 -0.70289965948E+02 -0.19614584444E+03 -0.17170689099E+03  0.29752668455E+03  0.12500000000E+03 0.  0.
         25    1    1    2    0    0 -0.81395613928E+02  0.97791264247E+02 -0.55775001730E+02  0.18688025082E+03  0.12500000000E+03 0.  0.
</event>
<event>
 5    0  0.5668330E-005  0.4304678E+03  0.7546771E-02  0.1033712E+00
         21   -1    0    0  502  501  0.00000000000E+00  0.00000000000E+00  0.52262414869E+03  0.52262414869E+03  0.00000000000E+00 0. -1.
         21   -1    0    0  501  502 -0.00000000000E+00 -0.00000000000E+00 -0.35456174194E+03  0.35456174194E+03  0.00000000000E+00 0. -1.
         25    1    1    2    0    0  0.35542241433E+02  0.59353907972E+02  0.30865491848E+01  0.14290088909E+03  0.12500000000E+03 0.  0.
         25    1    1    2    0    0  0.21359558516E+03 -0.16405273067E+02 -0.16675493884E+03  0.29887190669E+03  0.12500000000E+03 0.  0.
         25    1    1    2    0    0 -0.24913782659E+03 -0.42948634905E+02  0.33173079641E+03  0.43541309485E+03  0.12500000000E+03 0.  0.
</event>
<event>
 5    0  0.5668330E-005  0.3427825E+03  0.7546771E-02  0.1065617E+00
         21   -1    0    0  502  501  0.00000000000E+00  0.00000000000E+00  0.10825423435E+04  0.10825423435E+04  0.00000000000E+00 0.  1.
         21   -1    0    0  501  502 -0.00000000000E+00 -0.00000000000E+00 -0.10854065338E+03  0.10854065338E+03  0.00000000000E+00 0.  1.
         25    1    1    2    0    0  0.20457736300E+03 -0.14152149270E+03  0.34823508442E+03  0.44583955003E+03  0.12500000000E+03 0.  0.
         25    1    1    2    0    0 -0.60876418719E+02  0.15993089524E+03  0.36033513738E+03  0.41803138739E+03  0.12500000000E+03 0.  0.
         25    1    1    2    0    0 -0.14370094429E+03 -0.18409402541E+02  0.26543146832E+03  0.32721205947E+03  0.12500000000E+03 0.  0.
</event>
<event>
 5    0  0.5668330E-005  0.3347445E+03  0.7546771E-02  0.1069057E+00
         21   -1    0    0  502  501  0.00000000000E+00  0.00000000000E+00  0.36053199650E+03  0.36053199650E+03  0.00000000000E+00 0. -1.
         21   -1    0    0  501  502 -0.00000000000E+00 -0.00000000000E+00 -0.31080157264E+03  0.31080157264E+03  0.00000000000E+00 0. -1.
         25    1    1    2    0    0 -0.15037543988E+03 -0.28819769772E+02 -0.13380453809E+03  0.23868809451E+03  0.12500000000E+03 0.  0.
         25    1    1    2    0    0  0.83986521129E+02 -0.88859234547E+02  0.30899952302E+01  0.17488352514E+03  0.12500000000E+03 0.  0.
         25    1    1    2    0    0  0.66388918752E+02  0.11767900432E+03  0.18044496672E+03  0.25776194949E+03  0.12500000000E+03 0.  0.
</event>
<event>
 5    0  0.5668330E-005  0.2634812E+03  0.7546771E-02  0.1105070E+00
         21   -1    0    0  502  501  0.00000000000E+00  0.00000000000E+00  0.10383594174E+03  0.10383594174E+03  0.00000000000E+00 0. -1.
         21   -1    0    0  501  502 -0.00000000000E+00 -0.00000000000E+00 -0.66857730942E+03  0.66857730942E+03  0.00000000000E+00 0. -1.
         25    1    1    2    0    0  0.26418095574E+02  0.64992710064E+02 -0.29260615376E+02  0.14629816044E+03  0.12500000000E+03 0.  0.
         25    1    1    2    0    0 -0.98676515011E+01  0.43466429292E+02 -0.12131884999E+03  0.17980535138E+03  0.12500000000E+03 0.  0.
         25    1    1    2    0    0 -0.16550444073E+02 -0.10845913936E+03 -0.41416190231E+03  0.44630973934E+03  0.12500000000E+03 0.  0.
</event>
<event>
 5    0  0.5668330E-005  0.2883285E+03  0.7546771E-02  0.1091225E+00
         21   -1    0    0  502  501  0.00000000000E+00  0.00000000000E+00  0.88347109892E+02  0.88347109892E+02  0.00000000000E+00 0.  1.
         21   -1    0    0  501  502 -0.00000000000E+00 -0.00000000000E+00 -0.94098543098E+03  0.94098543098E+03  0.00000000000E+00 0.  1.
         25    1    1    2    0    0 -0.19732438048E+02  0.19457538771E+02 -0.16238204515E+03  0.20678707288E+03  0.12500000000E+03 0.  0.
         25    1    1    2    0    0 -0.73334246585E+02  0.15223713465E+03 -0.26558604507E+03  0.33869603515E+03  0.12500000000E+03 0.  0.
         25    1    1    2    0    0  0.93066684633E+02 -0.17169467342E+03 -0.42467023087E+03  0.48384943284E+03  0.12500000000E+03 0.  0.
</event>
<event>
 5    0  0.6298218E-005  0.3615727E+03  0.7546771E-02  0.1057963E+00
         21   -1    0    0  502  501  0.00000000000E+00  0.00000000000E+00  0.34835986094E+03  0.34835986094E+03  0.00000000000E+00 0. -1.
         21   -1    0    0  501  502 -0.00000000000E+00 -0.00000000000E+00 -0.37528664501E+03  0.37528664501E+03  0.00000000000E+00 0. -1.
         25    1    1    2    0    0 -0.10163525816E+03  0.19884354895E+03 -0.71523277526E+02  0.26572365700E+03  0.12500000000E+03 0.  0.
         25    1    1    2    0    0  0.17571241078E+03 -0.38026216907E+02 -0.44752452056E+02  0.22349189346E+03  0.12500000000E+03 0.  0.
         25    1    1    2    0    0 -0.74077152619E+02 -0.16081733205E+03  0.89348945514E+02  0.23443095549E+03  0.12500000000E+03 0.  0.
</event>
<event>
 5    0  0.5668330E-005  0.2821840E+03  0.7546771E-02  0.1094502E+00
         21   -1    0    0  502  501  0.00000000000E+00  0.00000000000E+00  0.10526765697E+03  0.10526765697E+03  0.00000000000E+00 0. -1.
         21   -1    0    0  501  502 -0.00000000000E+00 -0.00000000000E+00 -0.75643165399E+03  0.75643165399E+03  0.00000000000E+00 0. -1.
         25    1    1    2    0    0  0.14482742940E+03  0.87231823471E+02 -0.30460370061E+03  0.37012537032E+03  0.12500000000E+03 0.  0.
         25    1    1    2    0    0 -0.47072038549E+02  0.37891255870E+02 -0.19308030107E+03  0.23781616166E+03  0.12500000000E+03 0.  0.
         25    1    1    2    0    0 -0.97755390847E+02 -0.12512307934E+03 -0.15347999534E+03  0.25375777898E+03  0.12500000000E+03 0.  0.
</event>
<event>
 5    0  0.5995755E-005  0.2953206E+03  0.7546771E-02  0.1087603E+00
         21   -1    0    0  502  501  0.00000000000E+00  0.00000000000E+00  0.31792793629E+03  0.31792793629E+03  0.00000000000E+00 0.  1.
         21   -1    0    0  501  502 -0.00000000000E+00 -0.00000000000E+00 -0.27432084406E+03  0.27432084406E+03  0.00000000000E+00 0.  1.
         25    1    1    2    0    0  0.92769839759E+02  0.56198222651E+02  0.48374199305E+02  0.17242258134E+03  0.12500000000E+03 0.  0.
         25    1    1    2    0    0 -0.19922810542E+03  0.22456084056E+02  0.14754971685E+02  0.23672520543E+03  0.12500000000E+03 0.  0.
         25    1    1    2    0    0  0.10645826566E+03 -0.78654306707E+02 -0.19522078763E+02  0.18310099358E+03  0.12500000000E+03 0.  0.
</event>
<event>
 5    0  0.5668330E-005  0.2045916E+03  0.7546771E-02  0.1145922E+00
         21   -1    0    0  502  501  0.00000000000E+00  0.00000000000E+00  0.27856976000E+02  0.27856976000E+02  0.00000000000E+00 0.  1.
         21   -1    0    0  501  502 -0.00000000000E+00 -0.00000000000E+00 -0.15025945332E+04  0.15025945332E+04  0.00000000000E+00 0.  1.
         25    1    1    2    0    0 -0.27596393041E+02 -0.52087419013E+02 -0.36729413139E+03  0.39243424810E+03  0.12500000000E+03 0.  0.
         25    1    1    2    0    0  0.13471873838E+02  0.17121582001E+01 -0.57678649777E+03  0.59033218350E+03  0.12500000000E+03 0.  0.
         25    1    1    2    0    0  0.14124519203E+02  0.50375260813E+02 -0.53065692802E+03  0.54768507758E+03  0.12500000000E+03 0.  0.
</event>
<event>
 5    0  0.5668330E-005  0.3250944E+03  0.7546771E-02  0.1073328E+00
         21   -1    0    0  502  501  0.00000000000E+00  0.00000000000E+00  0.75604764344E+02  0.75604764344E+02  0.00000000000E+00 0. -1.
         21   -1    0    0  501  502 -0.00000000000E+00 -0.00000000000E+00 -0.13978801466E+04  0.13978801466E+04  0.00000000000E+00 0. -1.
         25    1    1    2    0    0 -0.51095212758E+02 -0.12376329908E+03 -0.62866093979E+03  0.65480352182E+03  0.12500000000E+03 0.  0.
         25    1    1    2    0    0 -0.99120582651E+02 -0.27620727336E+02 -0.14663431686E+03  0.21843630047E+03  0.12500000000E+03 0.  0.
         25    1    1    2    0    0  0.15021579541E+03  0.15138402642E+03 -0.54698012562E+03  0.60024508867E+03  0.12500000000E+03 0.  0.
</event>
<event>
 5    0  0.5668330E-005  0.2679033E+03  0.7546771E-02  0.1102486E+00
         21   -1    0    0  502  501  0.00000000000E+00  0.00000000000E+00  0.48977803797E+03  0.48977803797E+03  0.00000000000E+00 0.  1.
         21   -1    0    0  501  502 -0.00000000000E+00 -0.00000000000E+00 -0.14654024114E+03  0.14654024114E+03  0.00000000000E+00 0.  1.
         25    1    1    2    0    0 -0.80152017233E+02  0.10217247181E+03  0.46191432165E+02  0.18607043899E+03  0.12500000000E+03 0.  0.
         25    1    1    2    0    0 -0.13698649930E+01  0.26104676590E+01  0.32927784818E+02  0.12929783480E+03  0.12500000000E+03 0.  0.
         25    1    1    2    0    0  0.81521882226E+02 -0.10478293947E+03  0.26411857985E+03  0.32095000531E+03  0.12500000000E+03 0.  0.
</event>
<event>
 5    0  0.5668330E-005  0.4346186E+03  0.7546771E-02  0.1032411E+00
         21   -1    0    0  502  501  0.00000000000E+00  0.00000000000E+00  0.21184185716E+03  0.21184185716E+03  0.00000000000E+00 0. -1.
         21   -1    0    0  501  502 -0.00000000000E+00 -0.00000000000E+00 -0.89167143305E+03  0.89167143305E+03  0.00000000000E+00 0. -1.
         25    1    1    2    0    0 -0.25124820370E+03  0.70946510746E+02 -0.29849344766E+03  0.41579130047E+03  0.12500000000E+03 0.  0.
         25    1    1    2    0    0 -0.10664046117E+03  0.52750809851E+02 -0.13396990026E+03  0.21846686264E+03  0.12500000000E+03 0.  0.
         25    1    1    2    0    0  0.35788866487E+03 -0.12369732060E+03 -0.24736622797E+03  0.46925512710E+03  0.12500000000E+03 0.  0.
</event>
<event>
 5    0  0.5668330E-005  0.2975242E+03  0.7546771E-02  0.1086485E+00
         21   -1    0    0  502  501  0.00000000000E+00  0.00000000000E+00  0.51636491192E+02  0.51636491192E+02  0.00000000000E+00 0. -1.
         21   -1    0    0  501  502 -0.00000000000E+00 -0.00000000000E+00 -0.17143046764E+04  0.17143046764E+04  0.00000000000E+00 0. -1.
         25    1    1    2    0    0  0.19083958919E+03  0.23277023672E+02 -0.48947533625E+03  0.54052999309E+03  0.12500000000E+03 0.  0.
         25    1    1    2    0    0 -0.13382818633E+03  0.60419011083E+02 -0.61906173219E+03  0.64840023799E+03  0.12500000000E+03 0.  0.
         25    1    1    2    0    0 -0.57011402853E+02 -0.83696034755E+02 -0.55413111674E+03  0.57701093649E+03  0.12500000000E+03 0.  0.
</event>
<event>
 5    0  0.5668330E-005  0.3083831E+03  0.7546771E-02  0.1081123E+00
         21   -1    0    0  502  501  0.00000000000E+00  0.00000000000E+00  0.30362644614E+03  0.30362644614E+03  0.00000000000E+00 0.  1.
         21   -1    0    0  501  502 -0.00000000000E+00 -0.00000000000E+00 -0.31321431577E+03  0.31321431577E+03  0.00000000000E+00 0.  1.
         25    1    1    2    0    0 -0.36223342640E+02  0.16550271182E+03  0.15097342301E+02  0.21108341459E+03  0.12500000000E+03 0.  0.
         25    1    1    2    0    0  0.58188137193E+02  0.45978634894E+02  0.40052444092E+02  0.15076170752E+03  0.12500000000E+03 0.  0.
         25    1    1    2    0    0 -0.21964794554E+02 -0.21148134671E+03 -0.64737656024E+02  0.25499563979E+03  0.12500000000E+03 0.  0.
</event>
<event>
 5    0  0.5668330E-005  0.3346111E+03  0.7546771E-02  0.1069115E+00
         21   -1    0    0  502  501  0.00000000000E+00  0.00000000000E+00  0.16453394932E+03  0.16453394932E+03  0.00000000000E+00 0.  1.
         21   -1    0    0  501  502 -0.00000000000E+00 -0.00000000000E+00 -0.68049546375E+03  0.68049546375E+03  0.00000000000E+00 0.  1.
         25    1    1    2    0    0 -0.11241614561E+03  0.22309273069E+03 -0.16868637993E+03  0.32632476316E+03  0.12500000000E+03 0.  0.
         25    1    1    2    0    0  0.95583183509E+02 -0.12810445840E+03 -0.28300523003E+03  0.34822960450E+03  0.12500000000E+03 0.  0.
         25    1    1    2    0    0  0.16832962103E+02 -0.94988272290E+02 -0.64269904473E+02  0.17047504541E+03  0.12500000000E+03 0.  0.
</event>
<event>
 5    0  0.9847233E-005  0.7875380E+03  0.7546771E-02  0.9578233E-01
         21   -1    0    0  502  501  0.00000000000E+00  0.00000000000E+00  0.85462367021E+03  0.85462367021E+03  0.00000000000E+00 0.  1.
         21   -1    0    0  501  502 -0.00000000000E+00 -0.00000000000E+00 -0.72571829614E+03  0.72571829614E+03  0.00000000000E+00 0.  1.
         25    1    1    2    0    0 -0.35008860583E+03 -0.26190418321E+03  0.27291221343E+02  0.45554982590E+03  0.12500000000E+03 0.  0.
         25    1    1    2    0    0  0.36631661975E+03 -0.26603630203E+03  0.28795878026E+03  0.55091599998E+03  0.12500000000E+03 0.  0.
         25    1    1    2    0    0 -0.16228013918E+02  0.52794048523E+03 -0.18634462754E+03  0.57387614047E+03  0.12500000000E+03 0.  0.
</event>
<event>
 5    0  0.5668330E-005  0.3766571E+03  0.7546771E-02  0.1052176E+00
         21   -1    0    0  502  501  0.00000000000E+00  0.00000000000E+00  0.19664417155E+03  0.19664417155E+03  0.00000000000E+00 0.  1.
         21   -1    0    0  501  502 -0.00000000000E+00 -0.00000000000E+00 -0.72145819023E+03  0.72145819023E+03  0.00000000000E+00 0.  1.
         25    1    1    2    0    0  0.40981785019E+02  0.25079350937E+03 -0.37430990318E+02  0.28566233578E+03  0.12500000000E+03 0.  0.
         25    1    1    2    0    0  0.11726011051E+02 -0.10978272887E+03 -0.90040290431E+02  0.18953100220E+03  0.12500000000E+03 0.  0.
         25    1    1    2    0    0 -0.52707796070E+02 -0.14101078050E+03 -0.39734273793E+03  0.44290902381E+03  0.12500000000E+03 0.  0.
</event>
<event>
 5    0  0.5668330E-005  0.2301885E+03  0.7546771E-02  0.1126507E+00
         21   -1    0    0  502  501  0.00000000000E+00  0.00000000000E+00  0.20160665611E+03  0.20160665611E+03  0.00000000000E+00 0. -1.
         21   -1    0    0  501  502 -0.00000000000E+00 -0.00000000000E+00 -0.26282250019E+03  0.26282250019E+03  0.00000000000E+00 0. -1.
         25    1    1    2    0    0 -0.15090939214E+02 -0.15811848272E+02 -0.44604185647E+01  0.12697498307E+03  0.12500000000E+03 0.  0.
         25    1    1    2    0    0  0.61967395306E+02  0.10238558857E+03 -0.20526661658E+02  0.17426735399E+03  0.12500000000E+03 0.  0.
         25    1    1    2    0    0 -0.46876456092E+02 -0.86573740299E+02 -0.36228763857E+02  0.16318681925E+03  0.12500000000E+03 0.  0.
</event>
<event>
 5    0  0.5668330E-005  0.2194788E+03  0.7546771E-02  0.1134272E+00
         21   -1    0    0  502  501  0.00000000000E+00  0.00000000000E+00  0.23244563598E+03  0.23244563598E+03  0.00000000000E+00 0.  1.
         21   -1    0    0  501  502 -0.00000000000E+00 -0.00000000000E+00 -0.20723528688E+03  0.20723528688E+03  0.00000000000E+00 0.  1.
         25    1    1    2    0    0 -0.28314008356E+02 -0.58863310563E+02 -0.71682407731E+02  0.15820853320E+03  0.12500000000E+03 0.  0.
         25    1    1    2    0    0 -0.18437811791E+01  0.76305193457E+01  0.55554156060E+02  0.13701419127E+03  0.12500000000E+03 0.  0.
         25    1    1    2    0    0  0.30157789535E+02  0.51232791217E+02  0.41338600772E+02  0.14445819838E+03  0.12500000000E+03 0.  0.
</event>
<event>
 5    0  0.5668330E-005  0.2254638E+03  0.7546771E-02  0.1129874E+00
         21   -1    0    0  502  501  0.00000000000E+00  0.00000000000E+00  0.44181447285E+02  0.44181447285E+02  0.00000000000E+00 0. -1.
         21   -1    0    0  501  502 -0.00000000000E+00 -0.00000000000E+00 -0.11505717643E+04  0.11505717643E+04  0.00000000000E+00 0. -1.
         25    1    1    2    0    0  0.47733857109E+02 -0.10774756410E+03 -0.39531710685E+03  0.43103210281E+03  0.12500000000E+03 0.  0.
         25    1    1    2    0    0 -0.38234473275E+02  0.64953249160E+02 -0.38788933880E+03  0.41444413215E+03  0.12500000000E+03 0.  0.
         25    1    1    2    0    0 -0.94993838345E+01  0.42794314942E+02 -0.32318387134E+03  0.34927697660E+03  0.12500000000E+03 0.  0.
</event>
<event>
 5    0  0.5668330E-005  0.3933730E+03  0.7546771E-02  0.1046099E+00
         21   -1    0    0  502  501  0.00000000000E+00  0.00000000000E+00  0.10488793755E+04  0.10488793755E+04  0.00000000000E+00 0.  1.
         21   -1    0    0  501  502 -0.00000000000E+00 -0.00000000000E+00 -0.14753106480E+03  0.14753106480E+03  0.00000000000E+00 0.  1.
         25    1    1    2    0    0  0.12589971945E+02 -0.45274811265E+02  0.42569183729E+03  0.44614667573E+03  0.12500000000E+03 0.  0.
         25    1    1    2    0    0  0.14177205109E+03  0.15402226683E+03  0.46322661912E+03  0.52347499827E+03  0.12500000000E+03 0.  0.
         25    1    1    2    0    0 -0.15436202304E+03 -0.10874745556E+03  0.12429854306E+02  0.22678876631E+03  0.12500000000E+03 0.  0.
</event>
<event>
 5    0  0.5668330E-005  0.2554280E+03  0.7546771E-02  0.1109922E+00
         21   -1    0    0  502  501  0.00000000000E+00  0.00000000000E+00  0.13394336844E+04  0.13394336844E+04  0.00000000000E+00 0.  1.
         21   -1    0    0  501  502 -0.00000000000E+00 -0.00000000000E+00 -0.48709739669E+02  0.48709739669E+02  0.00000000000E+00 0.  1.
         25    1    1    2    0    0  0.42065010858E+02 -0.20599946517E+02  0.23055706415E+03  0.26641205447E+03  0.12500000000E+03 0.  0.
         25    1    1    2    0    0 -0.47823494779E+02  0.86279328015E+02  0.23074506145E+03  0.28035601024E+03  0.12500000000E+03 0.  0.
         25    1    1    2    0    0  0.57584839204E+01 -0.65679381498E+02  0.82942181913E+03  0.84137535936E+03  0.12500000000E+03 0.  0.
</event>
<event>
 5    0  0.5668330E-005  0.3003104E+03  0.7546771E-02  0.1085086E+00
         21   -1    0    0  502  501  0.00000000000E+00  0.00000000000E+00  0.86959864764E+03  0.86959864764E+03  0.00000000000E+00 0.  1.
         21   -1    0    0  501  502 -0.00000000000E+00 -0.00000000000E+00 -0.10371031488E+03  0.10371031488E+03  0.00000000000E+00 0.  1.
         25    1    1    2    0    0 -0.11110125169E+03  0.10109160490E+03  0.71695484708E+02  0.20815437357E+03  0.12500000000E+03 0.  0.
         25    1    1    2    0    0  0.11847504552E+03 -0.27801338119E+02  0.42362774255E+03  0.45814267981E+03  0.12500000000E+03 0.  0.
         25    1    1    2    0    0 -0.73737938329E+01 -0.73290266781E+02  0.27056510550E+03  0.30701190915E+03  0.12500000000E+03 0.  0.
</event>
<event>
 5    0  0.5668330E-005  0.3956483E+03  0.7546771E-02  0.1045297E+00
         21   -1    0    0  502  501  0.00000000000E+00  0.00000000000E+00  0.59770637604E+03  0.59770637604E+03  0.00000000000E+00 0. -1.
         21   -1    0    0  501  502 -0.00000000000E+00 -0.00000000000E+00 -0.26189709126E+03  0.26189709126E+03  0.00000000000E+00 0. -1.
         25    1    1    2    0    0 -0.12075221032E+03  0.15656510880E+03 -0.61085119393E+02  0.24176459915E+03  0.12500000000E+03 0.  0.
         25    1    1    2    0    0 -0.30309771948E+02  0.51218909194E+02  0.12645551335E+02  0.13902146922E+03  0.12500000000E+03 0.  0.
         25    1    1    2    0    0  0.15106198227E+03 -0.20778401799E+03  0.38424885284E+03  0.47881739894E+03  0.12500000000E+03 0.  0.
</event>
<event>
 5    0  0.5668330E-005  0.2426791E+03  0.7546771E-02  0.1118021E+00
         21   -1    0    0  502  501  0.00000000000E+00  0.00000000000E+00  0.37131883590E+02  0.37131883590E+02  0.00000000000E+00 0.  1.
         21   -1    0    0  501  502 -0.00000000000E+00 -0.00000000000E+00 -0.15860533922E+04  0.15860533922E+04  0.00000000000E+00 0.  1.
         25    1    1    2    0    0 -0.35888108418E+02 -0.55157732859E+02 -0.78113585237E+03  0.79380636913E+03  0.12500000000E+03 0.  0.
         25    1    1    2    0    0  0.48865445932E+02 -0.54965485602E+02 -0.31632164308E+03  0.34798479607E+03  0.12500000000E+03 0.  0.
         25    1    1    2    0    0 -0.12977337514E+02  0.11012321846E+03 -0.45146401321E+03  0.48139411064E+03  0.12500000000E+03 0.  0.
</event>
<event>
 5    0  0.5707527E-005  0.3537143E+03  0.7546771E-02  0.1061101E+00
         21   -1    0    0  502  501  0.00000000000E+00  0.00000000000E+00  0.18538751251E+03  0.18538751251E+03  0.00000000000E+00 0.  1.
         21   -1    0    0  501  502 -0.00000000000E+00 -0.00000000000E+00 -0.67487706274E+03  0.67487706274E+03  0.00000000000E+00 0.  1.
         25    1    1    2    0    0  0.15095436935E+03 -0.37244124251E+02 -0.24095799946E+03  0.31282599624E+03  0.12500000000E+03 0.  0.
         25    1    1    2    0    0 -0.97222654942E+02 -0.17349221408E+03 -0.95276805907E+02  0.25348464002E+03  0.12500000000E+03 0.  0.
         25    1    1    2    0    0 -0.53731714410E+02  0.21073633834E+03 -0.15325474486E+03  0.29395393900E+03  0.12500000000E+03 0.  0.
</event>
<event>
 5    0  0.5668330E-005  0.2965653E+03  0.7546771E-02  0.1086970E+00
         21   -1    0    0  502  501  0.00000000000E+00  0.00000000000E+00  0.86540338928E+02  0.86540338928E+02  0.00000000000E+00 0. -1.
         21   -1    0    0  501  502 -0.00000000000E+00 -0.00000000000E+00 -0.10163003635E+04  0.10163003635E+04  0.00000000000E+00 0. -1.
         25    1    1    2    0    0  0.21515046182E+02  0.26336918336E+02 -0.10062234755E+03  0.16403166556E+03  0.12500000000E+03 0.  0.
         25    1    1    2    0    0 -0.73413168471E+01 -0.16706636885E+03 -0.22994720164E+03  0.31058941076E+03  0.12500000000E+03 0.  0.
         25    1    1    2    0    0 -0.14173729335E+02  0.14072945051E+03 -0.59919047541E+03  0.62821962614E+03  0.12500000000E+03 0.  0.
</event>
<event>
 5    0  0.5668330E-005  0.3577895E+03  0.7546771E-02  0.1059463E+00
         21   -1    0    0  502  501  0.00000000000E+00  0.00000000000E+00  0.36697178900E+03  0.36697178900E+03  0.00000000000E+00 0.  1.
         21   -1    0    0  501  502 -0.00000000000E+00 -0.00000000000E+00 -0.34883698311E+03  0.34883698311E+03  0.00000000000E+00 0. -1.
         25    1    1    2    0    0 -0.18946782980E+03 -0.39481738736E+02  0.43520738105E+02  0.23446944549E+03  0.12500000000E+03 0.  0.
         25    1    1    2    0    0 -0.81156143025E+02 -0.53643726663E+02  0.37481084245E+02  0.16276916366E+03  0.12500000000E+03 0.  0.
         25    1    1    2    0    0  0.27062397283E+03  0.93125465399E+02 -0.62867016460E+02  0.31857016297E+03  0.12500000000E+03 0.  0.
</event>
<event>
 5    0  0.5668330E-005  0.2429892E+03  0.7546771E-02  0.1117817E+00
         21   -1    0    0  502  501  0.00000000000E+00  0.00000000000E+00  0.25838995338E+03  0.25838995338E+03  0.00000000000E+00 0.  1.
         21   -1    0    0  501  502 -0.00000000000E+00 -0.00000000000E+00 -0.22850646045E+03  0.22850646045E+03  0.00000000000E+00 0.  1.
         25    1    1    2    0    0 -0.69257828968E+02  0.52043483743E+02 -0.79811521382E+02  0.17175578598E+03  0.12500000000E+03 0.  0.
         25    1    1    2    0    0  0.56730395395E+02  0.34034731975E+01  0.11292634251E+03  0.17778436439E+03  0.12500000000E+03 0.  0.
         25    1    1    2    0    0  0.12527433574E+02 -0.55446956940E+02 -0.32313281933E+01  0.13735626345E+03  0.12500000000E+03 0.  0.
</event>
<event>
 5    0  0.6033949E-005  0.2843201E+03  0.7546771E-02  0.1093353E+00
         21   -1    0    0  502  501  0.00000000000E+00  0.00000000000E+00  0.55867662685E+03  0.55867662685E+03  0.00000000000E+00 0. -1.
         21   -1    0    0  501  502 -0.00000000000E+00 -0.00000000000E+00 -0.14469535708E+03  0.14469535708E+03  0.00000000000E+00 0. -1.
         25    1    1    2    0    0 -0.10855643847E+03  0.44285741475E+01  0.53016322241E+02  0.17389606961E+03  0.12500000000E+03 0.  0.
         25    1    1    2    0    0 -0.45743692534E+02  0.69248188769E+02  0.60320261659E+02  0.16171373170E+03  0.12500000000E+03 0.  0.
         25    1    1    2    0    0  0.15430013101E+03 -0.73676762917E+02  0.30064468587E+03  0.36776218262E+03  0.12500000000E+03 0.  0.
</event>
<event>
 5    0  0.5668330E-005  0.2818722E+03  0.7546771E-02  0.1094671E+00
         21   -1    0    0  502  501  0.00000000000E+00  0.00000000000E+00  0.25935270128E+03  0.25935270128E+03  0.00000000000E+00 0. -1.
         21   -1    0    0  501  502 -0.00000000000E+00 -0.00000000000E+00 -0.30634710336E+03  0.30634710336E+03  0.00000000000E+00 0. -1.
         25    1    1    2    0    0  0.10416982718E+02  0.16205297941E+03 -0.46061901349E+01  0.20497780039E+03  0.12500000000E+03 0.  0.
         25    1    1    2    0    0 -0.53188396991E+02 -0.10251254553E+03  0.63073614811E+02  0.18149685521E+03  0.12500000000E+03 0.  0.
         25    1    1    2    0    0  0.42771414274E+02 -0.59540433873E+02 -0.10546182675E+03  0.17922514904E+03  0.12500000000E+03 0.  0.
</event>
<event>
 5    0  0.5668330E-005  0.2752844E+03  0.7546771E-02  0.1098293E+00
         21   -1    0    0  502  501  0.00000000000E+00  0.00000000000E+00  0.32638232814E+03  0.32638232814E+03  0.00000000000E+00 0. -1.
         21   -1    0    0  501  502 -0.00000000000E+00 -0.00000000000E+00 -0.23218635803E+03  0.23218635803E+03  0.00000000000E+00 0. -1.
         25    1    1    2    0    0 -0.65888416491E+02 -0.75202411303E+02  0.15135799178E+03  0.22029736215E+03  0.12500000000E+03 0.  0.
         25    1    1    2    0    0  0.35952556656E+02  0.44629397879E+01 -0.12152335173E+03  0.17806018414E+03  0.12500000000E+03 0.  0.
         25    1    1    2    0    0  0.29935859835E+02  0.70739471515E+02  0.64361330064E+02  0.16021113988E+03  0.12500000000E+03 0.  0.
</event>
<event>
 5    0  0.5668330E-005  0.3086587E+03  0.7546771E-02  0.1080991E+00
         21   -1    0    0  502  501  0.00000000000E+00  0.00000000000E+00  0.56607659215E+03  0.56607659215E+03  0.00000000000E+00 0.  1.
         21   -1    0    0  501  502 -0.00000000000E+00 -0.00000000000E+00 -0.16829915940E+03  0.16829915940E+03  0.00000000000E+00 0.  1.
         25    1    1    2    0    0 -0.11020840045E+03  0.11229747997E+03  0.12370999810E+03  0.23597834470E+03  0.12500000000E+03 0.  0.
         25    1    1    2    0    0  0.52922297208E+02 -0.18163320960E+03  0.59749970908E+02  0.23449190049E+03  0.12500000000E+03 0.  0.
         25    1    1    2    0    0  0.57286103238E+02  0.69335729625E+02  0.21431746374E+03  0.26390550637E+03  0.12500000000E+03 0.  0.
</event>
<event>
 5    0  0.6911616E-005  0.2657558E+03  0.7546771E-02  0.1103734E+00
         21   -1    0    0  502  501  0.00000000000E+00  0.00000000000E+00  0.14707002739E+03  0.14707002739E+03  0.00000000000E+00 0.  1.
         21   -1    0    0  501  502 -0.00000000000E+00 -0.00000000000E+00 -0.48022114688E+03  0.48022114688E+03  0.00000000000E+00 0.  1.
         25    1    1    2    0    0  0.28043737455E+01 -0.13522805065E+03 -0.99685525535E+01  0.18444202947E+03  0.12500000000E+03 0.  0.
         25    1    1    2    0    0  0.50320192339E+02  0.74604609052E+02 -0.16268853565E+03  0.22403242863E+03  0.12500000000E+03 0.  0.
         25    1    1    2    0    0 -0.53124566084E+02  0.60623441599E+02 -0.16049403129E+03  0.21881671616E+03  0.12500000000E+03 0.  0.
</event>
<event>
 5    0  0.5668330E-005  0.3027218E+03  0.7546771E-02  0.1083888E+00
         21   -1    0    0  502  501  0.00000000000E+00  0.00000000000E+00  0.16747947836E+04  0.16747947836E+04  0.00000000000E+00 0. -1.
         21   -1    0    0  501  502 -0.00000000000E+00 -0.00000000000E+00 -0.54717438948E+02  0.54717438948E+02  0.00000000000E+00 0. -1.
         25    1    1    2    0    0  0.35126059266E+02  0.17947346905E+03  0.92732385483E+03  0.95341444182E+03  0.12500000000E+03 0.  0.
         25    1    1    2    0    0  0.33243478630E+02 -0.15865365234E+03  0.43788811332E+03  0.48337057219E+03  0.12500000000E+03 0.  0.
         25    1    1    2    0    0 -0.68369537895E+02 -0.20819816705E+02  0.25486537651E+03  0.29272720855E+03  0.12500000000E+03 0.  0.
</event>
<event>
 5    0  0.5668330E-005  0.3129725E+03  0.7546771E-02  0.1078930E+00
         21   -1    0    0  502  501  0.00000000000E+00  0.00000000000E+00  0.45536313616E+02  0.45536313616E+02  0.00000000000E+00 0.  1.
         21   -1    0    0  501  502 -0.00000000000E+00 -0.00000000000E+00 -0.21510702729E+04  0.21510702729E+04  0.00000000000E+00 0.  1.
         25    1    1    2    0    0  0.14449273996E+02 -0.17439634536E+03 -0.65542038306E+03  0.68979978641E+03  0.12500000000E+03 0.  0.
         25    1    1    2    0    0 -0.11527789407E+03  0.75535752841E+02 -0.10248573961E+04  0.10416104479E+04  0.12500000000E+03 0.  0.
         25    1    1    2    0    0  0.10082862008E+03  0.98860592523E+02 -0.42525618011E+03  0.46519635220E+03  0.12500000000E+03 0.  0.
</event>
<event>
 5    0  0.5668330E-005  0.2522999E+03  0.7546771E-02  0.1111860E+00
         21   -1    0    0  502  501  0.00000000000E+00  0.00000000000E+00  0.43039414817E+03  0.43039414817E+03  0.00000000000E+00 0.  1.
         21   -1    0    0  501  502 -0.00000000000E+00 -0.00000000000E+00 -0.14789982604E+03  0.14789982604E+03  0.00000000000E+00 0.  1.
         25    1    1    2    0    0  0.61962875922E+02  0.12798345589E+03  0.17208146474E+03  0.25584408041E+03  0.12500000000E+03 0.  0.
         25    1    1    2    0    0 -0.69611359275E+02 -0.42698144421E+02  0.73890238882E+02  0.16659423843E+03  0.12500000000E+03 0.  0.
         25    1    1    2    0    0  0.76484833531E+01 -0.85285311466E+02  0.36522618511E+02  0.15585565538E+03  0.12500000000E+03 0.  0.
</event>
<event>
 5    0  0.5668330E-005  0.3605137E+03  0.7546771E-02  0.1058381E+00
         21   -1    0    0  502  501  0.00000000000E+00  0.00000000000E+00  0.56256642398E+03  0.56256642398E+03  0.00000000000E+00 0. -1.
         21   -1    0    0  501  502 -0.00000000000E+00 -0.00000000000E+00 -0.23103074672E+03  0.23103074672E+03  0.00000000000E+00 0. -1.
         25    1    1    2    0    0 -0.97419687697E+02 -0.10298265306E+03  0.29585515332E+03  0.35107163674E+03  0.12500000000E+03 0.  0.
         25    1    1    2    0    0  0.27371871508E+02  0.11899323105E+03 -0.13374991770E+03  0.22005146869E+03  0.12500000000E+03 0.  0.
         25    1    1    2    0    0  0.70047816189E+02 -0.16010577988E+02  0.16943044165E+03  0.22247406527E+03  0.12500000000E+03 0.  0.
</event>
<event>
 5    0  0.5668330E-005  0.3696731E+03  0.7546771E-02  0.1054818E+00
         21   -1    0    0  502  501  0.00000000000E+00  0.00000000000E+00  0.52904048104E+03  0.52904048104E+03  0.00000000000E+00 0. -1.
         21   -1    0    0  501  502 -0.00000000000E+00 -0.00000000000E+00 -0.25831328934E+03  0.25831328934E+03  0.00000000000E+00 0. -1.
         25    1    1    2    0    0  0.25684864732E+03 -0.10265882424E+03  0.24544926534E+03  0.39035932637E+03  0.12500000000E+03 0.  0.
         25    1    1    2    0    0 -0.16438081069E+03  0.10172594302E+03 -0.29616084094E+02  0.23210198371E+03  0.12500000000E+03 0.  0.
         25    1    1    2    0    0 -0.92467836631E+02  0.93288122208E+00  0.54894010453E+02  0.16489246030E+03  0.12500000000E+03 0.  0.
</event>
<event>
 5    0  0.5668330E-005  0.3101871E+03  0.7546771E-02  0.1080256E+00
         21   -1    0    0  502  501  0.00000000000E+00  0.00000000000E+00  0.12603471379E+03  0.12603471379E+03  0.00000000000E+00 0.  1.
         21   -1    0    0  501  502 -0.00000000000E+00 -0.00000000000E+00 -0.76340889032E+03  0.76340889032E+03  0.00000000000E+00 0.  1.
         25    1    1    2    0    0  0.15304292905E+03  0.11912311729E+02 -0.36596853345E+03  0.41607932991E+03  0.12500000000E+03 0.  0.
         25    1    1    2    0    0 -0.12405042879E+03 -0.10585331729E+03 -0.70706524375E+02  0.21729667796E+03  0.12500000000E+03 0.  0.
         25    1    1    2    0    0 -0.28992500264E+02  0.93941005559E+02 -0.20069911870E+03  0.25606759624E+03  0.12500000000E+03 0.  0.
</event>
<event>
 5    0  0.5668330E-005  0.3554577E+03  0.7546771E-02  0.1060397E+00
         21   -1    0    0  502  501  0.00000000000E+00  0.00000000000E+00  0.34633585602E+03  0.34633585602E+03  0.00000000000E+00 0. -1.
         21   -1    0    0  501  502 -0.00000000000E+00 -0.00000000000E+00 -0.36481980565E+03  0.36481980565E+03  0.00000000000E+00 0. -1.
         25    1    1    2    0    0  0.73269391856E+02  0.85333701014E+02  0.75533220456E+02  0.18433803651E+03  0.12500000000E+03 0.  0.
         25    1    1    2    0    0 -0.23827134086E+03 -0.23955073786E+01 -0.13345419937E+03  0.30035644434E+03  0.12500000000E+03 0.  0.
         25    1    1    2    0    0  0.16500194900E+03 -0.82938193636E+02  0.39437029279E+02  0.22646118081E+03  0.12500000000E+03 0.  0.
</event>
<event>
 5    0  0.5668330E-005  0.2329380E+03  0.7546771E-02  0.1124589E+00
         21   -1    0    0  502  501  0.00000000000E+00  0.00000000000E+00  0.20821773805E+03  0.20821773805E+03  0.00000000000E+00 0. -1.
         21   -1    0    0  501  502 -0.00000000000E+00 -0.00000000000E+00 -0.26059313957E+03  0.26059313957E+03  0.00000000000E+00 0. -1.
         25    1    1    2    0    0  0.13107048854E+02 -0.19725102267E+02 -0.23405648793E+02  0.12935879864E+03  0.12500000000E+03 0.  0.
         25    1    1    2    0    0 -0.49375377801E+02 -0.94176217570E+02 -0.28070596603E+02  0.16649338210E+03  0.12500000000E+03 0.  0.
         25    1    1    2    0    0  0.36268328947E+02  0.11390131984E+03 -0.89915612275E+00  0.17295869688E+03  0.12500000000E+03 0.  0.
</event>
<event>
 5    0  0.5668330E-005  0.5784387E+03  0.7546771E-02  0.9951177E-01
         21   -1    0    0  502  501  0.00000000000E+00  0.00000000000E+00  0.11568076613E+04  0.11568076613E+04  0.00000000000E+00 0. -1.
         21   -1    0    0  501  502 -0.00000000000E+00 -0.00000000000E+00 -0.28923673826E+03  0.28923673826E+03  0.00000000000E+00 0. -1.
         25    1    1    2    0    0 -0.26432505540E+03 -0.99302625675E+02 -0.27967334133E+02  0.31005792709E+03  0.12500000000E+03 0.  0.
         25    1    1    2    0    0  0.75085556241E+02  0.32740500526E+03  0.60148185511E+03  0.70016947967E+03  0.12500000000E+03 0.  0.
         25    1    1    2    0    0  0.18923949915E+03 -0.22810237959E+03  0.29405640202E+03  0.43581699277E+03  0.12500000000E+03 0.  0.
</event>
<event>
 5    0  0.6526255E-005  0.2541678E+03  0.7546771E-02  0.1110699E+00
         21   -1    0    0  502  501  0.00000000000E+00  0.00000000000E+00  0.18063550294E+03  0.18063550294E+03  0.00000000000E+00 0. -1.
         21   -1    0    0  501  502 -0.00000000000E+00 -0.00000000000E+00 -0.35763318800E+03  0.35763318800E+03  0.00000000000E+00 0. -1.
         25    1    1    2    0    0 -0.87286778743E+02 -0.58072599731E+02 -0.95944462425E+02  0.18926634263E+03  0.12500000000E+03 0.  0.
         25    1    1    2    0    0  0.13191241827E+03  0.39357100571E+02  0.11205525259E+02  0.18628051765E+03  0.12500000000E+03 0.  0.
         25    1    1    2    0    0 -0.44625639526E+02  0.18715499160E+02 -0.92258747896E+02  0.16272183067E+03  0.12500000000E+03 0.  0.
</event>
<event>
 5    0  0.5668330E-005  0.3218522E+03  0.7546771E-02  0.1074800E+00
         21   -1    0    0  502  501  0.00000000000E+00  0.00000000000E+00  0.10178851842E+04  0.10178851842E+04  0.00000000000E+00 0. -1.
         21   -1    0    0  501  502 -0.00000000000E+00 -0.00000000000E+00 -0.10176867314E+03  0.10176867314E+03  0.00000000000E+00 0. -1.
         25    1    1    2    0    0  0.20582504702E+03 -0.13776561236E+03  0.43458802744E+03  0.51559195836E+03  0.12500000000E+03 0.  0.
         25    1    1    2    0    0 -0.14784056911E+03  0.91093655360E+02  0.33558617912E+03  0.39799242649E+03  0.12500000000E+03 0.  0.
         25    1    1    2    0    0 -0.57984477911E+02  0.46671956996E+02  0.14594230449E+03  0.20606947248E+03  0.12500000000E+03 0.  0.
</event>
<event>
 5    0  0.5668330E-005  0.3410191E+03  0.7546771E-02  0.1066363E+00
         21   -1    0    0  502  501  0.00000000000E+00  0.00000000000E+00  0.60004124974E+03  0.60004124974E+03  0.00000000000E+00 0.  1.
         21   -1    0    0  501  502 -0.00000000000E+00 -0.00000000000E+00 -0.19381001006E+03  0.19381001006E+03  0.00000000000E+00 0.  1.
         25    1    1    2    0    0  0.86923066702E+02 -0.61969311066E+02  0.13071236067E+03  0.21001556197E+03  0.12500000000E+03 0.  0.
         25    1    1    2    0    0  0.16995621019E+03  0.13452311988E+02  0.51539728462E+02  0.21759462698E+03  0.12500000000E+03 0.  0.
         25    1    1    2    0    0 -0.25687927690E+03  0.48516999078E+02  0.22397915055E+03  0.36624107085E+03  0.12500000000E+03 0.  0.
</event>
<event>
 5    0  0.5668330E-005  0.2627228E+03  0.7546771E-02  0.1105518E+00
         21   -1    0    0  502  501  0.00000000000E+00  0.00000000000E+00  0.25701241753E+03  0.25701241753E+03  0.00000000000E+00 0.  1.
         21   -1    0    0  501  502 -0.00000000000E+00 -0.00000000000E+00 -0.26855998487E+03  0.26855998487E+03  0.00000000000E+00 0.  1.
         25    1    1    2    0    0  0.14412158082E+03  0.82547767092E+02 -0.10307533266E+02  0.20812594541E+03  0.12500000000E+03 0.  0.
         25    1    1    2    0    0 -0.47820453919E+02  0.21372142196E+01  0.25854495120E+02  0.13632614722E+03  0.12500000000E+03 0.  0.
         25    1    1    2    0    0 -0.96301126897E+02 -0.84684981311E+02 -0.27094529185E+02  0.18112030978E+03  0.12500000000E+03 0.  0.
</event>
<event>
 5    0  0.5668330E-005  0.3002976E+03  0.7546771E-02  0.1085092E+00
         21   -1    0    0  502  501  0.00000000000E+00  0.00000000000E+00  0.11474848181E+03  0.11474848181E+03  0.00000000000E+00 0. -1.
         21   -1    0    0  501  502 -0.00000000000E+00 -0.00000000000E+00 -0.78588101197E+03  0.78588101197E+03  0.00000000000E+00 0. -1.
         25    1    1    2    0    0  0.16787863258E+03  0.84023919728E+02 -0.14094173302E+03  0.26595643717E+03  0.12500000000E+03 0.  0.
         25    1    1    2    0    0 -0.15661193557E+03 -0.43539408311E+02 -0.39926663946E+03  0.44884499310E+03  0.12500000000E+03 0.  0.
         25    1    1    2    0    0 -0.11266697003E+02 -0.40484511418E+02 -0.13092415768E+03  0.18582806352E+03  0.12500000000E+03 0.  0.
</event>
<event>
 5    0  0.5668330E-005  0.3131090E+03  0.7546771E-02  0.1078865E+00
         21   -1    0    0  502  501  0.00000000000E+00  0.00000000000E+00  0.36264924902E+03  0.36264924902E+03  0.00000000000E+00 0.  1.
         21   -1    0    0  501  502 -0.00000000000E+00 -0.00000000000E+00 -0.27033633985E+03  0.27033633985E+03  0.00000000000E+00 0.  1.
         25    1    1    2    0    0 -0.29152682115E+01  0.99013643518E+02  0.16668549102E+03  0.23069731968E+03  0.12500000000E+03 0.  0.
         25    1    1    2    0    0  0.11586506123E+03 -0.13726895096E+03 -0.68929387020E+02  0.22944223174E+03  0.12500000000E+03 0.  0.
         25    1    1    2    0    0 -0.11294979302E+03  0.38255307443E+02 -0.54431948341E+01  0.17284603745E+03  0.12500000000E+03 0.  0.
</event>
<event>
 5    0  0.5668330E-005  0.3395069E+03  0.7546771E-02  0.1067006E+00
         21   -1    0    0  502  501  0.00000000000E+00  0.00000000000E+00  0.24352770922E+03  0.24352770922E+03  0.00000000000E+00 0. -1.
         21   -1    0    0  501  502 -0.00000000000E+00 -0.00000000000E+00 -0.47331352321E+03  0.47331352321E+03  0.00000000000E+00 0. -1.
         25    1    1    2    0    0 -0.83208241088E+02  0.33166328344E+02  0.20629868550E+01  0.15379490445E+03  0.12500000000E+03 0.  0.
         25    1    1    2    0    0  0.21870715188E+02  0.73772635258E+02 -0.33052369437E+03  0.36165127186E+03  0.12500000000E+03 0.  0.
         25    1    1    2    0    0  0.61337525900E+02 -0.10693896360E+03  0.98674893520E+02  0.20139505612E+03  0.12500000000E+03 0.  0.
</event>
<event>
 5    0  0.5668330E-005  0.2826634E+03  0.7546771E-02  0.1094243E+00
         21   -1    0    0  502  501  0.00000000000E+00  0.00000000000E+00  0.77865287764E+02  0.77865287764E+02  0.00000000000E+00 0.  1.
         21   -1    0    0  501  502 -0.00000000000E+00 -0.00000000000E+00 -0.10261130094E+04  0.10261130094E+04  0.00000000000E+00 0.  1.
         25    1    1    2    0    0  0.51092981246E+02 -0.16545044219E+02 -0.76886398879E+02  0.15627139711E+03  0.12500000000E+03 0.  0.
         25    1    1    2    0    0 -0.29503217642E+02 -0.68846667518E+02 -0.71234041297E+03  0.72709295653E+03  0.12500000000E+03 0.  0.
         25    1    1    2    0    0 -0.21589763604E+02  0.85391711738E+02 -0.15902090974E+03  0.22061394349E+03  0.12500000000E+03 0.  0.
</event>
<event>
 5    0  0.5668330E-005  0.2624668E+03  0.7546771E-02  0.1105670E+00
         21   -1    0    0  502  501  0.00000000000E+00  0.00000000000E+00  0.74198135312E+03  0.74198135312E+03  0.00000000000E+00 0. -1.
         21   -1    0    0  501  502 -0.00000000000E+00 -0.00000000000E+00 -0.92844396129E+02  0.92844396129E+02  0.00000000000E+00 0. -1.
         25    1    1    2    0    0  0.95451300580E+02  0.14788829263E+01  0.62781310388E+02  0.16935061503E+03  0.12500000000E+03 0.  0.
         25    1    1    2    0    0 -0.41537280961E+02 -0.28573228203E+02  0.45436780563E+03  0.47393763078E+03  0.12500000000E+03 0.  0.
         25    1    1    2    0    0 -0.53914019619E+02  0.27094345276E+02  0.13198784097E+03  0.19153750344E+03  0.12500000000E+03 0.  0.
</event>
<event>
 5    0  0.5668330E-005  0.3211364E+03  0.7546771E-02  0.1075127E+00
         21   -1    0    0  502  501  0.00000000000E+00  0.00000000000E+00  0.27940553227E+03  0.27940553227E+03  0.00000000000E+00 0. -1.
         21   -1    0    0  501  502 -0.00000000000E+00 -0.00000000000E+00 -0.36910009661E+03  0.36910009661E+03  0.00000000000E+00 0. -1.
         25    1    1    2    0    0  0.18794319817E+03  0.88296192026E+02 -0.30609813557E+02  0.24429659013E+03  0.12500000000E+03 0.  0.
         25    1    1    2    0    0 -0.46914735751E+02 -0.15043089345E+03 -0.37586045376E+02  0.20461709836E+03  0.12500000000E+03 0.  0.
         25    1    1    2    0    0 -0.14102846242E+03  0.62134701420E+02 -0.21498705408E+02  0.19959194038E+03  0.12500000000E+03 0.  0.
</event>
<event>
 5    0  0.5668330E-005  0.3386065E+03  0.7546771E-02  0.1067391E+00
         21   -1    0    0  502  501  0.00000000000E+00  0.00000000000E+00  0.14663336760E+03  0.14663336760E+03  0.00000000000E+00 0.  1.
         21   -1    0    0  501  502 -0.00000000000E+00 -0.00000000000E+00 -0.78191167231E+03  0.78191167231E+03  0.00000000000E+00 0.  1.
         25    1    1    2    0    0  0.11525693190E+03 -0.25109014518E+02 -0.21670163651E+02  0.17323169154E+03  0.12500000000E+03 0.  0.
         25    1    1    2    0    0 -0.11682324886E+03 -0.14355418533E+03 -0.24821623786E+03  0.33390384295E+03  0.12500000000E+03 0.  0.
         25    1    1    2    0    0  0.15663169593E+01  0.16866319985E+03 -0.36539190319E+03  0.42140950541E+03  0.12500000000E+03 0.  0.
</event>
<event>
 5    0  0.5668330E-005  0.2979729E+03  0.7546771E-02  0.1086258E+00
         21   -1    0    0  502  501  0.00000000000E+00  0.00000000000E+00  0.20256302029E+04  0.20256302029E+04  0.00000000000E+00 0.  1.
         21   -1    0    0  501  502 -0.00000000000E+00 -0.00000000000E+00 -0.43832215507E+02  0.43832215507E+02  0.00000000000E+00 0.  1.
         25    1    1    2    0    0  0.39754969246E+01  0.16563811053E+02  0.78960416210E+02  0.14882846415E+03  0.12500000000E+03 0.  0.
         25    1    1    2    0    0  0.27720745114E+02  0.12541159820E+02  0.93377970391E+03  0.94260026301E+03  0.12500000000E+03 0.  0.
         25    1    1    2    0    0 -0.31696242039E+02 -0.29104970873E+02  0.96905786726E+03  0.97803369123E+03  0.12500000000E+03 0.  0.
</event>
<event>
 5    0  0.5668330E-005  0.3669924E+03  0.7546771E-02  0.1055849E+00
         21   -1    0    0  502  501  0.00000000000E+00  0.00000000000E+00  0.88888151149E+02  0.88888151149E+02  0.00000000000E+00 0. -1.
         21   -1    0    0  501  502 -0.00000000000E+00 -0.00000000000E+00 -0.15152014035E+04  0.15152014035E+04  0.00000000000E+00 0. -1.
         25    1    1    2    0    0  0.16176002167E+03  0.19545173170E+03 -0.42805722228E+03  0.51305523054E+03  0.12500000000E+03 0.  0.
         25    1    1    2    0    0  0.37503216536E+02 -0.14902778273E+03 -0.50898902052E+03  0.54617817083E+03  0.12500000000E+03 0.  0.
         25    1    1    2    0    0 -0.19926323820E+03 -0.46423948972E+02 -0.48926700952E+03  0.54485615325E+03  0.12500000000E+03 0.  0.
</event>
<event>
 5    0  0.5668330E-005  0.2287306E+03  0.7546771E-02  0.1127536E+00
         21   -1    0    0  502  501  0.00000000000E+00  0.00000000000E+00  0.35048282897E+02  0.35048282897E+02  0.00000000000E+00 0.  1.
         21   -1    0    0  501  502 -0.00000000000E+00 -0.00000000000E+00 -0.14927324242E+04  0.14927324242E+04  0.00000000000E+00 0.  1.
         25    1    1    2    0    0  0.81388060304E+01  0.37003322733E+02 -0.33369538730E+03  0.35834773274E+03  0.12500000000E+03 0.  0.
         25    1    1    2    0    0 -0.54246248009E+02 -0.41271551442E+02 -0.87964970051E+03  0.89109740881E+03  0.12500000000E+03 0.  0.
         25    1    1    2    0    0  0.46107441979E+02  0.42682287091E+01 -0.24433905346E+03  0.27833556551E+03  0.12500000000E+03 0.  0.
</event>
<event>
 5    0  0.5668330E-005  0.2483938E+03  0.7546771E-02  0.1114324E+00
         21   -1    0    0  502  501  0.00000000000E+00  0.00000000000E+00  0.21234163278E+03  0.21234163278E+03  0.00000000000E+00 0. -1.
         21   -1    0    0  501  502 -0.00000000000E+00 -0.00000000000E+00 -0.29056712471E+03  0.29056712471E+03  0.00000000000E+00 0. -1.
         25    1    1    2    0    0 -0.20592739142E+02  0.56102142281E+02 -0.15596298597E+02  0.13942652475E+03  0.12500000000E+03 0.  0.
         25    1    1    2    0    0 -0.11383480949E+03 -0.36541828591E+02 -0.20969186310E+02  0.17423655146E+03  0.12500000000E+03 0.  0.
         25    1    1    2    0    0  0.13442754863E+03 -0.19560313690E+02 -0.41660007023E+02  0.18924568129E+03  0.12500000000E+03 0.  0.
</event>
<event>
 5    0  0.6333509E-005  0.2677981E+03  0.7546771E-02  0.1102546E+00
         21   -1    0    0  502  501  0.00000000000E+00  0.00000000000E+00  0.62170715308E+03  0.62170715308E+03  0.00000000000E+00 0. -1.
         21   -1    0    0  501  502 -0.00000000000E+00 -0.00000000000E+00 -0.11535308245E+03  0.11535308245E+03  0.00000000000E+00 0. -1.
         25    1    1    2    0    0  0.17292159111E+02  0.35309526619E+02  0.25005765604E+03  0.28231119847E+03  0.12500000000E+03 0.  0.
         25    1    1    2    0    0 -0.11607034541E+03 -0.10435242161E+03  0.11345980576E+03  0.22991276716E+03  0.12500000000E+03 0.  0.
         25    1    1    2    0    0  0.98778186304E+02  0.69042894987E+02  0.14283660884E+03  0.22483626990E+03  0.12500000000E+03 0.  0.
</event>
<event>
 5    0  0.5668330E-005  0.3044903E+03  0.7546771E-02  0.1083017E+00
         21   -1    0    0  502  501  0.00000000000E+00  0.00000000000E+00  0.48000185045E+02  0.48000185045E+02  0.00000000000E+00 0.  1.
         21   -1    0    0  501  502 -0.00000000000E+00 -0.00000000000E+00 -0.19315411157E+04  0.19315411157E+04  0.00000000000E+00 0.  1.
         25    1    1    2    0    0 -0.86398847084E+02 -0.75171575049E+02 -0.30715500626E+03  0.35083432606E+03  0.12500000000E+03 0.  0.
         25    1    1    2    0    0  0.10638885830E+03 -0.78621047878E+02 -0.46012181425E+03  0.49481000625E+03  0.12500000000E+03 0.  0.
         25    1    1    2    0    0 -0.19990011215E+02  0.15379262293E+03 -0.11162641101E+04  0.11338969684E+04  0.12500000000E+03 0.  0.
</event>
<event>
 5    0  0.5668330E-005  0.3194973E+03  0.7546771E-02  0.1075881E+00
         21   -1    0    0  502  501  0.00000000000E+00  0.00000000000E+00  0.75309391202E+02  0.75309391202E+02  0.00000000000E+00 0.  1.
         21   -1    0    0  501  502 -0.00000000000E+00 -0.00000000000E+00 -0.13554557667E+04  0.13554557667E+04  0.00000000000E+00 0.  1.
         25    1    1    2    0    0  0.59875968055E+02  0.15691682141E+03 -0.65025661660E+03  0.68313006655E+03  0.12500000000E+03 0.  0.
         25    1    1    2    0    0 -0.15388918934E+03 -0.82978501217E+02 -0.44641406936E+03  0.49545719854E+03  0.12500000000E+03 0.  0.
         25    1    1    2    0    0  0.94013221282E+02 -0.73938320189E+02 -0.18347568950E+03  0.25217789278E+03  0.12500000000E+03 0.  0.
</event>
<event>
 5    0  0.5668330E-005  0.2935586E+03  0.7546771E-02  0.1088506E+00
         21   -1    0    0  502  501  0.00000000000E+00  0.00000000000E+00  0.55077068459E+02  0.55077068459E+02  0.00000000000E+00 0. -1.
         21   -1    0    0  501  502 -0.00000000000E+00 -0.00000000000E+00 -0.15646559217E+04  0.15646559217E+04  0.00000000000E+00 0. -1.
         25    1    1    2    0    0  0.12929226179E+03  0.29683922058E+02 -0.19647417079E+03  0.26800135070E+03  0.12500000000E+03 0.  0.
         25    1    1    2    0    0 -0.49333748336E+02  0.56381345315E+02 -0.70445727840E+03  0.71937315207E+03  0.12500000000E+03 0.  0.
         25    1    1    2    0    0 -0.79958513454E+02 -0.86065267373E+02 -0.60864740404E+03  0.63235848738E+03  0.12500000000E+03 0.  0.
</event>
<event>
 5    0  0.5668330E-005  0.2713535E+03  0.7546771E-02  0.1100507E+00
         21   -1    0    0  502  501  0.00000000000E+00  0.00000000000E+00  0.30469106037E+03  0.30469106037E+03  0.00000000000E+00 0.  1.
         21   -1    0    0  501  502 -0.00000000000E+00 -0.00000000000E+00 -0.24166360555E+03  0.24166360555E+03  0.00000000000E+00 0.  1.
         25    1    1    2    0    0  0.10735076926E+03 -0.52833576219E+02  0.12546522358E+03  0.21373370526E+03  0.12500000000E+03 0.  0.
         25    1    1    2    0    0 -0.42530347804E+02  0.88257955805E+01 -0.11569744644E+03  0.17577720064E+03  0.12500000000E+03 0.  0.
         25    1    1    2    0    0 -0.64820421456E+02  0.44007780639E+02  0.53259677677E+02  0.15684376003E+03  0.12500000000E+03 0.  0.
</event>
<event>
 5    0  0.5668330E-005  0.1205680E+04  0.7546771E-02  0.9107899E-01
         21   -1    0    0  502  501  0.00000000000E+00  0.00000000000E+00  0.20427064333E+04  0.20427064333E+04  0.00000000000E+00 0. -1.
         21   -1    0    0  501  502 -0.00000000000E+00 -0.00000000000E+00 -0.71163635273E+03  0.71163635273E+03  0.00000000000E+00 0. -1.
         25    1    1    2    0    0 -0.23331636679E+03  0.82611757813E+03  0.80950028481E+03  0.11865169577E+04  0.12500000000E+03 0.  0.
         25    1    1    2    0    0 -0.18323235263E+03 -0.90880808816E+03  0.60945187143E+03  0.11164957769E+04  0.12500000000E+03 0.  0.
         25    1    1    2    0    0  0.41654871941E+03  0.82690510032E+02 -0.87882075680E+02  0.45133005142E+03  0.12500000000E+03 0.  0.
</event>
<event>
 5    0  0.5668330E-005  0.3026472E+03  0.7546771E-02  0.1083925E+00
         21   -1    0    0  502  501  0.00000000000E+00  0.00000000000E+00  0.67543985960E+03  0.67543985960E+03  0.00000000000E+00 0.  1.
         21   -1    0    0  501  502 -0.00000000000E+00 -0.00000000000E+00 -0.13560843920E+03  0.13560843920E+03  0.00000000000E+00 0.  1.
         25    1    1    2    0    0 -0.27802004517E+02  0.44836625302E+02  0.16854696272E+03  0.21637086926E+03  0.12500000000E+03 0.  0.
         25    1    1    2    0    0  0.11453188447E+03  0.12739772315E+03  0.87241356024E+02  0.22931154926E+03  0.12500000000E+03 0.  0.
         25    1    1    2    0    0 -0.86729879956E+02 -0.17223434845E+03  0.28404310165E+03  0.36536588027E+03  0.12500000000E+03 0.  0.
</event>
<event>
 5    0  0.7196880E-005  0.5946139E+03  0.7546771E-02  0.9916644E-01
         21   -1    0    0  502  501  0.00000000000E+00  0.00000000000E+00  0.13864757111E+04  0.13864757111E+04  0.00000000000E+00 0.  1.
         21   -1    0    0  501  502 -0.00000000000E+00 -0.00000000000E+00 -0.25501040295E+03  0.25501040295E+03  0.00000000000E+00 0.  1.
         25    1    1    2    0    0 -0.21142911766E+03  0.54017163358E+02  0.44328335038E+03  0.50965209158E+03  0.12500000000E+03 0.  0.
         25    1    1    2    0    0 -0.78838353551E+02 -0.14262813488E+03 -0.13489670092E+03  0.24572421690E+03  0.12500000000E+03 0.  0.
         25    1    1    2    0    0  0.29026747121E+03  0.88610971523E+02  0.82307865866E+03  0.88610980553E+03  0.12500000000E+03 0.  0.
</event>
<event>
 5    0  0.5668330E-005  0.3777976E+03  0.7546771E-02  0.1051751E+00
         21   -1    0    0  502  501  0.00000000000E+00  0.00000000000E+00  0.14783326985E+03  0.14783326985E+03  0.00000000000E+00 0.  1.
         21   -1    0    0  501  502 -0.00000000000E+00 -0.00000000000E+00 -0.96548659099E+03  0.96548659099E+03  0.00000000000E+00 0.  1.
         25    1    1    2    0    0  0.14800554430E+03  0.80147803249E+02 -0.26366541653E+03  0.33685866975E+03  0.12500000000E+03 0.  0.
         25    1    1    2    0    0 -0.64135719299E+02 -0.25574540806E+03 -0.20053388270E+03  0.35405923564E+03  0.12500000000E+03 0.  0.
         25    1    1    2    0    0 -0.83869824997E+02  0.17559760481E+03 -0.35345402191E+03  0.42240195545E+03  0.12500000000E+03 0.  0.
</event>
<event>
 5    0  0.5668330E-005  0.3818387E+03  0.7546771E-02  0.1050256E+00
         21   -1    0    0  502  501  0.00000000000E+00  0.00000000000E+00  0.21702453694E+03  0.21702453694E+03  0.00000000000E+00 0.  1.
         21   -1    0    0  501  502 -0.00000000000E+00 -0.00000000000E+00 -0.67181714353E+03  0.67181714353E+03  0.00000000000E+00 0.  1.
         25    1    1    2    0    0 -0.12696305773E+03  0.36519081230E+02 -0.19197826995E+02  0.18288471200E+03  0.12500000000E+03 0.  0.
         25    1    1    2    0    0  0.70656894163E+02 -0.18632517979E+03 -0.44426911486E+03  0.50270221377E+03  0.12500000000E+03 0.  0.
         25    1    1    2    0    0  0.56306163563E+02  0.14980609856E+03  0.86743352616E+01  0.20325475471E+03  0.12500000000E+03 0.  0.
</event>
<event>
 5    0  0.5668330E-005  0.3570149E+03  0.7546771E-02  0.1059772E+00
         21   -1    0    0  502  501  0.00000000000E+00  0.00000000000E+00  0.28390053564E+03  0.28390053564E+03  0.00000000000E+00 0. -1.
         21   -1    0    0  501  502 -0.00000000000E+00 -0.00000000000E+00 -0.44895879711E+03  0.44895879711E+03  0.00000000000E+00 0. -1.
         25    1    1    2    0    0  0.26590023797E+02 -0.20493210884E+03 -0.15178915904E+03  0.28525277808E+03  0.12500000000E+03 0.  0.
         25    1    1    2    0    0 -0.47372494003E+01  0.81261251934E+02 -0.15912195895E+03  0.21810692428E+03  0.12500000000E+03 0.  0.
         25    1    1    2    0    0 -0.21852774397E+02  0.12367085691E+03  0.14585285651E+03  0.22949963039E+03  0.12500000000E+03 0.  0.
</event>
<event>
 5    0  0.5668330E-005  0.2695325E+03  0.7546771E-02  0.1101547E+00
         21   -1    0    0  502  501  0.00000000000E+00  0.00000000000E+00  0.95317953879E+02  0.95317953879E+02  0.00000000000E+00 0. -1.
         21   -1    0    0  501  502 -0.00000000000E+00 -0.00000000000E+00 -0.76216264030E+03  0.76216264030E+03  0.00000000000E+00 0. -1.
         25    1    1    2    0    0 -0.27883432122E+02 -0.12541806263E+03 -0.12566879216E+03  0.21891738520E+03  0.12500000000E+03 0.  0.
         25    1    1    2    0    0  0.21690911585E+02 -0.30680149743E+02 -0.14747468943E+03  0.19694047643E+03  0.12500000000E+03 0.  0.
         25    1    1    2    0    0  0.61925205365E+01  0.15609821237E+03 -0.39370120483E+03  0.44162273254E+03  0.12500000000E+03 0.  0.
</event>
<event>
 5    0  0.5668330E-005  0.2198165E+03  0.7546771E-02  0.1134020E+00
         21   -1    0    0  502  501  0.00000000000E+00  0.00000000000E+00  0.75977899513E+02  0.75977899513E+02  0.00000000000E+00 0. -1.
         21   -1    0    0  501  502 -0.00000000000E+00 -0.00000000000E+00 -0.63596511103E+03  0.63596511103E+03  0.00000000000E+00 0. -1.
         25    1    1    2    0    0  0.38738324022E+02  0.29219162027E+01 -0.13081006052E+03  0.18505530869E+03  0.12500000000E+03 0.  0.
         25    1    1    2    0    0  0.65645746708E+02  0.51826994318E+01 -0.17511780098E+03  0.22500548583E+03  0.12500000000E+03 0.  0.
         25    1    1    2    0    0 -0.10438407073E+03 -0.81046156345E+01 -0.25405935002E+03  0.30188221602E+03  0.12500000000E+03 0.  0.
</event>
<event>
 5    0  0.5668330E-005  0.3098647E+03  0.7546771E-02  0.1080411E+00
         21   -1    0    0  502  501  0.00000000000E+00  0.00000000000E+00  0.13406325079E+03  0.13406325079E+03  0.00000000000E+00 0. -1.
         21   -1    0    0  501  502 -0.00000000000E+00 -0.00000000000E+00 -0.71620045484E+03  0.71620045484E+03  0.00000000000E+00 0. -1.
         25    1    1    2    0    0 -0.10895841934E+03 -0.26343382900E+02 -0.40491933510E+03  0.43834983621E+03  0.12500000000E+03 0.  0.
         25    1    1    2    0    0  0.92116751404E+02  0.20202111063E+02  0.39138523730E+02  0.16140150315E+03  0.12500000000E+03 0.  0.
         25    1    1    2    0    0  0.16841667937E+02  0.61412718374E+01 -0.21635639267E+03  0.25051236626E+03  0.12500000000E+03 0.  0.
</event>
<event>
 5    0  0.5668330E-005  0.2849159E+03  0.7546771E-02  0.1093034E+00
         21   -1    0    0  502  501  0.00000000000E+00  0.00000000000E+00  0.54918115278E+02  0.54918115278E+02  0.00000000000E+00 0. -1.
         21   -1    0    0  501  502 -0.00000000000E+00 -0.00000000000E+00 -0.14781476598E+04  0.14781476598E+04  0.00000000000E+00 0. -1.
         25    1    1    2    0    0 -0.71205809460E+02 -0.18207378613E+03 -0.57347945507E+03  0.61864757033E+03  0.12500000000E+03 0.  0.
         25    1    1    2    0    0  0.34626650829E+01  0.11013938714E+03 -0.55345500485E+03  0.57799664103E+03  0.12500000000E+03 0.  0.
         25    1    1    2    0    0  0.67743144377E+02  0.71934398988E+02 -0.29629508456E+03  0.33642156367E+03  0.12500000000E+03 0.  0.
</event>
<event>
 5    0  0.5668330E-005  0.2414083E+03  0.7546771E-02  0.1118858E+00
         21   -1    0    0  502  501  0.00000000000E+00  0.00000000000E+00  0.34039210173E+03  0.34039210173E+03  0.00000000000E+00 0. -1.
         21   -1    0    0  501  502 -0.00000000000E+00 -0.00000000000E+00 -0.17120829279E+03  0.17120829279E+03  0.00000000000E+00 0. -1.
         25    1    1    2    0    0 -0.21350035466E+02 -0.23618950379E+02 -0.14798161538E+02  0.12983706873E+03  0.12500000000E+03 0.  0.
         25    1    1    2    0    0  0.11736848544E+03  0.37768195552E+02  0.84645253382E+02  0.19491438349E+03  0.12500000000E+03 0.  0.
         25    1    1    2    0    0 -0.96018449977E+02 -0.14149245173E+02  0.99336717094E+02  0.18684894230E+03  0.12500000000E+03 0.  0.
</event>
<event>
 5    0  0.5668330E-005  0.3826411E+03  0.7546771E-02  0.1049962E+00
         21   -1    0    0  502  501  0.00000000000E+00  0.00000000000E+00  0.24697472427E+03  0.24697472427E+03  0.00000000000E+00 0.  1.
         21   -1    0    0  501  502 -0.00000000000E+00 -0.00000000000E+00 -0.59283084887E+03  0.59283084887E+03  0.00000000000E+00 0.  1.
         25    1    1    2    0    0  0.11065295285E+03  0.18818008531E+03  0.50279123787E+02  0.25653228017E+03  0.12500000000E+03 0.  0.
         25    1    1    2    0    0 -0.18594677964E+03 -0.16883485216E+03 -0.27120943357E+03  0.39020631597E+03  0.12500000000E+03 0.  0.
         25    1    1    2    0    0  0.75293826790E+02 -0.19345233154E+02 -0.12492581482E+03  0.19306697700E+03  0.12500000000E+03 0.  0.
</event>
<event>
 5    0  0.5668330E-005  0.2979895E+03  0.7546771E-02  0.1086250E+00
         21   -1    0    0  502  501  0.00000000000E+00  0.00000000000E+00  0.14296020102E+04  0.14296020102E+04  0.00000000000E+00 0.  1.
         21   -1    0    0  501  502 -0.00000000000E+00 -0.00000000000E+00 -0.62113629718E+02  0.62113629718E+02  0.00000000000E+00 0.  1.
         25    1    1    2    0    0 -0.86404701816E+01 -0.33023848309E+02  0.28379346263E+03  0.31197589926E+03  0.12500000000E+03 0.  0.
         25    1    1    2    0    0  0.17642843015E+03  0.10380683223E+03  0.47318755823E+03  0.53050383094E+03  0.12500000000E+03 0.  0.
         25    1    1    2    0    0 -0.16778795996E+03 -0.70782983920E+02  0.61050735958E+03  0.64923590969E+03  0.12500000000E+03 0.  0.
</event>
<event>
 5    0  0.5668330E-005  0.4260975E+03  0.7546771E-02  0.1035100E+00
         21   -1    0    0  502  501  0.00000000000E+00  0.00000000000E+00  0.27845466260E+03  0.27845466260E+03  0.00000000000E+00 0.  1.
         21   -1    0    0  501  502 -0.00000000000E+00 -0.00000000000E+00 -0.65202392067E+03  0.65202392067E+03  0.00000000000E+00 0.  1.
         25    1    1    2    0    0  0.16957527781E+03  0.13832614460E+03 -0.90279992121E+02  0.26770389258E+03  0.12500000000E+03 0.  0.
         25    1    1    2    0    0 -0.52876281915E+02  0.16938698629E+03 -0.21236306885E+03  0.30366251881E+03  0.12500000000E+03 0.  0.
         25    1    1    2    0    0 -0.11669899589E+03 -0.30771313089E+03 -0.70926197094E+02  0.35911217189E+03  0.12500000000E+03 0.  0.
</event>
<event>
 5    0  0.5668330E-005  0.2955012E+03  0.7546771E-02  0.1087511E+00
         21   -1    0    0  502  501  0.00000000000E+00  0.00000000000E+00  0.69674132808E+02  0.69674132808E+02  0.00000000000E+00 0.  1.
         21   -1    0    0  501  502 -0.00000000000E+00 -0.00000000000E+00 -0.12532765936E+04  0.12532765936E+04  0.00000000000E+00 0.  1.
         25    1    1    2    0    0  0.92908700146E+02 -0.24214520662E+02 -0.15132964609E+03  0.21850407630E+03  0.12500000000E+03 0.  0.
         25    1    1    2    0    0  0.56975963244E-01  0.38044030158E+02 -0.86744618869E+03  0.87723157817E+03  0.12500000000E+03 0.  0.
         25    1    1    2    0    0 -0.92965676109E+02 -0.13829509496E+02 -0.16482662599E+03  0.22721507191E+03  0.12500000000E+03 0.  0.
</event>
<event>
 5    0  0.5668330E-005  0.2502805E+03  0.7546771E-02  0.1113128E+00
         21   -1    0    0  502  501  0.00000000000E+00  0.00000000000E+00  0.69795719556E+03  0.69795719556E+03  0.00000000000E+00 0.  1.
         21   -1    0    0  501  502 -0.00000000000E+00 -0.00000000000E+00 -0.89748072861E+02  0.89748072861E+02  0.00000000000E+00 0.  1.
         25    1    1    2    0    0  0.55388011503E+02 -0.58684301354E+02  0.29612332947E+03  0.33139961572E+03  0.12500000000E+03 0.  0.
         25    1    1    2    0    0  0.48186319016E+02  0.84183057603E+02  0.20970041044E+03  0.26269368220E+03  0.12500000000E+03 0.  0.
         25    1    1    2    0    0 -0.10357433052E+03 -0.25498756249E+02  0.10238538279E+03  0.19361197050E+03  0.12500000000E+03 0.  0.
</event>
<event>
 5    0  0.5668330E-005  0.4531347E+03  0.7546771E-02  0.1026791E+00
         21   -1    0    0  502  501  0.00000000000E+00  0.00000000000E+00  0.12346352239E+03  0.12346352239E+03  0.00000000000E+00 0.  1.
         21   -1    0    0  501  502 -0.00000000000E+00 -0.00000000000E+00 -0.16630908076E+04  0.16630908076E+04  0.00000000000E+00 0.  1.
         25    1    1    2    0    0  0.57049912472E+02  0.35416618260E+03 -0.80907762461E+03  0.89382323759E+03  0.12500000000E+03 0.  0.
         25    1    1    2    0    0 -0.13281412796E+03 -0.29935234972E+03 -0.56723693555E+03  0.66680894034E+03  0.12500000000E+03 0.  0.
         25    1    1    2    0    0  0.75764215490E+02 -0.54813832886E+02 -0.16331272506E+03  0.22592215206E+03  0.12500000000E+03 0.  0.
</event>
<event>
 5    0  0.5668330E-005  0.2496920E+03  0.7546771E-02  0.1113500E+00
         21   -1    0    0  502  501  0.00000000000E+00  0.00000000000E+00  0.80545845954E+02  0.80545845954E+02  0.00000000000E+00 0. -1.
         21   -1    0    0  501  502 -0.00000000000E+00 -0.00000000000E+00 -0.77404471643E+03  0.77404471643E+03  0.00000000000E+00 0. -1.
         25    1    1    2    0    0 -0.65762579769E+02 -0.53113519663E+02 -0.31619260109E+03  0.35035485419E+03  0.12500000000E+03 0.  0.
         25    1    1    2    0    0 -0.25266105419E+02 -0.24769395334E+01 -0.48140796293E+02  0.13633432283E+03  0.12500000000E+03 0.  0.
         25    1    1    2    0    0  0.91028685188E+02  0.55590459197E+02 -0.32916547309E+03  0.36790138537E+03  0.12500000000E+03 0.  0.
</event>
<event>
 5    0  0.5668330E-005  0.2504312E+03  0.7546771E-02  0.1113033E+00
         21   -1    0    0  502  501  0.00000000000E+00  0.00000000000E+00  0.56401602071E+03  0.56401602071E+03  0.00000000000E+00 0.  1.
         21   -1    0    0  501  502 -0.00000000000E+00 -0.00000000000E+00 -0.11119508489E+03  0.11119508489E+03  0.00000000000E+00 0.  1.
         25    1    1    2    0    0 -0.16380406322E+02 -0.15045507608E+02  0.54812141984E+02  0.13828975349E+03  0.12500000000E+03 0.  0.
         25    1    1    2    0    0  0.32694679950E+02  0.10704028364E+03  0.32254468252E+03  0.36357480199E+03  0.12500000000E+03 0.  0.
         25    1    1    2    0    0 -0.16314273628E+02 -0.91994776036E+02  0.75464111313E+02  0.17334655012E+03  0.12500000000E+03 0.  0.
</event>
<event>
 5    0  0.5668330E-005  0.2918203E+03  0.7546771E-02  0.1089403E+00
         21   -1    0    0  502  501  0.00000000000E+00  0.00000000000E+00  0.13224849326E+04  0.13224849326E+04  0.00000000000E+00 0. -1.
         21   -1    0    0  501  502 -0.00000000000E+00 -0.00000000000E+00 -0.64393256791E+02  0.64393256791E+02  0.00000000000E+00 0. -1.
         25    1    1    2    0    0  0.73551291542E+02  0.82734660298E+02  0.11759760320E+03  0.20422784526E+03  0.12500000000E+03 0.  0.
         25    1    1    2    0    0 -0.86588057100E+02 -0.12422381725E+02  0.39635708470E+03  0.42470665852E+03  0.12500000000E+03 0.  0.
         25    1    1    2    0    0  0.13036765558E+02 -0.70312278572E+02  0.74413698787E+03  0.75794368557E+03  0.12500000000E+03 0.  0.
</event>
<event>
 5    0  0.5977418E-005  0.5381583E+03  0.7546771E-02  0.1004273E+00
         21   -1    0    0  502  501  0.00000000000E+00  0.00000000000E+00  0.12321888850E+03  0.12321888850E+03  0.00000000000E+00 0. -1.
         21   -1    0    0  501  502 -0.00000000000E+00 -0.00000000000E+00 -0.23504053274E+04  0.23504053274E+04  0.00000000000E+00 0. -1.
         25    1    1    2    0    0 -0.28532290486E+03 -0.24472899055E+02 -0.13071721371E+04  0.13439985413E+04  0.12500000000E+03 0.  0.
         25    1    1    2    0    0  0.28969142006E+02 -0.20593653153E+03 -0.17463490107E+03  0.29895052246E+03  0.12500000000E+03 0.  0.
         25    1    1    2    0    0  0.25635376286E+03  0.23040943059E+03 -0.74537940064E+03  0.83067515211E+03  0.12500000000E+03 0.  0.
</event>
<event>
 5    0  0.5668330E-005  0.4510268E+03  0.7546771E-02  0.1027416E+00
         21   -1    0    0  502  501  0.00000000000E+00  0.00000000000E+00  0.10129690418E+04  0.10129690418E+04  0.00000000000E+00 0.  1.
         21   -1    0    0  501  502 -0.00000000000E+00 -0.00000000000E+00 -0.20082074549E+03  0.20082074549E+03  0.00000000000E+00 0.  1.
         25    1    1    2    0    0 -0.66870991070E+02  0.28958288961E+02  0.13197070013E+03  0.19583558829E+03  0.12500000000E+03 0.  0.
         25    1    1    2    0    0  0.10062053537E+03 -0.35805133788E+03  0.44486577293E+03  0.59317434926E+03  0.12500000000E+03 0.  0.
         25    1    1    2    0    0 -0.33749544298E+02  0.32909304892E+03  0.23531182325E+03  0.42477984974E+03  0.12500000000E+03 0.  0.
</event>
<event>
 5    0  0.5668330E-005  0.2601621E+03  0.7546771E-02  0.1107046E+00
         21   -1    0    0  502  501  0.00000000000E+00  0.00000000000E+00  0.16950881800E+04  0.16950881800E+04  0.00000000000E+00 0.  1.
         21   -1    0    0  501  502 -0.00000000000E+00 -0.00000000000E+00 -0.39929671387E+02  0.39929671387E+02  0.00000000000E+00 0.  1.
         25    1    1    2    0    0 -0.70502234223E+02  0.84115610450E+01  0.87353956575E+03  0.88528960929E+03  0.12500000000E+03 0.  0.
         25    1    1    2    0    0 -0.70388649378E+02  0.23146853237E+01  0.30229735626E+03  0.33461711153E+03  0.12500000000E+03 0.  0.
         25    1    1    2    0    0  0.14089088360E+03 -0.10726246369E+02  0.47932158658E+03  0.51511113054E+03  0.12500000000E+03 0.  0.
</event>
<event>
 5    0  0.5668330E-005  0.2708936E+03  0.7546771E-02  0.1100769E+00
         21   -1    0    0  502  501  0.00000000000E+00  0.00000000000E+00  0.24435710017E+03  0.24435710017E+03  0.00000000000E+00 0. -1.
         21   -1    0    0  501  502 -0.00000000000E+00 -0.00000000000E+00 -0.30031186768E+03  0.30031186768E+03  0.00000000000E+00 0. -1.
         25    1    1    2    0    0  0.12847879146E+03  0.65705224645E+02 -0.73203515719E+02  0.20446938919E+03  0.12500000000E+03 0.  0.
         25    1    1    2    0    0 -0.69414953553E+02 -0.11709412874E+03 -0.25681786029E+02  0.18658516794E+03  0.12500000000E+03 0.  0.
         25    1    1    2    0    0 -0.59063837905E+02  0.51388904095E+02  0.42930534231E+02  0.15361441072E+03  0.12500000000E+03 0.  0.
</event>
<event>
 5    0  0.5668330E-005  0.2456100E+03  0.7546771E-02  0.1116111E+00
         21   -1    0    0  502  501  0.00000000000E+00  0.00000000000E+00  0.19138619794E+03  0.19138619794E+03  0.00000000000E+00 0.  1.
         21   -1    0    0  501  502 -0.00000000000E+00 -0.00000000000E+00 -0.31519665591E+03  0.31519665591E+03  0.00000000000E+00 0.  1.
         25    1    1    2    0    0 -0.63041206695E+02  0.23383163315E+02 -0.16270200655E+03  0.21591180839E+03  0.12500000000E+03 0.  0.
         25    1    1    2    0    0  0.59462635440E+02 -0.64616687463E+02 -0.20615421861E+01  0.15277555848E+03  0.12500000000E+03 0.  0.
         25    1    1    2    0    0  0.35785712557E+01  0.41233524148E+02  0.40953090764E+02  0.13789548698E+03  0.12500000000E+03 0.  0.
</event>
<event>
 5    0  0.5668330E-005  0.3671731E+03  0.7546771E-02  0.1055779E+00
         21   -1    0    0  502  501  0.00000000000E+00  0.00000000000E+00  0.42760398744E+03  0.42760398744E+03  0.00000000000E+00 0.  1.
         21   -1    0    0  501  502 -0.00000000000E+00 -0.00000000000E+00 -0.31528260180E+03  0.31528260180E+03  0.00000000000E+00 0.  1.
         25    1    1    2    0    0 -0.18529736565E+03  0.11153747002E+03  0.17193710452E+03  0.30325416542E+03  0.12500000000E+03 0.  0.
         25    1    1    2    0    0  0.38798475935E+02 -0.10812179548E+03 -0.15030265104E+03  0.22674111074E+03  0.12500000000E+03 0.  0.
         25    1    1    2    0    0  0.14649888971E+03 -0.34156745444E+01  0.90686932154E+02  0.21289131307E+03  0.12500000000E+03 0.  0.
</event>
<event>
 5    0  0.5963253E-005  0.6534283E+03  0.7546771E-02  0.9800367E-01
         21   -1    0    0  502  501  0.00000000000E+00  0.00000000000E+00  0.42778360123E+03  0.42778360123E+03  0.00000000000E+00 0. -1.
         21   -1    0    0  501  502 -0.00000000000E+00 -0.00000000000E+00 -0.99809483520E+03  0.99809483520E+03  0.00000000000E+00 0. -1.
         25    1    1    2    0    0 -0.26123600300E+02  0.18929260464E+02 -0.33902454610E+03  0.36277183222E+03  0.12500000000E+03 0.  0.
         25    1    1    2    0    0 -0.42632201509E+03  0.19615501955E+03  0.25770780829E+02  0.48632950290E+03  0.12500000000E+03 0.  0.
         25    1    1    2    0    0  0.45244561539E+03 -0.21508428001E+03 -0.25705746870E+03  0.57677710132E+03  0.12500000000E+03 0.  0.
</event>
<event>
 5    0  0.5668330E-005  0.3949425E+03  0.7546771E-02  0.1045545E+00
         21   -1    0    0  502  501  0.00000000000E+00  0.00000000000E+00  0.66383453343E+03  0.66383453343E+03  0.00000000000E+00 0.  1.
         21   -1    0    0  501  502 -0.00000000000E+00 -0.00000000000E+00 -0.23496760291E+03  0.23496760291E+03  0.00000000000E+00 0.  1.
         25    1    1    2    0    0  0.23077801722E+03  0.32573326870E+02  0.66920796050E+02  0.27280562274E+03  0.12500000000E+03 0.  0.
         25    1    1    2    0    0 -0.27248205056E+02 -0.57620391914E+02 -0.50167984653E+02  0.14901141207E+03  0.12500000000E+03 0.  0.
         25    1    1    2    0    0 -0.20352981216E+03  0.25047065045E+02  0.41211411913E+03  0.47698510154E+03  0.12500000000E+03 0.  0.
</event>
<event>
 5    0  0.5668330E-005  0.2226418E+03  0.7546771E-02  0.1131929E+00
         21   -1    0    0  502  501  0.00000000000E+00  0.00000000000E+00  0.11026159357E+03  0.11026159357E+03  0.00000000000E+00 0.  1.
         21   -1    0    0  501  502 -0.00000000000E+00 -0.00000000000E+00 -0.44956139669E+03  0.44956139669E+03  0.00000000000E+00 0.  1.
         25    1    1    2    0    0  0.12813462428E+01  0.35105992201E+02 -0.56253765670E+02  0.14150462427E+03  0.12500000000E+03 0.  0.
         25    1    1    2    0    0  0.43300751372E+02 -0.83919688621E+02 -0.20098139762E+03  0.25482541356E+03  0.12500000000E+03 0.  0.
         25    1    1    2    0    0 -0.44582097615E+02  0.48813696420E+02 -0.82064639819E+02  0.16349295243E+03  0.12500000000E+03 0.  0.
</event>
<event>
 5    0  0.5668330E-005  0.2786309E+03  0.7546771E-02  0.1096439E+00
         21   -1    0    0  502  501  0.00000000000E+00  0.00000000000E+00  0.15447192679E+03  0.15447192679E+03  0.00000000000E+00 0.  1.
         21   -1    0    0  501  502 -0.00000000000E+00 -0.00000000000E+00 -0.50258442605E+03  0.50258442605E+03  0.00000000000E+00 0.  1.
         25    1    1    2    0    0 -0.51469105075E+02 -0.87624960236E+02 -0.20520207251E+02  0.16239852628E+03  0.12500000000E+03 0.  0.
         25    1    1    2    0    0 -0.35084711284E+02 -0.28936204163E+02 -0.25901480082E+03  0.29117332968E+03  0.12500000000E+03 0.  0.
         25    1    1    2    0    0  0.86553816359E+02  0.11656116440E+03 -0.68577491192E+02  0.20348449688E+03  0.12500000000E+03 0.  0.
</event>
<event>
 5    0  0.5668330E-005  0.2255283E+03  0.7546771E-02  0.1129827E+00
         21   -1    0    0  502  501  0.00000000000E+00  0.00000000000E+00  0.10772567463E+04  0.10772567463E+04  0.00000000000E+00 0.  1.
         21   -1    0    0  501  502 -0.00000000000E+00 -0.00000000000E+00 -0.47215309917E+02  0.47215309917E+02  0.00000000000E+00 0.  1.
         25    1    1    2    0    0 -0.32417138756E+02 -0.32699113661E+02  0.58678877232E+03  0.60171934176E+03  0.12500000000E+03 0.  0.
         25    1    1    2    0    0 -0.27820571285E+01  0.37387919494E+02  0.13274220774E+03  0.18614803271E+03  0.12500000000E+03 0.  0.
         25    1    1    2    0    0  0.35199195885E+02 -0.46888058332E+01  0.31051045628E+03  0.33660468171E+03  0.12500000000E+03 0.  0.
</event>
<event>
 5    0  0.6321605E-005  0.2854946E+03  0.7546771E-02  0.1092725E+00
         21   -1    0    0  502  501  0.00000000000E+00  0.00000000000E+00  0.67132835477E+03  0.67132835477E+03  0.00000000000E+00 0. -1.
         21   -1    0    0  501  502 -0.00000000000E+00 -0.00000000000E+00 -0.12141174169E+03  0.12141174169E+03  0.00000000000E+00 0. -1.
         25    1    1    2    0    0 -0.38827686915E+02  0.18403619383E+03  0.28572290094E+03  0.36419704287E+03  0.12500000000E+03 0.  0.
         25    1    1    2    0    0  0.78617760771E+02 -0.82410225954E+02  0.15868287553E+03  0.23189966071E+03  0.12500000000E+03 0.  0.
         25    1    1    2    0    0 -0.39790073855E+02 -0.10162596788E+03  0.10551083660E+03  0.19664339288E+03  0.12500000000E+03 0.  0.
</event>
<event>
 5    0  0.5668330E-005  0.4799541E+03  0.7546771E-02  0.1019148E+00
         21   -1    0    0  502  501  0.00000000000E+00  0.00000000000E+00  0.30942523453E+03  0.30942523453E+03  0.00000000000E+00 0.  1.
         21   -1    0    0  501  502 -0.00000000000E+00 -0.00000000000E+00 -0.74446409181E+03  0.74446409181E+03  0.00000000000E+00 0.  1.
         25    1    1    2    0    0  0.89972967067E+02 -0.80971939346E+02  0.22152778211E+03  0.28169335812E+03  0.12500000000E+03 0.  0.
         25    1    1    2    0    0 -0.14981727981E+03 -0.47265394666E+02 -0.44760104864E+03  0.49056185502E+03  0.12500000000E+03 0.  0.
         25    1    1    2    0    0  0.59844312742E+02  0.12823733401E+03 -0.20896559075E+03  0.28163411320E+03  0.12500000000E+03 0.  0.
</event>
<event>
 5    0  0.5668330E-005  0.2418970E+03  0.7546771E-02  0.1118536E+00
         21   -1    0    0  502  501  0.00000000000E+00  0.00000000000E+00  0.54662639848E+03  0.54662639848E+03  0.00000000000E+00 0. -1.
         21   -1    0    0  501  502 -0.00000000000E+00 -0.00000000000E+00 -0.10704595888E+03  0.10704595888E+03  0.00000000000E+00 0. -1.
         25    1    1    2    0    0 -0.82283869549E+02  0.71566265945E+02  0.14041511333E+03  0.21733331466E+03  0.12500000000E+03 0.  0.
         25    1    1    2    0    0  0.98152772881E+02 -0.61603065277E+00  0.22023936831E+03  0.27159662309E+03  0.12500000000E+03 0.  0.
         25    1    1    2    0    0 -0.15868903332E+02 -0.70950235293E+02  0.78925957952E+02  0.16474241961E+03  0.12500000000E+03 0.  0.
</event>
<event>
 5    0  0.5668330E-005  0.2917771E+03  0.7546771E-02  0.1089425E+00
         21   -1    0    0  502  501  0.00000000000E+00  0.00000000000E+00  0.17150955087E+03  0.17150955087E+03  0.00000000000E+00 0.  1.
         21   -1    0    0  501  502 -0.00000000000E+00 -0.00000000000E+00 -0.49637964377E+03  0.49637964377E+03  0.00000000000E+00 0.  1.
         25    1    1    2    0    0  0.30988666153E+02  0.10825102339E+03 -0.29028015008E+02  0.17072260293E+03  0.12500000000E+03 0.  0.
         25    1    1    2    0    0  0.53243429275E+02 -0.11209062440E+03 -0.12964661942E+02  0.17661328743E+03  0.12500000000E+03 0.  0.
         25    1    1    2    0    0 -0.84232095429E+02  0.38396010048E+01 -0.28287741595E+03  0.32055330429E+03  0.12500000000E+03 0.  0.
</event>
<event>
 5    0  0.5668330E-005  0.3193240E+03  0.7546771E-02  0.1075961E+00
         21   -1    0    0  502  501  0.00000000000E+00  0.00000000000E+00  0.11462889389E+03  0.11462889389E+03  0.00000000000E+00 0. -1.
         21   -1    0    0  501  502 -0.00000000000E+00 -0.00000000000E+00 -0.88954698029E+03  0.88954698029E+03  0.00000000000E+00 0. -1.
         25    1    1    2    0    0  0.46850576891E+02  0.15908648614E+03 -0.14818201116E+03  0.25512035407E+03  0.12500000000E+03 0.  0.
         25    1    1    2    0    0  0.73189322233E+02 -0.42359178032E+02 -0.45246608865E+03  0.47697121321E+03  0.12500000000E+03 0.  0.
         25    1    1    2    0    0 -0.12003989912E+03 -0.11672730811E+03 -0.17426998659E+03  0.27208430691E+03  0.12500000000E+03 0.  0.
</event>
<event>
 5    0  0.5668330E-005  0.2216327E+03  0.7546771E-02  0.1132672E+00
         21   -1    0    0  502  501  0.00000000000E+00  0.00000000000E+00  0.36038069190E+03  0.36038069190E+03  0.00000000000E+00 0. -1.
         21   -1    0    0  501  502 -0.00000000000E+00 -0.00000000000E+00 -0.13630321678E+03  0.13630321678E+03  0.00000000000E+00 0. -1.
         25    1    1    2    0    0 -0.51566606259E+02 -0.87977113588E+02  0.78548380948E+02  0.17942668571E+03  0.12500000000E+03 0.  0.
         25    1    1    2    0    0  0.43295441589E+02  0.51049074894E+02  0.11638536252E+03  0.18344224137E+03  0.12500000000E+03 0.  0.
         25    1    1    2    0    0  0.82711646704E+01  0.36928038694E+02  0.29143731649E+02  0.13381498160E+03  0.12500000000E+03 0.  0.
</event>
<event>
 5    0  0.5668330E-005  0.3564457E+03  0.7546771E-02  0.1060000E+00
         21   -1    0    0  502  501  0.00000000000E+00  0.00000000000E+00  0.59627314975E+03  0.59627314975E+03  0.00000000000E+00 0. -1.
         21   -1    0    0  501  502 -0.00000000000E+00 -0.00000000000E+00 -0.21307945811E+03  0.21307945811E+03  0.00000000000E+00 0. -1.
         25    1    1    2    0    0 -0.15532036995E+03 -0.41505208789E+02 -0.92254549459E+02  0.22356878488E+03  0.12500000000E+03 0.  0.
         25    1    1    2    0    0  0.73446358563E+02  0.94456155542E+02  0.31982488874E+03  0.36363345881E+03  0.12500000000E+03 0.  0.
         25    1    1    2    0    0  0.81874011387E+02 -0.52950946753E+02  0.15562335235E+03  0.22215036417E+03  0.12500000000E+03 0.  0.
</event>
<event>
 5    0  0.5668330E-005  0.2976661E+03  0.7546771E-02  0.1086413E+00
         21   -1    0    0  502  501  0.00000000000E+00  0.00000000000E+00  0.20005669511E+03  0.20005669511E+03  0.00000000000E+00 0.  1.
         21   -1    0    0  501  502 -0.00000000000E+00 -0.00000000000E+00 -0.44289998107E+03  0.44289998107E+03  0.00000000000E+00 0.  1.
         25    1    1    2    0    0  0.10050265102E+03  0.85021403543E+02 -0.33396417254E+02  0.18457990846E+03  0.12500000000E+03 0.  0.
         25    1    1    2    0    0  0.55602741248E+02 -0.13679740473E+03 -0.14566988421E+03  0.24217743483E+03  0.12500000000E+03 0.  0.
         25    1    1    2    0    0 -0.15610539227E+03  0.51776001186E+02 -0.63776984497E+02  0.21619933290E+03  0.12500000000E+03 0.  0.
</event>
<event>
 5    0  0.6097547E-005  0.2731626E+03  0.7546771E-02  0.1099483E+00
         21   -1    0    0  502  501  0.00000000000E+00  0.00000000000E+00  0.11969214047E+03  0.11969214047E+03  0.00000000000E+00 0.  1.
         21   -1    0    0  501  502 -0.00000000000E+00 -0.00000000000E+00 -0.62341446341E+03  0.62341446341E+03  0.00000000000E+00 0.  1.
         25    1    1    2    0    0  0.22387305938E+02 -0.77137154791E+01 -0.37168564600E+03  0.39285609620E+03  0.12500000000E+03 0.  0.
         25    1    1    2    0    0 -0.86078575409E+02  0.12736516637E+02  0.72724883532E+01  0.15247829054E+03  0.12500000000E+03 0.  0.
         25    1    1    2    0    0  0.63691269471E+02 -0.50228011577E+01 -0.13930916529E+03  0.19777221714E+03  0.12500000000E+03 0.  0.
</event>
<event>
 5    0  0.6017800E-005  0.3631011E+03  0.7546771E-02  0.1057363E+00
         21   -1    0    0  502  501  0.00000000000E+00  0.00000000000E+00  0.32665142902E+03  0.32665142902E+03  0.00000000000E+00 0. -1.
         21   -1    0    0  501  502 -0.00000000000E+00 -0.00000000000E+00 -0.40361803087E+03  0.40361803087E+03  0.00000000000E+00 0. -1.
         25    1    1    2    0    0  0.13019758589E+03  0.57114399753E+02 -0.69161497930E+01  0.18943679463E+03  0.12500000000E+03 0.  0.
         25    1    1    2    0    0 -0.19671533435E+03 -0.97220354064E+02  0.13661784848E+03  0.28712045649E+03  0.12500000000E+03 0.  0.
         25    1    1    2    0    0  0.66517748458E+02  0.40105954310E+02 -0.20666830054E+03  0.25371220877E+03  0.12500000000E+03 0.  0.
</event>
<event>
 5    0  0.5668330E-005  0.3221133E+03  0.7546771E-02  0.1074681E+00
         21   -1    0    0  502  501  0.00000000000E+00  0.00000000000E+00  0.33801143773E+03  0.33801143773E+03  0.00000000000E+00 0.  1.
         21   -1    0    0  501  502 -0.00000000000E+00 -0.00000000000E+00 -0.30696288120E+03  0.30696288120E+03  0.00000000000E+00 0.  1.
         25    1    1    2    0    0  0.37915316949E+02  0.16162462370E+03 -0.14585035419E+03  0.25388465110E+03  0.12500000000E+03 0.  0.
         25    1    1    2    0    0 -0.10618745307E+03 -0.65606380170E+02  0.80636017722E+02  0.19418326309E+03  0.12500000000E+03 0.  0.
         25    1    1    2    0    0  0.68272136123E+02 -0.96018243531E+02  0.96262892998E+02  0.19690640475E+03  0.12500000000E+03 0.  0.
</event>
<event>
 5    0  0.5668330E-005  0.3165509E+03  0.7546771E-02  0.1077248E+00
         21   -1    0    0  502  501  0.00000000000E+00  0.00000000000E+00  0.56643878751E+03  0.56643878751E+03  0.00000000000E+00 0. -1.
         21   -1    0    0  501  502 -0.00000000000E+00 -0.00000000000E+00 -0.17690252546E+03  0.17690252546E+03  0.00000000000E+00 0. -1.
         25    1    1    2    0    0  0.14165240172E+01  0.15062476319E+03  0.11823047789E+03  0.22867722171E+03  0.12500000000E+03 0.  0.
         25    1    1    2    0    0 -0.13446217299E+03 -0.75917957864E+02  0.26726596854E+02  0.20045678654E+03  0.12500000000E+03 0.  0.
         25    1    1    2    0    0  0.13304564897E+03 -0.74706805330E+02  0.24457918731E+03  0.31420730472E+03  0.12500000000E+03 0.  0.
</event>
<event>
 5    0  0.5668330E-005  0.2683678E+03  0.7546771E-02  0.1102217E+00
         21   -1    0    0  502  501  0.00000000000E+00  0.00000000000E+00  0.64807852046E+02  0.64807852046E+02  0.00000000000E+00 0. -1.
         21   -1    0    0  501  502 -0.00000000000E+00 -0.00000000000E+00 -0.11113045493E+04  0.11113045493E+04  0.00000000000E+00 0. -1.
         25    1    1    2    0    0 -0.74170110830E+02 -0.12710462602E+03 -0.58732250743E+03  0.61824713427E+03  0.12500000000E+03 0.  0.
         25    1    1    2    0    0  0.10216990576E+03  0.62254574242E+02 -0.24082649085E+03  0.29654126248E+03  0.12500000000E+03 0.  0.
         25    1    1    2    0    0 -0.27999794934E+02  0.64850051776E+02 -0.21834769897E+03  0.26132400459E+03  0.12500000000E+03 0.  0.
</event>
<event>
 5    0  0.5668330E-005  0.2091387E+03  0.7546771E-02  0.1142250E+00
         21   -1    0    0  502  501  0.00000000000E+00  0.00000000000E+00  0.26529648011E+03  0.26529648011E+03  0.00000000000E+00 0.  1.
         21   -1    0    0  501  502 -0.00000000000E+00 -0.00000000000E+00 -0.16486841398E+03  0.16486841398E+03  0.00000000000E+00 0.  1.
         25    1    1    2    0    0  0.15726564920E+02 -0.17852321815E+02 -0.13146443368E+02  0.12792130085E+03  0.12500000000E+03 0.  0.
         25    1    1    2    0    0 -0.77061122415E+01 -0.16728411884E+01  0.12245404221E+03  0.17516328102E+03  0.12500000000E+03 0.  0.
         25    1    1    2    0    0 -0.80204526789E+01  0.19525163003E+02 -0.88795327110E+01  0.12708031221E+03  0.12500000000E+03 0.  0.
</event>
<event>
 5    0  0.5668330E-005  0.3318794E+03  0.7546771E-02  0.1070308E+00
         21   -1    0    0  502  501  0.00000000000E+00  0.00000000000E+00  0.95202627012E+03  0.95202627012E+03  0.00000000000E+00 0. -1.
         21   -1    0    0  501  502 -0.00000000000E+00 -0.00000000000E+00 -0.11569419595E+03  0.11569419595E+03  0.00000000000E+00 0. -1.
         25    1    1    2    0    0 -0.97753988743E+02  0.69499191774E+02  0.19182120556E+03  0.25846925325E+03  0.12500000000E+03 0.  0.
         25    1    1    2    0    0  0.16465876620E+03 -0.17610811862E+03  0.53716360814E+03  0.60191055867E+03  0.12500000000E+03 0.  0.
         25    1    1    2    0    0 -0.66904777457E+02  0.10660892685E+03  0.10734726048E+03  0.20734065415E+03  0.12500000000E+03 0.  0.
</event>
<event>
 5    0  0.5668330E-005  0.4985816E+03  0.7546771E-02  0.1014150E+00
         21   -1    0    0  502  501  0.00000000000E+00  0.00000000000E+00  0.18156667262E+03  0.18156667262E+03  0.00000000000E+00 0. -1.
         21   -1    0    0  501  502 -0.00000000000E+00 -0.00000000000E+00 -0.13691036276E+04  0.13691036276E+04  0.00000000000E+00 0. -1.
         25    1    1    2    0    0  0.85217484662E+02  0.17118110601E+00  0.75375697098E+02  0.16902232015E+03  0.12500000000E+03 0.  0.
         25    1    1    2    0    0 -0.28465939965E+02  0.21018312172E+03 -0.94463892253E+03  0.97619411408E+03  0.12500000000E+03 0.  0.
         25    1    1    2    0    0 -0.56751544697E+02 -0.21035430283E+03 -0.31827372957E+03  0.40545386603E+03  0.12500000000E+03 0.  0.
</event>
<event>
 5    0  0.5668330E-005  0.2991518E+03  0.7546771E-02  0.1085665E+00
         21   -1    0    0  502  501  0.00000000000E+00  0.00000000000E+00  0.53768777651E+03  0.53768777651E+03  0.00000000000E+00 0. -1.
         21   -1    0    0  501  502 -0.00000000000E+00 -0.00000000000E+00 -0.16643824665E+03  0.16643824665E+03  0.00000000000E+00 0. -1.
         25    1    1    2    0    0 -0.17992136977E+02 -0.31543689902E+02  0.40948609844E+03  0.42967730470E+03  0.12500000000E+03 0.  0.
         25    1    1    2    0    0  0.32701091506E+01  0.11303733169E+02  0.31078501442E+02  0.12934195471E+03  0.12500000000E+03 0.  0.
         25    1    1    2    0    0  0.14722027827E+02  0.20239956733E+02 -0.69315070019E+02  0.14510676374E+03  0.12500000000E+03 0.  0.
</event>
<event>
 5    0  0.5668330E-005  0.3845733E+03  0.7546771E-02  0.1049256E+00
         21   -1    0    0  502  501  0.00000000000E+00  0.00000000000E+00  0.36790267902E+03  0.36790267902E+03  0.00000000000E+00 0. -1.
         21   -1    0    0  501  502 -0.00000000000E+00 -0.00000000000E+00 -0.40199927808E+03  0.40199927808E+03  0.00000000000E+00 0. -1.
         25    1    1    2    0    0 -0.80207063738E+02  0.94870484397E+02  0.50115082781E+02  0.18322146000E+03  0.12500000000E+03 0.  0.
         25    1    1    2    0    0  0.77452517959E+02 -0.58161602645E+01 -0.29279631470E+03  0.32770017113E+03  0.12500000000E+03 0.  0.
         25    1    1    2    0    0  0.27545457786E+01 -0.89054324132E+02  0.20858463286E+03  0.25898032596E+03  0.12500000000E+03 0.  0.
</event>
<event>
 5    0  0.5668330E-005  0.3221905E+03  0.7546771E-02  0.1074646E+00
         21   -1    0    0  502  501  0.00000000000E+00  0.00000000000E+00  0.44151989211E+03  0.44151989211E+03  0.00000000000E+00 0.  1.
         21   -1    0    0  501  502 -0.00000000000E+00 -0.00000000000E+00 -0.23511219683E+03  0.23511219683E+03  0.00000000000E+00 0.  1.
         25    1    1    2    0    0  0.34871917026E+02 -0.37692161512E+02  0.34189605854E+03  0.36763387287E+03  0.12500000000E+03 0.  0.
         25    1    1    2    0    0  0.17691030251E+02 -0.12022354501E+02 -0.30471593382E+02  0.13042633002E+03  0.12500000000E+03 0.  0.
         25    1    1    2    0    0 -0.52562947276E+02  0.49714516013E+02 -0.10501676988E+03  0.17857188604E+03  0.12500000000E+03 0.  0.
</event>
<event>
 5    0  0.6260444E-005  0.4010034E+03  0.7546771E-02  0.1043433E+00
         21   -1    0    0  502  501  0.00000000000E+00  0.00000000000E+00  0.14871692987E+04  0.14871692987E+04  0.00000000000E+00 0.  1.
         21   -1    0    0  501  502 -0.00000000000E+00 -0.00000000000E+00 -0.10812739069E+03  0.10812739069E+03  0.00000000000E+00 0.  1.
         25    1    1    2    0    0  0.10417516189E+03 -0.15847019778E+03  0.71248587471E+03  0.74781440852E+03  0.12500000000E+03 0.  0.
         25    1    1    2    0    0 -0.10382950443E+03  0.15036260656E+03  0.68589038369E+03  0.72073580311E+03  0.12500000000E+03 0.  0.
         25    1    1    2    0    0 -0.34565746568E+00  0.81075912202E+01 -0.19334350401E+02  0.12674647774E+03  0.12500000000E+03 0.  0.
</event>
<event>
 5    0  0.5668330E-005  0.3483871E+03  0.7546771E-02  0.1063279E+00
         21   -1    0    0  502  501  0.00000000000E+00  0.00000000000E+00  0.14296910843E+03  0.14296910843E+03  0.00000000000E+00 0. -1.
         21   -1    0    0  501  502 -0.00000000000E+00 -0.00000000000E+00 -0.84894968324E+03  0.84894968324E+03  0.00000000000E+00 0. -1.
         25    1    1    2    0    0 -0.25712682152E+03 -0.11257850839E+03 -0.31638996661E+03  0.44103937904E+03  0.12500000000E+03 0.  0.
         25    1    1    2    0    0  0.18716688729E+03  0.41440479631E+02 -0.24521451498E+03  0.33541603331E+03  0.12500000000E+03 0.  0.
         25    1    1    2    0    0  0.69959934230E+02  0.71138028760E+02 -0.14437609322E+03  0.21546337932E+03  0.12500000000E+03 0.  0.
</event>
<event>
 5    0  0.5668330E-005  0.3630357E+03  0.7546771E-02  0.1057388E+00
         21   -1    0    0  502  501  0.00000000000E+00  0.00000000000E+00  0.62055333862E+03  0.62055333862E+03  0.00000000000E+00 0. -1.
         21   -1    0    0  501  502 -0.00000000000E+00 -0.00000000000E+00 -0.21238288199E+03  0.21238288199E+03  0.00000000000E+00 0. -1.
         25    1    1    2    0    0  0.98154429274E+02 -0.16627727415E+02 -0.71978090122E+02  0.17526157241E+03  0.12500000000E+03 0.  0.
         25    1    1    2    0    0 -0.17040251791E+03  0.12121261586E+03  0.38496371929E+03  0.45557829351E+03  0.12500000000E+03 0.  0.
         25    1    1    2    0    0  0.72248088632E+02 -0.10458488845E+03  0.95184827464E+02  0.20209635470E+03  0.12500000000E+03 0.  0.
</event>
<event>
 5    0  0.6856027E-005  0.3711280E+03  0.7546771E-02  0.1054262E+00
         21   -1    0    0  502  501  0.00000000000E+00  0.00000000000E+00  0.24336170078E+03  0.24336170078E+03  0.00000000000E+00 0.  1.
         21   -1    0    0  501  502 -0.00000000000E+00 -0.00000000000E+00 -0.56597227125E+03  0.56597227125E+03  0.00000000000E+00 0. -1.
         25    1    1    2    0    0  0.31629299620E+02  0.20218237373E+03 -0.27417562903E+03  0.36424634575E+03  0.12500000000E+03 0.  0.
         25    1    1    2    0    0  0.11162222368E+03 -0.33782476428E+02  0.41035959211E+02  0.17581162214E+03  0.12500000000E+03 0.  0.
         25    1    1    2    0    0 -0.14325152330E+03 -0.16839989730E+03 -0.89470900654E+02  0.26927600413E+03  0.12500000000E+03 0.  0.
</event>
<event>
 5    0  0.5668330E-005  0.2665206E+03  0.7546771E-02  0.1103288E+00
         21   -1    0    0  502  501  0.00000000000E+00  0.00000000000E+00  0.17173560644E+03  0.17173560644E+03  0.00000000000E+00 0.  1.
         21   -1    0    0  501  502 -0.00000000000E+00 -0.00000000000E+00 -0.41361971047E+03  0.41361971047E+03  0.00000000000E+00 0.  1.
         25    1    1    2    0    0  0.54665738595E+02 -0.79840278578E+01 -0.72254342910E+02  0.15458906089E+03  0.12500000000E+03 0.  0.
         25    1    1    2    0    0 -0.73346921784E+00  0.14599770068E+03 -0.36603001352E+02  0.19565440524E+03  0.12500000000E+03 0.  0.
         25    1    1    2    0    0 -0.53932269377E+02 -0.13801367282E+03 -0.13302675976E+03  0.23511185078E+03  0.12500000000E+03 0.  0.
</event>
<event>
 5    0  0.6937526E-005  0.3056363E+03  0.7546771E-02  0.1082457E+00
         21   -1    0    0  502  501  0.00000000000E+00  0.00000000000E+00  0.31273857061E+03  0.31273857061E+03  0.00000000000E+00 0. -1.
         21   -1    0    0  501  502 -0.00000000000E+00 -0.00000000000E+00 -0.29869526203E+03  0.29869526203E+03  0.00000000000E+00 0. -1.
         25    1    1    2    0    0 -0.77722069800E+02 -0.45925554284E+02  0.93170712834E+02  0.18015454033E+03  0.12500000000E+03 0.  0.
         25    1    1    2    0    0 -0.16420992916E+02  0.15684007166E+02 -0.19604572495E+03  0.23361199319E+03  0.12500000000E+03 0.  0.
         25    1    1    2    0    0  0.94143062715E+02  0.30241547118E+02  0.11691832070E+03  0.19766729913E+03  0.12500000000E+03 0.  0.
</event>
<event>
 5    0  0.5668330E-005  0.3246272E+03  0.7546771E-02  0.1073539E+00
         21   -1    0    0  502  501  0.00000000000E+00  0.00000000000E+00  0.41939697108E+03  0.41939697108E+03  0.00000000000E+00 0.  1.
         21   -1    0    0  501  502 -0.00000000000E+00 -0.00000000000E+00 -0.25127220186E+03  0.25127220186E+03  0.00000000000E+00 0.  1.
         25    1    1    2    0    0  0.66473849984E+02 -0.39066686526E+02  0.70183558562E+02  0.16277503070E+03  0.12500000000E+03 0.  0.
         25    1    1    2    0    0 -0.61723787638E+02  0.14036495559E+01  0.26283589260E+03  0.29752227250E+03  0.12500000000E+03 0.  0.
         25    1    1    2    0    0 -0.47500623459E+01  0.37663036970E+02 -0.16489468194E+03  0.21037186974E+03  0.12500000000E+03 0.  0.
</event>
<event>
 5    0  0.5668330E-005  0.4085864E+03  0.7546771E-02  0.1040846E+00
         21   -1    0    0  502  501  0.00000000000E+00  0.00000000000E+00  0.28823356143E+03  0.28823356143E+03  0.00000000000E+00 0.  1.
         21   -1    0    0  501  502 -0.00000000000E+00 -0.00000000000E+00 -0.57919304926E+03  0.57919304926E+03  0.00000000000E+00 0.  1.
         25    1    1    2    0    0 -0.11108329694E+03 -0.25412312541E+03 -0.25404586779E+03  0.39633617633E+03  0.12500000000E+03 0.  0.
         25    1    1    2    0    0  0.19780272430E+03  0.13856070965E+03  0.17331370977E+02  0.27248920056E+03  0.12500000000E+03 0.  0.
         25    1    1    2    0    0 -0.86719427364E+02  0.11556241576E+03 -0.54244991013E+02  0.19860123380E+03  0.12500000000E+03 0.  0.
</event>
<event>
 5    0  0.5668330E-005  0.2918904E+03  0.7546771E-02  0.1089366E+00
         21   -1    0    0  502  501  0.00000000000E+00  0.00000000000E+00  0.14537955711E+03  0.14537955711E+03  0.00000000000E+00 0. -1.
         21   -1    0    0  501  502 -0.00000000000E+00 -0.00000000000E+00 -0.58605230027E+03  0.58605230027E+03  0.00000000000E+00 0. -1.
         25    1    1    2    0    0 -0.33803692570E+02 -0.12880521737E+03 -0.21540460146E+02  0.18390884991E+03  0.12500000000E+03 0.  0.
         25    1    1    2    0    0 -0.15455822129E+02  0.48389931508E+02 -0.35233679220E+03  0.37728859385E+03  0.12500000000E+03 0.  0.
         25    1    1    2    0    0  0.49259514699E+02  0.80415285861E+02 -0.66795490808E+02  0.17023441362E+03  0.12500000000E+03 0.  0.
</event>
<event>
 5    0  0.5668330E-005  0.4984677E+03  0.7546771E-02  0.1014180E+00
         21   -1    0    0  502  501  0.00000000000E+00  0.00000000000E+00  0.28063788414E+03  0.28063788414E+03  0.00000000000E+00 0. -1.
         21   -1    0    0  501  502 -0.00000000000E+00 -0.00000000000E+00 -0.88537597602E+03  0.88537597602E+03  0.00000000000E+00 0. -1.
         25    1    1    2    0    0  0.10575843573E+03  0.23084520001E+03 -0.62336722652E+03  0.68460649441E+03  0.12500000000E+03 0.  0.
         25    1    1    2    0    0 -0.69588940783E+02 -0.26000418498E+03 -0.89233648390E+02  0.30989101454E+03  0.12500000000E+03 0.  0.
         25    1    1    2    0    0 -0.36169494950E+02  0.29158984978E+02  0.10786278302E+03  0.17151635120E+03  0.12500000000E+03 0.  0.
</event>
<event>
 5    0  0.5668330E-005  0.6398728E+03  0.7546771E-02  0.9825970E-01
         21   -1    0    0  502  501  0.00000000000E+00  0.00000000000E+00  0.12430753544E+04  0.12430753544E+04  0.00000000000E+00 0. -1.
         21   -1    0    0  501  502 -0.00000000000E+00 -0.00000000000E+00 -0.32937443968E+03  0.32937443968E+03  0.00000000000E+00 0.  1.
         25    1    1    2    0    0  0.30751075919E+03 -0.44773308789E+03  0.54483792282E+03  0.77942359930E+03  0.12500000000E+03 0.  0.
         25    1    1    2    0    0 -0.35278631775E+03  0.30452428806E+03  0.16327451824E+03  0.50938864957E+03  0.12500000000E+03 0.  0.
         25    1    1    2    0    0  0.45275558562E+02  0.14320879983E+03  0.20558847370E+03  0.28363754524E+03  0.12500000000E+03 0.  0.
</event>
<event>
 5    0  0.5668330E-005  0.2833487E+03  0.7546771E-02  0.1093874E+00
         21   -1    0    0  502  501  0.00000000000E+00  0.00000000000E+00  0.16559116710E+04  0.16559116710E+04  0.00000000000E+00 0.  1.
         21   -1    0    0  501  502 -0.00000000000E+00 -0.00000000000E+00 -0.48484776791E+02  0.48484776791E+02  0.00000000000E+00 0.  1.
         25    1    1    2    0    0  0.18780222552E+02 -0.15480855292E+03  0.72765751540E+03  0.75460509178E+03  0.12500000000E+03 0.  0.
         25    1    1    2    0    0 -0.47901862652E+02  0.12005598912E+03  0.26131616318E+03  0.31720524287E+03  0.12500000000E+03 0.  0.
         25    1    1    2    0    0  0.29121640100E+02  0.34752563807E+02  0.61845321566E+03  0.63258611317E+03  0.12500000000E+03 0.  0.
</event>
<event>
 5    0  0.5668330E-005  0.4266070E+03  0.7546771E-02  0.1034937E+00
         21   -1    0    0  502  501  0.00000000000E+00  0.00000000000E+00  0.51994033354E+03  0.51994033354E+03  0.00000000000E+00 0. -1.
         21   -1    0    0  501  502 -0.00000000000E+00 -0.00000000000E+00 -0.35002776498E+03  0.35002776498E+03  0.00000000000E+00 0. -1.
         25    1    1    2    0    0 -0.12708392827E+02  0.32407545313E+02 -0.27866025245E+03  0.30738947369E+03  0.12500000000E+03 0.  0.
         25    1    1    2    0    0  0.13397740383E+02  0.75003968125E+02  0.32544180404E+03  0.35685075662E+03  0.12500000000E+03 0.  0.
         25    1    1    2    0    0 -0.68934755608E+00 -0.10741151344E+03  0.12313101697E+03  0.20572786821E+03  0.12500000000E+03 0.  0.
</event>
<event>
 5    0  0.5668330E-005  0.2944524E+03  0.7546771E-02  0.1088047E+00
         21   -1    0    0  502  501  0.00000000000E+00  0.00000000000E+00  0.43073198480E+03  0.43073198480E+03  0.00000000000E+00 0.  1.
         21   -1    0    0  501  502 -0.00000000000E+00 -0.00000000000E+00 -0.20129046290E+03  0.20129046290E+03  0.00000000000E+00 0.  1.
         25    1    1    2    0    0  0.63773950979E+02  0.17377229788E+03  0.35288182152E+02  0.22612868932E+03  0.12500000000E+03 0.  0.
         25    1    1    2    0    0 -0.40888185149E+02 -0.13794025959E+03  0.26393645735E+02  0.19240837673E+03  0.12500000000E+03 0.  0.
         25    1    1    2    0    0 -0.22885765831E+02 -0.35832038290E+02  0.16775969401E+03  0.21348538166E+03  0.12500000000E+03 0.  0.
</event>
<event>
 5    0  0.5668330E-005  0.2886738E+03  0.7546771E-02  0.1091044E+00
         21   -1    0    0  502  501  0.00000000000E+00  0.00000000000E+00  0.11586539959E+04  0.11586539959E+04  0.00000000000E+00 0.  1.
         21   -1    0    0  501  502 -0.00000000000E+00 -0.00000000000E+00 -0.71921893636E+02  0.71921893636E+02  0.00000000000E+00 0.  1.
         25    1    1    2    0    0  0.12768397889E+03  0.19746808613E+02  0.52337663423E+03  0.55339067229E+03  0.12500000000E+03 0.  0.
         25    1    1    2    0    0  0.41954592356E+02 -0.62324550284E+02  0.13894071334E+03  0.20143003552E+03  0.12500000000E+03 0.  0.
         25    1    1    2    0    0 -0.16963857125E+03  0.42577741671E+02  0.42441475474E+03  0.47575518177E+03  0.12500000000E+03 0.  0.
</event>
<event>
 5    0  0.5668330E-005  0.2591810E+03  0.7546771E-02  0.1107636E+00
         21   -1    0    0  502  501  0.00000000000E+00  0.00000000000E+00  0.17038052687E+03  0.17038052687E+03  0.00000000000E+00 0. -1.
         21   -1    0    0  501  502 -0.00000000000E+00 -0.00000000000E+00 -0.39426330514E+03  0.39426330514E+03  0.00000000000E+00 0. -1.
         25    1    1    2    0    0  0.38147947469E+02  0.90205026491E+02 -0.21698981463E+03  0.26888992609E+03  0.12500000000E+03 0.  0.
         25    1    1    2    0    0  0.36717729191E+02 -0.31222540659E+02  0.22478595006E+02  0.13584301938E+03  0.12500000000E+03 0.  0.
         25    1    1    2    0    0 -0.74865676660E+02 -0.58982485832E+02 -0.29371558650E+02  0.15991088654E+03  0.12500000000E+03 0.  0.
</event>
<event>
 5    0  0.5668330E-005  0.2386690E+03  0.7546771E-02  0.1120683E+00
         21   -1    0    0  502  501  0.00000000000E+00  0.00000000000E+00  0.62993889555E+02  0.62993889555E+02  0.00000000000E+00 0. -1.
         21   -1    0    0  501  502 -0.00000000000E+00 -0.00000000000E+00 -0.90426091555E+03  0.90426091555E+03  0.00000000000E+00 0. -1.
         25    1    1    2    0    0 -0.37695974770E+02  0.90419002665E+02 -0.43963483442E+03  0.46744023168E+03  0.12500000000E+03 0.  0.
         25    1    1    2    0    0  0.41413087033E+01 -0.58925711298E+02 -0.10168936808E+03  0.17162493254E+03  0.12500000000E+03 0.  0.
         25    1    1    2    0    0  0.33554666067E+02 -0.31493291367E+02 -0.29994282349E+03  0.32818964088E+03  0.12500000000E+03 0.  0.
</event>
<event>
 5    0  0.5668330E-005  0.6211608E+03  0.7546771E-02  0.9862451E-01
         21   -1    0    0  502  501  0.00000000000E+00  0.00000000000E+00  0.50023351825E+03  0.50023351825E+03  0.00000000000E+00 0. -1.
         21   -1    0    0  501  502 -0.00000000000E+00 -0.00000000000E+00 -0.77132128305E+03  0.77132128305E+03  0.00000000000E+00 0. -1.
         25    1    1    2    0    0  0.19715535025E+03 -0.49775817319E+03  0.10798372542E+03  0.56028467413E+03  0.12500000000E+03 0.  0.
         25    1    1    2    0    0 -0.69217254731E+02  0.18202470434E+03 -0.93839172967E+02  0.24970945462E+03  0.12500000000E+03 0.  0.
         25    1    1    2    0    0 -0.12793809552E+03  0.31573346885E+03 -0.28523231726E+03  0.46156067256E+03  0.12500000000E+03 0.  0.
</event>
<event>
 5    0  0.5668330E-005  0.2800395E+03  0.7546771E-02  0.1095667E+00
         21   -1    0    0  502  501  0.00000000000E+00  0.00000000000E+00  0.14970807054E+03  0.14970807054E+03  0.00000000000E+00 0. -1.
         21   -1    0    0  501  502 -0.00000000000E+00 -0.00000000000E+00 -0.52383348280E+03  0.52383348280E+03  0.00000000000E+00 0. -1.
         25    1    1    2    0    0  0.69859839650E+02  0.22311985102E+02 -0.11163606129E+02  0.14535421555E+03  0.12500000000E+03 0.  0.
         25    1    1    2    0    0 -0.13132127274E+02 -0.12352354678E+03 -0.29696073425E+03  0.34531318692E+03  0.12500000000E+03 0.  0.
         25    1    1    2    0    0 -0.56727712375E+02  0.10121156168E+03 -0.66001071874E+02  0.18287415087E+03  0.12500000000E+03 0.  0.
</event>
<event>
 5    0  0.5668330E-005  0.3161224E+03  0.7546771E-02  0.1077448E+00
         21   -1    0    0  502  501  0.00000000000E+00  0.00000000000E+00  0.34555496387E+03  0.34555496387E+03  0.00000000000E+00 0.  1.
         21   -1    0    0  501  502 -0.00000000000E+00 -0.00000000000E+00 -0.28919668313E+03  0.28919668313E+03  0.00000000000E+00 0.  1.
         25    1    1    2    0    0  0.11442440980E+03  0.78691013213E+01  0.41949721260E+02  0.17475596536E+03  0.12500000000E+03 0.  0.
         25    1    1    2    0    0 -0.73839487154E+02  0.15837077174E+03  0.92821077390E+02  0.23403914975E+03  0.12500000000E+03 0.  0.
         25    1    1    2    0    0 -0.40584922646E+02 -0.16623987307E+03 -0.78412517907E+02  0.22595653190E+03  0.12500000000E+03 0.  0.
</event>
<event>
 5    0  0.5668330E-005  0.1955121E+03  0.7546771E-02  0.1153582E+00
         21   -1    0    0  502  501  0.00000000000E+00  0.00000000000E+00  0.16898166076E+03  0.16898166076E+03  0.00000000000E+00 0. -1.
         21   -1    0    0  501  502 -0.00000000000E+00 -0.00000000000E+00 -0.22620785357E+03  0.22620785357E+03  0.00000000000E+00 0. -1.
         25    1    1    2    0    0 -0.58392048427E+00  0.35831444812E+02 -0.30376342979E+02  0.13353634566E+03  0.12500000000E+03 0.  0.
         25    1    1    2    0    0  0.19681826514E+02  0.49411450434E+01 -0.23184707496E+02  0.12874129047E+03  0.12500000000E+03 0.  0.
         25    1    1    2    0    0 -0.19097906029E+02 -0.40772589855E+02 -0.36651423312E+01  0.13291187820E+03  0.12500000000E+03 0.  0.
</event>
<event>
 5    0  0.5668330E-005  0.2437605E+03  0.7546771E-02  0.1117313E+00
         21   -1    0    0  502  501  0.00000000000E+00  0.00000000000E+00  0.79504901653E+02  0.79504901653E+02  0.00000000000E+00 0.  1.
         21   -1    0    0  501  502 -0.00000000000E+00 -0.00000000000E+00 -0.74736479849E+03  0.74736479849E+03  0.00000000000E+00 0.  1.
         25    1    1    2    0    0  0.54757541792E+02  0.34418614314E+02 -0.38725823925E+03  0.41204001415E+03  0.12500000000E+03 0.  0.
         25    1    1    2    0    0 -0.92092191253E+02  0.38624033019E+01 -0.86270519656E+02  0.17766117305E+03  0.12500000000E+03 0.  0.
         25    1    1    2    0    0  0.37334649461E+02 -0.38281017616E+02 -0.19433113793E+03  0.23716851294E+03  0.12500000000E+03 0.  0.
</event>
<event>
 5    0  0.5668330E-005  0.2336091E+03  0.7546771E-02  0.1124125E+00
         21   -1    0    0  502  501  0.00000000000E+00  0.00000000000E+00  0.85633151411E+03  0.85633151411E+03  0.00000000000E+00 0.  1.
         21   -1    0    0  501  502 -0.00000000000E+00 -0.00000000000E+00 -0.63729051438E+02  0.63729051438E+02  0.00000000000E+00 0.  1.
         25    1    1    2    0    0  0.95878005858E+02 -0.25107782884E+02  0.31991904330E+03  0.35748592564E+03  0.12500000000E+03 0.  0.
         25    1    1    2    0    0 -0.19613891570E+01 -0.12784233561E+02  0.11486110663E+03  0.17025086635E+03  0.12500000000E+03 0.  0.
         25    1    1    2    0    0 -0.93916616701E+02  0.37892016444E+02  0.35782231274E+03  0.39232377356E+03  0.12500000000E+03 0.  0.
</event>
<event>
 5    0  0.5668330E-005  0.3137566E+03  0.7546771E-02  0.1078559E+00
         21   -1    0    0  502  501  0.00000000000E+00  0.00000000000E+00  0.19920542275E+03  0.19920542275E+03  0.00000000000E+00 0. -1.
         21   -1    0    0  501  502 -0.00000000000E+00 -0.00000000000E+00 -0.49417938164E+03  0.49417938164E+03  0.00000000000E+00 0. -1.
         25    1    1    2    0    0 -0.16819843514E+03  0.23099457920E+02  0.18054908797E+02  0.21160169723E+03  0.12500000000E+03 0.  0.
         25    1    1    2    0    0  0.60469559207E+01  0.43568532775E+02 -0.49459195314E+02  0.14144254920E+03  0.12500000000E+03 0.  0.
         25    1    1    2    0    0  0.16215147922E+03 -0.66667990695E+02 -0.26356967237E+03  0.34034055795E+03  0.12500000000E+03 0.  0.
</event>
<event>
 5    0  0.5668330E-005  0.2972970E+03  0.7546771E-02  0.1086600E+00
         21   -1    0    0  502  501  0.00000000000E+00  0.00000000000E+00  0.16183227814E+04  0.16183227814E+04  0.00000000000E+00 0. -1.
         21   -1    0    0  501  502 -0.00000000000E+00 -0.00000000000E+00 -0.54615485891E+02  0.54615485891E+02  0.00000000000E+00 0. -1.
         25    1    1    2    0    0 -0.68897406578E+02  0.17205847605E+02  0.16198578567E+03  0.21658090540E+03  0.12500000000E+03 0.  0.
         25    1    1    2    0    0  0.81680348873E+02 -0.49579433333E+00  0.20868288656E+03  0.25660372629E+03  0.12500000000E+03 0.  0.
         25    1    1    2    0    0 -0.12782942295E+02 -0.16710053272E+02  0.11930386233E+04  0.11997536356E+04  0.12500000000E+03 0.  0.
</event>
<event>
 5    0  0.5668330E-005  0.3723497E+03  0.7546771E-02  0.1053798E+00
         21   -1    0    0  502  501  0.00000000000E+00  0.00000000000E+00  0.40325298608E+02  0.40325298608E+02  0.00000000000E+00 0. -1.
         21   -1    0    0  501  502 -0.00000000000E+00 -0.00000000000E+00 -0.34381461600E+04  0.34381461600E+04  0.00000000000E+00 0. -1.
         25    1    1    2    0    0  0.19436426597E+03 -0.16022535954E+02 -0.76313333307E+03  0.79751593939E+03  0.12500000000E+03 0.  0.
         25    1    1    2    0    0 -0.29197016643E+03  0.32969565461E+02 -0.20577608302E+04  0.20823876211E+04  0.12500000000E+03 0.  0.
         25    1    1    2    0    0  0.97605900457E+02 -0.16947029507E+02 -0.57692669820E+03  0.59856789816E+03  0.12500000000E+03 0.  0.
</event>
<event>
 5    0  0.5668330E-005  0.6856764E+03  0.7546771E-02  0.9742046E-01
         21   -1    0    0  502  501  0.00000000000E+00  0.00000000000E+00  0.10281079850E+04  0.10281079850E+04  0.00000000000E+00 0.  1.
         21   -1    0    0  501  502 -0.00000000000E+00 -0.00000000000E+00 -0.45729834109E+03  0.45729834109E+03  0.00000000000E+00 0.  1.
         25    1    1    2    0    0  0.19579334086E+03 -0.27883557557E+03  0.72914643875E+03  0.81447150943E+03  0.12500000000E+03 0.  0.
         25    1    1    2    0    0 -0.78691293447E+02  0.38806057607E+03 -0.20414085210E+03  0.46268976416E+03  0.12500000000E+03 0.  0.
         25    1    1    2    0    0 -0.11710204741E+03 -0.10922500050E+03  0.45804057293E+02  0.20824505254E+03  0.12500000000E+03 0.  0.
</event>
<event>
 5    0  0.5668330E-005  0.2801020E+03  0.7546771E-02  0.1095633E+00
         21   -1    0    0  502  501  0.00000000000E+00  0.00000000000E+00  0.23071204356E+02  0.23071204356E+02  0.00000000000E+00 0.  1.
         21   -1    0    0  501  502 -0.00000000000E+00 -0.00000000000E+00 -0.34006516661E+04  0.34006516661E+04  0.00000000000E+00 0.  1.
         25    1    1    2    0    0 -0.37237458845E+02 -0.57876919370E+01 -0.21625895629E+04  0.21665268850E+04  0.12500000000E+03 0.  0.
         25    1    1    2    0    0 -0.39165294276E+02 -0.25754250968E+02 -0.27911967460E+03  0.30940264134E+03  0.12500000000E+03 0.  0.
         25    1    1    2    0    0  0.76402753121E+02  0.31541942905E+02 -0.93587122421E+03  0.94779334411E+03  0.12500000000E+03 0.  0.
</event>
<event>
 5    0  0.5668330E-005  0.3161754E+03  0.7546771E-02  0.1077423E+00
         21   -1    0    0  502  501  0.00000000000E+00  0.00000000000E+00  0.53974323968E+03  0.53974323968E+03  0.00000000000E+00 0. -1.
         21   -1    0    0  501  502 -0.00000000000E+00 -0.00000000000E+00 -0.18521196101E+03  0.18521196101E+03  0.00000000000E+00 0. -1.
         25    1    1    2    0    0 -0.91250898125E+02 -0.79419918251E+02  0.18486672043E+03  0.25384041078E+03  0.12500000000E+03 0.  0.
         25    1    1    2    0    0  0.18785837805E+03  0.13749418119E+03  0.62332175954E+02  0.27148797437E+03  0.12500000000E+03 0.  0.
         25    1    1    2    0    0 -0.96607479929E+02 -0.58074262939E+02  0.10733238230E+03  0.19962681554E+03  0.12500000000E+03 0.  0.
</event>
<event>
 5    0  0.5668330E-005  0.4751644E+03  0.7546771E-02  0.1020473E+00
         21   -1    0    0  502  501  0.00000000000E+00  0.00000000000E+00  0.61975200457E+03  0.61975200457E+03  0.00000000000E+00 0.  1.
         21   -1    0    0  501  502 -0.00000000000E+00 -0.00000000000E+00 -0.36430891182E+03  0.36430891182E+03  0.00000000000E+00 0.  1.
         25    1    1    2    0    0  0.13647037611E+03 -0.33278348832E+02  0.43084542142E+03  0.47008976719E+03  0.12500000000E+03 0.  0.
         25    1    1    2    0    0 -0.13349406400E+03  0.12646025337E+03 -0.25547031441E+03  0.33867822833E+03  0.12500000000E+03 0.  0.
         25    1    1    2    0    0 -0.29763121162E+01 -0.93181904538E+02  0.80067985726E+02  0.17529292087E+03  0.12500000000E+03 0.  0.
</event>
<event>
 5    0  0.5668330E-005  0.3053404E+03  0.7546771E-02  0.1082601E+00
         21   -1    0    0  502  501  0.00000000000E+00  0.00000000000E+00  0.28794417375E+03  0.28794417375E+03  0.00000000000E+00 0.  1.
         21   -1    0    0  501  502 -0.00000000000E+00 -0.00000000000E+00 -0.32378756007E+03  0.32378756007E+03  0.00000000000E+00 0.  1.
         25    1    1    2    0    0  0.16216772632E+03  0.30779760431E+02 -0.13303791435E+03  0.24610943047E+03  0.12500000000E+03 0.  0.
         25    1    1    2    0    0 -0.16804911550E+03 -0.20654342096E+02  0.11334905016E+03  0.23903998461E+03  0.12500000000E+03 0.  0.
         25    1    1    2    0    0  0.58813891850E+01 -0.10125418335E+02 -0.16154522138E+02  0.12658231875E+03  0.12500000000E+03 0.  0.
</event>
<event>
 5    0  0.8327576E-005  0.3441039E+03  0.7546771E-02  0.1065061E+00
         21   -1    0    0  502  501  0.00000000000E+00  0.00000000000E+00  0.71104259962E+03  0.71104259962E+03  0.00000000000E+00 0.  1.
         21   -1    0    0  501  502 -0.00000000000E+00 -0.00000000000E+00 -0.16652660425E+03  0.16652660425E+03  0.00000000000E+00 0.  1.
         25    1    1    2    0    0  0.28844674404E+01  0.24286516516E+02 -0.70982529396E+02  0.14581383513E+03  0.12500000000E+03 0.  0.
         25    1    1    2    0    0 -0.13794795412E+03 -0.47576888187E+02  0.42211260233E+03  0.46378577746E+03  0.12500000000E+03 0.  0.
         25    1    1    2    0    0  0.13506348668E+03  0.23290371670E+02  0.19338592244E+03  0.26796959127E+03  0.12500000000E+03 0.  0.
</event>
<event>
 5    0  0.5668330E-005  0.5929398E+03  0.7546771E-02  0.9920163E-01
         21   -1    0    0  502  501  0.00000000000E+00  0.00000000000E+00  0.11455761936E+04  0.11455761936E+04  0.00000000000E+00 0. -1.
         21   -1    0    0  501  502 -0.00000000000E+00 -0.00000000000E+00 -0.30690023842E+03  0.30690023842E+03  0.00000000000E+00 0. -1.
         25    1    1    2    0    0  0.63297714901E+02  0.46542592040E+03  0.68386035734E+03  0.83899813852E+03  0.12500000000E+03 0.  0.
         25    1    1    2    0    0  0.47048114039E+02 -0.63189019852E+02  0.90660773235E+02  0.17335153033E+03  0.12500000000E+03 0.  0.
         25    1    1    2    0    0 -0.11034582894E+03 -0.40223690055E+03  0.64154824588E+02  0.44012676316E+03  0.12500000000E+03 0.  0.
</event>
<event>
 5    0  0.5668330E-005  0.2156721E+03  0.7546771E-02  0.1137151E+00
         21   -1    0    0  502  501  0.00000000000E+00  0.00000000000E+00  0.13300140101E+04  0.13300140101E+04  0.00000000000E+00 0. -1.
         21   -1    0    0  501  502 -0.00000000000E+00 -0.00000000000E+00 -0.34972890729E+02  0.34972890729E+02  0.00000000000E+00 0. -1.
         25    1    1    2    0    0  0.30529583951E+02  0.88092397452E+02  0.42754296793E+03  0.45509374354E+03  0.12500000000E+03 0.  0.
         25    1    1    2    0    0  0.97154695993E+00 -0.32293014232E+02  0.33036283589E+03  0.35469477866E+03  0.12500000000E+03 0.  0.
         25    1    1    2    0    0 -0.31501130911E+02 -0.55799383221E+02  0.53713531557E+03  0.55519837864E+03  0.12500000000E+03 0.  0.
</event>
<event>
 5    0  0.5668330E-005  0.3263022E+03  0.7546771E-02  0.1072785E+00
         21   -1    0    0  502  501  0.00000000000E+00  0.00000000000E+00  0.67820064971E+02  0.67820064971E+02  0.00000000000E+00 0. -1.
         21   -1    0    0  501  502 -0.00000000000E+00 -0.00000000000E+00 -0.15699354523E+04  0.15699354523E+04  0.00000000000E+00 0. -1.
         25    1    1    2    0    0 -0.47050969981E+02  0.90141032714E+02 -0.49782661628E+03  0.52325475577E+03  0.12500000000E+03 0.  0.
         25    1    1    2    0    0 -0.70743079881E+01 -0.26064214675E+02 -0.94354714855E+03  0.95217414933E+03  0.12500000000E+03 0.  0.
         25    1    1    2    0    0  0.54125277969E+02 -0.64076818039E+02 -0.60741622546E+02  0.16232661222E+03  0.12500000000E+03 0.  0.
</event>
<event>
 5    0  0.6059853E-005  0.2861870E+03  0.7546771E-02  0.1092357E+00
         21   -1    0    0  502  501  0.00000000000E+00  0.00000000000E+00  0.36061498240E+03  0.36061498240E+03  0.00000000000E+00 0.  1.
         21   -1    0    0  501  502 -0.00000000000E+00 -0.00000000000E+00 -0.22712034931E+03  0.22712034931E+03  0.00000000000E+00 0.  1.
         25    1    1    2    0    0  0.92720712771E+02  0.11410136943E+03 -0.15577874800E+02  0.19360765291E+03  0.12500000000E+03 0.  0.
         25    1    1    2    0    0  0.20313932806E+02  0.42580647014E+02  0.39935359721E+02  0.13944748231E+03  0.12500000000E+03 0.  0.
         25    1    1    2    0    0 -0.11303464558E+03 -0.15668201644E+03  0.10913714816E+03  0.25468019650E+03  0.12500000000E+03 0.  0.
</event>
<event>
 5    0  0.5668330E-005  0.2249157E+03  0.7546771E-02  0.1130270E+00
         21   -1    0    0  502  501  0.00000000000E+00  0.00000000000E+00  0.46356127453E+03  0.46356127453E+03  0.00000000000E+00 0.  1.
         21   -1    0    0  501  502 -0.00000000000E+00 -0.00000000000E+00 -0.10912702276E+03  0.10912702276E+03  0.00000000000E+00 0.  1.
         25    1    1    2    0    0  0.65573911167E+01  0.87272867404E+02  0.18099843066E+03  0.23673821970E+03  0.12500000000E+03 0.  0.
         25    1    1    2    0    0  0.20784330176E+02 -0.75227656205E+02  0.13974089685E+03  0.20308546696E+03  0.12500000000E+03 0.  0.
         25    1    1    2    0    0 -0.27341721293E+02 -0.12045211199E+02  0.33694924254E+02  0.13286461063E+03  0.12500000000E+03 0.  0.
</event>
<event>
 5    0  0.5668330E-005  0.3473002E+03  0.7546771E-02  0.1063729E+00
         21   -1    0    0  502  501  0.00000000000E+00  0.00000000000E+00  0.87045411365E+02  0.87045411365E+02  0.00000000000E+00 0.  1.
         21   -1    0    0  501  502 -0.00000000000E+00 -0.00000000000E+00 -0.13856839067E+04  0.13856839067E+04  0.00000000000E+00 0.  1.
         25    1    1    2    0    0 -0.34983842000E+02 -0.25576853409E+01 -0.45110091441E+03  0.46941180847E+03  0.12500000000E+03 0.  0.
         25    1    1    2    0    0 -0.13420883818E+03  0.17317270315E+03 -0.52266371380E+03  0.58034744342E+03  0.12500000000E+03 0.  0.
         25    1    1    2    0    0  0.16919268018E+03 -0.17061501781E+03 -0.32487386712E+03  0.42297006616E+03  0.12500000000E+03 0.  0.
</event>
<event>
 5    0  0.5668330E-005  0.3228946E+03  0.7546771E-02  0.1074325E+00
         21   -1    0    0  502  501  0.00000000000E+00  0.00000000000E+00  0.65462930223E+02  0.65462930223E+02  0.00000000000E+00 0.  1.
         21   -1    0    0  501  502 -0.00000000000E+00 -0.00000000000E+00 -0.15926709462E+04  0.15926709462E+04  0.00000000000E+00 0.  1.
         25    1    1    2    0    0  0.22314901167E+02  0.22979306776E+00 -0.90250134192E+02  0.15578220162E+03  0.12500000000E+03 0.  0.
         25    1    1    2    0    0  0.12797003947E+03  0.10720167878E+03 -0.82697137688E+03  0.85286293688E+03  0.12500000000E+03 0.  0.
         25    1    1    2    0    0 -0.15028494063E+03 -0.10743147185E+03 -0.60998650496E+03  0.64948873797E+03  0.12500000000E+03 0.  0.
</event>
<event>
 5    0  0.5668330E-005  0.3645971E+03  0.7546771E-02  0.1056778E+00
         21   -1    0    0  502  501  0.00000000000E+00  0.00000000000E+00  0.13914289800E+04  0.13914289800E+04  0.00000000000E+00 0.  1.
         21   -1    0    0  501  502 -0.00000000000E+00 -0.00000000000E+00 -0.95535608390E+02  0.95535608390E+02  0.00000000000E+00 0.  1.
         25    1    1    2    0    0 -0.21293215472E+03  0.40764014548E+02  0.15487320834E+03  0.29430004767E+03  0.12500000000E+03 0.  0.
         25    1    1    2    0    0  0.83914912664E+02  0.13028903928E+02  0.64276433865E+03  0.66028967881E+03  0.12500000000E+03 0.  0.
         25    1    1    2    0    0  0.12901724206E+03 -0.53792918477E+02  0.49825582463E+03  0.53237486192E+03  0.12500000000E+03 0.  0.
</event>
<event>
 5    0  0.5668330E-005  0.2516090E+03  0.7546771E-02  0.1112292E+00
         21   -1    0    0  502  501  0.00000000000E+00  0.00000000000E+00  0.14424818058E+04  0.14424818058E+04  0.00000000000E+00 0. -1.
         21   -1    0    0  501  502 -0.00000000000E+00 -0.00000000000E+00 -0.43887600338E+02  0.43887600338E+02  0.00000000000E+00 0. -1.
         25    1    1    2    0    0 -0.90576204125E+02 -0.34415220645E+02  0.61470793585E+03  0.63472773893E+03  0.12500000000E+03 0.  0.
         25    1    1    2    0    0  0.61303058068E+02  0.81791498712E+02  0.22947611340E+03  0.28059258866E+03  0.12500000000E+03 0.  0.
         25    1    1    2    0    0  0.29273146057E+02 -0.47376278067E+02  0.55441015622E+03  0.57104907856E+03  0.12500000000E+03 0.  0.
</event>
<event>
 5    0  0.5784457E-005  0.3169202E+03  0.7546771E-02  0.1077075E+00
         21   -1    0    0  502  501  0.00000000000E+00  0.00000000000E+00  0.75080784396E+03  0.75080784396E+03  0.00000000000E+00 0.  1.
         21   -1    0    0  501  502 -0.00000000000E+00 -0.00000000000E+00 -0.13377381941E+03  0.13377381941E+03  0.00000000000E+00 0.  1.
         25    1    1    2    0    0 -0.50024344084E+02 -0.12141426121E+03  0.62013294557E+02  0.19161029859E+03  0.12500000000E+03 0.  0.
         25    1    1    2    0    0 -0.31060171669E+01  0.15407369828E+03  0.50832230549E+03  0.54567840172E+03  0.12500000000E+03 0.  0.
         25    1    1    2    0    0  0.53130361251E+02 -0.32659437078E+02  0.46698424505E+02  0.14729296306E+03  0.12500000000E+03 0.  0.
</event>
<event>
 5    0  0.5668330E-005  0.4487326E+03  0.7546771E-02  0.1028101E+00
         21   -1    0    0  502  501  0.00000000000E+00  0.00000000000E+00  0.20774058282E+03  0.20774058282E+03  0.00000000000E+00 0. -1.
         21   -1    0    0  501  502 -0.00000000000E+00 -0.00000000000E+00 -0.96929044340E+03  0.96929044340E+03  0.00000000000E+00 0. -1.
         25    1    1    2    0    0  0.17338737450E+02  0.22887170561E+03 -0.32434215647E+03  0.41654018283E+03  0.12500000000E+03 0.  0.
         25    1    1    2    0    0  0.49203449568E+02  0.11278270790E+03  0.15305971384E+02  0.17606871219E+03  0.12500000000E+03 0.  0.
         25    1    1    2    0    0 -0.66542187018E+02 -0.34165441351E+03 -0.45251367549E+03  0.58442213120E+03  0.12500000000E+03 0.  0.
</event>
<event>
 5    0  0.5668330E-005  0.2823654E+03  0.7546771E-02  0.1094404E+00
         21   -1    0    0  502  501  0.00000000000E+00  0.00000000000E+00  0.26883632020E+03  0.26883632020E+03  0.00000000000E+00 0.  1.
         21   -1    0    0  501  502 -0.00000000000E+00 -0.00000000000E+00 -0.29657527612E+03  0.29657527612E+03  0.00000000000E+00 0.  1.
         25    1    1    2    0    0 -0.13013411773E+03  0.62211412591E+02 -0.20260049220E+02  0.19193909985E+03  0.12500000000E+03 0.  0.
         25    1    1    2    0    0  0.10400184934E+03  0.38140771539E+02 -0.91680051734E+02  0.19052909228E+03  0.12500000000E+03 0.  0.
         25    1    1    2    0    0  0.26132268391E+02 -0.10035218413E+03  0.84201145039E+02  0.18294340419E+03  0.12500000000E+03 0.  0.
</event>
<event>
 5    0  0.5668330E-005  0.2904392E+03  0.7546771E-02  0.1090120E+00
         21   -1    0    0  502  501  0.00000000000E+00  0.00000000000E+00  0.38033980925E+03  0.38033980925E+03  0.00000000000E+00 0.  1.
         21   -1    0    0  501  502 -0.00000000000E+00 -0.00000000000E+00 -0.22178838949E+03  0.22178838949E+03  0.00000000000E+00 0.  1.
         25    1    1    2    0    0  0.89084774300E+02  0.39917343203E+02 -0.13376210792E+02  0.15916473955E+03  0.12500000000E+03 0.  0.
         25    1    1    2    0    0 -0.16960408588E+03  0.29008133722E+02  0.18036190982E+03  0.27885916926E+03  0.12500000000E+03 0.  0.
         25    1    1    2    0    0  0.80519311581E+02 -0.68925476926E+02 -0.84342792584E+01  0.16410428993E+03  0.12500000000E+03 0.  0.
</event>
<event>
 5    0  0.5668330E-005  0.1959992E+03  0.7546771E-02  0.1153159E+00
         21   -1    0    0  502  501  0.00000000000E+00  0.00000000000E+00  0.44847462425E+03  0.44847462425E+03  0.00000000000E+00 0. -1.
         21   -1    0    0  501  502 -0.00000000000E+00 -0.00000000000E+00 -0.85658508865E+02  0.85658508865E+02  0.00000000000E+00 0. -1.
         25    1    1    2    0    0 -0.22188525728E+02 -0.24958461981E+02  0.10159220874E+03  0.16450298592E+03  0.12500000000E+03 0.  0.
         25    1    1    2    0    0  0.77363390312E+01 -0.18177954773E+02  0.10494548847E+03  0.16440451494E+03  0.12500000000E+03 0.  0.
         25    1    1    2    0    0  0.14452186697E+02  0.43136416753E+02  0.15627841816E+03  0.20522563225E+03  0.12500000000E+03 0.  0.
</event>
<event>
 5    0  0.5668330E-005  0.2438977E+03  0.7546771E-02  0.1117223E+00
         21   -1    0    0  502  501  0.00000000000E+00  0.00000000000E+00  0.21626815043E+03  0.21626815043E+03  0.00000000000E+00 0.  1.
         21   -1    0    0  501  502 -0.00000000000E+00 -0.00000000000E+00 -0.27505700446E+03  0.27505700446E+03  0.00000000000E+00 0.  1.
         25    1    1    2    0    0 -0.13401055809E+03 -0.25469495731E+02 -0.48541726165E+01  0.18508400223E+03  0.12500000000E+03 0.  0.
         25    1    1    2    0    0  0.97163155884E+02 -0.24801829126E+02 -0.44139982610E+02  0.16622017824E+03  0.12500000000E+03 0.  0.
         25    1    1    2    0    0  0.36847402202E+02  0.50271324858E+02 -0.97946988029E+01  0.14002097442E+03  0.12500000000E+03 0.  0.
</event>
<event>
 5    0  0.6019341E-005  0.2990863E+03  0.7546771E-02  0.1085698E+00
         21   -1    0    0  502  501  0.00000000000E+00  0.00000000000E+00  0.71801406577E+03  0.71801406577E+03  0.00000000000E+00 0. -1.
         21   -1    0    0  501  502 -0.00000000000E+00 -0.00000000000E+00 -0.12458335516E+03  0.12458335516E+03  0.00000000000E+00 0. -1.
         25    1    1    2    0    0  0.10751788539E+03  0.92234425154E+01  0.11787756168E+03  0.20289230424E+03  0.12500000000E+03 0.  0.
         25    1    1    2    0    0  0.78272358778E+02 -0.72316950642E+02  0.32045092385E+03  0.36009734531E+03  0.12500000000E+03 0.  0.
         25    1    1    2    0    0 -0.18579024417E+03  0.63093508127E+02  0.15510222507E+03  0.27960777138E+03  0.12500000000E+03 0.  0.
</event>
<event>
 5    0  0.5763025E-005  0.2999675E+03  0.7546771E-02  0.1085257E+00
         21   -1    0    0  502  501  0.00000000000E+00  0.00000000000E+00  0.13335006737E+03  0.13335006737E+03  0.00000000000E+00 0.  1.
         21   -1    0    0  501  502 -0.00000000000E+00 -0.00000000000E+00 -0.67476898740E+03  0.67476898740E+03  0.00000000000E+00 0.  1.
         25    1    1    2    0    0 -0.17204788940E+03  0.52023420830E+01 -0.11072062574E+03  0.23981575756E+03  0.12500000000E+03 0.  0.
         25    1    1    2    0    0  0.12420646703E+03  0.80850198795E+01 -0.81931464275E+02  0.19450033120E+03  0.12500000000E+03 0.  0.
         25    1    1    2    0    0  0.47841422371E+02 -0.13287361962E+02 -0.34876683001E+03  0.37380296601E+03  0.12500000000E+03 0.  0.
</event>
<event>
 5    0  0.5668330E-005  0.4251975E+03  0.7546771E-02  0.1035388E+00
         21   -1    0    0  502  501  0.00000000000E+00  0.00000000000E+00  0.12400710950E+03  0.12400710950E+03  0.00000000000E+00 0. -1.
         21   -1    0    0  501  502 -0.00000000000E+00 -0.00000000000E+00 -0.14579238165E+04  0.14579238165E+04  0.00000000000E+00 0.  1.
         25    1    1    2    0    0  0.29802320097E+03  0.11759501182E+03 -0.61610368064E+03  0.70558852061E+03  0.12500000000E+03 0.  0.
         25    1    1    2    0    0 -0.22571022032E+03 -0.16698437620E+03 -0.62821923463E+03  0.69936635050E+03  0.12500000000E+03 0.  0.
         25    1    1    2    0    0 -0.72312980655E+02  0.49389364383E+02 -0.89593791696E+02  0.17697605487E+03  0.12500000000E+03 0.  0.
</event>
<event>
 5    0  0.6334376E-005  0.3027182E+03  0.7546771E-02  0.1083890E+00
         21   -1    0    0  502  501  0.00000000000E+00  0.00000000000E+00  0.32718230334E+03  0.32718230334E+03  0.00000000000E+00 0.  1.
         21   -1    0    0  501  502 -0.00000000000E+00 -0.00000000000E+00 -0.28008324707E+03  0.28008324707E+03  0.00000000000E+00 0.  1.
         25    1    1    2    0    0 -0.52322647391E+01 -0.92418678110E+02 -0.15590334799E+03  0.22022588988E+03  0.12500000000E+03 0.  0.
         25    1    1    2    0    0  0.76392107344E+02  0.96761023456E+02  0.63719527539E+02  0.18677159290E+03  0.12500000000E+03 0.  0.
         25    1    1    2    0    0 -0.71159842605E+02 -0.43423453458E+01  0.13928287672E+03  0.20026806763E+03  0.12500000000E+03 0.  0.
</event>
<event>
 5    0  0.6355587E-005  0.4249163E+03  0.7546771E-02  0.1035478E+00
         21   -1    0    0  502  501  0.00000000000E+00  0.00000000000E+00  0.73447063391E+03  0.73447063391E+03  0.00000000000E+00 0. -1.
         21   -1    0    0  501  502 -0.00000000000E+00 -0.00000000000E+00 -0.24582859979E+03  0.24582859979E+03  0.00000000000E+00 0. -1.
         25    1    1    2    0    0  0.20573620318E+03 -0.46777000340E+02  0.37308954703E+03  0.44647092085E+03  0.12500000000E+03 0.  0.
         25    1    1    2    0    0 -0.85159671520E+02 -0.16793069337E+03 -0.18681186249E+02  0.22677494162E+03  0.12500000000E+03 0.  0.
         25    1    1    2    0    0 -0.12057653166E+03  0.21470769371E+03  0.13423367334E+03  0.30705337123E+03  0.12500000000E+03 0.  0.
</event>
<event>
 5    0  0.7776614E-005  0.4009939E+03  0.7546771E-02  0.1043436E+00
         21   -1    0    0  502  501  0.00000000000E+00  0.00000000000E+00  0.63173697839E+03  0.63173697839E+03  0.00000000000E+00 0. -1.
         21   -1    0    0  501  502 -0.00000000000E+00 -0.00000000000E+00 -0.25453014325E+03  0.25453014325E+03  0.00000000000E+00 0. -1.
         25    1    1    2    0    0 -0.18068195492E+03 -0.90035624321E+02  0.36997798611E+02  0.24030443105E+03  0.12500000000E+03 0.  0.
         25    1    1    2    0    0  0.19234292721E+03  0.57369279029E+02 -0.43936958015E+02  0.24050466130E+03  0.12500000000E+03 0.  0.
         25    1    1    2    0    0 -0.11660972297E+02  0.32666345292E+02  0.38414599454E+03  0.40545802929E+03  0.12500000000E+03 0.  0.
</event>
<event>
 5    0  0.5668330E-005  0.4020070E+03  0.7546771E-02  0.1043087E+00
         21   -1    0    0  502  501  0.00000000000E+00  0.00000000000E+00  0.18330716852E+03  0.18330716852E+03  0.00000000000E+00 0. -1.
         21   -1    0    0  501  502 -0.00000000000E+00 -0.00000000000E+00 -0.88163267103E+03  0.88163267103E+03  0.00000000000E+00 0. -1.
         25    1    1    2    0    0 -0.20297741452E+03  0.90268714985E+02 -0.36697363880E+03  0.44681419324E+03  0.12500000000E+03 0.  0.
         25    1    1    2    0    0 -0.59570950724E+02  0.52575307278E+02  0.88011038531E+01  0.14837560627E+03  0.12500000000E+03 0.  0.
         25    1    1    2    0    0  0.26254836524E+03 -0.14284402226E+03 -0.34015296756E+03  0.46975004005E+03  0.12500000000E+03 0.  0.
</event>
<event>
 5    0  0.5668330E-005  0.2977682E+03  0.7546771E-02  0.1086362E+00
         21   -1    0    0  502  501  0.00000000000E+00  0.00000000000E+00  0.42368476015E+02  0.42368476015E+02  0.00000000000E+00 0.  1.
         21   -1    0    0  501  502 -0.00000000000E+00 -0.00000000000E+00 -0.20927323918E+04  0.20927323918E+04  0.00000000000E+00 0.  1.
         25    1    1    2    0    0  0.13633225813E+03 -0.10390658295E+03 -0.65371360490E+03  0.68727690185E+03  0.12500000000E+03 0.  0.
         25    1    1    2    0    0 -0.19022101150E+03  0.88763839386E+02 -0.92001422280E+03  0.95190032176E+03  0.12500000000E+03 0.  0.
         25    1    1    2    0    0  0.53888753374E+02  0.15142743561E+02 -0.47663608807E+03  0.49592364419E+03  0.12500000000E+03 0.  0.
</event>
<event>
 5    0  0.5668330E-005  0.2598644E+03  0.7546771E-02  0.1107225E+00
         21   -1    0    0  502  501  0.00000000000E+00  0.00000000000E+00  0.17078092396E+04  0.17078092396E+04  0.00000000000E+00 0.  1.
         21   -1    0    0  501  502 -0.00000000000E+00 -0.00000000000E+00 -0.39541584568E+02  0.39541584568E+02  0.00000000000E+00 0.  1.
         25    1    1    2    0    0  0.37561814156E+02 -0.58346632162E+02  0.49748872819E+03  0.51762462658E+03  0.12500000000E+03 0.  0.
         25    1    1    2    0    0 -0.14115959118E+03 -0.26889082410E+02  0.52779429027E+03  0.56110682208E+03  0.12500000000E+03 0.  0.
         25    1    1    2    0    0  0.10359777703E+03  0.85235714572E+02  0.64298463659E+03  0.66861937553E+03  0.12500000000E+03 0.  0.
</event>
<event>
 5    0  0.5668330E-005  0.3213034E+03  0.7546771E-02  0.1075051E+00
         21   -1    0    0  502  501  0.00000000000E+00  0.00000000000E+00  0.58138655705E+02  0.58138655705E+02  0.00000000000E+00 0.  1.
         21   -1    0    0  501  502 -0.00000000000E+00 -0.00000000000E+00 -0.17756843540E+04  0.17756843540E+04  0.00000000000E+00 0.  1.
         25    1    1    2    0    0  0.26603661672E+02 -0.11064721865E+03 -0.57884997657E+03  0.60302807329E+03  0.12500000000E+03 0.  0.
         25    1    1    2    0    0 -0.10582716609E+03  0.16862643758E+03 -0.97378511286E+03  0.10017568121E+04  0.12500000000E+03 0.  0.
         25    1    1    2    0    0  0.79223504421E+02 -0.57979218928E+02 -0.16491060890E+03  0.22903812435E+03  0.12500000000E+03 0.  0.
</event>
<event>
 5    0  0.5668330E-005  0.3518427E+03  0.7546771E-02  0.1061861E+00
         21   -1    0    0  502  501  0.00000000000E+00  0.00000000000E+00  0.60897450096E+02  0.60897450096E+02  0.00000000000E+00 0.  1.
         21   -1    0    0  501  502 -0.00000000000E+00 -0.00000000000E+00 -0.20328154493E+04  0.20328154493E+04  0.00000000000E+00 0.  1.
         25    1    1    2    0    0  0.83016743163E+02 -0.54191301932E+02 -0.23074673953E+03  0.28053080875E+03  0.12500000000E+03 0.  0.
         25    1    1    2    0    0  0.58884250439E+02 -0.14631133922E+03 -0.10495093668E+04  0.10686296243E+04  0.12500000000E+03 0.  0.
         25    1    1    2    0    0 -0.14190099360E+03  0.20050264115E+03 -0.69166189286E+03  0.74455246633E+03  0.12500000000E+03 0.  0.
</event>
<event>
 5    0  0.6510757E-005  0.4015436E+03  0.7546771E-02  0.1043246E+00
         21   -1    0    0  502  501  0.00000000000E+00  0.00000000000E+00  0.33115358688E+03  0.33115358688E+03  0.00000000000E+00 0.  1.
         21   -1    0    0  501  502 -0.00000000000E+00 -0.00000000000E+00 -0.48689568979E+03  0.48689568979E+03  0.00000000000E+00 0.  1.
         25    1    1    2    0    0 -0.68953506608E+02 -0.13902943929E+03 -0.13901332041E+03  0.24296805204E+03  0.12500000000E+03 0.  0.
         25    1    1    2    0    0  0.11855872865E+03  0.15735615157E+03 -0.22653036034E+03  0.32520475816E+03  0.12500000000E+03 0.  0.
         25    1    1    2    0    0 -0.49605222037E+02 -0.18326712278E+02  0.20980157783E+03  0.24987646647E+03  0.12500000000E+03 0.  0.
</event>
<event>
 5    0  0.5668330E-005  0.7576066E+03  0.7546771E-02  0.9623492E-01
         21   -1    0    0  502  501  0.00000000000E+00  0.00000000000E+00  0.40711272155E+03  0.40711272155E+03  0.00000000000E+00 0. -1.
         21   -1    0    0  501  502 -0.00000000000E+00 -0.00000000000E+00 -0.14098497768E+04  0.14098497768E+04  0.00000000000E+00 0. -1.
         25    1    1    2    0    0  0.13222553591E+03  0.15965056194E+03  0.19681617655E+03  0.31198317523E+03  0.12500000000E+03 0.  0.
         25    1    1    2    0    0  0.20943692471E+03  0.14623309588E+03 -0.90615683457E+02  0.29846967325E+03  0.12500000000E+03 0.  0.
         25    1    1    2    0    0 -0.34166246062E+03 -0.30588365782E+03 -0.11089375484E+04  0.12065096499E+04  0.12500000000E+03 0.  0.
</event>
<event>
 5    0  0.5668330E-005  0.3106014E+03  0.7546771E-02  0.1080058E+00
         21   -1    0    0  502  501  0.00000000000E+00  0.00000000000E+00  0.32852596694E+03  0.32852596694E+03  0.00000000000E+00 0. -1.
         21   -1    0    0  501  502 -0.00000000000E+00 -0.00000000000E+00 -0.29365484714E+03  0.29365484714E+03  0.00000000000E+00 0. -1.
         25    1    1    2    0    0 -0.38842129180E+02 -0.70957609264E+02  0.16854017745E+03  0.22488771582E+03  0.12500000000E+03 0.  0.
         25    1    1    2    0    0  0.13105866941E+03  0.38325973361E+02  0.69288060802E+01  0.18525189180E+03  0.12500000000E+03 0.  0.
         25    1    1    2    0    0 -0.92216540227E+02  0.32631635902E+02 -0.14059786373E+03  0.21204120646E+03  0.12500000000E+03 0.  0.
</event>
<event>
 5    0  0.5730721E-005  0.3741800E+03  0.7546771E-02  0.1053106E+00
         21   -1    0    0  502  501  0.00000000000E+00  0.00000000000E+00  0.21161284371E+03  0.21161284371E+03  0.00000000000E+00 0. -1.
         21   -1    0    0  501  502 -0.00000000000E+00 -0.00000000000E+00 -0.66163583839E+03  0.66163583839E+03  0.00000000000E+00 0. -1.
         25    1    1    2    0    0  0.19507564375E+02 -0.11741380469E+03  0.41670117929E+02  0.17756110308E+03  0.12500000000E+03 0.  0.
         25    1    1    2    0    0 -0.15195377728E+03  0.19039210173E+03 -0.18093969579E+03  0.32818177332E+03  0.12500000000E+03 0.  0.
         25    1    1    2    0    0  0.13244621290E+03 -0.72978297040E+02 -0.31075341682E+03  0.36750580569E+03  0.12500000000E+03 0.  0.
</event>
<event>
 5    0  0.5668330E-005  0.2914028E+03  0.7546771E-02  0.1089619E+00
         21   -1    0    0  502  501  0.00000000000E+00  0.00000000000E+00  0.12047736093E+04  0.12047736093E+04  0.00000000000E+00 0. -1.
         21   -1    0    0  501  502 -0.00000000000E+00 -0.00000000000E+00 -0.70482623972E+02  0.70482623972E+02  0.00000000000E+00 0. -1.
         25    1    1    2    0    0  0.47619626919E+02 -0.21706918734E+02  0.45923867107E+03  0.47881517958E+03  0.12500000000E+03 0.  0.
         25    1    1    2    0    0 -0.15201365183E+02  0.15626114687E+03  0.18832997521E+03  0.27521229458E+03  0.12500000000E+03 0.  0.
         25    1    1    2    0    0 -0.32418261736E+02 -0.13455422813E+03  0.48672233904E+03  0.52122875911E+03  0.12500000000E+03 0.  0.
</event>
<event>
 5    0  0.5668330E-005  0.3704202E+03  0.7546771E-02  0.1054532E+00
         21   -1    0    0  502  501  0.00000000000E+00  0.00000000000E+00  0.50088522975E+03  0.50088522975E+03  0.00000000000E+00 0. -1.
         21   -1    0    0  501  502 -0.00000000000E+00 -0.00000000000E+00 -0.27393718175E+03  0.27393718175E+03  0.00000000000E+00 0. -1.
         25    1    1    2    0    0  0.11786376478E+03  0.71365977402E+02  0.29034922133E+01  0.18606020543E+03  0.12500000000E+03 0.  0.
         25    1    1    2    0    0  0.10026850614E+03 -0.16984551402E+03  0.21683145077E+03  0.31865679029E+03  0.12500000000E+03 0.  0.
         25    1    1    2    0    0 -0.21813227092E+03  0.98479536616E+02  0.72131050182E+01  0.27010541578E+03  0.12500000000E+03 0.  0.
</event>
<event>
 5    0  0.5668330E-005  0.2509850E+03  0.7546771E-02  0.1112684E+00
         21   -1    0    0  502  501  0.00000000000E+00  0.00000000000E+00  0.51818860440E+02  0.51818860440E+02  0.00000000000E+00 0.  1.
         21   -1    0    0  501  502 -0.00000000000E+00 -0.00000000000E+00 -0.12156472087E+04  0.12156472087E+04  0.00000000000E+00 0.  1.
         25    1    1    2    0    0  0.25666487101E+02  0.40561363434E+01 -0.31056305498E+03  0.33578211972E+03  0.12500000000E+03 0.  0.
         25    1    1    2    0    0  0.18154005398E+02  0.13302133397E+03 -0.42771691610E+03  0.46539338578E+03  0.12500000000E+03 0.  0.
         25    1    1    2    0    0 -0.43820492498E+02 -0.13707747031E+03 -0.42554837719E+03  0.46629056366E+03  0.12500000000E+03 0.  0.
</event>
<event>
 5    0  0.5668330E-005  0.6031679E+03  0.7546771E-02  0.9898855E-01
         21   -1    0    0  502  501  0.00000000000E+00  0.00000000000E+00  0.78819897939E+03  0.78819897939E+03  0.00000000000E+00 0.  1.
         21   -1    0    0  501  502 -0.00000000000E+00 -0.00000000000E+00 -0.46157322768E+03  0.46157322768E+03  0.00000000000E+00 0.  1.
         25    1    1    2    0    0  0.13116274607E+03 -0.43254865396E+02 -0.23762617285E+03  0.30193682677E+03  0.12500000000E+03 0.  0.
         25    1    1    2    0    0  0.29038514791E+03 -0.21777994463E+02  0.22376065113E+03  0.38793252527E+03  0.12500000000E+03 0.  0.
         25    1    1    2    0    0 -0.42154789398E+03  0.65032859858E+02  0.34049127343E+03  0.55990285503E+03  0.12500000000E+03 0.  0.
</event>
<event>
 5    0  0.5668330E-005  0.3344793E+03  0.7546771E-02  0.1069172E+00
         21   -1    0    0  502  501  0.00000000000E+00  0.00000000000E+00  0.11128481338E+03  0.11128481338E+03  0.00000000000E+00 0.  1.
         21   -1    0    0  501  502 -0.00000000000E+00 -0.00000000000E+00 -0.10053157435E+04  0.10053157435E+04  0.00000000000E+00 0.  1.
         25    1    1    2    0    0 -0.11663306425E+02  0.12416916693E+03 -0.17980661131E+03  0.25201077795E+03  0.12500000000E+03 0.  0.
         25    1    1    2    0    0 -0.18359254445E+03 -0.94299821955E+02 -0.26644126529E+03  0.35946436075E+03  0.12500000000E+03 0.  0.
         25    1    1    2    0    0  0.19525585088E+03 -0.29869344972E+02 -0.44778305348E+03  0.50512541814E+03  0.12500000000E+03 0.  0.
</event>
<event>
 5    0  0.5668330E-005  0.3367545E+03  0.7546771E-02  0.1068187E+00
         21   -1    0    0  502  501  0.00000000000E+00  0.00000000000E+00  0.50394615449E+03  0.50394615449E+03  0.00000000000E+00 0.  1.
         21   -1    0    0  501  502 -0.00000000000E+00 -0.00000000000E+00 -0.22503112312E+03  0.22503112312E+03  0.00000000000E+00 0.  1.
         25    1    1    2    0    0 -0.67336506161E+02  0.10379118959E+02  0.10540207569E+03  0.17713421107E+03  0.12500000000E+03 0.  0.
         25    1    1    2    0    0 -0.10674812343E+03 -0.17313022570E+03  0.14293036506E+02  0.23916213705E+03  0.12500000000E+03 0.  0.
         25    1    1    2    0    0  0.17408462959E+03  0.16275110674E+03  0.15921991917E+03  0.31268092948E+03  0.12500000000E+03 0.  0.
</event>
<event>
 5    0  0.5668330E-005  0.3087319E+03  0.7546771E-02  0.1080955E+00
         21   -1    0    0  502  501  0.00000000000E+00  0.00000000000E+00  0.18667843563E+04  0.18667843563E+04  0.00000000000E+00 0. -1.
         21   -1    0    0  501  502 -0.00000000000E+00 -0.00000000000E+00 -0.51058604863E+02  0.51058604863E+02  0.00000000000E+00 0. -1.
         25    1    1    2    0    0  0.99834805830E+02 -0.19353183835E+02  0.19354005709E+03  0.25184179137E+03  0.12500000000E+03 0.  0.
         25    1    1    2    0    0 -0.15044224672E+03 -0.26593745274E+02  0.54917483895E+03  0.58357356059E+03  0.12500000000E+03 0.  0.
         25    1    1    2    0    0  0.50607440895E+02  0.45946929109E+02  0.10730108554E+04  0.10824276092E+04  0.12500000000E+03 0.  0.
</event>
<event>
 5    0  0.5668330E-005  0.4253136E+03  0.7546771E-02  0.1035351E+00
         21   -1    0    0  502  501  0.00000000000E+00  0.00000000000E+00  0.15761156072E+04  0.15761156072E+04  0.00000000000E+00 0. -1.
         21   -1    0    0  501  502 -0.00000000000E+00 -0.00000000000E+00 -0.11477056155E+03  0.11477056155E+03  0.00000000000E+00 0. -1.
         25    1    1    2    0    0  0.20299792994E+03 -0.99138598974E+02  0.10835988881E+04  0.11139336478E+04  0.12500000000E+03 0.  0.
         25    1    1    2    0    0 -0.20170566768E+03  0.10097449752E+03  0.10789670328E+03  0.27954914434E+03  0.12500000000E+03 0.  0.
         25    1    1    2    0    0 -0.12922622593E+01 -0.18358985489E+01  0.26984945424E+03  0.29740337661E+03  0.12500000000E+03 0.  0.
</event>
<event>
 5    0  0.5668330E-005  0.2475150E+03  0.7546771E-02  0.1114885E+00
         21   -1    0    0  502  501  0.00000000000E+00  0.00000000000E+00  0.13527702873E+03  0.13527702873E+03  0.00000000000E+00 0.  1.
         21   -1    0    0  501  502 -0.00000000000E+00 -0.00000000000E+00 -0.45287576373E+03  0.45287576373E+03  0.00000000000E+00 0.  1.
         25    1    1    2    0    0 -0.14074721418E+02 -0.20949763210E+02 -0.12792277964E+03  0.18062731774E+03  0.12500000000E+03 0.  0.
         25    1    1    2    0    0  0.10376557665E+03 -0.75466245105E+02 -0.94357713973E+02  0.20246191552E+03  0.12500000000E+03 0.  0.
         25    1    1    2    0    0 -0.89690855237E+02  0.96416008315E+02 -0.95318241394E+02  0.20506355921E+03  0.12500000000E+03 0.  0.
</event>
<event>
 5    0  0.6444631E-005  0.2932646E+03  0.7546771E-02  0.1088657E+00
         21   -1    0    0  502  501  0.00000000000E+00  0.00000000000E+00  0.45804341599E+03  0.45804341599E+03  0.00000000000E+00 0. -1.
         21   -1    0    0  501  502 -0.00000000000E+00 -0.00000000000E+00 -0.18776408242E+03  0.18776408242E+03  0.00000000000E+00 0. -1.
         25    1    1    2    0    0 -0.16217308448E+03  0.60407098143E+02 -0.27299175174E+02  0.21521935740E+03  0.12500000000E+03 0.  0.
         25    1    1    2    0    0  0.66475601361E+02 -0.24311442838E+00  0.15400128083E+03  0.20919000735E+03  0.12500000000E+03 0.  0.
         25    1    1    2    0    0  0.95697483114E+02 -0.60163983715E+02  0.14357722791E+03  0.22139813366E+03  0.12500000000E+03 0.  0.
</event>
<event>
 5    0  0.6652335E-005  0.2906791E+03  0.7546771E-02  0.1089995E+00
         21   -1    0    0  502  501  0.00000000000E+00  0.00000000000E+00  0.30307385294E+03  0.30307385294E+03  0.00000000000E+00 0. -1.
         21   -1    0    0  501  502 -0.00000000000E+00 -0.00000000000E+00 -0.27879128739E+03  0.27879128739E+03  0.00000000000E+00 0. -1.
         25    1    1    2    0    0  0.87891530648E+02  0.12655499970E+03 -0.10280541380E+03  0.22346150052E+03  0.12500000000E+03 0.  0.
         25    1    1    2    0    0  0.22569085185E+02 -0.10895788323E+03  0.61253638447E+02  0.17820828305E+03  0.12500000000E+03 0.  0.
         25    1    1    2    0    0 -0.11046061583E+03 -0.17597116469E+02  0.65834340906E+02  0.18019535677E+03  0.12500000000E+03 0.  0.
</event>
<event>
 5    0  0.5668330E-005  0.4892137E+03  0.7546771E-02  0.1016633E+00
         21   -1    0    0  502  501  0.00000000000E+00  0.00000000000E+00  0.44747991601E+03  0.44747991601E+03  0.00000000000E+00 0.  1.
         21   -1    0    0  501  502 -0.00000000000E+00 -0.00000000000E+00 -0.53483971650E+03  0.53483971650E+03  0.00000000000E+00 0.  1.
         25    1    1    2    0    0 -0.21311746127E+03 -0.13681470223E+03  0.12305474206E+03  0.30806620163E+03  0.12500000000E+03 0.  0.
         25    1    1    2    0    0  0.28905617159E+03  0.92138459769E+02 -0.34094410768E+03  0.47319219210E+03  0.12500000000E+03 0.  0.
         25    1    1    2    0    0 -0.75938710322E+02  0.44676242463E+02  0.13052956512E+03  0.20106123877E+03  0.12500000000E+03 0.  0.
</event>
<event>
 5    0  0.5668330E-005  0.3010484E+03  0.7546771E-02  0.1084718E+00
         21   -1    0    0  502  501  0.00000000000E+00  0.00000000000E+00  0.10036705752E+04  0.10036705752E+04  0.00000000000E+00 0.  1.
         21   -1    0    0  501  502 -0.00000000000E+00 -0.00000000000E+00 -0.90298692349E+02  0.90298692349E+02  0.00000000000E+00 0.  1.
         25    1    1    2    0    0  0.44099003873E+02 -0.65018759046E+02  0.27783777002E+03  0.31462833252E+03  0.12500000000E+03 0.  0.
         25    1    1    2    0    0 -0.80709115622E+02  0.68401220972E+01  0.61790291585E+03  0.63560188958E+03  0.12500000000E+03 0.  0.
         25    1    1    2    0    0  0.36610111749E+02  0.58178636949E+02  0.17631196968E+02  0.14373904545E+03  0.12500000000E+03 0.  0.
</event>
<event>
 5    0  0.7076683E-005  0.4316038E+03  0.7546771E-02  0.1033355E+00
         21   -1    0    0  502  501  0.00000000000E+00  0.00000000000E+00  0.20642476985E+03  0.20642476985E+03  0.00000000000E+00 0.  1.
         21   -1    0    0  501  502 -0.00000000000E+00 -0.00000000000E+00 -0.90241993758E+03  0.90241993758E+03  0.00000000000E+00 0.  1.
         25    1    1    2    0    0  0.20443126684E+03 -0.58190861030E+02 -0.53368864155E+03  0.58790040422E+03  0.12500000000E+03 0.  0.
         25    1    1    2    0    0 -0.28040005804E+03 -0.11397827106E+02 -0.18308965752E+03  0.35763238906E+03  0.12500000000E+03 0.  0.
         25    1    1    2    0    0  0.75968791194E+02  0.69588688136E+02  0.20783131338E+02  0.16331191414E+03  0.12500000000E+03 0.  0.
</event>
<event>
 5    0  0.5716182E-005  0.3697871E+03  0.7546771E-02  0.1054774E+00
         21   -1    0    0  502  501  0.00000000000E+00  0.00000000000E+00  0.67789727968E+03  0.67789727968E+03  0.00000000000E+00 0. -1.
         21   -1    0    0  501  502 -0.00000000000E+00 -0.00000000000E+00 -0.20171569017E+03  0.20171569017E+03  0.00000000000E+00 0. -1.
         25    1    1    2    0    0 -0.28017543373E+02 -0.13203480570E+03  0.29639686682E+02  0.18633755306E+03  0.12500000000E+03 0.  0.
         25    1    1    2    0    0  0.17039997438E+03  0.22746101196E+02  0.42285312896E+03  0.47326874507E+03  0.12500000000E+03 0.  0.
         25    1    1    2    0    0 -0.14238243100E+03  0.10928870451E+03  0.23688773869E+02  0.22000667172E+03  0.12500000000E+03 0.  0.
</event>
<event>
 5    0  0.7223635E-005  0.2763055E+03  0.7546771E-02  0.1097724E+00
         21   -1    0    0  502  501  0.00000000000E+00  0.00000000000E+00  0.35266095386E+03  0.35266095386E+03  0.00000000000E+00 0.  1.
         21   -1    0    0  501  502 -0.00000000000E+00 -0.00000000000E+00 -0.21648201816E+03  0.21648201816E+03  0.00000000000E+00 0.  1.
         25    1    1    2    0    0 -0.46891163916E+02 -0.41701797878E+02  0.15817951498E+03  0.21114824214E+03  0.12500000000E+03 0.  0.
         25    1    1    2    0    0  0.12010342639E+03 -0.35625624683E+02  0.41775791353E+02  0.18183573606E+03  0.12500000000E+03 0.  0.
         25    1    1    2    0    0 -0.73212262473E+02  0.77327422561E+02 -0.63776370628E+02  0.17615899383E+03  0.12500000000E+03 0.  0.
</event>
<event>
 5    0  0.5668330E-005  0.3207395E+03  0.7546771E-02  0.1075309E+00
         21   -1    0    0  502  501  0.00000000000E+00  0.00000000000E+00  0.82890024398E+03  0.82890024398E+03  0.00000000000E+00 0.  1.
         21   -1    0    0  501  502 -0.00000000000E+00 -0.00000000000E+00 -0.12410885096E+03  0.12410885096E+03  0.00000000000E+00 0.  1.
         25    1    1    2    0    0  0.11703591570E+03 -0.83094050814E+01  0.35561150771E+03  0.39477968057E+03  0.12500000000E+03 0.  0.
         25    1    1    2    0    0 -0.19291390088E+03 -0.99143513881E+02  0.23798242251E+03  0.34540677892E+03  0.12500000000E+03 0.  0.
         25    1    1    2    0    0  0.75877985179E+02  0.10745291896E+03  0.11119746280E+03  0.21282263545E+03  0.12500000000E+03 0.  0.
</event>
<event>
 5    0  0.5668330E-005  0.3209545E+03  0.7546771E-02  0.1075211E+00
         21   -1    0    0  502  501  0.00000000000E+00  0.00000000000E+00  0.21003750073E+03  0.21003750073E+03  0.00000000000E+00 0. -1.
         21   -1    0    0  501  502 -0.00000000000E+00 -0.00000000000E+00 -0.49044482491E+03  0.49044482491E+03  0.00000000000E+00 0. -1.
         25    1    1    2    0    0  0.28524212679E+02 -0.22063212822E+02  0.46518174319E+02  0.13816423781E+03  0.12500000000E+03 0.  0.
         25    1    1    2    0    0 -0.16303880493E+03 -0.96937899390E+02 -0.10364125361E+03  0.24969004326E+03  0.12500000000E+03 0.  0.
         25    1    1    2    0    0  0.13451459225E+03  0.11900111221E+03 -0.22328424488E+03  0.31262804457E+03  0.12500000000E+03 0.  0.
</event>
<event>
 5    0  0.5668330E-005  0.4171501E+03  0.7546771E-02  0.1037998E+00
         21   -1    0    0  502  501  0.00000000000E+00  0.00000000000E+00  0.10475343287E+03  0.10475343287E+03  0.00000000000E+00 0. -1.
         21   -1    0    0  501  502 -0.00000000000E+00 -0.00000000000E+00 -0.16611789336E+04  0.16611789336E+04  0.00000000000E+00 0. -1.
         25    1    1    2    0    0  0.13619086848E+02 -0.45641570967E+02 -0.13484184283E+03  0.18993671342E+03  0.12500000000E+03 0.  0.
         25    1    1    2    0    0  0.72468474776E+02  0.25053303779E+03 -0.12117140376E+04  0.12457505335E+04  0.12500000000E+03 0.  0.
         25    1    1    2    0    0 -0.86087561624E+02 -0.20489146682E+03 -0.20986962028E+03  0.33024511951E+03  0.12500000000E+03 0.  0.
</event>
<event>
 5    0  0.5668330E-005  0.4097881E+03  0.7546771E-02  0.1040442E+00
         21   -1    0    0  502  501  0.00000000000E+00  0.00000000000E+00  0.37529757837E+03  0.37529757837E+03  0.00000000000E+00 0. -1.
         21   -1    0    0  501  502 -0.00000000000E+00 -0.00000000000E+00 -0.44744825581E+03  0.44744825581E+03  0.00000000000E+00 0. -1.
         25    1    1    2    0    0 -0.17447508858E+01 -0.22340392445E+02 -0.11825834098E+03  0.17352859275E+03  0.12500000000E+03 0.  0.
         25    1    1    2    0    0 -0.42375261615E+02  0.75962739059E+01  0.31909039360E+03  0.34539404376E+03  0.12500000000E+03 0.  0.
         25    1    1    2    0    0  0.44120012501E+02  0.14744118539E+02 -0.27298273006E+03  0.30382319767E+03  0.12500000000E+03 0.  0.
</event>
<event>
 5    0  0.5668330E-005  0.3294157E+03  0.7546771E-02  0.1071396E+00
         21   -1    0    0  502  501  0.00000000000E+00  0.00000000000E+00  0.10134727116E+04  0.10134727116E+04  0.00000000000E+00 0.  1.
         21   -1    0    0  501  502 -0.00000000000E+00 -0.00000000000E+00 -0.10707216838E+03  0.10707216838E+03  0.00000000000E+00 0.  1.
         25    1    1    2    0    0 -0.18229767147E+03 -0.13091678450E+03  0.49119334330E+03  0.55431718897E+03  0.12500000000E+03 0.  0.
         25    1    1    2    0    0  0.85444657625E+02  0.58039139332E+02  0.64188262344E+02  0.17439743184E+03  0.12500000000E+03 0.  0.
         25    1    1    2    0    0  0.96853013843E+02  0.72877645170E+02  0.35101893761E+03  0.39183025919E+03  0.12500000000E+03 0.  0.
</event>
<event>
 5    0  0.5668330E-005  0.3628354E+03  0.7546771E-02  0.1057467E+00
         21   -1    0    0  502  501  0.00000000000E+00  0.00000000000E+00  0.11384026893E+03  0.11384026893E+03  0.00000000000E+00 0.  1.
         21   -1    0    0  501  502 -0.00000000000E+00 -0.00000000000E+00 -0.11564405050E+04  0.11564405050E+04  0.00000000000E+00 0.  1.
         25    1    1    2    0    0 -0.23297953625E+03 -0.20655336300E+02 -0.32540231492E+03  0.41978300797E+03  0.12500000000E+03 0.  0.
         25    1    1    2    0    0  0.82837802085E+02  0.13941221478E+03 -0.20571995673E+03  0.29024742494E+03  0.12500000000E+03 0.  0.
         25    1    1    2    0    0  0.15014173416E+03 -0.11875687848E+03 -0.51147796440E+03  0.56025034100E+03  0.12500000000E+03 0.  0.
</event>
<event>
 5    0  0.5668330E-005  0.2424315E+03  0.7546771E-02  0.1118184E+00
         21   -1    0    0  502  501  0.00000000000E+00  0.00000000000E+00  0.64318766997E+02  0.64318766997E+02  0.00000000000E+00 0. -1.
         21   -1    0    0  501  502 -0.00000000000E+00 -0.00000000000E+00 -0.91377761307E+03  0.91377761307E+03  0.00000000000E+00 0. -1.
         25    1    1    2    0    0 -0.43420122440E+02  0.64182266211E+02 -0.46278980516E+03  0.48559661663E+03  0.12500000000E+03 0.  0.
         25    1    1    2    0    0  0.57690763446E+02 -0.10448563538E+03 -0.22503200712E+03  0.28374262355E+03  0.12500000000E+03 0.  0.
         25    1    1    2    0    0 -0.14270641006E+02  0.40303369166E+02 -0.16163703379E+03  0.20875713989E+03  0.12500000000E+03 0.  0.
</event>
<event>
 5    0  0.5668330E-005  0.8492982E+03  0.7546771E-02  0.9491279E-01
         21   -1    0    0  502  501  0.00000000000E+00  0.00000000000E+00  0.14689240689E+04  0.14689240689E+04  0.00000000000E+00 0. -1.
         21   -1    0    0  501  502 -0.00000000000E+00 -0.00000000000E+00 -0.49104479417E+03  0.49104479417E+03  0.00000000000E+00 0. -1.
         25    1    1    2    0    0 -0.13328555884E+03  0.53408778641E+03  0.99339101268E+03  0.11425696950E+04  0.12500000000E+03 0.  0.
         25    1    1    2    0    0  0.32016042301E+03 -0.16273385789E+03 -0.41372496466E+02  0.38252018042E+03  0.12500000000E+03 0.  0.
         25    1    1    2    0    0 -0.18687486417E+03 -0.37135392852E+03  0.25860758501E+02  0.43487898767E+03  0.12500000000E+03 0.  0.
</event>
<event>
 5    0  0.5668330E-005  0.2486693E+03  0.7546771E-02  0.1114149E+00
         21   -1    0    0  502  501  0.00000000000E+00  0.00000000000E+00  0.47559567712E+03  0.47559567712E+03  0.00000000000E+00 0.  1.
         21   -1    0    0  501  502 -0.00000000000E+00 -0.00000000000E+00 -0.13001893534E+03  0.13001893534E+03  0.00000000000E+00 0.  1.
         25    1    1    2    0    0  0.10309836759E+03 -0.19339667964E+02  0.17696486801E+03  0.24071738755E+03  0.12500000000E+03 0.  0.
         25    1    1    2    0    0 -0.90552666665E+01 -0.49293344630E+02  0.15611405260E+02  0.13557487840E+03  0.12500000000E+03 0.  0.
         25    1    1    2    0    0 -0.94043100927E+02  0.68633012594E+02  0.15300046850E+03  0.22932234652E+03  0.12500000000E+03 0.  0.
</event>
<event>
 5    0  0.7250741E-005  0.3176604E+03  0.7546771E-02  0.1076731E+00
         21   -1    0    0  502  501  0.00000000000E+00  0.00000000000E+00  0.18145659807E+03  0.18145659807E+03  0.00000000000E+00 0.  1.
         21   -1    0    0  501  502 -0.00000000000E+00 -0.00000000000E+00 -0.55610071324E+03  0.55610071324E+03  0.00000000000E+00 0.  1.
         25    1    1    2    0    0 -0.14816197673E+03  0.58131055670E+02 -0.98721087646E+02  0.22517114409E+03  0.12500000000E+03 0.  0.
         25    1    1    2    0    0  0.87591224304E+02  0.12414301220E+03 -0.85882130049E+02  0.21467289143E+03  0.12500000000E+03 0.  0.
         25    1    1    2    0    0  0.60570752429E+02 -0.18227406787E+03 -0.19004089748E+03  0.29771327579E+03  0.12500000000E+03 0.  0.
</event>
<event>
 5    0  0.5668330E-005  0.2973186E+03  0.7546771E-02  0.1086589E+00
         21   -1    0    0  502  501  0.00000000000E+00  0.00000000000E+00  0.55909592295E+02  0.55909592295E+02  0.00000000000E+00 0.  1.
         21   -1    0    0  501  502 -0.00000000000E+00 -0.00000000000E+00 -0.15810943047E+04  0.15810943047E+04  0.00000000000E+00 0.  1.
         25    1    1    2    0    0  0.46808720026E+02 -0.12065406275E+03 -0.34176192227E+03  0.38623136931E+03  0.12500000000E+03 0.  0.
         25    1    1    2    0    0  0.30817464918E+02 -0.55131056962E+01 -0.14318910504E+03  0.19263496640E+03  0.12500000000E+03 0.  0.
         25    1    1    2    0    0 -0.77626184943E+02  0.12616716845E+03 -0.10402336851E+04  0.10581375613E+04  0.12500000000E+03 0.  0.
</event>
<event>
 5    0  0.5668330E-005  0.2799770E+03  0.7546771E-02  0.1095702E+00
         21   -1    0    0  502  501  0.00000000000E+00  0.00000000000E+00  0.14309017159E+03  0.14309017159E+03  0.00000000000E+00 0.  1.
         21   -1    0    0  501  502 -0.00000000000E+00 -0.00000000000E+00 -0.54781607028E+03  0.54781607028E+03  0.00000000000E+00 0.  1.
         25    1    1    2    0    0 -0.37730020330E+02 -0.16465071421E+02 -0.71102250641E+02  0.14958336491E+03  0.12500000000E+03 0.  0.
         25    1    1    2    0    0  0.12881935622E+03 -0.11762620499E+03 -0.21941099886E+03  0.30691454358E+03  0.12500000000E+03 0.  0.
         25    1    1    2    0    0 -0.91089335889E+02  0.13409127641E+03 -0.11421264919E+03  0.23440833338E+03  0.12500000000E+03 0.  0.
</event>
<event>
 5    0  0.5668330E-005  0.2550155E+03  0.7546771E-02  0.1110176E+00
         21   -1    0    0  502  501  0.00000000000E+00  0.00000000000E+00  0.53955483045E+03  0.53955483045E+03  0.00000000000E+00 0.  1.
         21   -1    0    0  501  502 -0.00000000000E+00 -0.00000000000E+00 -0.12053063051E+03  0.12053063051E+03  0.00000000000E+00 0.  1.
         25    1    1    2    0    0  0.10567169693E+02 -0.61365090266E+02 -0.16117675173E+02  0.14057780348E+03  0.12500000000E+03 0.  0.
         25    1    1    2    0    0  0.47592795983E+02  0.19117674595E+02  0.16473719527E+03  0.21305845024E+03  0.12500000000E+03 0.  0.
         25    1    1    2    0    0 -0.58159965677E+02  0.42247415672E+02  0.27040467985E+03  0.30644920725E+03  0.12500000000E+03 0.  0.
</event>
<event>
 5    0  0.5668330E-005  0.2421179E+03  0.7546771E-02  0.1118390E+00
         21   -1    0    0  502  501  0.00000000000E+00  0.00000000000E+00  0.29742354777E+03  0.29742354777E+03  0.00000000000E+00 0. -1.
         21   -1    0    0  501  502 -0.00000000000E+00 -0.00000000000E+00 -0.19709623281E+03  0.19709623281E+03  0.00000000000E+00 0. -1.
         25    1    1    2    0    0  0.22240740043E+02  0.42289600799E+02  0.67437658257E+01  0.13399081771E+03  0.12500000000E+03 0.  0.
         25    1    1    2    0    0 -0.30204687181E+02 -0.33956508077E+02  0.16824884372E+03  0.21447153887E+03  0.12500000000E+03 0.  0.
         25    1    1    2    0    0  0.79639471386E+01 -0.83330927228E+01 -0.74665294595E+02  0.14605742400E+03  0.12500000000E+03 0.  0.
</event>
<event>
 5    0  0.5668330E-005  0.3160928E+03  0.7546771E-02  0.1077462E+00
         21   -1    0    0  502  501  0.00000000000E+00  0.00000000000E+00  0.12013681701E+03  0.12013681701E+03  0.00000000000E+00 0. -1.
         21   -1    0    0  501  502 -0.00000000000E+00 -0.00000000000E+00 -0.83167396318E+03  0.83167396318E+03  0.00000000000E+00 0. -1.
         25    1    1    2    0    0 -0.74439475998E+01  0.89547845799E+02 -0.26945717808E+03  0.31033272445E+03  0.12500000000E+03 0.  0.
         25    1    1    2    0    0 -0.23210819960E+01  0.14759367782E+03 -0.14892700300E+03  0.24411786779E+03  0.12500000000E+03 0.  0.
         25    1    1    2    0    0  0.97650295958E+01 -0.23714152362E+03 -0.29315296509E+03  0.39736018795E+03  0.12500000000E+03 0.  0.
</event>
<event>
 5    0  0.5668330E-005  0.3516401E+03  0.7546771E-02  0.1061944E+00
         21   -1    0    0  502  501  0.00000000000E+00  0.00000000000E+00  0.22953955862E+04  0.22953955862E+04  0.00000000000E+00 0. -1.
         21   -1    0    0  501  502 -0.00000000000E+00 -0.00000000000E+00 -0.53869046560E+02  0.53869046560E+02  0.00000000000E+00 0. -1.
         25    1    1    2    0    0 -0.11614258365E+03 -0.19847499105E+03  0.72200847511E+03  0.76798610661E+03  0.12500000000E+03 0.  0.
         25    1    1    2    0    0  0.92952334668E+02  0.92760358426E+02  0.29944423626E+03  0.35005209790E+03  0.12500000000E+03 0.  0.
         25    1    1    2    0    0  0.23190248980E+02  0.10571463263E+03  0.12200738282E+04  0.12312264282E+04  0.12500000000E+03 0.  0.
</event>
<event>
 5    0  0.5668330E-005  0.3665648E+03  0.7546771E-02  0.1056014E+00
         21   -1    0    0  502  501  0.00000000000E+00  0.00000000000E+00  0.39137102358E+03  0.39137102358E+03  0.00000000000E+00 0.  1.
         21   -1    0    0  501  502 -0.00000000000E+00 -0.00000000000E+00 -0.34333081472E+03  0.34333081472E+03  0.00000000000E+00 0.  1.
         25    1    1    2    0    0 -0.15429172475E+03  0.14149312946E+03 -0.63027936447E+02  0.25184074885E+03  0.12500000000E+03 0.  0.
         25    1    1    2    0    0 -0.45911781130E+02 -0.95772457550E+02 -0.73529850822E+02  0.17975509515E+03  0.12500000000E+03 0.  0.
         25    1    1    2    0    0  0.20020350588E+03 -0.45720671905E+02  0.18459799613E+03  0.30310599430E+03  0.12500000000E+03 0.  0.
</event>
<event>
 5    0  0.5668330E-005  0.2114278E+03  0.7546771E-02  0.1140440E+00
         21   -1    0    0  502  501  0.00000000000E+00  0.00000000000E+00  0.27664605095E+03  0.27664605095E+03  0.00000000000E+00 0. -1.
         21   -1    0    0  501  502 -0.00000000000E+00 -0.00000000000E+00 -0.16158457272E+03  0.16158457272E+03  0.00000000000E+00 0. -1.
         25    1    1    2    0    0  0.18931098668E+02  0.41693215374E+02  0.42333845834E+02  0.13969203702E+03  0.12500000000E+03 0.  0.
         25    1    1    2    0    0  0.37590927158E+01 -0.52789841234E+02  0.99410216637E+02  0.16825067396E+03  0.12500000000E+03 0.  0.
         25    1    1    2    0    0 -0.22690191384E+02  0.11096625860E+02 -0.26682584245E+02  0.13028791269E+03  0.12500000000E+03 0.  0.
</event>
<event>
 5    0  0.5668330E-005  0.3376667E+03  0.7546771E-02  0.1067794E+00
         21   -1    0    0  502  501  0.00000000000E+00  0.00000000000E+00  0.15381302608E+04  0.15381302608E+04  0.00000000000E+00 0.  1.
         21   -1    0    0  501  502 -0.00000000000E+00 -0.00000000000E+00 -0.74128189785E+02  0.74128189785E+02  0.00000000000E+00 0.  1.
         25    1    1    2    0    0  0.81132738734E+02  0.22315071622E+03  0.62485708514E+03  0.68003686686E+03  0.12500000000E+03 0.  0.
         25    1    1    2    0    0 -0.53340332167E+02 -0.24057768964E+03  0.59294699496E+03  0.65416661075E+03  0.12500000000E+03 0.  0.
         25    1    1    2    0    0 -0.27792406567E+02  0.17426973425E+02  0.24619799095E+03  0.27805497300E+03  0.12500000000E+03 0.  0.
</event>
<event>
 5    0  0.5668330E-005  0.4017069E+03  0.7546771E-02  0.1043190E+00
         21   -1    0    0  502  501  0.00000000000E+00  0.00000000000E+00  0.28559189433E+04  0.28559189433E+04  0.00000000000E+00 0. -1.
         21   -1    0    0  501  502 -0.00000000000E+00 -0.00000000000E+00 -0.56503154965E+02  0.56503154965E+02  0.00000000000E+00 0. -1.
         25    1    1    2    0    0 -0.19514294036E+03  0.12301305214E+03  0.15892359431E+04  0.16107479198E+04  0.12500000000E+03 0.  0.
         25    1    1    2    0    0  0.15791208062E+03 -0.13169307492E+03  0.31191480689E+03  0.39394814118E+03  0.12500000000E+03 0.  0.
         25    1    1    2    0    0  0.37230859740E+02  0.86800227850E+01  0.89826503832E+03  0.90772603729E+03  0.12500000000E+03 0.  0.
</event>
<event>
 5    0  0.5668330E-005  0.2238349E+03  0.7546771E-02  0.1131056E+00
         21   -1    0    0  502  501  0.00000000000E+00  0.00000000000E+00  0.71218483933E+02  0.71218483933E+02  0.00000000000E+00 0. -1.
         21   -1    0    0  501  502 -0.00000000000E+00 -0.00000000000E+00 -0.70349788126E+03  0.70349788126E+03  0.00000000000E+00 0. -1.
         25    1    1    2    0    0  0.22008226350E+02 -0.12614432668E+01 -0.13715080062E+03  0.18687240400E+03  0.12500000000E+03 0.  0.
         25    1    1    2    0    0 -0.90193291393E+02 -0.44809015877E+02 -0.19581496106E+03  0.25320184970E+03  0.12500000000E+03 0.  0.
         25    1    1    2    0    0  0.68185065043E+02  0.46070459144E+02 -0.29931363565E+03  0.33464211150E+03  0.12500000000E+03 0.  0.
</event>
<event>
 5    0  0.5668330E-005  0.2636806E+03  0.7546771E-02  0.1104952E+00
         21   -1    0    0  502  501  0.00000000000E+00  0.00000000000E+00  0.29039558235E+03  0.29039558235E+03  0.00000000000E+00 0. -1.
         21   -1    0    0  501  502 -0.00000000000E+00 -0.00000000000E+00 -0.23942324276E+03  0.23942324276E+03  0.00000000000E+00 0. -1.
         25    1    1    2    0    0  0.91814409654E+02  0.88678276514E+02 -0.48781327962E+02  0.18519811150E+03  0.12500000000E+03 0.  0.
         25    1    1    2    0    0  0.39467467545E+00  0.36627110275E+02  0.36793930794E+02  0.13535322057E+03  0.12500000000E+03 0.  0.
         25    1    1    2    0    0 -0.92209084329E+02 -0.12530538679E+03  0.62959736757E+02  0.20926749304E+03  0.12500000000E+03 0.  0.
</event>
<event>
 5    0  0.6641815E-005  0.3031340E+03  0.7546771E-02  0.1083684E+00
         21   -1    0    0  502  501  0.00000000000E+00  0.00000000000E+00  0.27226722886E+03  0.27226722886E+03  0.00000000000E+00 0.  1.
         21   -1    0    0  501  502 -0.00000000000E+00 -0.00000000000E+00 -0.33750006760E+03  0.33750006760E+03  0.00000000000E+00 0.  1.
         25    1    1    2    0    0 -0.79835903937E+01  0.53562925770E+02  0.11908381251E+03  0.18093832964E+03  0.12500000000E+03 0.  0.
         25    1    1    2    0    0  0.90327895144E+02  0.70498078869E+02 -0.15957313248E+03  0.23284692907E+03  0.12500000000E+03 0.  0.
         25    1    1    2    0    0 -0.82344304750E+02 -0.12406100464E+03 -0.24743518762E+02  0.19598203774E+03  0.12500000000E+03 0.  0.
</event>
<event>
 5    0  0.5668330E-005  0.5060832E+03  0.7546771E-02  0.1012203E+00
         21   -1    0    0  502  501  0.00000000000E+00  0.00000000000E+00  0.12414151644E+04  0.12414151644E+04  0.00000000000E+00 0. -1.
         21   -1    0    0  501  502 -0.00000000000E+00 -0.00000000000E+00 -0.20631307851E+03  0.20631307851E+03  0.00000000000E+00 0. -1.
         25    1    1    2    0    0  0.40006725197E+03  0.29388720537E+02  0.34034184565E+03  0.54071718569E+03  0.12500000000E+03 0.  0.
         25    1    1    2    0    0 -0.30776019529E+03 -0.69164960548E+02  0.21630214358E+03  0.40238258771E+03  0.12500000000E+03 0.  0.
         25    1    1    2    0    0 -0.92307056679E+02  0.39776240011E+02  0.47845809661E+03  0.50462846947E+03  0.12500000000E+03 0.  0.
</event>
<event>
 5    0  0.5668330E-005  0.2065458E+03  0.7546771E-02  0.1144331E+00
         21   -1    0    0  502  501  0.00000000000E+00  0.00000000000E+00  0.27270429285E+03  0.27270429285E+03  0.00000000000E+00 0. -1.
         21   -1    0    0  501  502 -0.00000000000E+00 -0.00000000000E+00 -0.15643747489E+03  0.15643747489E+03  0.00000000000E+00 0. -1.
         25    1    1    2    0    0  0.26611884076E+02 -0.15973079914E+02 -0.10441601399E+02  0.12921825992E+03  0.12500000000E+03 0.  0.
         25    1    1    2    0    0  0.26759261755E+02 -0.96767090806E+01  0.90571224339E+02  0.15696446562E+03  0.12500000000E+03 0.  0.
         25    1    1    2    0    0 -0.53371145832E+02  0.25649788994E+02  0.36137195025E+02  0.14295904220E+03  0.12500000000E+03 0.  0.
</event>
<event>
 5    0  0.5668330E-005  0.4045883E+03  0.7546771E-02  0.1042202E+00
         21   -1    0    0  502  501  0.00000000000E+00  0.00000000000E+00  0.22975660137E+04  0.22975660137E+04  0.00000000000E+00 0.  1.
         21   -1    0    0  501  502 -0.00000000000E+00 -0.00000000000E+00 -0.71245691440E+02  0.71245691440E+02  0.00000000000E+00 0.  1.
         25    1    1    2    0    0  0.11167557630E+03 -0.93496823782E+02  0.33480298648E+03  0.38591596255E+03  0.12500000000E+03 0.  0.
         25    1    1    2    0    0 -0.94803260065E+02  0.72638184454E+02  0.18349792764E+04  0.18431055067E+04  0.12500000000E+03 0.  0.
         25    1    1    2    0    0 -0.16872316234E+02  0.20858639328E+02  0.56538059353E+02  0.13979023587E+03  0.12500000000E+03 0.  0.
</event>
<event>
 5    0  0.5668330E-005  0.2442081E+03  0.7546771E-02  0.1117021E+00
         21   -1    0    0  502  501  0.00000000000E+00  0.00000000000E+00  0.70274627507E+03  0.70274627507E+03  0.00000000000E+00 0.  1.
         21   -1    0    0  501  502 -0.00000000000E+00 -0.00000000000E+00 -0.84863642717E+02  0.84863642717E+02  0.00000000000E+00 0.  1.
         25    1    1    2    0    0 -0.13348992751E+03  0.71629179322E+01  0.25784109948E+03  0.31619282206E+03  0.12500000000E+03 0.  0.
         25    1    1    2    0    0  0.80636045765E+02 -0.21555158709E+02  0.10897160138E+03  0.18565184258E+03  0.12500000000E+03 0.  0.
         25    1    1    2    0    0  0.52853881749E+02  0.14392240777E+02  0.25106993149E+03  0.28576525315E+03  0.12500000000E+03 0.  0.
</event>
<event>
 5    0  0.5668330E-005  0.2645937E+03  0.7546771E-02  0.1104414E+00
         21   -1    0    0  502  501  0.00000000000E+00  0.00000000000E+00  0.37418290527E+03  0.37418290527E+03  0.00000000000E+00 0. -1.
         21   -1    0    0  501  502 -0.00000000000E+00 -0.00000000000E+00 -0.18710053266E+03  0.18710053266E+03  0.00000000000E+00 0. -1.
         25    1    1    2    0    0 -0.18897564673E+02  0.11067444910E+03  0.14159434973E+03  0.21972690210E+03  0.12500000000E+03 0.  0.
         25    1    1    2    0    0  0.14185217590E+02  0.18189478054E+02  0.90952989239E+02  0.15629946821E+03  0.12500000000E+03 0.  0.
         25    1    1    2    0    0  0.47123470825E+01 -0.12886392715E+03 -0.45464966355E+02  0.18525706761E+03  0.12500000000E+03 0.  0.
</event>
<event>
 5    0  0.5668330E-005  0.4112348E+03  0.7546771E-02  0.1039957E+00
         21   -1    0    0  502  501  0.00000000000E+00  0.00000000000E+00  0.91313499349E+02  0.91313499349E+02  0.00000000000E+00 0.  1.
         21   -1    0    0  501  502 -0.00000000000E+00 -0.00000000000E+00 -0.18520155802E+04  0.18520155802E+04  0.00000000000E+00 0.  1.
         25    1    1    2    0    0  0.25093012199E+02  0.20645981168E+02 -0.16376201040E+04  0.16427052447E+04  0.12500000000E+03 0.  0.
         25    1    1    2    0    0 -0.61375620615E+02 -0.27699219726E+02 -0.81960026532E+02  0.16394102454E+03  0.12500000000E+03 0.  0.
         25    1    1    2    0    0  0.36282608416E+02  0.70532385583E+01 -0.41121950324E+02  0.13668281035E+03  0.12500000000E+03 0.  0.
</event>
<event>
 5    0  0.5668330E-005  0.3821230E+03  0.7546771E-02  0.1050152E+00
         21   -1    0    0  502  501  0.00000000000E+00  0.00000000000E+00  0.80218979949E+03  0.80218979949E+03  0.00000000000E+00 0.  1.
         21   -1    0    0  501  502 -0.00000000000E+00 -0.00000000000E+00 -0.18202423107E+03  0.18202423107E+03  0.00000000000E+00 0.  1.
         25    1    1    2    0    0  0.22461630367E+03 -0.10365926300E+02  0.44262651822E+03  0.51196012631E+03  0.12500000000E+03 0.  0.
         25    1    1    2    0    0 -0.23458989651E+03  0.43540597865E+02  0.22770989156E+02  0.27031781509E+03  0.12500000000E+03 0.  0.
         25    1    1    2    0    0  0.99735928392E+01 -0.33174671565E+02  0.15476806105E+03  0.20193608917E+03  0.12500000000E+03 0.  0.
</event>
<event>
 5    0  0.5668330E-005  0.2335982E+03  0.7546771E-02  0.1124133E+00
         21   -1    0    0  502  501  0.00000000000E+00  0.00000000000E+00  0.42717688744E+03  0.42717688744E+03  0.00000000000E+00 0. -1.
         21   -1    0    0  501  502 -0.00000000000E+00 -0.00000000000E+00 -0.12774125388E+03  0.12774125388E+03  0.00000000000E+00 0. -1.
         25    1    1    2    0    0 -0.74934811247E+02 -0.42333058301E+02  0.46735094289E+02  0.15879698612E+03  0.12500000000E+03 0.  0.
         25    1    1    2    0    0  0.62103530446E+02 -0.23304427757E+02  0.19973346354E+03  0.24478235497E+03  0.12500000000E+03 0.  0.
         25    1    1    2    0    0  0.12831280801E+02  0.65637486058E+02  0.52967075734E+02  0.15133880023E+03  0.12500000000E+03 0.  0.
</event>
<event>
 5    0  0.5668330E-005  0.5264364E+03  0.7546771E-02  0.1007100E+00
         21   -1    0    0  502  501  0.00000000000E+00  0.00000000000E+00  0.21195705970E+03  0.21195705970E+03  0.00000000000E+00 0. -1.
         21   -1    0    0  501  502 -0.00000000000E+00 -0.00000000000E+00 -0.13075068445E+04  0.13075068445E+04  0.00000000000E+00 0. -1.
         25    1    1    2    0    0  0.23857969201E+03 -0.51542883918E+02 -0.17568720020E+03  0.32568071886E+03  0.12500000000E+03 0.  0.
         25    1    1    2    0    0  0.47458626871E+02  0.11446924210E+03  0.41682127810E+02  0.18088097863E+03  0.12500000000E+03 0.  0.
         25    1    1    2    0    0 -0.28603831888E+03 -0.62926358178E+02 -0.96154471243E+03  0.10129022067E+04  0.12500000000E+03 0.  0.
</event>
<event>
 5    0  0.5668330E-005  0.3356814E+03  0.7546771E-02  0.1068650E+00
         21   -1    0    0  502  501  0.00000000000E+00  0.00000000000E+00  0.11827191683E+03  0.11827191683E+03  0.00000000000E+00 0.  1.
         21   -1    0    0  501  502 -0.00000000000E+00 -0.00000000000E+00 -0.95273672235E+03  0.95273672235E+03  0.00000000000E+00 0.  1.
         25    1    1    2    0    0 -0.42963176350E+02  0.15088437170E+02 -0.19050350738E+03  0.23235765919E+03  0.12500000000E+03 0.  0.
         25    1    1    2    0    0 -0.10742395510E+03  0.18481004152E+03 -0.38349074937E+03  0.45649185363E+03  0.12500000000E+03 0.  0.
         25    1    1    2    0    0  0.15038713145E+03 -0.19989847869E+03 -0.26047054876E+03  0.38215912636E+03  0.12500000000E+03 0.  0.
</event>
<event>
 5    0  0.6560372E-005  0.4066172E+03  0.7546771E-02  0.1041512E+00
         21   -1    0    0  502  501  0.00000000000E+00  0.00000000000E+00  0.41064682267E+03  0.41064682267E+03  0.00000000000E+00 0.  1.
         21   -1    0    0  501  502 -0.00000000000E+00 -0.00000000000E+00 -0.40262715306E+03  0.40262715306E+03  0.00000000000E+00 0.  1.
         25    1    1    2    0    0 -0.73510396353E+02 -0.90946548461E+01 -0.20948593140E+03  0.25494283001E+03  0.12500000000E+03 0.  0.
         25    1    1    2    0    0  0.26053869150E+03 -0.27963614465E+00  0.11679437059E+03  0.31168319327E+03  0.12500000000E+03 0.  0.
         25    1    1    2    0    0 -0.18702829515E+03  0.93742909907E+01  0.10071123041E+03  0.24664795245E+03  0.12500000000E+03 0.  0.
</event>
<event>
 5    0  0.7007139E-005  0.4185283E+03  0.7546771E-02  0.1037546E+00
         21   -1    0    0  502  501  0.00000000000E+00  0.00000000000E+00  0.25994200523E+03  0.25994200523E+03  0.00000000000E+00 0.  1.
         21   -1    0    0  501  502 -0.00000000000E+00 -0.00000000000E+00 -0.67386535888E+03  0.67386535888E+03  0.00000000000E+00 0.  1.
         25    1    1    2    0    0  0.22868324963E+02 -0.14623303661E+03 -0.40912834444E+03  0.45267876414E+03  0.12500000000E+03 0.  0.
         25    1    1    2    0    0  0.17911358966E+03  0.67676149819E+02 -0.25537320118E+02  0.23008453658E+03  0.12500000000E+03 0.  0.
         25    1    1    2    0    0 -0.20198191462E+03  0.78556886789E+02  0.20742310908E+02  0.25104406338E+03  0.12500000000E+03 0.  0.
</event>
<event>
 5    0  0.5668330E-005  0.2754782E+03  0.7546771E-02  0.1098185E+00
         21   -1    0    0  502  501  0.00000000000E+00  0.00000000000E+00  0.31256439220E+04  0.31256439220E+04  0.00000000000E+00 0. -1.
         21   -1    0    0  501  502 -0.00000000000E+00 -0.00000000000E+00 -0.24279236803E+02  0.24279236803E+02  0.00000000000E+00 0. -1.
         25    1    1    2    0    0  0.19101117014E+02  0.33634047409E+02  0.24578815138E+03  0.27844733286E+03  0.12500000000E+03 0.  0.
         25    1    1    2    0    0  0.57256313886E+02 -0.36372616453E+02  0.99103747831E+03  0.10011900599E+04  0.12500000000E+03 0.  0.
         25    1    1    2    0    0 -0.76357430900E+02  0.27385690439E+01  0.18645390555E+04  0.18702857660E+04  0.12500000000E+03 0.  0.
</event>
<event>
 5    0  0.5772684E-005  0.3120643E+03  0.7546771E-02  0.1079361E+00
         21   -1    0    0  502  501  0.00000000000E+00  0.00000000000E+00  0.21332867004E+03  0.21332867004E+03  0.00000000000E+00 0.  1.
         21   -1    0    0  501  502 -0.00000000000E+00 -0.00000000000E+00 -0.45649811606E+03  0.45649811606E+03  0.00000000000E+00 0.  1.
         25    1    1    2    0    0 -0.49018360235E+02  0.91652465322E+02  0.76186655399E+02  0.17953378652E+03  0.12500000000E+03 0.  0.
         25    1    1    2    0    0  0.45233020382E+02  0.62117333525E+02 -0.23014060327E+03  0.27293641481E+03  0.12500000000E+03 0.  0.
         25    1    1    2    0    0  0.37853398530E+01 -0.15376979885E+03 -0.89215498154E+02  0.21735658478E+03  0.12500000000E+03 0.  0.
</event>
<event>
 5    0  0.5668330E-005  0.2378266E+03  0.7546771E-02  0.1121249E+00
         21   -1    0    0  502  501  0.00000000000E+00  0.00000000000E+00  0.13936182216E+03  0.13936182216E+03  0.00000000000E+00 0.  1.
         21   -1    0    0  501  502 -0.00000000000E+00 -0.00000000000E+00 -0.40586065691E+03  0.40586065691E+03  0.00000000000E+00 0.  1.
         25    1    1    2    0    0 -0.30461898964E+02  0.47545652256E+02  0.58585245286E+01  0.13728743077E+03  0.12500000000E+03 0.  0.
         25    1    1    2    0    0  0.82308172577E+02 -0.58400375055E+02 -0.10282565948E+03  0.19074421440E+03  0.12500000000E+03 0.  0.
         25    1    1    2    0    0 -0.51846273613E+02  0.10854722799E+02 -0.16953169979E+03  0.21719083390E+03  0.12500000000E+03 0.  0.
</event>
<event>
 5    0  0.5668330E-005  0.2416114E+03  0.7546771E-02  0.1118724E+00
         21   -1    0    0  502  501  0.00000000000E+00  0.00000000000E+00  0.21760404072E+03  0.21760404072E+03  0.00000000000E+00 0. -1.
         21   -1    0    0  501  502 -0.00000000000E+00 -0.00000000000E+00 -0.26826738462E+03  0.26826738462E+03  0.00000000000E+00 0. -1.
         25    1    1    2    0    0 -0.50767167130E+02  0.94209785472E+02  0.35959359362E+02  0.16843652948E+03  0.12500000000E+03 0.  0.
         25    1    1    2    0    0  0.26119036442E+02 -0.28648750521E+02  0.28129178862E+02  0.13386263734E+03  0.12500000000E+03 0.  0.
         25    1    1    2    0    0  0.24648130688E+02 -0.65561034952E+02 -0.11475188212E+03  0.18357225853E+03  0.12500000000E+03 0.  0.
</event>
<event>
 5    0  0.5668330E-005  0.4851477E+03  0.7546771E-02  0.1017730E+00
         21   -1    0    0  502  501  0.00000000000E+00  0.00000000000E+00  0.54357788594E+03  0.54357788594E+03  0.00000000000E+00 0.  1.
         21   -1    0    0  501  502 -0.00000000000E+00 -0.00000000000E+00 -0.43299820763E+03  0.43299820763E+03  0.00000000000E+00 0.  1.
         25    1    1    2    0    0 -0.28396670096E+03  0.17400273070E+03  0.95372403377E+02  0.36828648206E+03  0.12500000000E+03 0.  0.
         25    1    1    2    0    0  0.16357362073E+03 -0.30737513445E+03 -0.64153164604E+02  0.37546828256E+03  0.12500000000E+03 0.  0.
         25    1    1    2    0    0  0.12039308023E+03  0.13337240375E+03  0.79360439535E+02  0.23282132895E+03  0.12500000000E+03 0.  0.
</event>
<event>
 5    0  0.6826234E-005  0.2677536E+03  0.7546771E-02  0.1102572E+00
         21   -1    0    0  502  501  0.00000000000E+00  0.00000000000E+00  0.22362626273E+03  0.22362626273E+03  0.00000000000E+00 0. -1.
         21   -1    0    0  501  502 -0.00000000000E+00 -0.00000000000E+00 -0.32058839919E+03  0.32058839919E+03  0.00000000000E+00 0. -1.
         25    1    1    2    0    0 -0.34929838620E+02  0.87357090311E+01 -0.10784520263E+03  0.16897335284E+03  0.12500000000E+03 0.  0.
         25    1    1    2    0    0 -0.27524948901E+02  0.59473763049E+01  0.13618062743E+03  0.18698437738E+03  0.12500000000E+03 0.  0.
         25    1    1    2    0    0  0.62454787521E+02 -0.14683085336E+02 -0.12529756126E+03  0.18825693171E+03  0.12500000000E+03 0.  0.
</event>
<event>
 5    0  0.5668330E-005  0.4021560E+03  0.7546771E-02  0.1043036E+00
         21   -1    0    0  502  501  0.00000000000E+00  0.00000000000E+00  0.13680232667E+03  0.13680232667E+03  0.00000000000E+00 0. -1.
         21   -1    0    0  501  502 -0.00000000000E+00 -0.00000000000E+00 -0.11822125226E+04  0.11822125226E+04  0.00000000000E+00 0. -1.
         25    1    1    2    0    0 -0.83781960716E+02 -0.54392946204E+02 -0.92015873090E+02  0.18458041727E+03  0.12500000000E+03 0.  0.
         25    1    1    2    0    0 -0.17381196242E+03 -0.15137358235E+03 -0.40986479225E+03  0.48655802083E+03  0.12500000000E+03 0.  0.
         25    1    1    2    0    0  0.25759392313E+03  0.20576652855E+03 -0.54352953055E+03  0.64787641113E+03  0.12500000000E+03 0.  0.
</event>
<event>
 5    0  0.5668330E-005  0.2081863E+03  0.7546771E-02  0.1143010E+00
         21   -1    0    0  502  501  0.00000000000E+00  0.00000000000E+00  0.32198963093E+02  0.32198963093E+02  0.00000000000E+00 0.  1.
         21   -1    0    0  501  502 -0.00000000000E+00 -0.00000000000E+00 -0.13460535457E+04  0.13460535457E+04  0.00000000000E+00 0.  1.
         25    1    1    2    0    0 -0.32264584334E+02 -0.47295301380E+02 -0.31727809408E+03  0.34578640505E+03  0.12500000000E+03 0.  0.
         25    1    1    2    0    0  0.57641616006E+01  0.53635804760E+02 -0.61930586339E+03  0.63409366622E+03  0.12500000000E+03 0.  0.
         25    1    1    2    0    0  0.26500422733E+02 -0.63405033793E+01 -0.37727062516E+03  0.39837243755E+03  0.12500000000E+03 0.  0.
</event>
<event>
 5    0  0.5668330E-005  0.2608798E+03  0.7546771E-02  0.1106616E+00
         21   -1    0    0  502  501  0.00000000000E+00  0.00000000000E+00  0.35864525303E+03  0.35864525303E+03  0.00000000000E+00 0.  1.
         21   -1    0    0  501  502 -0.00000000000E+00 -0.00000000000E+00 -0.18976489843E+03  0.18976489843E+03  0.00000000000E+00 0.  1.
         25    1    1    2    0    0  0.68187778572E+02  0.18978397492E+02 -0.43575629279E+02  0.15011191886E+03  0.12500000000E+03 0.  0.
         25    1    1    2    0    0 -0.14257542610E+03  0.12687343026E+01  0.10977229151E+03  0.21909887676E+03  0.12500000000E+03 0.  0.
         25    1    1    2    0    0  0.74387647532E+02 -0.20247131795E+02  0.10268369237E+03  0.17919935583E+03  0.12500000000E+03 0.  0.
</event>
<event>
 5    0  0.5937638E-005  0.2643172E+03  0.7546771E-02  0.1104577E+00
         21   -1    0    0  502  501  0.00000000000E+00  0.00000000000E+00  0.29543724477E+03  0.29543724477E+03  0.00000000000E+00 0. -1.
         21   -1    0    0  501  502 -0.00000000000E+00 -0.00000000000E+00 -0.23647526891E+03  0.23647526891E+03  0.00000000000E+00 0. -1.
         25    1    1    2    0    0  0.63999807712E+02 -0.81342375330E+02  0.16385314363E+02  0.16311356761E+03  0.12500000000E+03 0.  0.
         25    1    1    2    0    0  0.54849146411E+01 -0.81714515025E+02  0.16490953862E+02  0.15034725742E+03  0.12500000000E+03 0.  0.
         25    1    1    2    0    0 -0.69484722354E+02  0.16305689035E+03  0.26085707629E+02  0.21845168865E+03  0.12500000000E+03 0.  0.
</event>
<event>
 5    0  0.5668330E-005  0.3614564E+03  0.7546771E-02  0.1058009E+00
         21   -1    0    0  502  501  0.00000000000E+00  0.00000000000E+00  0.96919569707E+03  0.96919569707E+03  0.00000000000E+00 0.  1.
         21   -1    0    0  501  502 -0.00000000000E+00 -0.00000000000E+00 -0.13480325297E+03  0.13480325297E+03  0.00000000000E+00 0.  1.
         25    1    1    2    0    0 -0.18732334661E+03 -0.45862889740E+02  0.52670028091E+02  0.23578077254E+03  0.12500000000E+03 0.  0.
         25    1    1    2    0    0  0.15838924425E+02 -0.37504209932E+02  0.16673007118E+03  0.21232370081E+03  0.12500000000E+03 0.  0.
         25    1    1    2    0    0  0.17148442219E+03  0.83367099672E+02  0.61499234483E+03  0.65589447669E+03  0.12500000000E+03 0.  0.
</event>
<event>
 5    0  0.5668330E-005  0.4043582E+03  0.7546771E-02  0.1042281E+00
         21   -1    0    0  502  501  0.00000000000E+00  0.00000000000E+00  0.87240245747E+03  0.87240245747E+03  0.00000000000E+00 0.  1.
         21   -1    0    0  501  502 -0.00000000000E+00 -0.00000000000E+00 -0.18741988031E+03  0.18741988031E+03  0.00000000000E+00 0.  1.
         25    1    1    2    0    0 -0.24272181283E+02 -0.81420880628E+02 -0.34875120401E+02  0.15511212915E+03  0.12500000000E+03 0.  0.
         25    1    1    2    0    0  0.43767852700E+02 -0.94113045099E+02  0.66071694240E+03  0.68040044691E+03  0.12500000000E+03 0.  0.
         25    1    1    2    0    0 -0.19495671417E+02  0.17553392573E+03  0.59140755165E+02  0.22430976173E+03  0.12500000000E+03 0.  0.
</event>
<event>
 5    0  0.5668330E-005  0.3551882E+03  0.7546771E-02  0.1060505E+00
         21   -1    0    0  502  501  0.00000000000E+00  0.00000000000E+00  0.13672666328E+04  0.13672666328E+04  0.00000000000E+00 0. -1.
         21   -1    0    0  501  502 -0.00000000000E+00 -0.00000000000E+00 -0.92270730883E+02  0.92270730883E+02  0.00000000000E+00 0. -1.
         25    1    1    2    0    0  0.54211662825E+02 -0.42103048211E+02  0.65262575777E+02  0.15683040156E+03  0.12500000000E+03 0.  0.
         25    1    1    2    0    0 -0.30745266163E+02 -0.52268329101E+02  0.11030249200E+04  0.11117401782E+04  0.12500000000E+03 0.  0.
         25    1    1    2    0    0 -0.23466396662E+02  0.94371377312E+02  0.10670840611E+03  0.19096678392E+03  0.12500000000E+03 0.  0.
</event>
<event>
 5    0  0.5668330E-005  0.2606445E+03  0.7546771E-02  0.1106757E+00
         21   -1    0    0  502  501  0.00000000000E+00  0.00000000000E+00  0.60373325037E+03  0.60373325037E+03  0.00000000000E+00 0.  1.
         21   -1    0    0  501  502 -0.00000000000E+00 -0.00000000000E+00 -0.11252580874E+03  0.11252580874E+03  0.00000000000E+00 0.  1.
         25    1    1    2    0    0 -0.94620500928E+02  0.12337117709E+02  0.57932087261E+02  0.16758988753E+03  0.12500000000E+03 0.  0.
         25    1    1    2    0    0 -0.42926875001E+02  0.40868892195E+02  0.13552917776E+03  0.19366502258E+03  0.12500000000E+03 0.  0.
         25    1    1    2    0    0  0.13754737593E+03 -0.53206009904E+02  0.29774617661E+03  0.35500414899E+03  0.12500000000E+03 0.  0.
</event>
<event>
 5    0  0.5668330E-005  0.5849613E+03  0.7546771E-02  0.9937107E-01
         21   -1    0    0  502  501  0.00000000000E+00  0.00000000000E+00  0.11391060045E+04  0.11391060045E+04  0.00000000000E+00 0.  1.
         21   -1    0    0  501  502 -0.00000000000E+00 -0.00000000000E+00 -0.30039325135E+03  0.30039325135E+03  0.00000000000E+00 0.  1.
         25    1    1    2    0    0 -0.86581578443E+02  0.45556391288E+03  0.54422792754E+03  0.72584012396E+03  0.12500000000E+03 0.  0.
         25    1    1    2    0    0  0.20919951862E+03 -0.23389890911E+03  0.52777651322E+02  0.34188246336E+03  0.12500000000E+03 0.  0.
         25    1    1    2    0    0 -0.12261794018E+03 -0.22166500377E+03  0.24170717425E+03  0.37177666849E+03  0.12500000000E+03 0.  0.
</event>
<event>
 5    0  0.5668330E-005  0.3884858E+03  0.7546771E-02  0.1047841E+00
         21   -1    0    0  502  501  0.00000000000E+00  0.00000000000E+00  0.29040692817E+03  0.29040692817E+03  0.00000000000E+00 0.  1.
         21   -1    0    0  501  502 -0.00000000000E+00 -0.00000000000E+00 -0.51968865431E+03  0.51968865431E+03  0.00000000000E+00 0.  1.
         25    1    1    2    0    0  0.21582183639E+03 -0.30322517497E+02 -0.32202002560E+03  0.40843655201E+03  0.12500000000E+03 0.  0.
         25    1    1    2    0    0 -0.64766723065E+02  0.10756039638E+03  0.66763988244E+02  0.18933144855E+03  0.12500000000E+03 0.  0.
         25    1    1    2    0    0 -0.15105511333E+03 -0.77237878882E+02  0.25974311214E+02  0.21232758191E+03  0.12500000000E+03 0.  0.
</event>
<event>
 5    0  0.5668330E-005  0.2829574E+03  0.7546771E-02  0.1094085E+00
         21   -1    0    0  502  501  0.00000000000E+00  0.00000000000E+00  0.59094593893E+03  0.59094593893E+03  0.00000000000E+00 0.  1.
         21   -1    0    0  501  502 -0.00000000000E+00 -0.00000000000E+00 -0.13548598837E+03  0.13548598837E+03  0.00000000000E+00 0.  1.
         25    1    1    2    0    0 -0.11790349951E+03  0.53744374983E+01  0.36077205657E+03  0.39963933312E+03  0.12500000000E+03 0.  0.
         25    1    1    2    0    0  0.89796021985E+02  0.56491928886E+02  0.17377340621E+02  0.16486854024E+03  0.12500000000E+03 0.  0.
         25    1    1    2    0    0  0.28107477529E+02 -0.61866366385E+02  0.77310553363E+02  0.16192405394E+03  0.12500000000E+03 0.  0.
</event>
<event>
 5    0  0.5668330E-005  0.2931279E+03  0.7546771E-02  0.1088727E+00
         21   -1    0    0  502  501  0.00000000000E+00  0.00000000000E+00  0.42076975420E+03  0.42076975420E+03  0.00000000000E+00 0.  1.
         21   -1    0    0  501  502 -0.00000000000E+00 -0.00000000000E+00 -0.20420657465E+03  0.20420657465E+03  0.00000000000E+00 0.  1.
         25    1    1    2    0    0  0.10874108936E+03  0.80288700282E+02 -0.37937971525E+02  0.18797656660E+03  0.12500000000E+03 0.  0.
         25    1    1    2    0    0 -0.14531647257E+03 -0.35162071567E+02  0.22196261731E+03  0.29537374961E+03  0.12500000000E+03 0.  0.
         25    1    1    2    0    0  0.36575383209E+02 -0.45126628715E+02  0.32538533756E+02  0.14162601264E+03  0.12500000000E+03 0.  0.
</event>
<event>
 5    0  0.5668330E-005  0.2791021E+03  0.7546771E-02  0.1096180E+00
         21   -1    0    0  502  501  0.00000000000E+00  0.00000000000E+00  0.10168282014E+04  0.10168282014E+04  0.00000000000E+00 0. -1.
         21   -1    0    0  501  502 -0.00000000000E+00 -0.00000000000E+00 -0.76608784730E+02  0.76608784730E+02  0.00000000000E+00 0. -1.
         25    1    1    2    0    0 -0.13111892963E+03 -0.54992066471E+01  0.33672843053E+03  0.38240482595E+03  0.12500000000E+03 0.  0.
         25    1    1    2    0    0  0.16462396467E+03  0.85608919117E+02  0.36512342729E+03  0.42821729756E+03  0.12500000000E+03 0.  0.
         25    1    1    2    0    0 -0.33505035046E+02 -0.80109712470E+02  0.23836755883E+03  0.28281486260E+03  0.12500000000E+03 0.  0.
</event>
<event>
 5    0  0.6105296E-005  0.2950039E+03  0.7546771E-02  0.1087765E+00
         21   -1    0    0  502  501  0.00000000000E+00  0.00000000000E+00  0.25380490942E+03  0.25380490942E+03  0.00000000000E+00 0. -1.
         21   -1    0    0  501  502 -0.00000000000E+00 -0.00000000000E+00 -0.34289064570E+03  0.34289064570E+03  0.00000000000E+00 0. -1.
         25    1    1    2    0    0  0.18401786717E+03 -0.78250029047E+02  0.85699658428E+01  0.23597475882E+03  0.12500000000E+03 0.  0.
         25    1    1    2    0    0 -0.93727308804E+02  0.45774025924E+02 -0.11905737095E+03  0.20169216009E+03  0.12500000000E+03 0.  0.
         25    1    1    2    0    0 -0.90290558365E+02  0.32476003123E+02  0.21401668822E+02  0.15902863622E+03  0.12500000000E+03 0.  0.
</event>
<event>
 5    0  0.5668330E-005  0.2710470E+03  0.7546771E-02  0.1100682E+00
         21   -1    0    0  502  501  0.00000000000E+00  0.00000000000E+00  0.13142008868E+03  0.13142008868E+03  0.00000000000E+00 0.  1.
         21   -1    0    0  501  502 -0.00000000000E+00 -0.00000000000E+00 -0.55902031632E+03  0.55902031632E+03  0.00000000000E+00 0.  1.
         25    1    1    2    0    0  0.14996905024E+02 -0.75237947016E+02 -0.14339914785E+03  0.20511940775E+03  0.12500000000E+03 0.  0.
         25    1    1    2    0    0 -0.12286075117E+02  0.15754528156E+03 -0.50378397377E+02  0.20768833936E+03  0.12500000000E+03 0.  0.
         25    1    1    2    0    0 -0.27108299069E+01 -0.82307334543E+02 -0.23382268240E+03  0.27763265789E+03  0.12500000000E+03 0.  0.
</event>
<event>
 5    0  0.5774112E-005  0.2405543E+03  0.7546771E-02  0.1119424E+00
         21   -1    0    0  502  501  0.00000000000E+00  0.00000000000E+00  0.63828226581E+03  0.63828226581E+03  0.00000000000E+00 0.  1.
         21   -1    0    0  501  502 -0.00000000000E+00 -0.00000000000E+00 -0.90659519646E+02  0.90659519646E+02  0.00000000000E+00 0.  1.
         25    1    1    2    0    0 -0.48214889060E+02 -0.35940801487E+02  0.23624042031E+03  0.27395428985E+03  0.12500000000E+03 0.  0.
         25    1    1    2    0    0 -0.53376733255E+02 -0.55082959466E+02  0.14238048437E+03  0.20440256947E+03  0.12500000000E+03 0.  0.
         25    1    1    2    0    0  0.10159162231E+03  0.91023760952E+02  0.16900184149E+03  0.25058492614E+03  0.12500000000E+03 0.  0.
</event>
<event>
 5    0  0.5668330E-005  0.2377480E+03  0.7546771E-02  0.1121302E+00
         21   -1    0    0  502  501  0.00000000000E+00  0.00000000000E+00  0.57440586158E+03  0.57440586158E+03  0.00000000000E+00 0.  1.
         21   -1    0    0  501  502 -0.00000000000E+00 -0.00000000000E+00 -0.98404508777E+02  0.98404508777E+02  0.00000000000E+00 0.  1.
         25    1    1    2    0    0 -0.10602348920E+03  0.72067086298E+02  0.19857619865E+03  0.26738016355E+03  0.12500000000E+03 0.  0.
         25    1    1    2    0    0  0.19620568983E+02 -0.33700509701E+02  0.17355714972E+03  0.21741153442E+03  0.12500000000E+03 0.  0.
         25    1    1    2    0    0  0.86402920214E+02 -0.38366576597E+02  0.10386800444E+03  0.18801867239E+03  0.12500000000E+03 0.  0.
</event>
<event>
 5    0  0.5668330E-005  0.4030188E+03  0.7546771E-02  0.1042739E+00
         21   -1    0    0  502  501  0.00000000000E+00  0.00000000000E+00  0.18321383798E+03  0.18321383798E+03  0.00000000000E+00 0.  1.
         21   -1    0    0  501  502 -0.00000000000E+00 -0.00000000000E+00 -0.88652792854E+03  0.88652792854E+03  0.00000000000E+00 0.  1.
         25    1    1    2    0    0  0.12979028478E+03 -0.74723084266E+02 -0.38336894445E+03  0.43014625991E+03  0.12500000000E+03 0.  0.
         25    1    1    2    0    0 -0.26093443132E+01  0.23089539041E+03 -0.28788233313E+02  0.26414627078E+03  0.12500000000E+03 0.  0.
         25    1    1    2    0    0 -0.12718094046E+03 -0.15617230614E+03 -0.29115691280E+03  0.37544923584E+03  0.12500000000E+03 0.  0.
</event>
<event>
 5    0  0.5668330E-005  0.2523239E+03  0.7546771E-02  0.1111845E+00
         21   -1    0    0  502  501  0.00000000000E+00  0.00000000000E+00  0.23045851141E+03  0.23045851141E+03  0.00000000000E+00 0.  1.
         21   -1    0    0  501  502 -0.00000000000E+00 -0.00000000000E+00 -0.27626385405E+03  0.27626385405E+03  0.00000000000E+00 0.  1.
         25    1    1    2    0    0 -0.63108930790E+02  0.38165766366E+02  0.82689331647E+02  0.16703858367E+03  0.12500000000E+03 0.  0.
         25    1    1    2    0    0 -0.40118159424E+02 -0.95110741313E+01 -0.11451153470E+03  0.17446437696E+03  0.12500000000E+03 0.  0.
         25    1    1    2    0    0  0.10322709021E+03 -0.28654692235E+02 -0.13983139580E+02  0.16521940483E+03  0.12500000000E+03 0.  0.
</event>
<event>
 5    0  0.5668330E-005  0.2527312E+03  0.7546771E-02  0.1111591E+00
         21   -1    0    0  502  501  0.00000000000E+00  0.00000000000E+00  0.20528300629E+03  0.20528300629E+03  0.00000000000E+00 0. -1.
         21   -1    0    0  501  502 -0.00000000000E+00 -0.00000000000E+00 -0.31114626367E+03  0.31114626367E+03  0.00000000000E+00 0. -1.
         25    1    1    2    0    0 -0.10007812770E+03 -0.29042493545E+02 -0.69063636016E+02  0.17678768027E+03  0.12500000000E+03 0.  0.
         25    1    1    2    0    0  0.67120727655E+02 -0.33192741623E+02 -0.10615981653E+03  0.18028271360E+03  0.12500000000E+03 0.  0.
         25    1    1    2    0    0  0.32957400047E+02  0.62235235169E+02  0.69360195172E+02  0.15935887609E+03  0.12500000000E+03 0.  0.
</event>
<event>
 5    0  0.5668330E-005  0.4741247E+03  0.7546771E-02  0.1020762E+00
         21   -1    0    0  502  501  0.00000000000E+00  0.00000000000E+00  0.50962761845E+03  0.50962761845E+03  0.00000000000E+00 0. -1.
         21   -1    0    0  501  502 -0.00000000000E+00 -0.00000000000E+00 -0.44109509664E+03  0.44109509664E+03  0.00000000000E+00 0. -1.
         25    1    1    2    0    0  0.52588804910E+02 -0.13393522362E+03 -0.12593792037E+03  0.22845040231E+03  0.12500000000E+03 0.  0.
         25    1    1    2    0    0 -0.12610520351E+03  0.14980266066E+03 -0.19694318726E+03  0.30455702011E+03  0.12500000000E+03 0.  0.
         25    1    1    2    0    0  0.73516398604E+02 -0.15867437035E+02  0.39141362944E+03  0.41771529267E+03  0.12500000000E+03 0.  0.
</event>
<event>
 5    0  0.6278883E-005  0.2763822E+03  0.7546771E-02  0.1097681E+00
         21   -1    0    0  502  501  0.00000000000E+00  0.00000000000E+00  0.46996972975E+03  0.46996972975E+03  0.00000000000E+00 0.  1.
         21   -1    0    0  501  502 -0.00000000000E+00 -0.00000000000E+00 -0.16253624608E+03  0.16253624608E+03  0.00000000000E+00 0.  1.
         25    1    1    2    0    0  0.66004487294E+02  0.30645082306E+02  0.76552250338E+02  0.16364889381E+03  0.12500000000E+03 0.  0.
         25    1    1    2    0    0  0.12228615146E+03 -0.47831086533E+01  0.13935305474E+03  0.22365387283E+03  0.12500000000E+03 0.  0.
         25    1    1    2    0    0 -0.18829063875E+03 -0.25861973653E+02  0.91528178592E+02  0.24520320919E+03  0.12500000000E+03 0.  0.
</event>
<event>
 5    0  0.5668330E-005  0.3151671E+03  0.7546771E-02  0.1077895E+00
         21   -1    0    0  502  501  0.00000000000E+00  0.00000000000E+00  0.79578870772E+03  0.79578870772E+03  0.00000000000E+00 0.  1.
         21   -1    0    0  501  502 -0.00000000000E+00 -0.00000000000E+00 -0.12481992388E+03  0.12481992388E+03  0.00000000000E+00 0.  1.
         25    1    1    2    0    0 -0.14671210756E+03  0.87982329027E+02  0.29667399507E+03  0.36456246664E+03  0.12500000000E+03 0.  0.
         25    1    1    2    0    0  0.18589388303E+03  0.38868082599E+02  0.18399117883E+03  0.29248079848E+03  0.12500000000E+03 0.  0.
         25    1    1    2    0    0 -0.39181775470E+02 -0.12685041163E+03  0.19030360993E+03  0.26356536649E+03  0.12500000000E+03 0.  0.
</event>
<event>
 5    0  0.5668330E-005  0.3533730E+03  0.7546771E-02  0.1061239E+00
         21   -1    0    0  502  501  0.00000000000E+00  0.00000000000E+00  0.55419343913E+03  0.55419343913E+03  0.00000000000E+00 0. -1.
         21   -1    0    0  501  502 -0.00000000000E+00 -0.00000000000E+00 -0.22532284559E+03  0.22532284559E+03  0.00000000000E+00 0. -1.
         25    1    1    2    0    0 -0.35502360188E+02  0.36991920130E+02  0.16116257533E+03  0.21030262818E+03  0.12500000000E+03 0.  0.
         25    1    1    2    0    0 -0.20003354192E+03 -0.64959314060E+02 -0.14432960222E+02  0.24508455830E+03  0.12500000000E+03 0.  0.
         25    1    1    2    0    0  0.23553590211E+03  0.27967393930E+02  0.18214097843E+03  0.32412909824E+03  0.12500000000E+03 0.  0.
</event>
<event>
 5    0  0.5668330E-005  0.2691341E+03  0.7546771E-02  0.1101776E+00
         21   -1    0    0  502  501  0.00000000000E+00  0.00000000000E+00  0.16303771722E+03  0.16303771722E+03  0.00000000000E+00 0.  1.
         21   -1    0    0  501  502 -0.00000000000E+00 -0.00000000000E+00 -0.44427251733E+03  0.44427251733E+03  0.00000000000E+00 0.  1.
         25    1    1    2    0    0  0.65294502814E+02 -0.31511993440E+02 -0.21135644782E+03  0.25603305619E+03  0.12500000000E+03 0.  0.
         25    1    1    2    0    0 -0.13818543307E+03 -0.21788129305E+02 -0.59119767496E+02  0.19669794966E+03  0.12500000000E+03 0.  0.
         25    1    1    2    0    0  0.72890930259E+02  0.53300122745E+02 -0.10758584798E+02  0.15457922870E+03  0.12500000000E+03 0.  0.
</event>
<event>
 5    0  0.5668330E-005  0.6322632E+03  0.7546771E-02  0.9840642E-01
         21   -1    0    0  502  501  0.00000000000E+00  0.00000000000E+00  0.65784047199E+03  0.65784047199E+03  0.00000000000E+00 0. -1.
         21   -1    0    0  501  502 -0.00000000000E+00 -0.00000000000E+00 -0.60768046111E+03  0.60768046111E+03  0.00000000000E+00 0. -1.
         25    1    1    2    0    0 -0.32238872921E+03 -0.18707620195E+03 -0.88507522073E+02  0.40297714516E+03  0.12500000000E+03 0.  0.
         25    1    1    2    0    0 -0.21414229237E+03 -0.47609027200E+02  0.44669729698E+02  0.25640578309E+03  0.12500000000E+03 0.  0.
         25    1    1    2    0    0  0.53653102158E+03  0.23468522915E+03  0.93997803245E+02  0.60613800484E+03  0.12500000000E+03 0.  0.
</event>
<event>
 5    0  0.5668330E-005  0.3936179E+03  0.7546771E-02  0.1046012E+00
         21   -1    0    0  502  501  0.00000000000E+00  0.00000000000E+00  0.23029426679E+03  0.23029426679E+03  0.00000000000E+00 0. -1.
         21   -1    0    0  501  502 -0.00000000000E+00 -0.00000000000E+00 -0.67276983976E+03  0.67276983976E+03  0.00000000000E+00 0. -1.
         25    1    1    2    0    0 -0.19856415072E+03 -0.46500932859E+02 -0.41644514180E+02  0.24279481928E+03  0.12500000000E+03 0.  0.
         25    1    1    2    0    0 -0.59550195748E+02 -0.94487982762E+02 -0.29236504432E+02  0.17015868444E+03  0.12500000000E+03 0.  0.
         25    1    1    2    0    0  0.25811434646E+03  0.14098891562E+03 -0.37159455436E+03  0.49011060283E+03  0.12500000000E+03 0.  0.
</event>
<event>
 5    0  0.5668330E-005  0.4212016E+03  0.7546771E-02  0.1036676E+00
         21   -1    0    0  502  501  0.00000000000E+00  0.00000000000E+00  0.62040359085E+02  0.62040359085E+02  0.00000000000E+00 0.  1.
         21   -1    0    0  501  502 -0.00000000000E+00 -0.00000000000E+00 -0.28596029465E+04  0.28596029465E+04  0.00000000000E+00 0.  1.
         25    1    1    2    0    0  0.32373545225E+03  0.80076735101E+02 -0.10680063026E+04  0.11258238712E+04  0.12500000000E+03 0.  0.
         25    1    1    2    0    0 -0.22061470200E+03 -0.73059694896E+02 -0.61077459179E+03  0.66534139187E+03  0.12500000000E+03 0.  0.
         25    1    1    2    0    0 -0.10312075025E+03 -0.70170402053E+01 -0.11187816930E+04  0.11304780425E+04  0.12500000000E+03 0.  0.
</event>
<event>
 5    0  0.5668330E-005  0.4839457E+03  0.7546771E-02  0.1018056E+00
         21   -1    0    0  502  501  0.00000000000E+00  0.00000000000E+00  0.22588369013E+03  0.22588369013E+03  0.00000000000E+00 0. -1.
         21   -1    0    0  501  502 -0.00000000000E+00 -0.00000000000E+00 -0.10368320455E+04  0.10368320455E+04  0.00000000000E+00 0. -1.
         25    1    1    2    0    0  0.20086228195E+03 -0.10175315906E+03 -0.54904813567E+03  0.60644720873E+03  0.12500000000E+03 0.  0.
         25    1    1    2    0    0 -0.31892721725E+03  0.74819367360E+02 -0.10850494766E+02  0.35079230447E+03  0.12500000000E+03 0.  0.
         25    1    1    2    0    0  0.11806493530E+03  0.26933791704E+02 -0.25104972491E+03  0.30547622241E+03  0.12500000000E+03 0.  0.
</event>
<event>
 5    0  0.5668330E-005  0.2278861E+03  0.7546771E-02  0.1128137E+00
         21   -1    0    0  502  501  0.00000000000E+00  0.00000000000E+00  0.13132406236E+04  0.13132406236E+04  0.00000000000E+00 0. -1.
         21   -1    0    0  501  502 -0.00000000000E+00 -0.00000000000E+00 -0.39544991966E+02  0.39544991966E+02  0.00000000000E+00 0. -1.
         25    1    1    2    0    0 -0.21783632146E+02  0.28426148708E+02  0.51304513360E+03  0.52926636174E+03  0.12500000000E+03 0.  0.
         25    1    1    2    0    0  0.14818321793E+02  0.79483161481E+02  0.39981173353E+03  0.42662814943E+03  0.12500000000E+03 0.  0.
         25    1    1    2    0    0  0.69653103534E+01 -0.10790931019E+03  0.36083876446E+03  0.39689110435E+03  0.12500000000E+03 0.  0.
</event>
<event>
 5    0  0.5668330E-005  0.6510353E+03  0.7546771E-02  0.9804839E-01
         21   -1    0    0  502  501  0.00000000000E+00  0.00000000000E+00  0.29378896288E+03  0.29378896288E+03  0.00000000000E+00 0.  1.
         21   -1    0    0  501  502 -0.00000000000E+00 -0.00000000000E+00 -0.14426916967E+04  0.14426916967E+04  0.00000000000E+00 0.  1.
         25    1    1    2    0    0 -0.50871100607E+03  0.30842454211E+03 -0.50887655562E+03  0.79277546300E+03  0.12500000000E+03 0.  0.
         25    1    1    2    0    0  0.27519009135E+03 -0.25244093804E+02 -0.32054470798E+03  0.44129441472E+03  0.12500000000E+03 0.  0.
         25    1    1    2    0    0  0.23352091472E+03 -0.28318044831E+03 -0.31948147022E+03  0.50241078186E+03  0.12500000000E+03 0.  0.
</event>
<event>
 5    0  0.5668330E-005  0.2814186E+03  0.7546771E-02  0.1094917E+00
         21   -1    0    0  502  501  0.00000000000E+00  0.00000000000E+00  0.49773186330E+02  0.49773186330E+02  0.00000000000E+00 0.  1.
         21   -1    0    0  501  502 -0.00000000000E+00 -0.00000000000E+00 -0.15911463903E+04  0.15911463903E+04  0.00000000000E+00 0.  1.
         25    1    1    2    0    0  0.95434322399E+02  0.63435738416E+02 -0.56619597796E+03  0.59104541979E+03  0.12500000000E+03 0.  0.
         25    1    1    2    0    0 -0.11582754401E+03  0.11144974800E+02 -0.81408757959E+03  0.83180756047E+03  0.12500000000E+03 0.  0.
         25    1    1    2    0    0  0.20393221611E+02 -0.74580713216E+02 -0.16108964646E+03  0.21806659641E+03  0.12500000000E+03 0.  0.
</event>
<event>
 5    0  0.5668330E-005  0.2882178E+03  0.7546771E-02  0.1091283E+00
         21   -1    0    0  502  501  0.00000000000E+00  0.00000000000E+00  0.72776248127E+02  0.72776248127E+02  0.00000000000E+00 0.  1.
         21   -1    0    0  501  502 -0.00000000000E+00 -0.00000000000E+00 -0.11414366774E+04  0.11414366774E+04  0.00000000000E+00 0.  1.
         25    1    1    2    0    0  0.12758889233E+03 -0.73385678031E+01 -0.22010686743E+03  0.28355742472E+03  0.12500000000E+03 0.  0.
         25    1    1    2    0    0 -0.14618973329E+03 -0.63445116282E+02 -0.29067528704E+03  0.35427932962E+03  0.12500000000E+03 0.  0.
         25    1    1    2    0    0  0.18600840964E+02  0.70783684085E+02 -0.55787827485E+03  0.57637617123E+03  0.12500000000E+03 0.  0.
</event>
<event>
 5    0  0.5668330E-005  0.3824868E+03  0.7546771E-02  0.1050018E+00
         21   -1    0    0  502  501  0.00000000000E+00  0.00000000000E+00  0.24864828325E+03  0.24864828325E+03  0.00000000000E+00 0. -1.
         21   -1    0    0  501  502 -0.00000000000E+00 -0.00000000000E+00 -0.58836579219E+03  0.58836579219E+03  0.00000000000E+00 0. -1.
         25    1    1    2    0    0  0.21026615367E+02 -0.73542810113E+02  0.52783340746E+02  0.15576181988E+03  0.12500000000E+03 0.  0.
         25    1    1    2    0    0 -0.18073239778E+03 -0.97731259871E+02 -0.46171595097E+02  0.24489266007E+03  0.12500000000E+03 0.  0.
         25    1    1    2    0    0  0.15970578241E+03  0.17127406998E+03 -0.34632925459E+03  0.43635959548E+03  0.12500000000E+03 0.  0.
</event>
<event>
 5    0  0.5668330E-005  0.4777878E+03  0.7546771E-02  0.1019745E+00
         21   -1    0    0  502  501  0.00000000000E+00  0.00000000000E+00  0.12989747915E+04  0.12989747915E+04  0.00000000000E+00 0.  1.
         21   -1    0    0  501  502 -0.00000000000E+00 -0.00000000000E+00 -0.17573952617E+03  0.17573952617E+03  0.00000000000E+00 0. -1.
         25    1    1    2    0    0  0.30567927691E+03 -0.18680314537E+03  0.78703431256E+03  0.87371805784E+03  0.12500000000E+03 0.  0.
         25    1    1    2    0    0 -0.85135057118E+02  0.60296256499E+02  0.19493495336E+01  0.16282633835E+03  0.12500000000E+03 0.  0.
         25    1    1    2    0    0 -0.22054421980E+03  0.12650688887E+03  0.33425160327E+03  0.43816992150E+03  0.12500000000E+03 0.  0.
</event>
<event>
 5    0  0.5668330E-005  0.3546338E+03  0.7546771E-02  0.1060729E+00
         21   -1    0    0  502  501  0.00000000000E+00  0.00000000000E+00  0.15920213496E+03  0.15920213496E+03  0.00000000000E+00 0.  1.
         21   -1    0    0  501  502 -0.00000000000E+00 -0.00000000000E+00 -0.78997127352E+03  0.78997127352E+03  0.00000000000E+00 0.  1.
         25    1    1    2    0    0 -0.10533512147E+03  0.12534522129E+03 -0.11411848377E+03  0.23548872723E+03  0.12500000000E+03 0.  0.
         25    1    1    2    0    0 -0.89053613664E+02 -0.16861327367E+03 -0.37591858397E+03  0.43965982752E+03  0.12500000000E+03 0.  0.
         25    1    1    2    0    0  0.19438873513E+03  0.43268052375E+02 -0.14073207082E+03  0.27402485372E+03  0.12500000000E+03 0.  0.
</event>
<event>
 5    0  0.5668330E-005  0.3896637E+03  0.7546771E-02  0.1047419E+00
         21   -1    0    0  502  501  0.00000000000E+00  0.00000000000E+00  0.90899901337E+03  0.90899901337E+03  0.00000000000E+00 0.  1.
         21   -1    0    0  501  502 -0.00000000000E+00 -0.00000000000E+00 -0.16703845477E+03  0.16703845477E+03  0.00000000000E+00 0.  1.
         25    1    1    2    0    0  0.90078379654E+02 -0.11866482635E+03  0.44009094540E+03  0.48114498409E+03  0.12500000000E+03 0.  0.
         25    1    1    2    0    0 -0.25602605774E+03  0.30220475409E+02  0.15865457671E+03  0.32750403675E+03  0.12500000000E+03 0.  0.
         25    1    1    2    0    0  0.16594767809E+03  0.88444350943E+02  0.14321503649E+03  0.26738844730E+03  0.12500000000E+03 0.  0.
</event>
<event>
 5    0  0.5668330E-005  0.3298614E+03  0.7546771E-02  0.1071198E+00
         21   -1    0    0  502  501  0.00000000000E+00  0.00000000000E+00  0.68236567123E+03  0.68236567123E+03  0.00000000000E+00 0.  1.
         21   -1    0    0  501  502 -0.00000000000E+00 -0.00000000000E+00 -0.15945778032E+03  0.15945778032E+03  0.00000000000E+00 0.  1.
         25    1    1    2    0    0  0.12033465684E+03  0.10446026109E+03  0.12580125089E+02  0.20291780437E+03  0.12500000000E+03 0.  0.
         25    1    1    2    0    0 -0.48597603831E+02  0.24550655995E+02  0.38498528102E+03  0.40841538708E+03  0.12500000000E+03 0.  0.
         25    1    1    2    0    0 -0.71737053014E+02 -0.12901091708E+03  0.12534248481E+03  0.23049026010E+03  0.12500000000E+03 0.  0.
</event>
<event>
 5    0  0.6477325E-005  0.3125011E+03  0.7546771E-02  0.1079153E+00
         21   -1    0    0  502  501  0.00000000000E+00  0.00000000000E+00  0.17395749228E+03  0.17395749228E+03  0.00000000000E+00 0.  1.
         21   -1    0    0  501  502 -0.00000000000E+00 -0.00000000000E+00 -0.56138373566E+03  0.56138373566E+03  0.00000000000E+00 0.  1.
         25    1    1    2    0    0 -0.10132802272E+03  0.19802509142E+02 -0.61505813203E+02  0.17339974802E+03  0.12500000000E+03 0.  0.
         25    1    1    2    0    0  0.23293171583E+03  0.11907956462E+02 -0.24527613429E+03  0.36081070622E+03  0.12500000000E+03 0.  0.
         25    1    1    2    0    0 -0.13160369311E+03 -0.31710465603E+02 -0.80644295883E+02  0.20113077369E+03  0.12500000000E+03 0.  0.
</event>
<event>
 5    0  0.5668330E-005  0.2098340E+03  0.7546771E-02  0.1141698E+00
         21   -1    0    0  502  501  0.00000000000E+00  0.00000000000E+00  0.62869158894E+03  0.62869158894E+03  0.00000000000E+00 0.  1.
         21   -1    0    0  501  502 -0.00000000000E+00 -0.00000000000E+00 -0.70034800761E+02  0.70034800761E+02  0.00000000000E+00 0.  1.
         25    1    1    2    0    0 -0.34065938068E+02 -0.29262012688E+02  0.21847141740E+03  0.25567853595E+03  0.12500000000E+03 0.  0.
         25    1    1    2    0    0 -0.23571958968E+02  0.42045134678E+02  0.10489087971E+03  0.17014854465E+03  0.12500000000E+03 0.  0.
         25    1    1    2    0    0  0.57637897037E+02 -0.12783121990E+02  0.23529449107E+03  0.27289930911E+03  0.12500000000E+03 0.  0.
</event>
<event>
 5    0  0.5668330E-005  0.3272345E+03  0.7546771E-02  0.1072367E+00
         21   -1    0    0  502  501  0.00000000000E+00  0.00000000000E+00  0.46212799261E+02  0.46212799261E+02  0.00000000000E+00 0.  1.
         21   -1    0    0  501  502 -0.00000000000E+00 -0.00000000000E+00 -0.23171593886E+04  0.23171593886E+04  0.00000000000E+00 0.  1.
         25    1    1    2    0    0 -0.94660978047E+02 -0.20962778140E+02 -0.28937980791E+03  0.32979662227E+03  0.12500000000E+03 0.  0.
         25    1    1    2    0    0 -0.13430920627E+03 -0.12505169583E+02 -0.61406221828E+03  0.64100916536E+03  0.12500000000E+03 0.  0.
         25    1    1    2    0    0  0.22897018432E+03  0.33467947723E+02 -0.13675045631E+04  0.13925664002E+04  0.12500000000E+03 0.  0.
</event>
<event>
 5    0  0.5668330E-005  0.3858392E+03  0.7546771E-02  0.1048796E+00
         21   -1    0    0  502  501  0.00000000000E+00  0.00000000000E+00  0.16159511748E+03  0.16159511748E+03  0.00000000000E+00 0. -1.
         21   -1    0    0  501  502 -0.00000000000E+00 -0.00000000000E+00 -0.92126495628E+03  0.92126495628E+03  0.00000000000E+00 0. -1.
         25    1    1    2    0    0 -0.11035433164E+03 -0.45888504077E+02 -0.42810786124E+02  0.17816171510E+03  0.12500000000E+03 0.  0.
         25    1    1    2    0    0  0.22014454480E+03 -0.10904470061E+03 -0.20155120123E+03  0.34147072210E+03  0.12500000000E+03 0.  0.
         25    1    1    2    0    0 -0.10979021316E+03  0.15493320469E+03 -0.51530785145E+03  0.56322763656E+03  0.12500000000E+03 0.  0.
</event>
<event>
 5    0  0.5668330E-005  0.4581755E+03  0.7546771E-02  0.1025312E+00
         21   -1    0    0  502  501  0.00000000000E+00  0.00000000000E+00  0.35527433513E+03  0.35527433513E+03  0.00000000000E+00 0.  1.
         21   -1    0    0  501  502 -0.00000000000E+00 -0.00000000000E+00 -0.59088069622E+03  0.59088069622E+03  0.00000000000E+00 0.  1.
         25    1    1    2    0    0  0.72051196264E+02  0.14295755988E+03  0.16406537770E+03  0.26109516841E+03  0.12500000000E+03 0.  0.
         25    1    1    2    0    0 -0.12227136868E+03 -0.97168806206E+02 -0.48116639276E+03  0.52109323736E+03  0.12500000000E+03 0.  0.
         25    1    1    2    0    0  0.50220172413E+02 -0.45788753670E+02  0.81494653971E+02  0.16396662558E+03  0.12500000000E+03 0.  0.
</event>
<event>
 5    0  0.5668330E-005  0.2418611E+03  0.7546771E-02  0.1118559E+00
         21   -1    0    0  502  501  0.00000000000E+00  0.00000000000E+00  0.70933063450E+03  0.70933063450E+03  0.00000000000E+00 0.  1.
         21   -1    0    0  501  502 -0.00000000000E+00 -0.00000000000E+00 -0.82467571654E+02  0.82467571654E+02  0.00000000000E+00 0.  1.
         25    1    1    2    0    0  0.62173757414E+02 -0.10376018685E+02  0.69008855431E+02  0.15607837775E+03  0.12500000000E+03 0.  0.
         25    1    1    2    0    0  0.24462879993E+02 -0.50593725714E+02  0.30554009358E+03  0.33486998426E+03  0.12500000000E+03 0.  0.
         25    1    1    2    0    0 -0.86636637407E+02  0.60969744399E+02  0.25231411384E+03  0.30084984413E+03  0.12500000000E+03 0.  0.
</event>
<event>
 5    0  0.5668330E-005  0.2365302E+03  0.7546771E-02  0.1122126E+00
         21   -1    0    0  502  501  0.00000000000E+00  0.00000000000E+00  0.10900067019E+04  0.10900067019E+04  0.00000000000E+00 0. -1.
         21   -1    0    0  501  502 -0.00000000000E+00 -0.00000000000E+00 -0.51326771631E+02  0.51326771631E+02  0.00000000000E+00 0. -1.
         25    1    1    2    0    0 -0.38621009267E+01  0.92231293697E+02  0.46252608346E+03  0.48793125053E+03  0.12500000000E+03 0.  0.
         25    1    1    2    0    0 -0.11480358921E+02  0.14653466195E+02  0.14873646599E+03  0.19517699411E+03  0.12500000000E+03 0.  0.
         25    1    1    2    0    0  0.15342459848E+02 -0.10688475989E+03  0.42741738079E+03  0.45822522887E+03  0.12500000000E+03 0.  0.
</event>
<event>
 5    0  0.5668330E-005  0.5352166E+03  0.7546771E-02  0.1004975E+00
         21   -1    0    0  502  501  0.00000000000E+00  0.00000000000E+00  0.22098512528E+03  0.22098512528E+03  0.00000000000E+00 0. -1.
         21   -1    0    0  501  502 -0.00000000000E+00 -0.00000000000E+00 -0.12962716951E+04  0.12962716951E+04  0.00000000000E+00 0. -1.
         25    1    1    2    0    0  0.20299355124E+03 -0.16666706490E+03 -0.18582952919E+03  0.34516938782E+03  0.12500000000E+03 0.  0.
         25    1    1    2    0    0  0.11709468263E+03 -0.38806673663E+02 -0.71342449807E+03  0.73472214957E+03  0.12500000000E+03 0.  0.
         25    1    1    2    0    0 -0.32008823387E+03  0.20547373856E+03 -0.17603254252E+03  0.43736528295E+03  0.12500000000E+03 0.  0.
</event>
<event>
 5    0  0.5668330E-005  0.2386312E+03  0.7546771E-02  0.1120708E+00
         21   -1    0    0  502  501  0.00000000000E+00  0.00000000000E+00  0.46724449457E+03  0.46724449457E+03  0.00000000000E+00 0. -1.
         21   -1    0    0  501  502 -0.00000000000E+00 -0.00000000000E+00 -0.12187380590E+03  0.12187380590E+03  0.00000000000E+00 0. -1.
         25    1    1    2    0    0 -0.28650913915E+02 -0.55203425080E+02  0.22473569881E+03  0.26457404885E+03  0.12500000000E+03 0.  0.
         25    1    1    2    0    0  0.90751723910E+02  0.16236640350E+02  0.48823011256E+02  0.16281336036E+03  0.12500000000E+03 0.  0.
         25    1    1    2    0    0 -0.62100809996E+02  0.38966784731E+02  0.71811978608E+02  0.16173089125E+03  0.12500000000E+03 0.  0.
</event>
<event>
 5    0  0.5668330E-005  0.2287681E+03  0.7546771E-02  0.1127510E+00
         21   -1    0    0  502  501  0.00000000000E+00  0.00000000000E+00  0.15281091386E+03  0.15281091386E+03  0.00000000000E+00 0.  1.
         21   -1    0    0  501  502 -0.00000000000E+00 -0.00000000000E+00 -0.34248115877E+03  0.34248115877E+03  0.00000000000E+00 0.  1.
         25    1    1    2    0    0  0.14568494754E+02 -0.67773933904E+02 -0.12450254277E+03  0.18955587649E+03  0.12500000000E+03 0.  0.
         25    1    1    2    0    0 -0.70490180608E+02  0.22933723013E+02 -0.70542332728E+02  0.16154269380E+03  0.12500000000E+03 0.  0.
         25    1    1    2    0    0  0.55921685854E+02  0.44840210891E+02  0.53746305923E+01  0.14419350233E+03  0.12500000000E+03 0.  0.
</event>
<event>
 5    0  0.5668330E-005  0.2472866E+03  0.7546771E-02  0.1115032E+00
         21   -1    0    0  502  501  0.00000000000E+00  0.00000000000E+00  0.11056835761E+04  0.11056835761E+04  0.00000000000E+00 0.  1.
         21   -1    0    0  501  502 -0.00000000000E+00 -0.00000000000E+00 -0.55305739906E+02  0.55305739906E+02  0.00000000000E+00 0.  1.
         25    1    1    2    0    0  0.22563420577E+02  0.19495829118E+01  0.31903090355E+03  0.34339281624E+03  0.12500000000E+03 0.  0.
         25    1    1    2    0    0 -0.76334602044E+02 -0.44406374637E+02  0.13381891795E+03  0.20330125523E+03  0.12500000000E+03 0.  0.
         25    1    1    2    0    0  0.53771181467E+02  0.42456791725E+02  0.59752801473E+03  0.61429524458E+03  0.12500000000E+03 0.  0.
</event>
<event>
 5    0  0.5981313E-005  0.2711518E+03  0.7546771E-02  0.1100622E+00
         21   -1    0    0  502  501  0.00000000000E+00  0.00000000000E+00  0.23504440993E+03  0.23504440993E+03  0.00000000000E+00 0. -1.
         21   -1    0    0  501  502 -0.00000000000E+00 -0.00000000000E+00 -0.31280593072E+03  0.31280593072E+03  0.00000000000E+00 0. -1.
         25    1    1    2    0    0  0.20554902924E+02 -0.11725406761E+02  0.63439791671E+02  0.14216045992E+03  0.12500000000E+03 0.  0.
         25    1    1    2    0    0 -0.46988886199E+02  0.14240946494E+03 -0.95332179287E+02  0.21725937388E+03  0.12500000000E+03 0.  0.
         25    1    1    2    0    0  0.26433983275E+02 -0.13068405818E+03 -0.45869133170E+02  0.18843050685E+03  0.12500000000E+03 0.  0.
</event>
<event>
 5    0  0.5668330E-005  0.3196066E+03  0.7546771E-02  0.1075831E+00
         21   -1    0    0  502  501  0.00000000000E+00  0.00000000000E+00  0.66076771354E+03  0.66076771354E+03  0.00000000000E+00 0. -1.
         21   -1    0    0  501  502 -0.00000000000E+00 -0.00000000000E+00 -0.15459040753E+03  0.15459040753E+03  0.00000000000E+00 0. -1.
         25    1    1    2    0    0  0.11100587483E+03 -0.71901391792E+00  0.48749449522E+02  0.17413882409E+03  0.12500000000E+03 0.  0.
         25    1    1    2    0    0 -0.31640390078E+02  0.17242488342E+03  0.28061277265E+03  0.35369475948E+03  0.12500000000E+03 0.  0.
         25    1    1    2    0    0 -0.79365484752E+02 -0.17170586950E+03  0.17681508384E+03  0.28752453750E+03  0.12500000000E+03 0.  0.
</event>
<event>
 5    0  0.5754387E-005  0.2900353E+03  0.7546771E-02  0.1090331E+00
         21   -1    0    0  502  501  0.00000000000E+00  0.00000000000E+00  0.28920596814E+03  0.28920596814E+03  0.00000000000E+00 0.  1.
         21   -1    0    0  501  502 -0.00000000000E+00 -0.00000000000E+00 -0.29086701696E+03  0.29086701696E+03  0.00000000000E+00 0.  1.
         25    1    1    2    0    0  0.14491858136E+03 -0.11238083041E+03  0.55237283108E+02  0.22870724456E+03  0.12500000000E+03 0.  0.
         25    1    1    2    0    0 -0.52241082634E+02  0.12393888729E+03 -0.65861366778E+02  0.19507100792E+03  0.12500000000E+03 0.  0.
         25    1    1    2    0    0 -0.92677498729E+02 -0.11558056884E+02  0.89630348496E+01  0.15629473262E+03  0.12500000000E+03 0.  0.
</event>
<event>
 5    0  0.5668330E-005  0.3180990E+03  0.7546771E-02  0.1076528E+00
         21   -1    0    0  502  501  0.00000000000E+00  0.00000000000E+00  0.15389436510E+04  0.15389436510E+04  0.00000000000E+00 0. -1.
         21   -1    0    0  501  502 -0.00000000000E+00 -0.00000000000E+00 -0.65750907959E+02  0.65750907959E+02  0.00000000000E+00 0. -1.
         25    1    1    2    0    0  0.14355757021E+02  0.91985731414E+02  0.11352209852E+04  0.11458704760E+04  0.12500000000E+03 0.  0.
         25    1    1    2    0    0 -0.58248123548E+02 -0.49402949776E+02  0.26227439491E+03  0.30041030870E+03  0.12500000000E+03 0.  0.
         25    1    1    2    0    0  0.43892366527E+02 -0.42582781637E+02  0.75697362997E+02  0.15841377433E+03  0.12500000000E+03 0.  0.
</event>
<event>
 5    0  0.5668330E-005  0.2881303E+03  0.7546771E-02  0.1091329E+00
         21   -1    0    0  502  501  0.00000000000E+00  0.00000000000E+00  0.24910140591E+03  0.24910140591E+03  0.00000000000E+00 0. -1.
         21   -1    0    0  501  502 -0.00000000000E+00 -0.00000000000E+00 -0.33327426257E+03  0.33327426257E+03  0.00000000000E+00 0. -1.
         25    1    1    2    0    0 -0.65559963883E+02 -0.13829743750E+03 -0.18979392680E+02  0.19851827984E+03  0.12500000000E+03 0.  0.
         25    1    1    2    0    0  0.13518504621E+02  0.16055274039E+03  0.43854376175E+02  0.20858604633E+03  0.12500000000E+03 0.  0.
         25    1    1    2    0    0  0.52041459262E+02 -0.22255302890E+02 -0.10904784015E+03  0.17527134230E+03  0.12500000000E+03 0.  0.
</event>
<event>
 5    0  0.5668330E-005  0.3441320E+03  0.7546771E-02  0.1065050E+00
         21   -1    0    0  502  501  0.00000000000E+00  0.00000000000E+00  0.52760276620E+03  0.52760276620E+03  0.00000000000E+00 0.  1.
         21   -1    0    0  501  502 -0.00000000000E+00 -0.00000000000E+00 -0.22446215679E+03  0.22446215679E+03  0.00000000000E+00 0.  1.
         25    1    1    2    0    0  0.17123873792E+02  0.10243456379E+02  0.14078939853E+03  0.18932725686E+03  0.12500000000E+03 0.  0.
         25    1    1    2    0    0  0.15452682732E+03 -0.94037541802E+01  0.26133001133E+03  0.32845904733E+03  0.12500000000E+03 0.  0.
         25    1    1    2    0    0 -0.17165070111E+03 -0.83970219903E+00 -0.98978800446E+02  0.23427861880E+03  0.12500000000E+03 0.  0.
</event>
<event>
 5    0  0.5668330E-005  0.2339680E+03  0.7546771E-02  0.1123878E+00
         21   -1    0    0  502  501  0.00000000000E+00  0.00000000000E+00  0.14967335385E+03  0.14967335385E+03  0.00000000000E+00 0.  1.
         21   -1    0    0  501  502 -0.00000000000E+00 -0.00000000000E+00 -0.36573672820E+03  0.36573672820E+03  0.00000000000E+00 0.  1.
         25    1    1    2    0    0 -0.22607206522E+02 -0.38897877622E+02 -0.10671396078E+03  0.17040246505E+03  0.12500000000E+03 0.  0.
         25    1    1    2    0    0 -0.40490277634E+02  0.10287626888E+02  0.40553818238E+02  0.13789456125E+03  0.12500000000E+03 0.  0.
         25    1    1    2    0    0  0.63097484157E+02  0.28610250734E+02 -0.14990323181E+03  0.20711305575E+03  0.12500000000E+03 0.  0.
</event>
<event>
 5    0  0.5668330E-005  0.2441490E+03  0.7546771E-02  0.1117059E+00
         21   -1    0    0  502  501  0.00000000000E+00  0.00000000000E+00  0.24585258596E+03  0.24585258596E+03  0.00000000000E+00 0.  1.
         21   -1    0    0  501  502 -0.00000000000E+00 -0.00000000000E+00 -0.24245713374E+03  0.24245713374E+03  0.00000000000E+00 0.  1.
         25    1    1    2    0    0 -0.10672222267E+03  0.40205589697E+01 -0.77954951798E+02  0.18195541271E+03  0.12500000000E+03 0.  0.
         25    1    1    2    0    0  0.83670345197E+02  0.44897346468E+02  0.24969624472E+02  0.15894961633E+03  0.12500000000E+03 0.  0.
         25    1    1    2    0    0  0.23051877472E+02 -0.48917905438E+02  0.56380779545E+02  0.14740469066E+03  0.12500000000E+03 0.  0.
</event>
<event>
 5    0  0.5668330E-005  0.2839431E+03  0.7546771E-02  0.1093555E+00
         21   -1    0    0  502  501  0.00000000000E+00  0.00000000000E+00  0.41549836995E+03  0.41549836995E+03  0.00000000000E+00 0. -1.
         21   -1    0    0  501  502 -0.00000000000E+00 -0.00000000000E+00 -0.19404091913E+03  0.19404091913E+03  0.00000000000E+00 0. -1.
         25    1    1    2    0    0 -0.10758986740E+03 -0.58971999016E+02 -0.58275684711E+02  0.18459233912E+03  0.12500000000E+03 0.  0.
         25    1    1    2    0    0  0.75585298423E+02 -0.45739409033E+02  0.12066126629E+03  0.19490862489E+03  0.12500000000E+03 0.  0.
         25    1    1    2    0    0  0.32004568974E+02  0.10471140805E+03  0.15907186925E+03  0.23003832506E+03  0.12500000000E+03 0.  0.
</event>
<event>
 5    0  0.5668330E-005  0.2184296E+03  0.7546771E-02  0.1135059E+00
         21   -1    0    0  502  501  0.00000000000E+00  0.00000000000E+00  0.37886585426E+03  0.37886585426E+03  0.00000000000E+00 0.  1.
         21   -1    0    0  501  502 -0.00000000000E+00 -0.00000000000E+00 -0.12593240912E+03  0.12593240912E+03  0.00000000000E+00 0.  1.
         25    1    1    2    0    0  0.63441808437E+01 -0.69738337300E+02  0.16872853929E+03  0.22135492832E+03  0.12500000000E+03 0.  0.
         25    1    1    2    0    0 -0.22300740891E+02  0.28165775599E+01  0.27767083032E+02  0.13000487319E+03  0.12500000000E+03 0.  0.
         25    1    1    2    0    0  0.15956560048E+02  0.66921759740E+02  0.56437822826E+02  0.15343846187E+03  0.12500000000E+03 0.  0.
</event>
<event>
 5    0  0.5668330E-005  0.3143204E+03  0.7546771E-02  0.1078293E+00
         21   -1    0    0  502  501  0.00000000000E+00  0.00000000000E+00  0.21770352915E+04  0.21770352915E+04  0.00000000000E+00 0. -1.
         21   -1    0    0  501  502 -0.00000000000E+00 -0.00000000000E+00 -0.45381587629E+02  0.45381587629E+02  0.00000000000E+00 0. -1.
         25    1    1    2    0    0  0.94301735184E+01  0.13309909478E+03  0.39350122562E+03  0.43390380474E+03  0.12500000000E+03 0.  0.
         25    1    1    2    0    0 -0.12592819729E+03 -0.34284246507E+02  0.12328806190E+04  0.12460549511E+04  0.12500000000E+03 0.  0.
         25    1    1    2    0    0  0.11649802377E+03 -0.98814848270E+02  0.50527185922E+03  0.54245812327E+03  0.12500000000E+03 0.  0.
</event>
<event>
 5    0  0.5743254E-005  0.2952769E+03  0.7546771E-02  0.1087626E+00
         21   -1    0    0  502  501  0.00000000000E+00  0.00000000000E+00  0.13129982475E+03  0.13129982475E+03  0.00000000000E+00 0.  1.
         21   -1    0    0  501  502 -0.00000000000E+00 -0.00000000000E+00 -0.66404063575E+03  0.66404063575E+03  0.00000000000E+00 0.  1.
         25    1    1    2    0    0 -0.60236775187E+02 -0.42681595008E+02 -0.68654686567E+02  0.16058846044E+03  0.12500000000E+03 0.  0.
         25    1    1    2    0    0  0.18793279208E+03  0.89692127075E+02 -0.21325997294E+03  0.32321545145E+03  0.12500000000E+03 0.  0.
         25    1    1    2    0    0 -0.12769601689E+03 -0.47010532067E+02 -0.25082615150E+03  0.31153654862E+03  0.12500000000E+03 0.  0.
</event>
<event>
 5    0  0.5668330E-005  0.4764145E+03  0.7546771E-02  0.1020125E+00
         21   -1    0    0  502  501  0.00000000000E+00  0.00000000000E+00  0.24693008811E+03  0.24693008811E+03  0.00000000000E+00 0. -1.
         21   -1    0    0  501  502 -0.00000000000E+00 -0.00000000000E+00 -0.91917010489E+03  0.91917010489E+03  0.00000000000E+00 0. -1.
         25    1    1    2    0    0 -0.21006371046E+02  0.31559934615E+03 -0.15561336892E+03  0.37401167830E+03  0.12500000000E+03 0.  0.
         25    1    1    2    0    0 -0.16174962238E+03 -0.18403761057E+03 -0.44774524113E+03  0.52548414191E+03  0.12500000000E+03 0.  0.
         25    1    1    2    0    0  0.18275599342E+03 -0.13156173559E+03 -0.68881406733E+02  0.26660437280E+03  0.12500000000E+03 0.  0.
</event>
<event>
 5    0  0.5668330E-005  0.2212330E+03  0.7546771E-02  0.1132967E+00
         21   -1    0    0  502  501  0.00000000000E+00  0.00000000000E+00  0.14595803000E+03  0.14595803000E+03  0.00000000000E+00 0.  1.
         21   -1    0    0  501  502 -0.00000000000E+00 -0.00000000000E+00 -0.33532957961E+03  0.33532957961E+03  0.00000000000E+00 0.  1.
         25    1    1    2    0    0  0.70715877242E+02  0.11152094604E+02 -0.15160762564E+03  0.20912909090E+03  0.12500000000E+03 0.  0.
         25    1    1    2    0    0 -0.60802672339E+02 -0.31211775170E+02 -0.16774137176E+02  0.14344863733E+03  0.12500000000E+03 0.  0.
         25    1    1    2    0    0 -0.99132049029E+01  0.20059680566E+02 -0.20989786801E+02  0.12870988138E+03  0.12500000000E+03 0.  0.
</event>
<event>
 5    0  0.5668330E-005  0.2075256E+03  0.7546771E-02  0.1143541E+00
         21   -1    0    0  502  501  0.00000000000E+00  0.00000000000E+00  0.50894666052E+03  0.50894666052E+03  0.00000000000E+00 0. -1.
         21   -1    0    0  501  502 -0.00000000000E+00 -0.00000000000E+00 -0.84619626751E+02  0.84619626751E+02  0.00000000000E+00 0. -1.
         25    1    1    2    0    0 -0.54193061055E+02 -0.28769373518E+02  0.17302299608E+03  0.22209574938E+03  0.12500000000E+03 0.  0.
         25    1    1    2    0    0  0.73175255802E+02  0.25020354521E+02  0.13969951988E+03  0.20278459521E+03  0.12500000000E+03 0.  0.
         25    1    1    2    0    0 -0.18982194747E+02  0.37490189961E+01  0.11160451780E+03  0.16868594267E+03  0.12500000000E+03 0.  0.
</event>
<event>
 5    0  0.5668330E-005  0.2731670E+03  0.7546771E-02  0.1099481E+00
         21   -1    0    0  502  501  0.00000000000E+00  0.00000000000E+00  0.33062462761E+03  0.33062462761E+03  0.00000000000E+00 0.  1.
         21   -1    0    0  501  502 -0.00000000000E+00 -0.00000000000E+00 -0.22569457469E+03  0.22569457469E+03  0.00000000000E+00 0.  1.
         25    1    1    2    0    0  0.21049976232E+02 -0.12124748048E+03  0.26675433822E+02  0.17742782136E+03  0.12500000000E+03 0.  0.
         25    1    1    2    0    0 -0.27248298599E+01 -0.65381326074E+02  0.24454860510E+01  0.14111386501E+03  0.12500000000E+03 0.  0.
         25    1    1    2    0    0 -0.18325146372E+02  0.18662880656E+03  0.75809133053E+02  0.23777751593E+03  0.12500000000E+03 0.  0.
</event>
<event>
 5    0  0.5668330E-005  0.2840350E+03  0.7546771E-02  0.1093505E+00
         21   -1    0    0  502  501  0.00000000000E+00  0.00000000000E+00  0.25536552857E+03  0.25536552857E+03  0.00000000000E+00 0.  1.
         21   -1    0    0  501  502 -0.00000000000E+00 -0.00000000000E+00 -0.31592317568E+03  0.31592317568E+03  0.00000000000E+00 0.  1.
         25    1    1    2    0    0  0.13082920351E+02  0.39294148935E+02 -0.20441494306E+03  0.24315768935E+03  0.12500000000E+03 0.  0.
         25    1    1    2    0    0  0.62211573826E+02 -0.43905784758E+02  0.50485068044E+02  0.15482809806E+03  0.12500000000E+03 0.  0.
         25    1    1    2    0    0 -0.75294494177E+02  0.46116358233E+01  0.93372227911E+02  0.17330291683E+03  0.12500000000E+03 0.  0.
</event>
<event>
 5    0  0.5668330E-005  0.3145234E+03  0.7546771E-02  0.1078198E+00
         21   -1    0    0  502  501  0.00000000000E+00  0.00000000000E+00  0.11440580723E+03  0.11440580723E+03  0.00000000000E+00 0.  1.
         21   -1    0    0  501  502 -0.00000000000E+00 -0.00000000000E+00 -0.86468508332E+03  0.86468508332E+03  0.00000000000E+00 0.  1.
         25    1    1    2    0    0 -0.11176478243E+03 -0.80294061775E+02 -0.29268444307E+03  0.34673864244E+03  0.12500000000E+03 0.  0.
         25    1    1    2    0    0  0.16676242823E+03  0.68294627605E+02 -0.84779521574E+02  0.23513066773E+03  0.12500000000E+03 0.  0.
         25    1    1    2    0    0 -0.54997645804E+02  0.11999434170E+02 -0.37281531145E+03  0.39722158038E+03  0.12500000000E+03 0.  0.
</event>
<event>
 5    0  0.5668330E-005  0.3891020E+03  0.7546771E-02  0.1047620E+00
         21   -1    0    0  502  501  0.00000000000E+00  0.00000000000E+00  0.41348841668E+03  0.41348841668E+03  0.00000000000E+00 0. -1.
         21   -1    0    0  501  502 -0.00000000000E+00 -0.00000000000E+00 -0.36615391231E+03  0.36615391231E+03  0.00000000000E+00 0. -1.
         25    1    1    2    0    0  0.39585022659E+02  0.25555552104E+03 -0.10505988891E+03  0.30584011936E+03  0.12500000000E+03 0.  0.
         25    1    1    2    0    0  0.11928827956E+02 -0.27532792163E+03  0.14856497780E+03  0.33711172331E+03  0.12500000000E+03 0.  0.
         25    1    1    2    0    0 -0.51513850614E+02  0.19772400589E+02  0.38294154811E+01  0.13669048633E+03  0.12500000000E+03 0.  0.
</event>
<event>
 5    0  0.5668330E-005  0.4350913E+03  0.7546771E-02  0.1032264E+00
         21   -1    0    0  502  501  0.00000000000E+00  0.00000000000E+00  0.12621842791E+03  0.12621842791E+03  0.00000000000E+00 0. -1.
         21   -1    0    0  501  502 -0.00000000000E+00 -0.00000000000E+00 -0.14998163521E+04  0.14998163521E+04  0.00000000000E+00 0. -1.
         25    1    1    2    0    0 -0.18565738996E+02  0.35898922718E+02 -0.38973936252E+03  0.41128480402E+03  0.12500000000E+03 0.  0.
         25    1    1    2    0    0  0.32736519362E+03 -0.11602761291E+03 -0.48292200296E+03  0.60783964817E+03  0.12500000000E+03 0.  0.
         25    1    1    2    0    0 -0.30879945462E+03  0.80128690190E+02 -0.50093655875E+03  0.60691032786E+03  0.12500000000E+03 0.  0.
</event>
<event>
 5    0  0.5668330E-005  0.3478684E+03  0.7546771E-02  0.1063493E+00
         21   -1    0    0  502  501  0.00000000000E+00  0.00000000000E+00  0.70017370832E+02  0.70017370832E+02  0.00000000000E+00 0. -1.
         21   -1    0    0  501  502 -0.00000000000E+00 -0.00000000000E+00 -0.17283205069E+04  0.17283205069E+04  0.00000000000E+00 0. -1.
         25    1    1    2    0    0  0.58629492477E+02  0.32910156771E+02 -0.13919531645E+04  0.13991708645E+04  0.12500000000E+03 0.  0.
         25    1    1    2    0    0 -0.10128056183E+03 -0.35522653861E+02 -0.13687308039E+03  0.21419349028E+03  0.12500000000E+03 0.  0.
         25    1    1    2    0    0  0.42651069353E+02  0.26124970895E+01 -0.12947689117E+03  0.18497352299E+03  0.12500000000E+03 0.  0.
</event>
<event>
 5    0  0.5668330E-005  0.3558689E+03  0.7546771E-02  0.1060232E+00
         21   -1    0    0  502  501  0.00000000000E+00  0.00000000000E+00  0.15817984965E+04  0.15817984965E+04  0.00000000000E+00 0. -1.
         21   -1    0    0  501  502 -0.00000000000E+00 -0.00000000000E+00 -0.80062473399E+02  0.80062473399E+02  0.00000000000E+00 0. -1.
         25    1    1    2    0    0 -0.14588161686E+02  0.37874963058E+02  0.80314700732E+02  0.15402200636E+03  0.12500000000E+03 0.  0.
         25    1    1    2    0    0 -0.19612492856E+03  0.46717008537E+02  0.55740045295E+03  0.60577861586E+03  0.12500000000E+03 0.  0.
         25    1    1    2    0    0  0.21071309025E+03 -0.84591971595E+02  0.86402086938E+03  0.90206034764E+03  0.12500000000E+03 0.  0.
</event>
<event>
 5    0  0.5668330E-005  0.2957351E+03  0.7546771E-02  0.1087392E+00
         21   -1    0    0  502  501  0.00000000000E+00  0.00000000000E+00  0.17846667252E+04  0.17846667252E+04  0.00000000000E+00 0. -1.
         21   -1    0    0  501  502 -0.00000000000E+00 -0.00000000000E+00 -0.49005927273E+02  0.49005927273E+02  0.00000000000E+00 0. -1.
         25    1    1    2    0    0  0.11922710458E+03 -0.14117798700E+03  0.39532005628E+03  0.45392650659E+03  0.12500000000E+03 0.  0.
         25    1    1    2    0    0 -0.62348905766E+02  0.88426020922E+02  0.91154241791E+03  0.92641304334E+03  0.12500000000E+03 0.  0.
         25    1    1    2    0    0 -0.56878198816E+02  0.52751966082E+02  0.42879832374E+03  0.45333310255E+03  0.12500000000E+03 0.  0.
</event>
<event>
 5    0  0.5668330E-005  0.3300167E+03  0.7546771E-02  0.1071129E+00
         21   -1    0    0  502  501  0.00000000000E+00  0.00000000000E+00  0.48658786750E+03  0.48658786750E+03  0.00000000000E+00 0. -1.
         21   -1    0    0  501  502 -0.00000000000E+00 -0.00000000000E+00 -0.22382601635E+03  0.22382601635E+03  0.00000000000E+00 0. -1.
         25    1    1    2    0    0 -0.11674111858E+03 -0.70218894458E+02  0.10013373458E+03  0.21026399289E+03  0.12500000000E+03 0.  0.
         25    1    1    2    0    0  0.22945976379E+03  0.13315842812E+03  0.10035620062E+03  0.30996663882E+03  0.12500000000E+03 0.  0.
         25    1    1    2    0    0 -0.11271864521E+03 -0.62939533666E+02  0.62271915956E+02  0.19018325214E+03  0.12500000000E+03 0.  0.
</event>
<event>
 5    0  0.5668330E-005  0.2705787E+03  0.7546771E-02  0.1100949E+00
         21   -1    0    0  502  501  0.00000000000E+00  0.00000000000E+00  0.15878730682E+03  0.15878730682E+03  0.00000000000E+00 0. -1.
         21   -1    0    0  501  502 -0.00000000000E+00 -0.00000000000E+00 -0.46107486181E+03  0.46107486181E+03  0.00000000000E+00 0. -1.
         25    1    1    2    0    0  0.34266795067E+02 -0.78853884238E+01  0.64527941022E+02  0.14500085437E+03  0.12500000000E+03 0.  0.
         25    1    1    2    0    0 -0.42945002954E+01  0.71748946579E+02 -0.25488399465E+03  0.29284331100E+03  0.12500000000E+03 0.  0.
         25    1    1    2    0    0 -0.29972294772E+02 -0.63863558155E+02 -0.11193150136E+03  0.18201800326E+03  0.12500000000E+03 0.  0.
</event>
<event>
 5    0  0.5668330E-005  0.3261489E+03  0.7546771E-02  0.1072854E+00
         21   -1    0    0  502  501  0.00000000000E+00  0.00000000000E+00  0.51112151328E+03  0.51112151328E+03  0.00000000000E+00 0.  1.
         21   -1    0    0  501  502 -0.00000000000E+00 -0.00000000000E+00 -0.20811700013E+03  0.20811700013E+03  0.00000000000E+00 0.  1.
         25    1    1    2    0    0 -0.19484573469E+03  0.16811106430E+03  0.13381308748E+03  0.31584352558E+03  0.12500000000E+03 0.  0.
         25    1    1    2    0    0  0.70099236229E+02 -0.10160649252E+03  0.61551318612E+02  0.18614872297E+03  0.12500000000E+03 0.  0.
         25    1    1    2    0    0  0.12474649847E+03 -0.66504571782E+02  0.10764010706E+03  0.21724626486E+03  0.12500000000E+03 0.  0.
</event>
<event>
 5    0  0.5668330E-005  0.3744604E+03  0.7546771E-02  0.1053000E+00
         21   -1    0    0  502  501  0.00000000000E+00  0.00000000000E+00  0.78555353918E+03  0.78555353918E+03  0.00000000000E+00 0.  1.
         21   -1    0    0  501  502 -0.00000000000E+00 -0.00000000000E+00 -0.17849911354E+03  0.17849911354E+03  0.00000000000E+00 0.  1.
         25    1    1    2    0    0 -0.24075858432E+03 -0.11635159262E+03  0.72058631094E+02  0.30384179328E+03  0.12500000000E+03 0.  0.
         25    1    1    2    0    0  0.70068545935E+02  0.15395764234E+02  0.14021469033E+03  0.20107657763E+03  0.12500000000E+03 0.  0.
         25    1    1    2    0    0  0.17069003839E+03  0.10095582838E+03  0.39478110422E+03  0.45913428181E+03  0.12500000000E+03 0.  0.
</event>
<event>
 5    0  0.5668330E-005  0.2711104E+03  0.7546771E-02  0.1100646E+00
         21   -1    0    0  502  501  0.00000000000E+00  0.00000000000E+00  0.76411244566E+03  0.76411244566E+03  0.00000000000E+00 0. -1.
         21   -1    0    0  501  502 -0.00000000000E+00 -0.00000000000E+00 -0.96191163780E+02  0.96191163780E+02  0.00000000000E+00 0. -1.
         25    1    1    2    0    0 -0.24723164273E+02 -0.35720839354E+02  0.11739118980E+03  0.17689800638E+03  0.12500000000E+03 0.  0.
         25    1    1    2    0    0 -0.95478122437E+02  0.13305285107E+03  0.27558263183E+03  0.34407836318E+03  0.12500000000E+03 0.  0.
         25    1    1    2    0    0  0.12020128671E+03 -0.97332011718E+02  0.27494746024E+03  0.33932723988E+03  0.12500000000E+03 0.  0.
</event>
<event>
 5    0  0.5781385E-005  0.2877150E+03  0.7546771E-02  0.1091548E+00
         21   -1    0    0  502  501  0.00000000000E+00  0.00000000000E+00  0.36294391574E+03  0.36294391574E+03  0.00000000000E+00 0.  1.
         21   -1    0    0  501  502 -0.00000000000E+00 -0.00000000000E+00 -0.22807911338E+03  0.22807911338E+03  0.00000000000E+00 0.  1.
         25    1    1    2    0    0 -0.79768769781E+02  0.11477368704E+03  0.11596168993E+03  0.22047260465E+03  0.12500000000E+03 0.  0.
         25    1    1    2    0    0 -0.48957122275E+02 -0.37443860065E+02  0.86232740374E+02  0.16388998746E+03  0.12500000000E+03 0.  0.
         25    1    1    2    0    0  0.12872589206E+03 -0.77329826973E+02 -0.67329627948E+02  0.20666043701E+03  0.12500000000E+03 0.  0.
</event>
<event>
 5    0  0.6332273E-005  0.6261720E+03  0.7546771E-02  0.9852547E-01
         21   -1    0    0  502  501  0.00000000000E+00  0.00000000000E+00  0.15478629242E+04  0.15478629242E+04  0.00000000000E+00 0.  1.
         21   -1    0    0  501  502 -0.00000000000E+00 -0.00000000000E+00 -0.25331144310E+03  0.25331144310E+03  0.00000000000E+00 0.  1.
         25    1    1    2    0    0 -0.18286024370E+02  0.26072607756E+03  0.11591367871E+03  0.31204718733E+03  0.12500000000E+03 0.  0.
         25    1    1    2    0    0 -0.46615450284E+00 -0.36931737704E+03  0.10658989982E+03  0.40420533028E+03  0.12500000000E+03 0.  0.
         25    1    1    2    0    0  0.18752178873E+02  0.10859129948E+03  0.10720479026E+04  0.10849218497E+04  0.12500000000E+03 0.  0.
</event>
<event>
 5    0  0.6368550E-005  0.4432783E+03  0.7546771E-02  0.1029746E+00
         21   -1    0    0  502  501  0.00000000000E+00  0.00000000000E+00  0.13801750644E+03  0.13801750644E+03  0.00000000000E+00 0.  1.
         21   -1    0    0  501  502 -0.00000000000E+00 -0.00000000000E+00 -0.14237007775E+04  0.14237007775E+04  0.00000000000E+00 0.  1.
         25    1    1    2    0    0 -0.56039332939E+02 -0.93401519999E+02 -0.57613101540E+02  0.17552356037E+03  0.12500000000E+03 0.  0.
         25    1    1    2    0    0 -0.71773836554E+02  0.32188097441E+03 -0.65865368493E+03  0.74713353691E+03  0.12500000000E+03 0.  0.
         25    1    1    2    0    0  0.12781316949E+03 -0.22847945441E+03 -0.56941648462E+03  0.63906118670E+03  0.12500000000E+03 0.  0.
</event>
<event>
 5    0  0.5668330E-005  0.2560974E+03  0.7546771E-02  0.1109511E+00
         21   -1    0    0  502  501  0.00000000000E+00  0.00000000000E+00  0.89021425471E+02  0.89021425471E+02  0.00000000000E+00 0.  1.
         21   -1    0    0  501  502 -0.00000000000E+00 -0.00000000000E+00 -0.73674275802E+03  0.73674275802E+03  0.00000000000E+00 0.  1.
         25    1    1    2    0    0 -0.24784760243E+02 -0.33345490946E+01 -0.21557309529E+03  0.25044393179E+03  0.12500000000E+03 0.  0.
         25    1    1    2    0    0 -0.25152808023E+02  0.13812068157E+03 -0.23866640103E+03  0.30380361652E+03  0.12500000000E+03 0.  0.
         25    1    1    2    0    0  0.49937568266E+02 -0.13478613247E+03 -0.19348183623E+03  0.27151663518E+03  0.12500000000E+03 0.  0.
</event>
<event>
 5    0  0.5668330E-005  0.2431761E+03  0.7546771E-02  0.1117695E+00
         21   -1    0    0  502  501  0.00000000000E+00  0.00000000000E+00  0.93927490702E+02  0.93927490702E+02  0.00000000000E+00 0.  1.
         21   -1    0    0  501  502 -0.00000000000E+00 -0.00000000000E+00 -0.62957754297E+03  0.62957754297E+03  0.00000000000E+00 0.  1.
         25    1    1    2    0    0 -0.46123809554E+02  0.54261482268E+02 -0.23859103608E+03  0.27860796249E+03  0.12500000000E+03 0.  0.
         25    1    1    2    0    0  0.20618366121E+02  0.75702969745E+02 -0.11212542594E+03  0.18534607574E+03  0.12500000000E+03 0.  0.
         25    1    1    2    0    0  0.25505443433E+02 -0.12996445201E+03 -0.18493359024E+03  0.25955099544E+03  0.12500000000E+03 0.  0.
</event>
<event>
 5    0  0.5668330E-005  0.2536138E+03  0.7546771E-02  0.1111042E+00
         21   -1    0    0  502  501  0.00000000000E+00  0.00000000000E+00  0.33017691133E+03  0.33017691133E+03  0.00000000000E+00 0.  1.
         21   -1    0    0  501  502 -0.00000000000E+00 -0.00000000000E+00 -0.19480452819E+03  0.19480452819E+03  0.00000000000E+00 0.  1.
         25    1    1    2    0    0 -0.11704097204E+03  0.38449697666E+02  0.12253599039E+03  0.21404914699E+03  0.12500000000E+03 0.  0.
         25    1    1    2    0    0 -0.10789028463E+02  0.51405664473E+01 -0.74532952640E+01  0.12579101784E+03  0.12500000000E+03 0.  0.
         25    1    1    2    0    0  0.12783000050E+03 -0.43590264113E+02  0.20289688017E+02  0.18514127469E+03  0.12500000000E+03 0.  0.
</event>
<event>
 5    0  0.5668330E-005  0.3781053E+03  0.7546771E-02  0.1051636E+00
         21   -1    0    0  502  501  0.00000000000E+00  0.00000000000E+00  0.38586480256E+03  0.38586480256E+03  0.00000000000E+00 0.  1.
         21   -1    0    0  501  502 -0.00000000000E+00 -0.00000000000E+00 -0.37050175709E+03  0.37050175709E+03  0.00000000000E+00 0.  1.
         25    1    1    2    0    0 -0.36184054004E+02  0.85705788769E+02  0.40279650472E+02  0.16094166097E+03  0.12500000000E+03 0.  0.
         25    1    1    2    0    0 -0.18103050309E+02  0.55397908958E+02  0.23337622176E+03  0.27108321533E+03  0.12500000000E+03 0.  0.
         25    1    1    2    0    0  0.54287104313E+02 -0.14110369773E+03 -0.25829282676E+03  0.32434168336E+03  0.12500000000E+03 0.  0.
</event>
<event>
 5    0  0.5668330E-005  0.2895370E+03  0.7546771E-02  0.1090591E+00
         21   -1    0    0  502  501  0.00000000000E+00  0.00000000000E+00  0.14544547273E+04  0.14544547273E+04  0.00000000000E+00 0.  1.
         21   -1    0    0  501  502 -0.00000000000E+00 -0.00000000000E+00 -0.57637860622E+02  0.57637860622E+02  0.00000000000E+00 0.  1.
         25    1    1    2    0    0  0.57182308673E+02  0.25261021249E+02  0.38028862803E+03  0.40515722409E+03  0.12500000000E+03 0.  0.
         25    1    1    2    0    0  0.58854547672E+02  0.10313500698E+03  0.20532839474E+03  0.26811459701E+03  0.12500000000E+03 0.  0.
         25    1    1    2    0    0 -0.11603685634E+03 -0.12839602823E+03  0.81119984392E+03  0.83882076683E+03  0.12500000000E+03 0.  0.
</event>
<event>
 5    0  0.5668330E-005  0.3046842E+03  0.7546771E-02  0.1082922E+00
         21   -1    0    0  502  501  0.00000000000E+00  0.00000000000E+00  0.85564901548E+02  0.85564901548E+02  0.00000000000E+00 0. -1.
         21   -1    0    0  501  502 -0.00000000000E+00 -0.00000000000E+00 -0.10849363606E+04  0.10849363606E+04  0.00000000000E+00 0. -1.
         25    1    1    2    0    0  0.39483501798E+02  0.12355639863E+03 -0.17824153458E+03  0.25341699866E+03  0.12500000000E+03 0.  0.
         25    1    1    2    0    0  0.83410091857E+02 -0.16743652174E+03 -0.50724294852E+03  0.55489876650E+03  0.12500000000E+03 0.  0.
         25    1    1    2    0    0 -0.12289359365E+03  0.43880123106E+02 -0.31388697597E+03  0.36218549702E+03  0.12500000000E+03 0.  0.
</event>
<event>
 5    0  0.5668330E-005  0.2831348E+03  0.7546771E-02  0.1093989E+00
         21   -1    0    0  502  501  0.00000000000E+00  0.00000000000E+00  0.48888729769E+03  0.48888729769E+03  0.00000000000E+00 0.  1.
         21   -1    0    0  501  502 -0.00000000000E+00 -0.00000000000E+00 -0.16397500270E+03  0.16397500270E+03  0.00000000000E+00 0.  1.
         25    1    1    2    0    0 -0.30502437528E+02 -0.10781596940E+03  0.34480635913E+02  0.17137268220E+03  0.12500000000E+03 0.  0.
         25    1    1    2    0    0 -0.68032912353E+02 -0.49868987415E+02  0.16955191522E+03  0.22691021358E+03  0.12500000000E+03 0.  0.
         25    1    1    2    0    0  0.98535349881E+02  0.15768495681E+03  0.12087974386E+03  0.25457940462E+03  0.12500000000E+03 0.  0.
</event>
<event>
 5    0  0.5668330E-005  0.2225768E+03  0.7546771E-02  0.1131976E+00
         21   -1    0    0  502  501  0.00000000000E+00  0.00000000000E+00  0.12550465429E+03  0.12550465429E+03  0.00000000000E+00 0.  1.
         21   -1    0    0  501  502 -0.00000000000E+00 -0.00000000000E+00 -0.39472988369E+03  0.39472988369E+03  0.00000000000E+00 0.  1.
         25    1    1    2    0    0  0.57258679097E-01 -0.77101901099E+02 -0.12549873437E+03  0.19318291529E+03  0.12500000000E+03 0.  0.
         25    1    1    2    0    0 -0.16637092206E+01 -0.21891561244E+02 -0.10036223075E+03  0.16180106842E+03  0.12500000000E+03 0.  0.
         25    1    1    2    0    0  0.16064505415E+01  0.98993462343E+02 -0.43364264277E+02  0.16525055427E+03  0.12500000000E+03 0.  0.
</event>
<event>
 5    0  0.5668330E-005  0.2967146E+03  0.7546771E-02  0.1086895E+00
         21   -1    0    0  502  501  0.00000000000E+00  0.00000000000E+00  0.67954380859E+03  0.67954380859E+03  0.00000000000E+00 0. -1.
         21   -1    0    0  501  502 -0.00000000000E+00 -0.00000000000E+00 -0.12955682700E+03  0.12955682700E+03  0.00000000000E+00 0. -1.
         25    1    1    2    0    0 -0.14842541332E+03 -0.31820336804E+01  0.31670858333E+03  0.37144253312E+03  0.12500000000E+03 0.  0.
         25    1    1    2    0    0  0.78534004649E+02  0.80635947068E+02  0.20087129777E+02  0.16940554486E+03  0.12500000000E+03 0.  0.
         25    1    1    2    0    0  0.69891408667E+02 -0.77453913388E+02  0.21319126849E+03  0.26825255761E+03  0.12500000000E+03 0.  0.
</event>
<event>
 5    0  0.5668330E-005  0.2896083E+03  0.7546771E-02  0.1090554E+00
         21   -1    0    0  502  501  0.00000000000E+00  0.00000000000E+00  0.16275157289E+03  0.16275157289E+03  0.00000000000E+00 0. -1.
         21   -1    0    0  501  502 -0.00000000000E+00 -0.00000000000E+00 -0.51534334897E+03  0.51534334897E+03  0.00000000000E+00 0. -1.
         25    1    1    2    0    0 -0.64113504723E+02  0.12910212957E+03 -0.25190863466E+02  0.19245124304E+03  0.12500000000E+03 0.  0.
         25    1    1    2    0    0  0.74120811408E+02  0.12978015657E+02 -0.23051506477E+03  0.27280857512E+03  0.12500000000E+03 0.  0.
         25    1    1    2    0    0 -0.10007306685E+02 -0.14208014522E+03 -0.96885847848E+02  0.21283510370E+03  0.12500000000E+03 0.  0.
</event>
<event>
 5    0  0.5668330E-005  0.3586812E+03  0.7546771E-02  0.1059107E+00
         21   -1    0    0  502  501  0.00000000000E+00  0.00000000000E+00  0.11623736127E+03  0.11623736127E+03  0.00000000000E+00 0. -1.
         21   -1    0    0  501  502 -0.00000000000E+00 -0.00000000000E+00 -0.11068058521E+04  0.11068058521E+04  0.00000000000E+00 0. -1.
         25    1    1    2    0    0  0.26587294984E+03  0.33000827705E+02 -0.22958337886E+03  0.37431404987E+03  0.12500000000E+03 0.  0.
         25    1    1    2    0    0 -0.84658665964E+02 -0.36658666717E+02 -0.29848846985E+03  0.33649860951E+03  0.12500000000E+03 0.  0.
         25    1    1    2    0    0 -0.18121428387E+03  0.36578390118E+01 -0.46249664210E+03  0.51223055397E+03  0.12500000000E+03 0.  0.
</event>
<event>
 5    0  0.5668330E-005  0.2814525E+03  0.7546771E-02  0.1094898E+00
         21   -1    0    0  502  501  0.00000000000E+00  0.00000000000E+00  0.11211009578E+03  0.11211009578E+03  0.00000000000E+00 0. -1.
         21   -1    0    0  501  502 -0.00000000000E+00 -0.00000000000E+00 -0.70658666509E+03  0.70658666509E+03  0.00000000000E+00 0. -1.
         25    1    1    2    0    0  0.12682299962E+03 -0.62344839379E+02 -0.99871017265E+02  0.21347171316E+03  0.12500000000E+03 0.  0.
         25    1    1    2    0    0 -0.86558740385E+01  0.11230171577E+03 -0.21236188660E+03  0.27094126744E+03  0.12500000000E+03 0.  0.
         25    1    1    2    0    0 -0.11816712558E+03 -0.49956876395E+02 -0.28224366545E+03  0.33428378027E+03  0.12500000000E+03 0.  0.
</event>
<event>
 5    0  0.5668330E-005  0.3170636E+03  0.7546771E-02  0.1077009E+00
         21   -1    0    0  502  501  0.00000000000E+00  0.00000000000E+00  0.89271500965E+03  0.89271500965E+03  0.00000000000E+00 0. -1.
         21   -1    0    0  501  502 -0.00000000000E+00 -0.00000000000E+00 -0.11261079568E+03  0.11261079568E+03  0.00000000000E+00 0. -1.
         25    1    1    2    0    0 -0.22903359197E+03  0.25836593503E+02  0.26401674540E+03  0.37209374849E+03  0.12500000000E+03 0.  0.
         25    1    1    2    0    0  0.18309218017E+03  0.23055735959E+00  0.24723954803E+03  0.33207709001E+03  0.12500000000E+03 0.  0.
         25    1    1    2    0    0  0.45941411806E+02 -0.26067150862E+02  0.26884792054E+03  0.30115496684E+03  0.12500000000E+03 0.  0.
</event>
<event>
 5    0  0.5668330E-005  0.2873799E+03  0.7546771E-02  0.1091725E+00
         21   -1    0    0  502  501  0.00000000000E+00  0.00000000000E+00  0.34500612900E+03  0.34500612900E+03  0.00000000000E+00 0.  1.
         21   -1    0    0  501  502 -0.00000000000E+00 -0.00000000000E+00 -0.23937892614E+03  0.23937892614E+03  0.00000000000E+00 0. -1.
         25    1    1    2    0    0 -0.43376464944E+02  0.11952239233E+03 -0.11715681021E+03  0.21334909927E+03  0.12500000000E+03 0.  0.
         25    1    1    2    0    0  0.22474443594E+02 -0.40646690514E+02  0.49305569700E+02  0.14217346190E+03  0.12500000000E+03 0.  0.
         25    1    1    2    0    0  0.20902021350E+02 -0.78875701813E+02  0.17347844337E+03  0.22886249397E+03  0.12500000000E+03 0.  0.
</event>
<event>
 5    0  0.5668330E-005  0.2966144E+03  0.7546771E-02  0.1086945E+00
         21   -1    0    0  502  501  0.00000000000E+00  0.00000000000E+00  0.86966594522E+02  0.86966594522E+02  0.00000000000E+00 0. -1.
         21   -1    0    0  501  502 -0.00000000000E+00 -0.00000000000E+00 -0.10116541920E+04  0.10116541920E+04  0.00000000000E+00 0. -1.
         25    1    1    2    0    0 -0.70559007812E+02  0.16088664189E+02 -0.22458202040E+03  0.26701966704E+03  0.12500000000E+03 0.  0.
         25    1    1    2    0    0 -0.67929425155E+02 -0.14655356337E+03 -0.44533094366E+03  0.48993571326E+03  0.12500000000E+03 0.  0.
         25    1    1    2    0    0  0.13848843297E+03  0.13046489918E+03 -0.25477463343E+03  0.34166540625E+03  0.12500000000E+03 0.  0.
</event>
<event>
 5    0  0.5668330E-005  0.3302350E+03  0.7546771E-02  0.1071033E+00
         21   -1    0    0  502  501  0.00000000000E+00  0.00000000000E+00  0.13387911730E+03  0.13387911730E+03  0.00000000000E+00 0.  1.
         21   -1    0    0  501  502 -0.00000000000E+00 -0.00000000000E+00 -0.81457943345E+03  0.81457943345E+03  0.00000000000E+00 0.  1.
         25    1    1    2    0    0 -0.28596104359E+01  0.97721631336E+02  0.33590866518E+02  0.16220678443E+03  0.12500000000E+03 0.  0.
         25    1    1    2    0    0 -0.71011217692E+02 -0.10044640960E+03 -0.47499924063E+03  0.50634114275E+03  0.12500000000E+03 0.  0.
         25    1    1    2    0    0  0.73870828127E+02  0.27247782619E+01 -0.23929194203E+03  0.27991062356E+03  0.12500000000E+03 0.  0.
</event>
<event>
 5    0  0.5668330E-005  0.3260295E+03  0.7546771E-02  0.1072907E+00
         21   -1    0    0  502  501  0.00000000000E+00  0.00000000000E+00  0.41457784676E+03  0.41457784676E+03  0.00000000000E+00 0. -1.
         21   -1    0    0  501  502 -0.00000000000E+00 -0.00000000000E+00 -0.25639394675E+03  0.25639394675E+03  0.00000000000E+00 0. -1.
         25    1    1    2    0    0  0.10249137767E+03 -0.88681894347E+02 -0.13860254027E+02  0.18489474715E+03  0.12500000000E+03 0.  0.
         25    1    1    2    0    0 -0.22892281939E+03  0.38367051452E+02  0.61332906798E+02  0.27067399825E+03  0.12500000000E+03 0.  0.
         25    1    1    2    0    0  0.12643144172E+03  0.50314842896E+02  0.11071124724E+03  0.21540304811E+03  0.12500000000E+03 0.  0.
</event>
<event>
 5    0  0.5668330E-005  0.4707812E+03  0.7546771E-02  0.1021700E+00
         21   -1    0    0  502  501  0.00000000000E+00  0.00000000000E+00  0.47380388254E+03  0.47380388254E+03  0.00000000000E+00 0. -1.
         21   -1    0    0  501  502 -0.00000000000E+00 -0.00000000000E+00 -0.46777771026E+03  0.46777771026E+03  0.00000000000E+00 0. -1.
         25    1    1    2    0    0  0.29174354126E+03 -0.90439900411E+02 -0.25135666924E+03  0.41484797772E+03  0.12500000000E+03 0.  0.
         25    1    1    2    0    0 -0.10256367213E+03  0.29488824287E+02 -0.17425320497E+02  0.16528018452E+03  0.12500000000E+03 0.  0.
         25    1    1    2    0    0 -0.18917986912E+03  0.60951076123E+02  0.27480816201E+03  0.36145343057E+03  0.12500000000E+03 0.  0.
</event>
<event>
 5    0  0.5668330E-005  0.2397042E+03  0.7546771E-02  0.1119990E+00
         21   -1    0    0  502  501  0.00000000000E+00  0.00000000000E+00  0.14168148992E+03  0.14168148992E+03  0.00000000000E+00 0. -1.
         21   -1    0    0  501  502 -0.00000000000E+00 -0.00000000000E+00 -0.40554411145E+03  0.40554411145E+03  0.00000000000E+00 0. -1.
         25    1    1    2    0    0 -0.95603401485E+02  0.23999582779E+02 -0.13883678480E+03  0.21122652098E+03  0.12500000000E+03 0.  0.
         25    1    1    2    0    0 -0.78140588397E+01 -0.50415218898E+02 -0.10004483852E+02  0.13538036604E+03  0.12500000000E+03 0.  0.
         25    1    1    2    0    0  0.10341746032E+03  0.26415636119E+02 -0.11502135288E+03  0.20061871435E+03  0.12500000000E+03 0.  0.
</event>
<event>
 5    0  0.5668330E-005  0.2786196E+03  0.7546771E-02  0.1096445E+00
         21   -1    0    0  502  501  0.00000000000E+00  0.00000000000E+00  0.45080750184E+02  0.45080750184E+02  0.00000000000E+00 0.  1.
         21   -1    0    0  501  502 -0.00000000000E+00 -0.00000000000E+00 -0.17219958163E+04  0.17219958163E+04  0.00000000000E+00 0.  1.
         25    1    1    2    0    0  0.56629994173E+02  0.30671763928E+02 -0.77574014334E+03  0.78838155949E+03  0.12500000000E+03 0.  0.
         25    1    1    2    0    0  0.11379888618E+03 -0.18159293948E+02 -0.39936809154E+03  0.43405047977E+03  0.12500000000E+03 0.  0.
         25    1    1    2    0    0 -0.17042888036E+03 -0.12512469980E+02 -0.50180683128E+03  0.54464452727E+03  0.12500000000E+03 0.  0.
</event>
<event>
 5    0  0.5668330E-005  0.3145102E+03  0.7546771E-02  0.1078204E+00
         21   -1    0    0  502  501  0.00000000000E+00  0.00000000000E+00  0.64278018479E+03  0.64278018479E+03  0.00000000000E+00 0. -1.
         21   -1    0    0  501  502 -0.00000000000E+00 -0.00000000000E+00 -0.15388880075E+03  0.15388880075E+03  0.00000000000E+00 0. -1.
         25    1    1    2    0    0 -0.63363437694E+02  0.53510481547E+02  0.25903454084E+03  0.29933624942E+03  0.12500000000E+03 0.  0.
         25    1    1    2    0    0  0.78740759039E+02 -0.17902860240E+03  0.21911558804E+03  0.31919897953E+03  0.12500000000E+03 0.  0.
         25    1    1    2    0    0 -0.15377321345E+02  0.12551812085E+03  0.10741255160E+02  0.17813375659E+03  0.12500000000E+03 0.  0.
</event>
<event>
 5    0  0.5668330E-005  0.3026064E+03  0.7546771E-02  0.1083945E+00
         21   -1    0    0  502  501  0.00000000000E+00  0.00000000000E+00  0.12646301875E+04  0.12646301875E+04  0.00000000000E+00 0.  1.
         21   -1    0    0  501  502 -0.00000000000E+00 -0.00000000000E+00 -0.72409004461E+02  0.72409004461E+02  0.00000000000E+00 0.  1.
         25    1    1    2    0    0 -0.38372993454E+02  0.59383085091E+02  0.11724099964E+03  0.18538956125E+03  0.12500000000E+03 0.  0.
         25    1    1    2    0    0  0.93905222073E+01  0.12278108428E+03  0.63029081066E+03  0.65425903324E+03  0.12500000000E+03 0.  0.
         25    1    1    2    0    0  0.28982471247E+02 -0.18216416937E+03  0.44468937274E+03  0.49739059748E+03  0.12500000000E+03 0.  0.
</event>
<event>
 5    0  0.5668330E-005  0.2511378E+03  0.7546771E-02  0.1112588E+00
         21   -1    0    0  502  501  0.00000000000E+00  0.00000000000E+00  0.35560418357E+02  0.35560418357E+02  0.00000000000E+00 0. -1.
         21   -1    0    0  501  502 -0.00000000000E+00 -0.00000000000E+00 -0.17736068381E+04  0.17736068381E+04  0.00000000000E+00 0. -1.
         25    1    1    2    0    0  0.10696311535E+03 -0.64289298948E+02 -0.44174338823E+03  0.47574829800E+03  0.12500000000E+03 0.  0.
         25    1    1    2    0    0 -0.27129219330E+02 -0.35278496143E+02 -0.60822306214E+03  0.62252779870E+03  0.12500000000E+03 0.  0.
         25    1    1    2    0    0 -0.79833896022E+02  0.99567795091E+02 -0.68807996940E+03  0.71089115978E+03  0.12500000000E+03 0.  0.
</event>
<event>
 5    0  0.5668330E-005  0.2431831E+03  0.7546771E-02  0.1117690E+00
         21   -1    0    0  502  501  0.00000000000E+00  0.00000000000E+00  0.82578037246E+03  0.82578037246E+03  0.00000000000E+00 0.  1.
         21   -1    0    0  501  502 -0.00000000000E+00 -0.00000000000E+00 -0.71614684955E+02  0.71614684955E+02  0.00000000000E+00 0.  1.
         25    1    1    2    0    0 -0.71123910375E+02  0.10056286680E+03  0.20267404086E+03  0.26809190149E+03  0.12500000000E+03 0.  0.
         25    1    1    2    0    0  0.28541303439E+02 -0.31056853901E+02  0.37854143054E+03  0.40087123719E+03  0.12500000000E+03 0.  0.
         25    1    1    2    0    0  0.42582606936E+02 -0.69506012901E+02  0.17295021610E+03  0.22843191873E+03  0.12500000000E+03 0.  0.
</event>
<event>
 5    0  0.5668330E-005  0.4999749E+03  0.7546771E-02  0.1013785E+00
         21   -1    0    0  502  501  0.00000000000E+00  0.00000000000E+00  0.12460926001E+04  0.12460926001E+04  0.00000000000E+00 0.  1.
         21   -1    0    0  501  502 -0.00000000000E+00 -0.00000000000E+00 -0.20060698881E+03  0.20060698881E+03  0.00000000000E+00 0.  1.
         25    1    1    2    0    0 -0.11175886795E+03  0.37969161288E+03  0.33947550667E+03  0.53621300347E+03  0.12500000000E+03 0.  0.
         25    1    1    2    0    0  0.19879230128E+02 -0.39574949866E+03  0.55590770957E+03  0.69402538213E+03  0.12500000000E+03 0.  0.
         25    1    1    2    0    0  0.91879637819E+02  0.16057885778E+02  0.15010239509E+03  0.21646120335E+03  0.12500000000E+03 0.  0.
</event>
<event>
 5    0  0.5668330E-005  0.2884731E+03  0.7546771E-02  0.1091149E+00
         21   -1    0    0  502  501  0.00000000000E+00  0.00000000000E+00  0.20858922764E+03  0.20858922764E+03  0.00000000000E+00 0. -1.
         21   -1    0    0  501  502 -0.00000000000E+00 -0.00000000000E+00 -0.39895035849E+03  0.39895035849E+03  0.00000000000E+00 0. -1.
         25    1    1    2    0    0  0.89026896461E+01 -0.19065580620E+03 -0.78825306296E+02  0.24138625320E+03  0.12500000000E+03 0.  0.
         25    1    1    2    0    0  0.55775607707E+02  0.43315488524E+02 -0.62464449136E+02  0.15656933725E+03  0.12500000000E+03 0.  0.
         25    1    1    2    0    0 -0.64678297353E+02  0.14734031767E+03 -0.49071375420E+02  0.20958399568E+03  0.12500000000E+03 0.  0.
</event>
<event>
 5    0  0.5668330E-005  0.3984668E+03  0.7546771E-02  0.1044312E+00
         21   -1    0    0  502  501  0.00000000000E+00  0.00000000000E+00  0.13288579304E+03  0.13288579304E+03  0.00000000000E+00 0. -1.
         21   -1    0    0  501  502 -0.00000000000E+00 -0.00000000000E+00 -0.11948289432E+04  0.11948289432E+04  0.00000000000E+00 0. -1.
         25    1    1    2    0    0 -0.14735296937E+03  0.27694312913E+03 -0.35027006339E+03  0.48654343245E+03  0.12500000000E+03 0.  0.
         25    1    1    2    0    0  0.46506576690E+02 -0.15081677575E+03 -0.17427558771E+03  0.26628094561E+03  0.12500000000E+03 0.  0.
         25    1    1    2    0    0  0.10084639268E+03 -0.12612635337E+03 -0.53739749905E+03  0.57489035817E+03  0.12500000000E+03 0.  0.
</event>
<event>
 5    0  0.5668330E-005  0.3499207E+03  0.7546771E-02  0.1062648E+00
         21   -1    0    0  502  501  0.00000000000E+00  0.00000000000E+00  0.11376261682E+04  0.11376261682E+04  0.00000000000E+00 0. -1.
         21   -1    0    0  501  502 -0.00000000000E+00 -0.00000000000E+00 -0.10763157121E+03  0.10763157121E+03  0.00000000000E+00 0. -1.
         25    1    1    2    0    0 -0.16637641834E+02  0.23745854924E+03  0.19146815778E+03  0.33007336938E+03  0.12500000000E+03 0.  0.
         25    1    1    2    0    0  0.98604176670E+01 -0.38659394601E+02  0.32402531727E+03  0.34958430007E+03  0.12500000000E+03 0.  0.
         25    1    1    2    0    0  0.67772241675E+01 -0.19879915464E+03  0.51450112197E+03  0.56560006998E+03  0.12500000000E+03 0.  0.
</event>
<event>
 5    0  0.5668330E-005  0.4000788E+03  0.7546771E-02  0.1043752E+00
         21   -1    0    0  502  501  0.00000000000E+00  0.00000000000E+00  0.11386582152E+04  0.11386582152E+04  0.00000000000E+00 0. -1.
         21   -1    0    0  501  502 -0.00000000000E+00 -0.00000000000E+00 -0.14057160483E+03  0.14057160483E+03  0.00000000000E+00 0. -1.
         25    1    1    2    0    0 -0.92693219104E+02  0.27107899542E+02  0.60562216275E+03  0.62588343571E+03  0.12500000000E+03 0.  0.
         25    1    1    2    0    0  0.82936643928E+01 -0.20710339638E+03  0.65430210008E+02  0.25073235540E+03  0.12500000000E+03 0.  0.
         25    1    1    2    0    0  0.84399554711E+02  0.17999549684E+03  0.32703423764E+03  0.40261402895E+03  0.12500000000E+03 0.  0.
</event>
<event>
 5    0  0.5668330E-005  0.3620139E+03  0.7546771E-02  0.1057789E+00
         21   -1    0    0  502  501  0.00000000000E+00  0.00000000000E+00  0.16268150531E+03  0.16268150531E+03  0.00000000000E+00 0. -1.
         21   -1    0    0  501  502 -0.00000000000E+00 -0.00000000000E+00 -0.80558694122E+03  0.80558694122E+03  0.00000000000E+00 0. -1.
         25    1    1    2    0    0  0.16376714003E+03  0.60965978189E+02 -0.46120638598E+03  0.50879549636E+03  0.12500000000E+03 0.  0.
         25    1    1    2    0    0 -0.86292936937E+02 -0.17771875960E+03 -0.11143344547E+03  0.25898424904E+03  0.12500000000E+03 0.  0.
         25    1    1    2    0    0 -0.77474203088E+02  0.11675278141E+03 -0.70265604460E+02  0.20048870113E+03  0.12500000000E+03 0.  0.
</event>
<event>
 5    0  0.5668330E-005  0.5003941E+03  0.7546771E-02  0.1013676E+00
         21   -1    0    0  502  501  0.00000000000E+00  0.00000000000E+00  0.35888728853E+03  0.35888728853E+03  0.00000000000E+00 0. -1.
         21   -1    0    0  501  502 -0.00000000000E+00 -0.00000000000E+00 -0.69769598528E+03  0.69769598528E+03  0.00000000000E+00 0. -1.
         25    1    1    2    0    0 -0.24863250490E+03 -0.46806366034E+02 -0.13496206102E+03  0.31280779452E+03  0.12500000000E+03 0.  0.
         25    1    1    2    0    0  0.29448520904E+03  0.28242814188E+03 -0.20431887542E+03  0.47313676302E+03  0.12500000000E+03 0.  0.
         25    1    1    2    0    0 -0.45852704139E+02 -0.23562177585E+03  0.47223969050E+00  0.27063871626E+03  0.12500000000E+03 0.  0.
</event>
<event>
 5    0  0.5668330E-005  0.4212363E+03  0.7546771E-02  0.1036665E+00
         21   -1    0    0  502  501  0.00000000000E+00  0.00000000000E+00  0.44852921039E+03  0.44852921039E+03  0.00000000000E+00 0.  1.
         21   -1    0    0  501  502 -0.00000000000E+00 -0.00000000000E+00 -0.39560417029E+03  0.39560417029E+03  0.00000000000E+00 0. -1.
         25    1    1    2    0    0 -0.87770642714E+02  0.24445671710E+02 -0.56398528110E+01  0.15478399312E+03  0.12500000000E+03 0.  0.
         25    1    1    2    0    0 -0.96210556591E+01 -0.31102718654E+03 -0.60777812933E+02  0.34080700994E+03  0.12500000000E+03 0.  0.
         25    1    1    2    0    0  0.97391698373E+02  0.28658151483E+03  0.11934270584E+03  0.34854237761E+03  0.12500000000E+03 0.  0.
</event>
<event>
 5    0  0.5668330E-005  0.3819491E+03  0.7546771E-02  0.1050216E+00
         21   -1    0    0  502  501  0.00000000000E+00  0.00000000000E+00  0.10887889572E+04  0.10887889572E+04  0.00000000000E+00 0.  1.
         21   -1    0    0  501  502 -0.00000000000E+00 -0.00000000000E+00 -0.13398842436E+03  0.13398842436E+03  0.00000000000E+00 0.  1.
         25    1    1    2    0    0  0.18919339222E+03 -0.17313422929E+03  0.38303228247E+03  0.47760687854E+03  0.12500000000E+03 0.  0.
         25    1    1    2    0    0  0.78782277128E+02  0.72980607140E+02  0.21933350293E+03  0.27434467685E+03  0.12500000000E+03 0.  0.
         25    1    1    2    0    0 -0.26797566935E+03  0.10015362215E+03  0.35243474745E+03  0.47082582619E+03  0.12500000000E+03 0.  0.
</event>
<event>
 5    0  0.6219700E-005  0.3298519E+03  0.7546771E-02  0.1071202E+00
         21   -1    0    0  502  501  0.00000000000E+00  0.00000000000E+00  0.64826380837E+03  0.64826380837E+03  0.00000000000E+00 0.  1.
         21   -1    0    0  501  502 -0.00000000000E+00 -0.00000000000E+00 -0.16783637048E+03  0.16783637048E+03  0.00000000000E+00 0.  1.
         25    1    1    2    0    0 -0.51887131731E+02 -0.71700799718E+02  0.25116391268E+03  0.29417952028E+03  0.12500000000E+03 0.  0.
         25    1    1    2    0    0  0.56746253248E+02 -0.15515599238E+03  0.12950758171E+03  0.24431686996E+03  0.12500000000E+03 0.  0.
         25    1    1    2    0    0 -0.48591215173E+01  0.22685679210E+03  0.99755943503E+02  0.27760378860E+03  0.12500000000E+03 0.  0.
</event>
<event>
 5    0  0.5668330E-005  0.2646011E+03  0.7546771E-02  0.1104410E+00
         21   -1    0    0  502  501  0.00000000000E+00  0.00000000000E+00  0.67284878764E+03  0.67284878764E+03  0.00000000000E+00 0.  1.
         21   -1    0    0  501  502 -0.00000000000E+00 -0.00000000000E+00 -0.10405572422E+03  0.10405572422E+03  0.00000000000E+00 0.  1.
         25    1    1    2    0    0 -0.11632897803E+03  0.40531031429E+02  0.11373284584E+03  0.20912999752E+03  0.12500000000E+03 0.  0.
         25    1    1    2    0    0  0.91992359404E+02  0.59939251028E+02  0.15869490584E+03  0.22992255466E+03  0.12500000000E+03 0.  0.
         25    1    1    2    0    0  0.24336618628E+02 -0.10047028246E+03  0.29636531174E+03  0.33785195969E+03  0.12500000000E+03 0.  0.
</event>
<event>
 5    0  0.5668330E-005  0.2320990E+03  0.7546771E-02  0.1125171E+00
         21   -1    0    0  502  501  0.00000000000E+00  0.00000000000E+00  0.89724037260E+03  0.89724037260E+03  0.00000000000E+00 0.  1.
         21   -1    0    0  501  502 -0.00000000000E+00 -0.00000000000E+00 -0.60039606091E+02  0.60039606091E+02  0.00000000000E+00 0.  1.
         25    1    1    2    0    0  0.65481136315E+02 -0.25277222182E+02  0.15348458472E+03  0.21002198676E+03  0.12500000000E+03 0.  0.
         25    1    1    2    0    0 -0.34716487348E+02  0.30305943650E+02  0.16136267350E+03  0.20925247218E+03  0.12500000000E+03 0.  0.
         25    1    1    2    0    0 -0.30764648968E+02 -0.50287214675E+01  0.52235350828E+03  0.53800551975E+03  0.12500000000E+03 0.  0.
</event>
<event>
 5    0  0.5668330E-005  0.4041543E+03  0.7546771E-02  0.1042351E+00
         21   -1    0    0  502  501  0.00000000000E+00  0.00000000000E+00  0.36809135746E+03  0.36809135746E+03  0.00000000000E+00 0. -1.
         21   -1    0    0  501  502 -0.00000000000E+00 -0.00000000000E+00 -0.44375045404E+03  0.44375045404E+03  0.00000000000E+00 0. -1.
         25    1    1    2    0    0 -0.25175055540E+03 -0.16525868695E+03 -0.12228753309E+03  0.34823557616E+03  0.12500000000E+03 0.  0.
         25    1    1    2    0    0 -0.34531572222E+01  0.11747680845E+03 -0.74960239626E+00  0.17157589202E+03  0.12500000000E+03 0.  0.
         25    1    1    2    0    0  0.25520371262E+03  0.47781878494E+02  0.47378038899E+02  0.29203034332E+03  0.12500000000E+03 0.  0.
</event>
<event>
 5    0  0.5668330E-005  0.5715839E+03  0.7546771E-02  0.9966180E-01
         21   -1    0    0  502  501  0.00000000000E+00  0.00000000000E+00  0.23868724224E+04  0.23868724224E+04  0.00000000000E+00 0. -1.
         21   -1    0    0  501  502 -0.00000000000E+00 -0.00000000000E+00 -0.13687708057E+03  0.13687708057E+03  0.00000000000E+00 0. -1.
         25    1    1    2    0    0 -0.17397715177E+03  0.18148083745E+03  0.36483956763E+03  0.46036534818E+03  0.12500000000E+03 0.  0.
         25    1    1    2    0    0  0.33408118336E+02 -0.45588770689E+03  0.13746368305E+04  0.14540292704E+04  0.12500000000E+03 0.  0.
         25    1    1    2    0    0  0.14056903343E+03  0.27440686944E+03  0.51051894370E+03  0.60935488431E+03  0.12500000000E+03 0.  0.
</event>
<event>
 5    0  0.5668330E-005  0.3973829E+03  0.7546771E-02  0.1044690E+00
         21   -1    0    0  502  501  0.00000000000E+00  0.00000000000E+00  0.59339011412E+03  0.59339011412E+03  0.00000000000E+00 0.  1.
         21   -1    0    0  501  502 -0.00000000000E+00 -0.00000000000E+00 -0.26612032280E+03  0.26612032280E+03  0.00000000000E+00 0.  1.
         25    1    1    2    0    0 -0.10540147999E+03 -0.90092808774E+02  0.36454483798E+03  0.40956577625E+03  0.12500000000E+03 0.  0.
         25    1    1    2    0    0  0.46293785264E+02 -0.22773219884E+02 -0.17737258864E+03  0.22304207966E+03  0.12500000000E+03 0.  0.
         25    1    1    2    0    0  0.59107694723E+02  0.11286602866E+03  0.14009754198E+03  0.22690258101E+03  0.12500000000E+03 0.  0.
</event>
<event>
 5    0  0.5668330E-005  0.3348913E+03  0.7546771E-02  0.1068993E+00
         21   -1    0    0  502  501  0.00000000000E+00  0.00000000000E+00  0.53400275355E+03  0.53400275355E+03  0.00000000000E+00 0. -1.
         21   -1    0    0  501  502 -0.00000000000E+00 -0.00000000000E+00 -0.21002175858E+03  0.21002175858E+03  0.00000000000E+00 0. -1.
         25    1    1    2    0    0 -0.98439203250E+02  0.12755459105E+03  0.39446997086E+02  0.20770535865E+03  0.12500000000E+03 0.  0.
         25    1    1    2    0    0  0.40899399110E+02  0.98560390103E+02  0.19911209417E+03  0.25818121037E+03  0.12500000000E+03 0.  0.
         25    1    1    2    0    0  0.57539804140E+02 -0.22611498115E+03  0.85421903715E+02  0.27813794311E+03  0.12500000000E+03 0.  0.
</event>
<event>
 5    0  0.5668330E-005  0.3195791E+03  0.7546771E-02  0.1075843E+00
         21   -1    0    0  502  501  0.00000000000E+00  0.00000000000E+00  0.25123434334E+03  0.25123434334E+03  0.00000000000E+00 0.  1.
         21   -1    0    0  501  502 -0.00000000000E+00 -0.00000000000E+00 -0.40651611142E+03  0.40651611142E+03  0.00000000000E+00 0.  1.
         25    1    1    2    0    0 -0.40764384476E+02 -0.52613862729E+02 -0.26042387315E+03  0.29643810028E+03  0.12500000000E+03 0.  0.
         25    1    1    2    0    0  0.12773403107E+03  0.38304881184E+02  0.99843469047E+02  0.20827137328E+03  0.12500000000E+03 0.  0.
         25    1    1    2    0    0 -0.86969646594E+02  0.14308981545E+02  0.52986360236E+01  0.15304098120E+03  0.12500000000E+03 0.  0.
</event>
<event>
 5    0  0.5668330E-005  0.3431480E+03  0.7546771E-02  0.1065463E+00
         21   -1    0    0  502  501  0.00000000000E+00  0.00000000000E+00  0.24454779703E+04  0.24454779703E+04  0.00000000000E+00 0. -1.
         21   -1    0    0  501  502 -0.00000000000E+00 -0.00000000000E+00 -0.48150322235E+02  0.48150322235E+02  0.00000000000E+00 0. -1.
         25    1    1    2    0    0 -0.12917758772E+02  0.11945442624E+03  0.14011697455E+04  0.14118561839E+04  0.12500000000E+03 0.  0.
         25    1    1    2    0    0 -0.51815385774E+02  0.81872078563E+02  0.24635032561E+03  0.29274793659E+03  0.12500000000E+03 0.  0.
         25    1    1    2    0    0  0.64733144546E+02 -0.20132650480E+03  0.74980757699E+03  0.78902417203E+03  0.12500000000E+03 0.  0.
</event>
<event>
 5    0  0.5668330E-005  0.3237644E+03  0.7546771E-02  0.1073930E+00
         21   -1    0    0  502  501  0.00000000000E+00  0.00000000000E+00  0.19858532230E+03  0.19858532230E+03  0.00000000000E+00 0.  1.
         21   -1    0    0  501  502 -0.00000000000E+00 -0.00000000000E+00 -0.52785064870E+03  0.52785064870E+03  0.00000000000E+00 0.  1.
         25    1    1    2    0    0 -0.18820834217E+01  0.21446040429E+02 -0.10281866748E+03  0.16327937185E+03  0.12500000000E+03 0.  0.
         25    1    1    2    0    0 -0.18128514705E+03 -0.14073278436E+03 -0.87686114859E+02  0.27565172931E+03  0.12500000000E+03 0.  0.
         25    1    1    2    0    0  0.18316723047E+03  0.11928674393E+03 -0.13876054405E+03  0.28750486984E+03  0.12500000000E+03 0.  0.
</event>
<event>
 5    0  0.5668330E-005  0.7665593E+03  0.7546771E-02  0.9609724E-01
         21   -1    0    0  502  501  0.00000000000E+00  0.00000000000E+00  0.14415278049E+04  0.14415278049E+04  0.00000000000E+00 0. -1.
         21   -1    0    0  501  502 -0.00000000000E+00 -0.00000000000E+00 -0.40763221105E+03  0.40763221105E+03  0.00000000000E+00 0. -1.
         25    1    1    2    0    0 -0.15999372612E+03 -0.45026703634E+03  0.94252688155E+03  0.10641054078E+04  0.12500000000E+03 0.  0.
         25    1    1    2    0    0  0.26085943591E+03  0.45171531543E+03 -0.88782827712E+02  0.54369270916E+03  0.12500000000E+03 0.  0.
         25    1    1    2    0    0 -0.10086570979E+03 -0.14482790944E+01  0.18015153998E+03  0.24136189898E+03  0.12500000000E+03 0.  0.
</event>
<event>
 5    0  0.5668330E-005  0.2317474E+03  0.7546771E-02  0.1125416E+00
         21   -1    0    0  502  501  0.00000000000E+00  0.00000000000E+00  0.10443953148E+03  0.10443953148E+03  0.00000000000E+00 0.  1.
         21   -1    0    0  501  502 -0.00000000000E+00 -0.00000000000E+00 -0.51423892713E+03  0.51423892713E+03  0.00000000000E+00 0.  1.
         25    1    1    2    0    0 -0.30997459424E+02  0.18460333085E+02 -0.17336516058E+03  0.21675355889E+03  0.12500000000E+03 0.  0.
         25    1    1    2    0    0  0.95798113931E+02  0.21119607670E+02 -0.53391748449E+02  0.16762754924E+03  0.12500000000E+03 0.  0.
         25    1    1    2    0    0 -0.64800654507E+02 -0.39579940756E+02 -0.18304248662E+03  0.23429735048E+03  0.12500000000E+03 0.  0.
</event>
<event>
 5    0  0.5668330E-005  0.2963253E+03  0.7546771E-02  0.1087092E+00
         21   -1    0    0  502  501  0.00000000000E+00  0.00000000000E+00  0.26621856912E+03  0.26621856912E+03  0.00000000000E+00 0.  1.
         21   -1    0    0  501  502 -0.00000000000E+00 -0.00000000000E+00 -0.32983681827E+03  0.32983681827E+03  0.00000000000E+00 0.  1.
         25    1    1    2    0    0  0.77201469074E+02 -0.12407975539E+03  0.16721873901E+02  0.19302972204E+03  0.12500000000E+03 0.  0.
         25    1    1    2    0    0  0.45633633071E+02 -0.54580721503E+02 -0.42039676962E+02  0.14984598115E+03  0.12500000000E+03 0.  0.
         25    1    1    2    0    0 -0.12283510215E+03  0.17866047689E+03 -0.38300446085E+02  0.25317968420E+03  0.12500000000E+03 0.  0.
</event>
<event>
 5    0  0.5668330E-005  0.2557045E+03  0.7546771E-02  0.1109752E+00
         21   -1    0    0  502  501  0.00000000000E+00  0.00000000000E+00  0.77396825430E+02  0.77396825430E+02  0.00000000000E+00 0. -1.
         21   -1    0    0  501  502 -0.00000000000E+00 -0.00000000000E+00 -0.84479966112E+03  0.84479966112E+03  0.00000000000E+00 0. -1.
         25    1    1    2    0    0 -0.46594099121E+02 -0.87262787860E+02 -0.19495631639E+03  0.25183083512E+03  0.12500000000E+03 0.  0.
         25    1    1    2    0    0  0.67022758666E+01 -0.68130764519E+02 -0.19388771149E+03  0.24063284531E+03  0.12500000000E+03 0.  0.
         25    1    1    2    0    0  0.39891823254E+02  0.15539355238E+03 -0.37855880781E+03  0.42973280612E+03  0.12500000000E+03 0.  0.
</event>
<event>
 5    0  0.5668330E-005  0.2907808E+03  0.7546771E-02  0.1089942E+00
         21   -1    0    0  502  501  0.00000000000E+00  0.00000000000E+00  0.10411284563E+03  0.10411284563E+03  0.00000000000E+00 0. -1.
         21   -1    0    0  501  502 -0.00000000000E+00 -0.00000000000E+00 -0.81213276815E+03  0.81213276815E+03  0.00000000000E+00 0. -1.
         25    1    1    2    0    0 -0.17969247129E+02 -0.21653793403E+02  0.21601650845E+02  0.12993618407E+03  0.12500000000E+03 0.  0.
         25    1    1    2    0    0 -0.62995423103E+02  0.24146889616E+02 -0.40380695429E+03  0.42806138805E+03  0.12500000000E+03 0.  0.
         25    1    1    2    0    0  0.80964670232E+02 -0.24930962126E+01 -0.32581461907E+03  0.35824804166E+03  0.12500000000E+03 0.  0.
</event>
<event>
 5    0  0.5668330E-005  0.2712608E+03  0.7546771E-02  0.1100560E+00
         21   -1    0    0  502  501  0.00000000000E+00  0.00000000000E+00  0.14716883768E+04  0.14716883768E+04  0.00000000000E+00 0.  1.
         21   -1    0    0  501  502 -0.00000000000E+00 -0.00000000000E+00 -0.49998638338E+02  0.49998638338E+02  0.00000000000E+00 0.  1.
         25    1    1    2    0    0 -0.15290042222E+01 -0.11188641007E+03  0.70502728237E+03  0.72471330573E+03  0.12500000000E+03 0.  0.
         25    1    1    2    0    0 -0.73258851366E+01  0.16571033414E+03  0.36767576603E+03  0.42228432644E+03  0.12500000000E+03 0.  0.
         25    1    1    2    0    0  0.88548893588E+01 -0.53823924071E+02  0.34898669005E+03  0.37468938296E+03  0.12500000000E+03 0.  0.
</event>
<event>
 5    0  0.5668330E-005  0.3198186E+03  0.7546771E-02  0.1075733E+00
         21   -1    0    0  502  501  0.00000000000E+00  0.00000000000E+00  0.53571565324E+03  0.53571565324E+03  0.00000000000E+00 0.  1.
         21   -1    0    0  501  502 -0.00000000000E+00 -0.00000000000E+00 -0.19092954700E+03  0.19092954700E+03  0.00000000000E+00 0.  1.
         25    1    1    2    0    0  0.56435383964E+02 -0.74102493203E+01 -0.87876122388E+02  0.16305544224E+03  0.12500000000E+03 0.  0.
         25    1    1    2    0    0  0.57093867136E+02  0.65482607832E+02  0.89077641765E+02  0.17637320617E+03  0.12500000000E+03 0.  0.
         25    1    1    2    0    0 -0.11352925110E+03 -0.58072358512E+02  0.34358458687E+03  0.38721655183E+03  0.12500000000E+03 0.  0.
</event>
<event>
 5    0  0.5668330E-005  0.2269333E+03  0.7546771E-02  0.1128817E+00
         21   -1    0    0  502  501  0.00000000000E+00  0.00000000000E+00  0.78341201737E+02  0.78341201737E+02  0.00000000000E+00 0.  1.
         21   -1    0    0  501  502 -0.00000000000E+00 -0.00000000000E+00 -0.65736432843E+03  0.65736432843E+03  0.00000000000E+00 0.  1.
         25    1    1    2    0    0 -0.81279031680E+02 -0.50156828041E+02 -0.15807063249E+03  0.22300967074E+03  0.12500000000E+03 0.  0.
         25    1    1    2    0    0  0.38117230243E+02  0.16181691999E+02 -0.30984050696E+03  0.33666141767E+03  0.12500000000E+03 0.  0.
         25    1    1    2    0    0  0.43161801437E+02  0.33975136042E+02 -0.11111198725E+03  0.17603444175E+03  0.12500000000E+03 0.  0.
</event>
<event>
 5    0  0.5668330E-005  0.2476176E+03  0.7546771E-02  0.1114820E+00
         21   -1    0    0  502  501  0.00000000000E+00  0.00000000000E+00  0.38883786720E+02  0.38883786720E+02  0.00000000000E+00 0. -1.
         21   -1    0    0  501  502 -0.00000000000E+00 -0.00000000000E+00 -0.15768653784E+04  0.15768653784E+04  0.00000000000E+00 0. -1.
         25    1    1    2    0    0 -0.96638377152E+02  0.42140529268E+02 -0.60583694148E+03  0.62751748964E+03  0.12500000000E+03 0.  0.
         25    1    1    2    0    0  0.54677237942E+02 -0.11183694543E+03 -0.44224706187E+03  0.47613502964E+03  0.12500000000E+03 0.  0.
         25    1    1    2    0    0  0.41961139210E+02  0.69696416166E+02 -0.48989758831E+03  0.51209664582E+03  0.12500000000E+03 0.  0.
</event>
<event>
 5    0  0.5668330E-005  0.2446986E+03  0.7546771E-02  0.1116702E+00
         21   -1    0    0  502  501  0.00000000000E+00  0.00000000000E+00  0.33812257236E+03  0.33812257236E+03  0.00000000000E+00 0. -1.
         21   -1    0    0  501  502 -0.00000000000E+00 -0.00000000000E+00 -0.17708791899E+03  0.17708791899E+03  0.00000000000E+00 0. -1.
         25    1    1    2    0    0  0.65518063517E+02 -0.45915086987E+02  0.10917634179E+03  0.18424246380E+03  0.12500000000E+03 0.  0.
         25    1    1    2    0    0  0.62464309788E+02  0.26256314429E+02  0.50811705823E+02  0.15099011058E+03  0.12500000000E+03 0.  0.
         25    1    1    2    0    0 -0.12798237331E+03  0.19658772558E+02  0.10466057608E+01  0.17997791698E+03  0.12500000000E+03 0.  0.
</event>
<event>
 5    0  0.5668330E-005  0.2170890E+03  0.7546771E-02  0.1136072E+00
         21   -1    0    0  502  501  0.00000000000E+00  0.00000000000E+00  0.15533054375E+03  0.15533054375E+03  0.00000000000E+00 0.  1.
         21   -1    0    0  501  502 -0.00000000000E+00 -0.00000000000E+00 -0.30340211381E+03  0.30340211381E+03  0.00000000000E+00 0.  1.
         25    1    1    2    0    0  0.35883781867E+02  0.77663612863E+02 -0.28959548562E+02  0.15421717809E+03  0.12500000000E+03 0.  0.
         25    1    1    2    0    0 -0.38764225135E+02  0.19501774326E+01 -0.69565867867E+02  0.14822576805E+03  0.12500000000E+03 0.  0.
         25    1    1    2    0    0  0.28804432683E+01 -0.79613790295E+02 -0.49546153633E+02  0.15628971143E+03  0.12500000000E+03 0.  0.
</event>
<event>
 5    0  0.5739150E-005  0.4553680E+03  0.7546771E-02  0.1026133E+00
         21   -1    0    0  502  501  0.00000000000E+00  0.00000000000E+00  0.54165074549E+03  0.54165074549E+03  0.00000000000E+00 0. -1.
         21   -1    0    0  501  502 -0.00000000000E+00 -0.00000000000E+00 -0.38282966701E+03  0.38282966701E+03  0.00000000000E+00 0. -1.
         25    1    1    2    0    0 -0.30420876443E+03  0.45545147297E+02  0.11109494182E+03  0.35012057765E+03  0.12500000000E+03 0.  0.
         25    1    1    2    0    0  0.26370202352E+03  0.93057650936E+02 -0.11123062322E+03  0.32587687115E+03  0.12500000000E+03 0.  0.
         25    1    1    2    0    0  0.40506740908E+02 -0.13860279823E+03  0.15895675988E+03  0.24848296370E+03  0.12500000000E+03 0.  0.
</event>
<event>
 5    0  0.5668330E-005  0.2470021E+03  0.7546771E-02  0.1115214E+00
         21   -1    0    0  502  501  0.00000000000E+00  0.00000000000E+00  0.14639792558E+03  0.14639792558E+03  0.00000000000E+00 0. -1.
         21   -1    0    0  501  502 -0.00000000000E+00 -0.00000000000E+00 -0.41674098304E+03  0.41674098304E+03  0.00000000000E+00 0. -1.
         25    1    1    2    0    0 -0.71584864007E+02  0.38697442666E-01 -0.20638192076E+03  0.25168013721E+03  0.12500000000E+03 0.  0.
         25    1    1    2    0    0 -0.12514188602E+02  0.53364630232E+02 -0.65986882499E+02  0.15160361915E+03  0.12500000000E+03 0.  0.
         25    1    1    2    0    0  0.84099052609E+02 -0.53403327675E+02  0.20257457998E+01  0.15985515226E+03  0.12500000000E+03 0.  0.
</event>
<event>
 5    0  0.6301460E-005  0.3605059E+03  0.7546771E-02  0.1058384E+00
         21   -1    0    0  502  501  0.00000000000E+00  0.00000000000E+00  0.22266054710E+03  0.22266054710E+03  0.00000000000E+00 0. -1.
         21   -1    0    0  501  502 -0.00000000000E+00 -0.00000000000E+00 -0.58368882888E+03  0.58368882888E+03  0.00000000000E+00 0. -1.
         25    1    1    2    0    0 -0.55306499388E+02 -0.45716627200E+02  0.80577653643E+02  0.16512594328E+03  0.12500000000E+03 0.  0.
         25    1    1    2    0    0  0.10269766650E+03  0.18324345758E+03 -0.13409270384E+03  0.27880249043E+03  0.12500000000E+03 0.  0.
         25    1    1    2    0    0 -0.47391167112E+02 -0.13752683038E+03 -0.30751323159E+03  0.36242094227E+03  0.12500000000E+03 0.  0.
</event>
<event>
 5    0  0.5668330E-005  0.2912901E+03  0.7546771E-02  0.1089677E+00
         21   -1    0    0  502  501  0.00000000000E+00  0.00000000000E+00  0.30097973209E+03  0.30097973209E+03  0.00000000000E+00 0. -1.
         21   -1    0    0  501  502 -0.00000000000E+00 -0.00000000000E+00 -0.28191248365E+03  0.28191248365E+03  0.00000000000E+00 0. -1.
         25    1    1    2    0    0 -0.14900523706E+03 -0.15181484606E+03  0.76653996488E+01  0.24684826616E+03  0.12500000000E+03 0.  0.
         25    1    1    2    0    0  0.98178548440E+02  0.70600355279E+02  0.33163173759E+02  0.17705432396E+03  0.12500000000E+03 0.  0.
         25    1    1    2    0    0  0.50826688616E+02  0.81214490782E+02 -0.21761324966E+02  0.15898962561E+03  0.12500000000E+03 0.  0.
</event>
<event>
 5    0  0.5668330E-005  0.3188276E+03  0.7546771E-02  0.1076190E+00
         21   -1    0    0  502  501  0.00000000000E+00  0.00000000000E+00  0.34796556324E+03  0.34796556324E+03  0.00000000000E+00 0. -1.
         21   -1    0    0  501  502 -0.00000000000E+00 -0.00000000000E+00 -0.29212959785E+03  0.29212959785E+03  0.00000000000E+00 0. -1.
         25    1    1    2    0    0 -0.86470862465E+02  0.40850336559E+02  0.14099044183E+03  0.21130372628E+03  0.12500000000E+03 0.  0.
         25    1    1    2    0    0  0.48777975125E+02 -0.17755911944E+03 -0.89057653234E+02  0.23971399073E+03  0.12500000000E+03 0.  0.
         25    1    1    2    0    0  0.37692887339E+02  0.13670878288E+03  0.39031767916E+01  0.18907744408E+03  0.12500000000E+03 0.  0.
</event>
<event>
 5    0  0.5668330E-005  0.4742506E+03  0.7546771E-02  0.1020727E+00
         21   -1    0    0  502  501  0.00000000000E+00  0.00000000000E+00  0.10258337620E+03  0.10258337620E+03  0.00000000000E+00 0.  1.
         21   -1    0    0  501  502 -0.00000000000E+00 -0.00000000000E+00 -0.21924954658E+04  0.21924954658E+04  0.00000000000E+00 0.  1.
         25    1    1    2    0    0  0.12352924678E+03  0.12530638040E+03 -0.60379957999E+03  0.64121766708E+03  0.12500000000E+03 0.  0.
         25    1    1    2    0    0  0.13377204295E+03  0.48781098939E+02 -0.11956623803E+04  0.12105817125E+04  0.12500000000E+03 0.  0.
         25    1    1    2    0    0 -0.25730128972E+03 -0.17408747934E+03 -0.29045012933E+03  0.44327946240E+03  0.12500000000E+03 0.  0.
</event>
<event>
 5    0  0.5668330E-005  0.3233011E+03  0.7546771E-02  0.1074140E+00
         21   -1    0    0  502  501  0.00000000000E+00  0.00000000000E+00  0.24112513998E+04  0.24112513998E+04  0.00000000000E+00 0. -1.
         21   -1    0    0  501  502 -0.00000000000E+00 -0.00000000000E+00 -0.43348270404E+02  0.43348270404E+02  0.00000000000E+00 0. -1.
         25    1    1    2    0    0 -0.17278989736E+03 -0.71194428744E+01  0.13068120071E+04  0.13241184452E+04  0.12500000000E+03 0.  0.
         25    1    1    2    0    0  0.56265833292E+02  0.11623032453E+03  0.38974637290E+03  0.42918826583E+03  0.12500000000E+03 0.  0.
         25    1    1    2    0    0  0.11652406407E+03 -0.10911088166E+03  0.67134474938E+03  0.70129295913E+03  0.12500000000E+03 0.  0.
</event>
<event>
 5    0  0.5668330E-005  0.2344374E+03  0.7546771E-02  0.1123555E+00
         21   -1    0    0  502  501  0.00000000000E+00  0.00000000000E+00  0.10147165839E+03  0.10147165839E+03  0.00000000000E+00 0.  1.
         21   -1    0    0  501  502 -0.00000000000E+00 -0.00000000000E+00 -0.54163775441E+03  0.54163775441E+03  0.00000000000E+00 0.  1.
         25    1    1    2    0    0 -0.56107648905E+02  0.51418496733E+02 -0.37894148298E+02  0.15117174520E+03  0.12500000000E+03 0.  0.
         25    1    1    2    0    0  0.72094647114E+01 -0.73889927628E+02 -0.18092542390E+03  0.23210063938E+03  0.12500000000E+03 0.  0.
         25    1    1    2    0    0  0.48898184194E+02  0.22471430895E+02 -0.22134652382E+03  0.25983702821E+03  0.12500000000E+03 0.  0.
</event>
<event>
 5    0  0.6216401E-005  0.3569260E+03  0.7546771E-02  0.1059808E+00
         21   -1    0    0  502  501  0.00000000000E+00  0.00000000000E+00  0.20711544601E+03  0.20711544601E+03  0.00000000000E+00 0.  1.
         21   -1    0    0  501  502 -0.00000000000E+00 -0.00000000000E+00 -0.61509740846E+03  0.61509740846E+03  0.00000000000E+00 0.  1.
         25    1    1    2    0    0  0.10210780784E+03  0.18390162060E+03 -0.78757644204E+02  0.25704781073E+03  0.12500000000E+03 0.  0.
         25    1    1    2    0    0 -0.96410463404E+02 -0.14802740759E+03 -0.37010105550E+03  0.42872704852E+03  0.12500000000E+03 0.  0.
         25    1    1    2    0    0 -0.56973444350E+01 -0.35874213005E+02  0.40876737256E+02  0.13643799523E+03  0.12500000000E+03 0.  0.
</event>
<event>
 5    0  0.5668330E-005  0.2385260E+03  0.7546771E-02  0.1120779E+00
         21   -1    0    0  502  501  0.00000000000E+00  0.00000000000E+00  0.24570961128E+03  0.24570961128E+03  0.00000000000E+00 0. -1.
         21   -1    0    0  501  502 -0.00000000000E+00 -0.00000000000E+00 -0.23155243956E+03  0.23155243956E+03  0.00000000000E+00 0. -1.
         25    1    1    2    0    0 -0.62504821178E+01 -0.85779862640E+02  0.46014686020E+02  0.15855473721E+03  0.12500000000E+03 0.  0.
         25    1    1    2    0    0  0.85611033459E+02  0.35144494015E+02 -0.44341488003E+02  0.16172678216E+03  0.12500000000E+03 0.  0.
         25    1    1    2    0    0 -0.79360551341E+02  0.50635368624E+02  0.12483973703E+02  0.15698053148E+03  0.12500000000E+03 0.  0.
</event>
<event>
 5    0  0.8416949E-005  0.2688352E+03  0.7546771E-02  0.1101948E+00
         21   -1    0    0  502  501  0.00000000000E+00  0.00000000000E+00  0.42722700163E+03  0.42722700163E+03  0.00000000000E+00 0. -1.
         21   -1    0    0  501  502 -0.00000000000E+00 -0.00000000000E+00 -0.16916616426E+03  0.16916616426E+03  0.00000000000E+00 0. -1.
         25    1    1    2    0    0 -0.91633946602E+02 -0.80755288734E+02  0.82043248242E+02  0.19306551067E+03  0.12500000000E+03 0.  0.
         25    1    1    2    0    0  0.69570552316E+02  0.14879898135E+03  0.15423101574E+03  0.25766917708E+03  0.12500000000E+03 0.  0.
         25    1    1    2    0    0  0.22063394287E+02 -0.68043692619E+02  0.21786573390E+02  0.14565847814E+03  0.12500000000E+03 0.  0.
</event>
<event>
 5    0  0.5668330E-005  0.3299143E+03  0.7546771E-02  0.1071175E+00
         21   -1    0    0  502  501  0.00000000000E+00  0.00000000000E+00  0.62984004983E+03  0.62984004983E+03  0.00000000000E+00 0. -1.
         21   -1    0    0  501  502 -0.00000000000E+00 -0.00000000000E+00 -0.17281122909E+03  0.17281122909E+03  0.00000000000E+00 0. -1.
         25    1    1    2    0    0  0.12548752525E+03  0.24899375024E+02  0.69107959050E+02  0.19174985756E+03  0.12500000000E+03 0.  0.
         25    1    1    2    0    0 -0.21974830196E+03  0.97107239070E+02  0.25531891130E+03  0.37219870844E+03  0.12500000000E+03 0.  0.
         25    1    1    2    0    0  0.94260776708E+02 -0.12200661409E+03  0.13260195040E+03  0.23870271292E+03  0.12500000000E+03 0.  0.
</event>
<event>
 5    0  0.5668330E-005  0.3679360E+03  0.7546771E-02  0.1055485E+00
         21   -1    0    0  502  501  0.00000000000E+00  0.00000000000E+00  0.88229318840E+03  0.88229318840E+03  0.00000000000E+00 0. -1.
         21   -1    0    0  501  502 -0.00000000000E+00 -0.00000000000E+00 -0.15343751786E+03  0.15343751786E+03  0.00000000000E+00 0. -1.
         25    1    1    2    0    0 -0.67703799239E+02  0.79987077748E+02  0.34333535368E+03  0.38011301231E+03  0.12500000000E+03 0.  0.
         25    1    1    2    0    0  0.95391881209E+02  0.18089743069E+03  0.17408248768E+03  0.29623167276E+03  0.12500000000E+03 0.  0.
         25    1    1    2    0    0 -0.27688081970E+02 -0.26088450844E+03  0.21143782917E+03  0.35938602119E+03  0.12500000000E+03 0.  0.
</event>
<event>
 5    0  0.5668330E-005  0.3269318E+03  0.7546771E-02  0.1072503E+00
         21   -1    0    0  502  501  0.00000000000E+00  0.00000000000E+00  0.15804626803E+03  0.15804626803E+03  0.00000000000E+00 0. -1.
         21   -1    0    0  501  502 -0.00000000000E+00 -0.00000000000E+00 -0.67628538685E+03  0.67628538685E+03  0.00000000000E+00 0. -1.
         25    1    1    2    0    0  0.37697806934E+02  0.51043311351E+02 -0.17582548964E+03  0.22486917772E+03  0.12500000000E+03 0.  0.
         25    1    1    2    0    0  0.97676384178E+01  0.16592597878E+03 -0.27692579826E+03  0.34632316546E+03  0.12500000000E+03 0.  0.
         25    1    1    2    0    0 -0.47465445352E+02 -0.21696929013E+03 -0.65487830917E+02  0.26313931169E+03  0.12500000000E+03 0.  0.
</event>
<event>
 5    0  0.5668330E-005  0.3115778E+03  0.7546771E-02  0.1079592E+00
         21   -1    0    0  502  501  0.00000000000E+00  0.00000000000E+00  0.88925373018E+02  0.88925373018E+02  0.00000000000E+00 0.  1.
         21   -1    0    0  501  502 -0.00000000000E+00 -0.00000000000E+00 -0.10917102992E+04  0.10917102992E+04  0.00000000000E+00 0.  1.
         25    1    1    2    0    0 -0.89110766704E+02 -0.15671158923E+03 -0.61110386690E+03  0.64928590550E+03  0.12500000000E+03 0.  0.
         25    1    1    2    0    0 -0.31066152457E+02  0.12483487191E+03 -0.16115092296E+03  0.24112957314E+03  0.12500000000E+03 0.  0.
         25    1    1    2    0    0  0.12017691916E+03  0.31876717323E+02 -0.23053013634E+03  0.29022019359E+03  0.12500000000E+03 0.  0.
</event>
<event>
 5    0  0.5668330E-005  0.2305360E+03  0.7546771E-02  0.1126263E+00
         21   -1    0    0  502  501  0.00000000000E+00  0.00000000000E+00  0.13222433877E+03  0.13222433877E+03  0.00000000000E+00 0. -1.
         21   -1    0    0  501  502 -0.00000000000E+00 -0.00000000000E+00 -0.40194437139E+03  0.40194437139E+03  0.00000000000E+00 0. -1.
         25    1    1    2    0    0  0.17404457523E+02 -0.60002060437E+02 -0.49254468093E+02  0.14816937951E+03  0.12500000000E+03 0.  0.
         25    1    1    2    0    0  0.62550882752E+02 -0.30149307428E+02 -0.10689136098E+03  0.17852830791E+03  0.12500000000E+03 0.  0.
         25    1    1    2    0    0 -0.79955340275E+02  0.90151367865E+02 -0.11357420354E+03  0.20747102274E+03  0.12500000000E+03 0.  0.
</event>
<event>
 5    0  0.5668330E-005  0.2882975E+03  0.7546771E-02  0.1091241E+00
         21   -1    0    0  502  501  0.00000000000E+00  0.00000000000E+00  0.35167236516E+03  0.35167236516E+03  0.00000000000E+00 0. -1.
         21   -1    0    0  501  502 -0.00000000000E+00 -0.00000000000E+00 -0.23634338900E+03  0.23634338900E+03  0.00000000000E+00 0. -1.
         25    1    1    2    0    0  0.10404308262E+03 -0.69382609374E+02  0.39538153938E+02  0.18118271204E+03  0.12500000000E+03 0.  0.
         25    1    1    2    0    0 -0.30742569895E+02  0.16026411625E+03  0.10887896325E+03  0.23261410361E+03  0.12500000000E+03 0.  0.
         25    1    1    2    0    0 -0.73300512727E+02 -0.90881506874E+02 -0.33088141024E+02  0.17421893851E+03  0.12500000000E+03 0.  0.
</event>
<event>
 5    0  0.5668330E-005  0.2346959E+03  0.7546771E-02  0.1123378E+00
         21   -1    0    0  502  501  0.00000000000E+00  0.00000000000E+00  0.12061595622E+03  0.12061595622E+03  0.00000000000E+00 0.  1.
         21   -1    0    0  501  502 -0.00000000000E+00 -0.00000000000E+00 -0.45667401063E+03  0.45667401063E+03  0.00000000000E+00 0.  1.
         25    1    1    2    0    0 -0.26482810946E+02 -0.53747359898E+02 -0.80699272040E+02  0.16039791295E+03  0.12500000000E+03 0.  0.
         25    1    1    2    0    0 -0.75780721932E+02 -0.27496052464E+02 -0.11645756564E+03  0.18890768993E+03  0.12500000000E+03 0.  0.
         25    1    1    2    0    0  0.10226353288E+03  0.81243412361E+02 -0.13890121672E+03  0.22798436397E+03  0.12500000000E+03 0.  0.
</event>
<event>
 5    0  0.5668330E-005  0.2499372E+03  0.7546771E-02  0.1113344E+00
         21   -1    0    0  502  501  0.00000000000E+00  0.00000000000E+00  0.11072165298E+04  0.11072165298E+04  0.00000000000E+00 0.  1.
         21   -1    0    0  501  502 -0.00000000000E+00 -0.00000000000E+00 -0.56419514622E+02  0.56419514622E+02  0.00000000000E+00 0.  1.
         25    1    1    2    0    0 -0.22239425377E+02 -0.41331022178E+02  0.60298185504E+03  0.61758802040E+03  0.12500000000E+03 0.  0.
         25    1    1    2    0    0  0.68357942052E+02  0.21672506364E+02  0.35316727694E+03  0.38143758503E+03  0.12500000000E+03 0.  0.
         25    1    1    2    0    0 -0.46118516675E+02  0.19658515813E+02  0.94647883155E+02  0.16461043895E+03  0.12500000000E+03 0.  0.
</event>
<event>
 5    0  0.5668330E-005  0.3846974E+03  0.7546771E-02  0.1049211E+00
         21   -1    0    0  502  501  0.00000000000E+00  0.00000000000E+00  0.45391551875E+03  0.45391551875E+03  0.00000000000E+00 0.  1.
         21   -1    0    0  501  502 -0.00000000000E+00 -0.00000000000E+00 -0.32603440749E+03  0.32603440749E+03  0.00000000000E+00 0.  1.
         25    1    1    2    0    0  0.76783905684E+01 -0.56041724927E+02 -0.14155243890E+03  0.19713377583E+03  0.12500000000E+03 0.  0.
         25    1    1    2    0    0 -0.14121628315E+03 -0.15003542924E+03  0.11649694642E+03  0.26767369534E+03  0.12500000000E+03 0.  0.
         25    1    1    2    0    0  0.13353789259E+03  0.20607715416E+03  0.15293660374E+03  0.31514245507E+03  0.12500000000E+03 0.  0.
</event>
<event>
 5    0  0.5668330E-005  0.3822298E+03  0.7546771E-02  0.1050113E+00
         21   -1    0    0  502  501  0.00000000000E+00  0.00000000000E+00  0.12551317967E+03  0.12551317967E+03  0.00000000000E+00 0. -1.
         21   -1    0    0  501  502 -0.00000000000E+00 -0.00000000000E+00 -0.11640181612E+04  0.11640181612E+04  0.00000000000E+00 0. -1.
         25    1    1    2    0    0 -0.48241141499E+02 -0.79065240711E+02 -0.16780129045E+03  0.22882480875E+03  0.12500000000E+03 0.  0.
         25    1    1    2    0    0 -0.31896037601E+02  0.15169172381E+03 -0.26986106341E+02  0.20095020832E+03  0.12500000000E+03 0.  0.
         25    1    1    2    0    0  0.80137179100E+02 -0.72626483104E+02 -0.84371758473E+03  0.85975632380E+03  0.12500000000E+03 0.  0.
</event>
<event>
 5    0  0.5668330E-005  0.3280304E+03  0.7546771E-02  0.1072012E+00
         21   -1    0    0  502  501  0.00000000000E+00  0.00000000000E+00  0.24341789232E+03  0.24341789232E+03  0.00000000000E+00 0.  1.
         21   -1    0    0  501  502 -0.00000000000E+00 -0.00000000000E+00 -0.44205424270E+03  0.44205424270E+03  0.00000000000E+00 0.  1.
         25    1    1    2    0    0 -0.84297322429E+02  0.14610420621E+02 -0.12147431941E+03  0.19416620004E+03  0.12500000000E+03 0.  0.
         25    1    1    2    0    0 -0.11989977417E+02 -0.19255386227E+03 -0.10334838104E+03  0.25204491127E+03  0.12500000000E+03 0.  0.
         25    1    1    2    0    0  0.96287299846E+02  0.17794344165E+03  0.26186350076E+02  0.23926102372E+03  0.12500000000E+03 0.  0.
</event>
<event>
 5    0  0.5668330E-005  0.2747181E+03  0.7546771E-02  0.1098609E+00
         21   -1    0    0  502  501  0.00000000000E+00  0.00000000000E+00  0.57230291869E+02  0.57230291869E+02  0.00000000000E+00 0. -1.
         21   -1    0    0  501  502 -0.00000000000E+00 -0.00000000000E+00 -0.13187082265E+04  0.13187082265E+04  0.00000000000E+00 0. -1.
         25    1    1    2    0    0 -0.19985256365E+02 -0.11710659769E+03 -0.38990384190E+03  0.42633715722E+03  0.12500000000E+03 0.  0.
         25    1    1    2    0    0 -0.87921263883E+02 -0.29100548727E+02 -0.32968530738E+03  0.36454683167E+03  0.12500000000E+03 0.  0.
         25    1    1    2    0    0  0.10790652025E+03  0.14620714642E+03 -0.54188878532E+03  0.58505452946E+03  0.12500000000E+03 0.  0.
</event>
<event>
 5    0  0.5668330E-005  0.3468851E+03  0.7546771E-02  0.1063901E+00
         21   -1    0    0  502  501  0.00000000000E+00  0.00000000000E+00  0.25867595033E+03  0.25867595033E+03  0.00000000000E+00 0. -1.
         21   -1    0    0  501  502 -0.00000000000E+00 -0.00000000000E+00 -0.46517366957E+03  0.46517366957E+03  0.00000000000E+00 0. -1.
         25    1    1    2    0    0  0.35877316302E+02  0.10835614056E+03  0.64075018358E+02  0.18099404134E+03  0.12500000000E+03 0.  0.
         25    1    1    2    0    0 -0.93607999760E+02  0.12468735064E+03 -0.10927230119E+03  0.22776046372E+03  0.12500000000E+03 0.  0.
         25    1    1    2    0    0  0.57730683458E+02 -0.23304349120E+03 -0.16130043641E+03  0.31509511483E+03  0.12500000000E+03 0.  0.
</event>
<event>
 5    0  0.5668330E-005  0.3158572E+03  0.7546771E-02  0.1077572E+00
         21   -1    0    0  502  501  0.00000000000E+00  0.00000000000E+00  0.20293326201E+04  0.20293326201E+04  0.00000000000E+00 0. -1.
         21   -1    0    0  501  502 -0.00000000000E+00 -0.00000000000E+00 -0.49161854675E+02  0.49161854675E+02  0.00000000000E+00 0. -1.
         25    1    1    2    0    0 -0.28028459517E+02  0.80438269059E+02  0.11194116802E+04  0.11295855078E+04  0.12500000000E+03 0.  0.
         25    1    1    2    0    0  0.64278781184E+02  0.93358522688E+02  0.25843278118E+03  0.30864231378E+03  0.12500000000E+03 0.  0.
         25    1    1    2    0    0 -0.36250321667E+02 -0.17379679175E+03  0.60232630408E+03  0.64026665322E+03  0.12500000000E+03 0.  0.
</event>
<event>
 5    0  0.5668330E-005  0.2933324E+03  0.7546771E-02  0.1088622E+00
         21   -1    0    0  502  501  0.00000000000E+00  0.00000000000E+00  0.75099474168E+03  0.75099474168E+03  0.00000000000E+00 0.  1.
         21   -1    0    0  501  502 -0.00000000000E+00 -0.00000000000E+00 -0.11457320058E+03  0.11457320058E+03  0.00000000000E+00 0.  1.
         25    1    1    2    0    0 -0.12462958575E+03  0.39598317393E+02  0.98740869577E+02  0.20609541409E+03  0.12500000000E+03 0.  0.
         25    1    1    2    0    0  0.12942178119E+03  0.85232788209E+02  0.22611089827E+03  0.30127356995E+03  0.12500000000E+03 0.  0.
         25    1    1    2    0    0 -0.47921954379E+01 -0.12483110560E+03  0.31156977326E+03  0.35819895822E+03  0.12500000000E+03 0.  0.
</event>
<event>
 5    0  0.5668330E-005  0.3913603E+03  0.7546771E-02  0.1046813E+00
         21   -1    0    0  502  501  0.00000000000E+00  0.00000000000E+00  0.12953926808E+03  0.12953926808E+03  0.00000000000E+00 0.  1.
         21   -1    0    0  501  502 -0.00000000000E+00 -0.00000000000E+00 -0.11823666660E+04  0.11823666660E+04  0.00000000000E+00 0.  1.
         25    1    1    2    0    0 -0.76708386613E+02 -0.11931331128E+03 -0.92553650983E+03  0.94464949788E+03  0.12500000000E+03 0.  0.
         25    1    1    2    0    0 -0.20811401162E+02 -0.23934176950E+02 -0.29608139228E+02  0.13231629209E+03  0.12500000000E+03 0.  0.
         25    1    1    2    0    0  0.97519787775E+02  0.14324748824E+03 -0.97682748881E+02  0.23494014413E+03  0.12500000000E+03 0.  0.
</event>
<event>
 5    0  0.5668330E-005  0.2252290E+03  0.7546771E-02  0.1130044E+00
         21   -1    0    0  502  501  0.00000000000E+00  0.00000000000E+00  0.25665613190E+03  0.25665613190E+03  0.00000000000E+00 0. -1.
         21   -1    0    0  501  502 -0.00000000000E+00 -0.00000000000E+00 -0.19765011311E+03  0.19765011311E+03  0.00000000000E+00 0. -1.
         25    1    1    2    0    0 -0.15235738702E+02 -0.44439548383E+00 -0.80088405298E+02  0.14923631557E+03  0.12500000000E+03 0.  0.
         25    1    1    2    0    0  0.12143867239E+02  0.26894517007E+01  0.11074878001E+02  0.12610455814E+03  0.12500000000E+03 0.  0.
         25    1    1    2    0    0  0.30918714626E+01 -0.22450562169E+01  0.12801954609E+03  0.17896537131E+03  0.12500000000E+03 0.  0.
</event>
<event>
 5    0  0.5668330E-005  0.2244137E+03  0.7546771E-02  0.1130635E+00
         21   -1    0    0  502  501  0.00000000000E+00  0.00000000000E+00  0.45042053055E+02  0.45042053055E+02  0.00000000000E+00 0. -1.
         21   -1    0    0  501  502 -0.00000000000E+00 -0.00000000000E+00 -0.11180992719E+04  0.11180992719E+04  0.00000000000E+00 0. -1.
         25    1    1    2    0    0  0.43876026511E+02 -0.20398274538E+02 -0.42724417665E+03  0.44777648642E+03  0.12500000000E+03 0.  0.
         25    1    1    2    0    0  0.17307802798E+02 -0.19193038216E+02 -0.14086251498E+03  0.19009255872E+03  0.12500000000E+03 0.  0.
         25    1    1    2    0    0 -0.61183829308E+02  0.39591312754E+02 -0.50495052724E+03  0.52527227985E+03  0.12500000000E+03 0.  0.
</event>
<event>
 5    0  0.5668330E-005  0.3119511E+03  0.7546771E-02  0.1079414E+00
         21   -1    0    0  502  501  0.00000000000E+00  0.00000000000E+00  0.18225581830E+04  0.18225581830E+04  0.00000000000E+00 0.  1.
         21   -1    0    0  501  502 -0.00000000000E+00 -0.00000000000E+00 -0.53393913905E+02  0.53393913905E+02  0.00000000000E+00 0.  1.
         25    1    1    2    0    0 -0.41091808569E+02  0.12557520042E+03  0.23041759510E+03  0.29355567756E+03  0.12500000000E+03 0.  0.
         25    1    1    2    0    0  0.48620014221E+02  0.56608009240E+02  0.52392749906E+03  0.54377697337E+03  0.12500000000E+03 0.  0.
         25    1    1    2    0    0 -0.75282056523E+01 -0.18218320966E+03  0.10148191749E+04  0.10386194460E+04  0.12500000000E+03 0.  0.
</event>
<event>
 5    0  0.5668330E-005  0.2728771E+03  0.7546771E-02  0.1099644E+00
         21   -1    0    0  502  501  0.00000000000E+00  0.00000000000E+00  0.52201633366E+03  0.52201633366E+03  0.00000000000E+00 0. -1.
         21   -1    0    0  501  502 -0.00000000000E+00 -0.00000000000E+00 -0.14264290993E+03  0.14264290993E+03  0.00000000000E+00 0. -1.
         25    1    1    2    0    0 -0.14068498096E+03  0.15266839448E+01  0.11608896782E+03  0.22112494903E+03  0.12500000000E+03 0.  0.
         25    1    1    2    0    0  0.87373847019E+02 -0.36018627421E+02  0.13746292813E+02  0.15730699676E+03  0.12500000000E+03 0.  0.
         25    1    1    2    0    0  0.53311133944E+02  0.34491943476E+02  0.24953816310E+03  0.28622729780E+03  0.12500000000E+03 0.  0.
</event>
<event>
 5    0  0.5668330E-005  0.2277817E+03  0.7546771E-02  0.1128211E+00
         21   -1    0    0  502  501  0.00000000000E+00  0.00000000000E+00  0.33015996447E+03  0.33015996447E+03  0.00000000000E+00 0.  1.
         21   -1    0    0  501  502 -0.00000000000E+00 -0.00000000000E+00 -0.15714963183E+03  0.15714963183E+03  0.00000000000E+00 0.  1.
         25    1    1    2    0    0 -0.54000875547E+02  0.17698408578E+02 -0.20313010450E+02  0.13880542720E+03  0.12500000000E+03 0.  0.
         25    1    1    2    0    0 -0.40536223773E+02 -0.19651943297E+02  0.80039166495E+02  0.15511496538E+03  0.12500000000E+03 0.  0.
         25    1    1    2    0    0  0.94537099320E+02  0.19535347192E+01  0.11328417660E+03  0.19338920371E+03  0.12500000000E+03 0.  0.
</event>
<event>
 5    0  0.5668330E-005  0.4670481E+03  0.7546771E-02  0.1022757E+00
         21   -1    0    0  502  501  0.00000000000E+00  0.00000000000E+00  0.19838177394E+04  0.19838177394E+04  0.00000000000E+00 0.  1.
         21   -1    0    0  501  502 -0.00000000000E+00 -0.00000000000E+00 -0.10995665210E+03  0.10995665210E+03  0.00000000000E+00 0.  1.
         25    1    1    2    0    0 -0.12319496143E+03 -0.15937768929E+03  0.37235920478E+03  0.44142340643E+03  0.12500000000E+03 0.  0.
         25    1    1    2    0    0  0.23296959406E+03  0.34021528805E+03  0.11031766759E+04  0.11843331677E+04  0.12500000000E+03 0.  0.
         25    1    1    2    0    0 -0.10977463263E+03 -0.18083759876E+03  0.39832520658E+03  0.46801781728E+03  0.12500000000E+03 0.  0.
</event>
<event>
 5    0  0.5668330E-005  0.2833059E+03  0.7546771E-02  0.1093897E+00
         21   -1    0    0  502  501  0.00000000000E+00  0.00000000000E+00  0.19343807529E+04  0.19343807529E+04  0.00000000000E+00 0.  1.
         21   -1    0    0  501  502 -0.00000000000E+00 -0.00000000000E+00 -0.41492476709E+02  0.41492476709E+02  0.00000000000E+00 0.  1.
         25    1    1    2    0    0  0.11626181375E+03  0.15247300119E+01  0.76428349401E+03  0.78311773914E+03  0.12500000000E+03 0.  0.
         25    1    1    2    0    0 -0.78691615067E+02 -0.94519212760E+02  0.28939177253E+03  0.33837678684E+03  0.12500000000E+03 0.  0.
         25    1    1    2    0    0 -0.37570198687E+02  0.92994482748E+02  0.83921300962E+03  0.85437870360E+03  0.12500000000E+03 0.  0.
</event>
<event>
 5    0  0.5668330E-005  0.3042786E+03  0.7546771E-02  0.1083121E+00
         21   -1    0    0  502  501  0.00000000000E+00  0.00000000000E+00  0.21652908224E+03  0.21652908224E+03  0.00000000000E+00 0.  1.
         21   -1    0    0  501  502 -0.00000000000E+00 -0.00000000000E+00 -0.42758911604E+03  0.42758911604E+03  0.00000000000E+00 0.  1.
         25    1    1    2    0    0  0.11812335909E+02 -0.87212959763E+02 -0.83243713818E+02  0.17406937560E+03  0.12500000000E+03 0.  0.
         25    1    1    2    0    0 -0.16624537408E+03  0.29273638952E+02 -0.15537008392E+03  0.26126487195E+03  0.12500000000E+03 0.  0.
         25    1    1    2    0    0  0.15443303817E+03  0.57939320811E+02  0.27553763933E+02  0.20878395073E+03  0.12500000000E+03 0.  0.
</event>
<event>
 5    0  0.5668330E-005  0.2536382E+03  0.7546771E-02  0.1111027E+00
         21   -1    0    0  502  501  0.00000000000E+00  0.00000000000E+00  0.16433213057E+02  0.16433213057E+02  0.00000000000E+00 0.  1.
         21   -1    0    0  501  502 -0.00000000000E+00 -0.00000000000E+00 -0.39147766935E+04  0.39147766935E+04  0.00000000000E+00 0.  1.
         25    1    1    2    0    0 -0.17460508332E+02  0.10216627117E+03 -0.70773287803E+03  0.72612233333E+03  0.12500000000E+03 0.  0.
         25    1    1    2    0    0  0.87527539011E+01  0.15171988214E+02 -0.10387878766E+04  0.10464282357E+04  0.12500000000E+03 0.  0.
         25    1    1    2    0    0  0.87077544312E+01 -0.11733825939E+03 -0.21518227258E+04  0.21586593375E+04  0.12500000000E+03 0.  0.
</event>
<event>
 5    0  0.5668330E-005  0.4686238E+03  0.7546771E-02  0.1022309E+00
         21   -1    0    0  502  501  0.00000000000E+00  0.00000000000E+00  0.32138278117E+04  0.32138278117E+04  0.00000000000E+00 0.  1.
         21   -1    0    0  501  502 -0.00000000000E+00 -0.00000000000E+00 -0.68332302189E+02  0.68332302189E+02  0.00000000000E+00 0.  1.
         25    1    1    2    0    0 -0.29416369825E+02 -0.28854592818E+03  0.10057783864E+04  0.10542007580E+04  0.12500000000E+03 0.  0.
         25    1    1    2    0    0 -0.27516094153E+02  0.23407681067E+03  0.39296683653E+03  0.47497054997E+03  0.12500000000E+03 0.  0.
         25    1    1    2    0    0  0.56932463978E+02  0.54469117517E+02  0.17467502866E+04  0.17529888060E+04  0.12500000000E+03 0.  0.
</event>
<event>
 5    0  0.5668330E-005  0.3878996E+03  0.7546771E-02  0.1048052E+00
         21   -1    0    0  502  501  0.00000000000E+00  0.00000000000E+00  0.52458745478E+03  0.52458745478E+03  0.00000000000E+00 0. -1.
         21   -1    0    0  501  502 -0.00000000000E+00 -0.00000000000E+00 -0.28682754739E+03  0.28682754739E+03  0.00000000000E+00 0. -1.
         25    1    1    2    0    0  0.19515354457E+03  0.12808152001E+01 -0.66571893495E+02  0.24112935003E+03  0.12500000000E+03 0.  0.
         25    1    1    2    0    0 -0.14719862019E+03  0.44521589345E+02  0.36578151563E+03  0.41601769540E+03  0.12500000000E+03 0.  0.
         25    1    1    2    0    0 -0.47954924372E+02 -0.45802404545E+02 -0.61449714745E+02  0.15426795674E+03  0.12500000000E+03 0.  0.
</event>
<event>
 5    0  0.5668330E-005  0.3201232E+03  0.7546771E-02  0.1075593E+00
         21   -1    0    0  502  501  0.00000000000E+00  0.00000000000E+00  0.21519187041E+04  0.21519187041E+04  0.00000000000E+00 0. -1.
         21   -1    0    0  501  502 -0.00000000000E+00 -0.00000000000E+00 -0.47622087531E+02  0.47622087531E+02  0.00000000000E+00 0. -1.
         25    1    1    2    0    0 -0.12007569826E+03  0.36073841331E+02  0.11771348019E+04  0.11903742425E+04  0.12500000000E+03 0.  0.
         25    1    1    2    0    0 -0.19463748581E+02 -0.18394613012E+01  0.10258412932E+03  0.16288254884E+03  0.12500000000E+03 0.  0.
         25    1    1    2    0    0  0.13953944684E+03 -0.34234380030E+02  0.82457768531E+03  0.84628400027E+03  0.12500000000E+03 0.  0.
</event>
<event>
 5    0  0.5668330E-005  0.2480988E+03  0.7546771E-02  0.1114512E+00
         21   -1    0    0  502  501  0.00000000000E+00  0.00000000000E+00  0.28544369964E+02  0.28544369964E+02  0.00000000000E+00 0. -1.
         21   -1    0    0  501  502 -0.00000000000E+00 -0.00000000000E+00 -0.21563983754E+04  0.21563983754E+04  0.00000000000E+00 0. -1.
         25    1    1    2    0    0 -0.56005114299E+02 -0.13046081307E+02 -0.41284443321E+03  0.43516927637E+03  0.12500000000E+03 0.  0.
         25    1    1    2    0    0  0.74091394490E+02 -0.87569103827E+02 -0.61488322522E+03  0.63785912500E+03  0.12500000000E+03 0.  0.
         25    1    1    2    0    0 -0.18086280191E+02  0.10061518513E+03 -0.11001263470E+04  0.11119143440E+04  0.12500000000E+03 0.  0.
</event>
<event>
 5    0  0.5668330E-005  0.3170128E+03  0.7546771E-02  0.1077032E+00
         21   -1    0    0  502  501  0.00000000000E+00  0.00000000000E+00  0.13186811458E+03  0.13186811458E+03  0.00000000000E+00 0. -1.
         21   -1    0    0  501  502 -0.00000000000E+00 -0.00000000000E+00 -0.76210315295E+03  0.76210315295E+03  0.00000000000E+00 0. -1.
         25    1    1    2    0    0 -0.52039934830E+02  0.77428991487E+02 -0.45849280367E+03  0.48429748560E+03  0.12500000000E+03 0.  0.
         25    1    1    2    0    0  0.33069841435E+02 -0.16208613308E+03 -0.15013526172E+03  0.25599047982E+03  0.12500000000E+03 0.  0.
         25    1    1    2    0    0  0.18970093395E+02  0.84657141589E+02 -0.21606972974E+02  0.15368330211E+03  0.12500000000E+03 0.  0.
</event>
<event>
 5    0  0.5668330E-005  0.3448184E+03  0.7546771E-02  0.1064762E+00
         21   -1    0    0  502  501  0.00000000000E+00  0.00000000000E+00  0.75517519395E+03  0.75517519395E+03  0.00000000000E+00 0. -1.
         21   -1    0    0  501  502 -0.00000000000E+00 -0.00000000000E+00 -0.15744659486E+03  0.15744659486E+03  0.00000000000E+00 0. -1.
         25    1    1    2    0    0  0.20627565548E+02 -0.13769267263E+03  0.26654273056E+02  0.18899793340E+03  0.12500000000E+03 0.  0.
         25    1    1    2    0    0 -0.52720367789E+01  0.23693393570E+02  0.53502432424E+03  0.54996836163E+03  0.12500000000E+03 0.  0.
         25    1    1    2    0    0 -0.15355528769E+02  0.11399927906E+03  0.36050001800E+02  0.17365549378E+03  0.12500000000E+03 0.  0.
</event>
<event>
 5    0  0.5668330E-005  0.2728235E+03  0.7546771E-02  0.1099674E+00
         21   -1    0    0  502  501  0.00000000000E+00  0.00000000000E+00  0.81392250448E+03  0.81392250448E+03  0.00000000000E+00 0. -1.
         21   -1    0    0  501  502 -0.00000000000E+00 -0.00000000000E+00 -0.91449299120E+02  0.91449299120E+02  0.00000000000E+00 0. -1.
         25    1    1    2    0    0  0.69218953313E+02  0.24160041699E+02  0.47592427750E+02  0.15252871956E+03  0.12500000000E+03 0.  0.
         25    1    1    2    0    0 -0.46993260096E+02 -0.90320639871E+02  0.50799450219E+03  0.53296303694E+03  0.12500000000E+03 0.  0.
         25    1    1    2    0    0 -0.22225693217E+02  0.66160598172E+02  0.16688627541E+03  0.21988004710E+03  0.12500000000E+03 0.  0.
</event>
<event>
 5    0  0.5668330E-005  0.2875624E+03  0.7546771E-02  0.1091629E+00
         21   -1    0    0  502  501  0.00000000000E+00  0.00000000000E+00  0.18771791876E+03  0.18771791876E+03  0.00000000000E+00 0. -1.
         21   -1    0    0  501  502 -0.00000000000E+00 -0.00000000000E+00 -0.44051287246E+03  0.44051287246E+03  0.00000000000E+00 0. -1.
         25    1    1    2    0    0  0.30142470753E+02 -0.92914670652E+02 -0.26955436125E+02  0.16091395248E+03  0.12500000000E+03 0.  0.
         25    1    1    2    0    0 -0.52959636263E+02 -0.12736666086E+02 -0.26452395518E+03  0.29759850235E+03  0.12500000000E+03 0.  0.
         25    1    1    2    0    0  0.22817165510E+02  0.10565133674E+03  0.38684437607E+02  0.16971833640E+03  0.12500000000E+03 0.  0.
</event>
<event>
 5    0  0.5668330E-005  0.3280110E+03  0.7546771E-02  0.1072020E+00
         21   -1    0    0  502  501  0.00000000000E+00  0.00000000000E+00  0.11871761785E+04  0.11871761785E+04  0.00000000000E+00 0.  1.
         21   -1    0    0  501  502 -0.00000000000E+00 -0.00000000000E+00 -0.90627868695E+02  0.90627868695E+02  0.00000000000E+00 0.  1.
         25    1    1    2    0    0 -0.41283078355E+01 -0.82955697222E+02  0.73715637726E+02  0.16720551986E+03  0.12500000000E+03 0.  0.
         25    1    1    2    0    0  0.15219637584E+03  0.11831661221E+03  0.64138552508E+03  0.68129505306E+03  0.12500000000E+03 0.  0.
         25    1    1    2    0    0 -0.14806806800E+03 -0.35360914989E+02  0.38144714701E+03  0.42930347429E+03  0.12500000000E+03 0.  0.
</event>
<event>
 5    0  0.6251930E-005  0.3495437E+03  0.7546771E-02  0.1062802E+00
         21   -1    0    0  502  501  0.00000000000E+00  0.00000000000E+00  0.87808618746E+03  0.87808618746E+03  0.00000000000E+00 0.  1.
         21   -1    0    0  501  502 -0.00000000000E+00 -0.00000000000E+00 -0.13914444048E+03  0.13914444048E+03  0.00000000000E+00 0.  1.
         25    1    1    2    0    0  0.11915503858E+03 -0.53341922113E+02  0.62674403512E+01  0.18085232839E+03  0.12500000000E+03 0.  0.
         25    1    1    2    0    0 -0.15749984740E+03 -0.76935256363E+02  0.33904688808E+03  0.40162548216E+03  0.12500000000E+03 0.  0.
         25    1    1    2    0    0  0.38344808812E+02  0.13027717848E+03  0.39362741856E+03  0.43475281740E+03  0.12500000000E+03 0.  0.
</event>
<event>
 5    0  0.5668330E-005  0.2858689E+03  0.7546771E-02  0.1092526E+00
         21   -1    0    0  502  501  0.00000000000E+00  0.00000000000E+00  0.84449970220E+03  0.84449970220E+03  0.00000000000E+00 0. -1.
         21   -1    0    0  501  502 -0.00000000000E+00 -0.00000000000E+00 -0.96768541207E+02  0.96768541207E+02  0.00000000000E+00 0. -1.
         25    1    1    2    0    0  0.13044033795E+03  0.41119235840E+02  0.55666476813E+03  0.58669083630E+03  0.12500000000E+03 0.  0.
         25    1    1    2    0    0 -0.21423600508E+02 -0.32468330460E+02  0.65610007728E+02  0.14643372650E+03  0.12500000000E+03 0.  0.
         25    1    1    2    0    0 -0.10901673745E+03 -0.86509053793E+01  0.12545638514E+03  0.20814368061E+03  0.12500000000E+03 0.  0.
</event>
