<event>
 5    0  0.5677492E-005  0.3522301E+03  0.7546771E-02  0.1061703E+00
         21   -1    0    0  502  501  0.00000000000E+00  0.00000000000E+00  0.23426194256E+03  0.23426194256E+03  0.00000000000E+00 0. -1.
         21   -1    0    0  501  502 -0.00000000000E+00 -0.00000000000E+00 -0.52960382118E+03  0.52960382118E+03  0.00000000000E+00 0. -1.
         25    1    1    2    0    0  0.18448848182E+03  0.58208101439E+02  0.43507775055E+02  0.23439733251E+03  0.12500000000E+03 0.  0.
         25    1    1    2    0    0  0.23384649199E+02  0.43521664011E+02 -0.17077085935E+03  0.21732156694E+03  0.12500000000E+03 0.  0.
         25    1    1    2    0    0 -0.20787313102E+03 -0.10172976545E+03 -0.16807879432E+03  0.31214686428E+03  0.12500000000E+03 0.  0.
</event>
<event>
 5    0  0.5677492E-005  0.2516160E+03  0.7546771E-02  0.1112288E+00
         21   -1    0    0  502  501  0.00000000000E+00  0.00000000000E+00  0.63108955972E+03  0.63108955972E+03  0.00000000000E+00 0.  1.
         21   -1    0    0  501  502 -0.00000000000E+00 -0.00000000000E+00 -0.10031951736E+03  0.10031951736E+03  0.00000000000E+00 0.  1.
         25    1    1    2    0    0 -0.26845130250E+02  0.94606819236E+02  0.15971913270E+03  0.22540255681E+03  0.12500000000E+03 0.  0.
         25    1    1    2    0    0 -0.48531379711E+02  0.17571451825E+02  0.25426853706E+03  0.28799572857E+03  0.12500000000E+03 0.  0.
         25    1    1    2    0    0  0.75376509961E+02 -0.11217827106E+03  0.11678237260E+03  0.21801079171E+03  0.12500000000E+03 0.  0.
</event>
<event>
 5    0  0.5792898E-005  0.2753744E+03  0.7546771E-02  0.1098243E+00
         21   -1    0    0  502  501  0.00000000000E+00  0.00000000000E+00  0.37854226658E+03  0.37854226658E+03  0.00000000000E+00 0. -1.
         21   -1    0    0  501  502 -0.00000000000E+00 -0.00000000000E+00 -0.20032384133E+03  0.20032384133E+03  0.00000000000E+00 0. -1.
         25    1    1    2    0    0  0.77422177372E+02 -0.66786763228E+02 -0.37737026535E+02  0.16584254117E+03  0.12500000000E+03 0.  0.
         25    1    1    2    0    0  0.89998449553E+01 -0.60542902564E+02  0.32539067424E+02  0.14293435965E+03  0.12500000000E+03 0.  0.
         25    1    1    2    0    0 -0.86422022327E+02  0.12732966579E+03  0.18341638435E+03  0.27008920708E+03  0.12500000000E+03 0.  0.
</event>
<event>
 5    0  0.5690476E-005  0.7132974E+03  0.7546771E-02  0.9694758E-01
         21   -1    0    0  502  501  0.00000000000E+00  0.00000000000E+00  0.23368012134E+03  0.23368012134E+03  0.00000000000E+00 0.  1.
         21   -1    0    0  501  502 -0.00000000000E+00 -0.00000000000E+00 -0.21773064594E+04  0.21773064594E+04  0.00000000000E+00 0.  1.
         25    1    1    2    0    0 -0.32457576020E+03  0.15843324140E+03 -0.80249320360E+02  0.39053228997E+03  0.12500000000E+03 0.  0.
         25    1    1    2    0    0  0.45933810420E+03  0.72651634175E+02 -0.12547377599E+04  0.13439723211E+04  0.12500000000E+03 0.  0.
         25    1    1    2    0    0 -0.13476234400E+03 -0.23108487557E+03 -0.60863925790E+03  0.67648196970E+03  0.12500000000E+03 0.  0.
</event>
<event>
 5    0  0.5677492E-005  0.3495172E+03  0.7546771E-02  0.1062813E+00
         21   -1    0    0  502  501  0.00000000000E+00  0.00000000000E+00  0.33480403125E+03  0.33480403125E+03  0.00000000000E+00 0. -1.
         21   -1    0    0  501  502 -0.00000000000E+00 -0.00000000000E+00 -0.36487699444E+03  0.36487699444E+03  0.00000000000E+00 0. -1.
         25    1    1    2    0    0 -0.12392698506E+03  0.89906905091E+02 -0.11448760203E+03  0.22841532398E+03  0.12500000000E+03 0.  0.
         25    1    1    2    0    0 -0.10421063361E+02 -0.14450822943E+03 -0.90738169722E+02  0.21177734151E+03  0.12500000000E+03 0.  0.
         25    1    1    2    0    0  0.13434804842E+03  0.54601324338E+02  0.17515280857E+03  0.25948836020E+03  0.12500000000E+03 0.  0.
</event>
<event>
 5    0  0.5677492E-005  0.4423579E+03  0.7546771E-02  0.1030026E+00
         21   -1    0    0  502  501  0.00000000000E+00  0.00000000000E+00  0.22840064009E+03  0.22840064009E+03  0.00000000000E+00 0.  1.
         21   -1    0    0  501  502 -0.00000000000E+00 -0.00000000000E+00 -0.85674231887E+03  0.85674231887E+03  0.00000000000E+00 0.  1.
         25    1    1    2    0    0 -0.20333488177E+03 -0.87125303466E+02 -0.23419569702E+03  0.34555537494E+03  0.12500000000E+03 0.  0.
         25    1    1    2    0    0 -0.13995731515E+03 -0.98340038688E+02 -0.94460947053E+02  0.23196267758E+03  0.12500000000E+03 0.  0.
         25    1    1    2    0    0  0.34329219692E+03  0.18546534215E+03 -0.29968503470E+03  0.50762490643E+03  0.12500000000E+03 0.  0.
</event>
<event>
 5    0  0.5677492E-005  0.3197861E+03  0.7546771E-02  0.1075748E+00
         21   -1    0    0  502  501  0.00000000000E+00  0.00000000000E+00  0.99477489259E+03  0.99477489259E+03  0.00000000000E+00 0.  1.
         21   -1    0    0  501  502 -0.00000000000E+00 -0.00000000000E+00 -0.10280030581E+03  0.10280030581E+03  0.00000000000E+00 0.  1.
         25    1    1    2    0    0 -0.22659646664E+03  0.12305801415E+02  0.35060651232E+03  0.43594416836E+03  0.12500000000E+03 0.  0.
         25    1    1    2    0    0  0.98795252565E+02  0.51778383190E+02  0.14280241519E+03  0.22013412430E+03  0.12500000000E+03 0.  0.
         25    1    1    2    0    0  0.12780121407E+03 -0.64084184605E+02  0.39856565927E+03  0.44149690574E+03  0.12500000000E+03 0.  0.
</event>
<event>
 5    0  0.5705289E-005  0.2515013E+03  0.7546771E-02  0.1112360E+00
         21   -1    0    0  502  501  0.00000000000E+00  0.00000000000E+00  0.30969382064E+03  0.30969382064E+03  0.00000000000E+00 0. -1.
         21   -1    0    0  501  502 -0.00000000000E+00 -0.00000000000E+00 -0.20424330132E+03  0.20424330132E+03  0.00000000000E+00 0. -1.
         25    1    1    2    0    0 -0.10787925434E+03  0.18781637821E+02  0.20034270617E+02  0.16738296041E+03  0.12500000000E+03 0.  0.
         25    1    1    2    0    0 -0.85853242120E+01 -0.18974804763E+02  0.11738983597E+03  0.17274004920E+03  0.12500000000E+03 0.  0.
         25    1    1    2    0    0  0.11646457855E+03  0.19316694148E+00 -0.31973587273E+02  0.17381411235E+03  0.12500000000E+03 0.  0.
</event>
<event>
 5    0  0.5677492E-005  0.3382419E+03  0.7546771E-02  0.1067547E+00
         21   -1    0    0  502  501  0.00000000000E+00  0.00000000000E+00  0.52692805818E+03  0.52692805818E+03  0.00000000000E+00 0. -1.
         21   -1    0    0  501  502 -0.00000000000E+00 -0.00000000000E+00 -0.21712188511E+03  0.21712188511E+03  0.00000000000E+00 0. -1.
         25    1    1    2    0    0 -0.13302258461E+03  0.95276226648E+02  0.17328280025E+03  0.26911799687E+03  0.12500000000E+03 0.  0.
         25    1    1    2    0    0 -0.10471941040E+03 -0.25522571571E+01  0.92185324193E+02  0.18733873846E+03  0.12500000000E+03 0.  0.
         25    1    1    2    0    0  0.23774199501E+03 -0.92723969490E+02  0.44338048624E+02  0.28759320796E+03  0.12500000000E+03 0.  0.
</event>
<event>
 5    0  0.5677492E-005  0.2226842E+03  0.7546771E-02  0.1131898E+00
         21   -1    0    0  502  501  0.00000000000E+00  0.00000000000E+00  0.11883540043E+03  0.11883540043E+03  0.00000000000E+00 0.  1.
         21   -1    0    0  501  502 -0.00000000000E+00 -0.00000000000E+00 -0.41728521867E+03  0.41728521867E+03  0.00000000000E+00 0.  1.
         25    1    1    2    0    0 -0.45090321059E+02  0.16338401579E+02 -0.12514196055E+03  0.18326371902E+03  0.12500000000E+03 0.  0.
         25    1    1    2    0    0  0.60538954616E+02 -0.86054500577E+02 -0.90215453822E+02  0.18663914435E+03  0.12500000000E+03 0.  0.
         25    1    1    2    0    0 -0.15448633557E+02  0.69716098998E+02 -0.83092403874E+02  0.16621775573E+03  0.12500000000E+03 0.  0.
</event>
<event>
 5    0  0.5677492E-005  0.4126202E+03  0.7546771E-02  0.1039495E+00
         21   -1    0    0  502  501  0.00000000000E+00  0.00000000000E+00  0.31185669113E+03  0.31185669113E+03  0.00000000000E+00 0. -1.
         21   -1    0    0  501  502 -0.00000000000E+00 -0.00000000000E+00 -0.54594116378E+03  0.54594116378E+03  0.00000000000E+00 0. -1.
         25    1    1    2    0    0 -0.23595112616E+03 -0.59113297440E+02 -0.20633880006E+02  0.27425913453E+03  0.12500000000E+03 0.  0.
         25    1    1    2    0    0  0.54646745415E+01 -0.91107177432E+02 -0.23411227411E+03  0.28064913565E+03  0.12500000000E+03 0.  0.
         25    1    1    2    0    0  0.23048645162E+03  0.15022047487E+03  0.20661681470E+02  0.30288958472E+03  0.12500000000E+03 0.  0.
</event>
<event>
 5    0  0.5677492E-005  0.5758936E+03  0.7546771E-02  0.9956721E-01
         21   -1    0    0  502  501  0.00000000000E+00  0.00000000000E+00  0.61253359410E+03  0.61253359410E+03  0.00000000000E+00 0. -1.
         21   -1    0    0  501  502 -0.00000000000E+00 -0.00000000000E+00 -0.54144535087E+03  0.54144535087E+03  0.00000000000E+00 0. -1.
         25    1    1    2    0    0 -0.13652430850E+02  0.63332072310E+02 -0.32548027011E+02  0.14450506674E+03  0.12500000000E+03 0.  0.
         25    1    1    2    0    0 -0.46631847223E+03 -0.10430733195E+03 -0.27917821240E+02  0.49470935081E+03  0.12500000000E+03 0.  0.
         25    1    1    2    0    0  0.47997090308E+03  0.40975259641E+02  0.13155409149E+03  0.51476452742E+03  0.12500000000E+03 0.  0.
</event>
<event>
 5    0  0.5677492E-005  0.2752792E+03  0.7546771E-02  0.1098296E+00
         21   -1    0    0  502  501  0.00000000000E+00  0.00000000000E+00  0.34168526589E+03  0.34168526589E+03  0.00000000000E+00 0.  1.
         21   -1    0    0  501  502 -0.00000000000E+00 -0.00000000000E+00 -0.22177900974E+03  0.22177900974E+03  0.00000000000E+00 0.  1.
         25    1    1    2    0    0  0.11312194691E+03 -0.35330899412E+02 -0.43558566283E+02  0.17767159599E+03  0.12500000000E+03 0.  0.
         25    1    1    2    0    0 -0.32890675143E+02  0.12143816157E+03  0.92394143096E+02  0.19997675184E+03  0.12500000000E+03 0.  0.
         25    1    1    2    0    0 -0.80231271765E+02 -0.86107262155E+02  0.71070679330E+02  0.18581592780E+03  0.12500000000E+03 0.  0.
</event>
<event>
 5    0  0.5677492E-005  0.2959664E+03  0.7546771E-02  0.1087275E+00
         21   -1    0    0  502  501  0.00000000000E+00  0.00000000000E+00  0.63414651775E+03  0.63414651775E+03  0.00000000000E+00 0. -1.
         21   -1    0    0  501  502 -0.00000000000E+00 -0.00000000000E+00 -0.13813231456E+03  0.13813231456E+03  0.00000000000E+00 0. -1.
         25    1    1    2    0    0 -0.13594671785E+03  0.14132614189E+03  0.15641099337E+03  0.28025700227E+03  0.12500000000E+03 0.  0.
         25    1    1    2    0    0  0.10359239561E+03 -0.15697290191E+03  0.20885707070E+03  0.30760063775E+03  0.12500000000E+03 0.  0.
         25    1    1    2    0    0  0.32354322247E+02  0.15646760018E+02  0.13074613913E+03  0.18442119229E+03  0.12500000000E+03 0.  0.
</event>
<event>
 5    0  0.5677492E-005  0.4020158E+03  0.7546771E-02  0.1043084E+00
         21   -1    0    0  502  501  0.00000000000E+00  0.00000000000E+00  0.84432381045E+03  0.84432381045E+03  0.00000000000E+00 0.  1.
         21   -1    0    0  501  502 -0.00000000000E+00 -0.00000000000E+00 -0.19141552051E+03  0.19141552051E+03  0.00000000000E+00 0.  1.
         25    1    1    2    0    0  0.16060906716E+03 -0.24541528188E+03  0.62510113122E+02  0.32489451715E+03  0.12500000000E+03 0.  0.
         25    1    1    2    0    0 -0.55975972727E+02  0.99177249772E+02  0.18908903500E+03  0.25367124305E+03  0.12500000000E+03 0.  0.
         25    1    1    2    0    0 -0.10463309443E+03  0.14623803211E+03  0.40130914183E+03  0.45717357076E+03  0.12500000000E+03 0.  0.
</event>
<event>
 5    0  0.5677492E-005  0.3176773E+03  0.7546771E-02  0.1076723E+00
         21   -1    0    0  502  501  0.00000000000E+00  0.00000000000E+00  0.12520257543E+03  0.12520257543E+03  0.00000000000E+00 0. -1.
         21   -1    0    0  501  502 -0.00000000000E+00 -0.00000000000E+00 -0.80604468723E+03  0.80604468723E+03  0.00000000000E+00 0. -1.
         25    1    1    2    0    0  0.49658841336E+02 -0.86321217327E+02 -0.53794616498E+02  0.16863040606E+03  0.12500000000E+03 0.  0.
         25    1    1    2    0    0  0.50146403082E+02 -0.90676825354E+02 -0.11886832275E+03  0.20122531290E+03  0.12500000000E+03 0.  0.
         25    1    1    2    0    0 -0.99805244418E+02  0.17699804268E+03 -0.50817917255E+03  0.56139154370E+03  0.12500000000E+03 0.  0.
</event>
<event>
 5    0  0.5677492E-005  0.2475326E+03  0.7546771E-02  0.1114874E+00
         21   -1    0    0  502  501  0.00000000000E+00  0.00000000000E+00  0.21642306790E+03  0.21642306790E+03  0.00000000000E+00 0. -1.
         21   -1    0    0  501  502 -0.00000000000E+00 -0.00000000000E+00 -0.28311401321E+03  0.28311401321E+03  0.00000000000E+00 0. -1.
         25    1    1    2    0    0  0.24419553299E+02  0.87203344505E+01 -0.33038780214E+02  0.13186705356E+03  0.12500000000E+03 0.  0.
         25    1    1    2    0    0  0.93539298115E+02 -0.36910513860E+02  0.58334629164E+02  0.17070417477E+03  0.12500000000E+03 0.  0.
         25    1    1    2    0    0 -0.11795885141E+03  0.28190179410E+02 -0.91986794257E+02  0.19696585278E+03  0.12500000000E+03 0.  0.
</event>
<event>
 5    0  0.5677492E-005  0.2417111E+03  0.7546771E-02  0.1118658E+00
         21   -1    0    0  502  501  0.00000000000E+00  0.00000000000E+00  0.50727513168E+03  0.50727513168E+03  0.00000000000E+00 0.  1.
         21   -1    0    0  501  502 -0.00000000000E+00 -0.00000000000E+00 -0.11517269065E+03  0.11517269065E+03  0.00000000000E+00 0.  1.
         25    1    1    2    0    0 -0.84944445672E+02  0.60970704294E+02  0.21316273463E+03  0.26832133174E+03  0.12500000000E+03 0.  0.
         25    1    1    2    0    0  0.25208850083E+02  0.37924718162E+02  0.56968244335E+02  0.14472094262E+03  0.12500000000E+03 0.  0.
         25    1    1    2    0    0  0.59735595589E+02 -0.98895422457E+02  0.12197146206E+03  0.20940554797E+03  0.12500000000E+03 0.  0.
</event>
<event>
 5    0  0.5677492E-005  0.3179569E+03  0.7546771E-02  0.1076593E+00
         21   -1    0    0  502  501  0.00000000000E+00  0.00000000000E+00  0.33686680787E+03  0.33686680787E+03  0.00000000000E+00 0.  1.
         21   -1    0    0  501  502 -0.00000000000E+00 -0.00000000000E+00 -0.30010853400E+03  0.30010853400E+03  0.00000000000E+00 0.  1.
         25    1    1    2    0    0 -0.40999782152E+02 -0.15062369354E+03  0.84520657120E+02  0.21711107911E+03  0.12500000000E+03 0.  0.
         25    1    1    2    0    0 -0.30504241414E+02  0.12626201776E+03 -0.15574280036E+03  0.23822977508E+03  0.12500000000E+03 0.  0.
         25    1    1    2    0    0  0.71504023566E+02  0.24361675782E+02  0.10798041711E+03  0.18163448767E+03  0.12500000000E+03 0.  0.
</event>
<event>
 5    0  0.5677492E-005  0.2466862E+03  0.7546771E-02  0.1115417E+00
         21   -1    0    0  502  501  0.00000000000E+00  0.00000000000E+00  0.81573780716E+02  0.81573780716E+02  0.00000000000E+00 0. -1.
         21   -1    0    0  501  502 -0.00000000000E+00 -0.00000000000E+00 -0.74600046875E+03  0.74600046875E+03  0.00000000000E+00 0. -1.
         25    1    1    2    0    0  0.21342564220E+02  0.11485091338E+03 -0.24860868745E+03  0.30179051812E+03  0.12500000000E+03 0.  0.
         25    1    1    2    0    0  0.35629855641E+02 -0.12566282649E+03 -0.27203451272E+03  0.32663191621E+03  0.12500000000E+03 0.  0.
         25    1    1    2    0    0 -0.56972419861E+02  0.10811913109E+02 -0.14378348787E+03  0.19915181514E+03  0.12500000000E+03 0.  0.
</event>
<event>
 5    0  0.5677492E-005  0.3207322E+03  0.7546771E-02  0.1075313E+00
         21   -1    0    0  502  501  0.00000000000E+00  0.00000000000E+00  0.10950859611E+03  0.10950859611E+03  0.00000000000E+00 0.  1.
         21   -1    0    0  501  502 -0.00000000000E+00 -0.00000000000E+00 -0.93937048174E+03  0.93937048174E+03  0.00000000000E+00 0.  1.
         25    1    1    2    0    0 -0.12503554108E+03  0.67725272832E+02 -0.13049179934E+03  0.22994283813E+03  0.12500000000E+03 0.  0.
         25    1    1    2    0    0 -0.37876929072E+02 -0.86796276529E+02 -0.52801055278E+03  0.55080704355E+03  0.12500000000E+03 0.  0.
         25    1    1    2    0    0  0.16291247015E+03  0.19071003697E+02 -0.17135953350E+03  0.26812919616E+03  0.12500000000E+03 0.  0.
</event>
<event>
 5    0  0.5677492E-005  0.3171863E+03  0.7546771E-02  0.1076952E+00
         21   -1    0    0  502  501  0.00000000000E+00  0.00000000000E+00  0.16613451724E+03  0.16613451724E+03  0.00000000000E+00 0.  1.
         21   -1    0    0  501  502 -0.00000000000E+00 -0.00000000000E+00 -0.60557629118E+03  0.60557629118E+03  0.00000000000E+00 0.  1.
         25    1    1    2    0    0  0.57154661198E+01  0.13118696903E+03 -0.12585902936E+03  0.22069930373E+03  0.12500000000E+03 0.  0.
         25    1    1    2    0    0 -0.14333604431E+02 -0.11122009586E+03  0.42310924457E+02  0.17317787465E+03  0.12500000000E+03 0.  0.
         25    1    1    2    0    0  0.86181383114E+01 -0.19966873172E+02 -0.35589366903E+03  0.37783363004E+03  0.12500000000E+03 0.  0.
</event>
<event>
 5    0  0.5677492E-005  0.2901722E+03  0.7546771E-02  0.1090259E+00
         21   -1    0    0  502  501  0.00000000000E+00  0.00000000000E+00  0.23673467439E+03  0.23673467439E+03  0.00000000000E+00 0.  1.
         21   -1    0    0  501  502 -0.00000000000E+00 -0.00000000000E+00 -0.35567195133E+03  0.35567195133E+03  0.00000000000E+00 0.  1.
         25    1    1    2    0    0 -0.13508201474E+03  0.10294908853E+03 -0.89633572638E+02  0.22913935253E+03  0.12500000000E+03 0.  0.
         25    1    1    2    0    0  0.11861458147E+03  0.27022464777E+02 -0.48851846343E+02  0.18113844272E+03  0.12500000000E+03 0.  0.
         25    1    1    2    0    0  0.16467433266E+02 -0.12997155331E+03  0.19548142041E+02  0.18212883046E+03  0.12500000000E+03 0.  0.
</event>
<event>
 5    0  0.5677492E-005  0.3916818E+03  0.7546771E-02  0.1046699E+00
         21   -1    0    0  502  501  0.00000000000E+00  0.00000000000E+00  0.37974374277E+03  0.37974374277E+03  0.00000000000E+00 0.  1.
         21   -1    0    0  501  502 -0.00000000000E+00 -0.00000000000E+00 -0.40399514783E+03  0.40399514783E+03  0.00000000000E+00 0.  1.
         25    1    1    2    0    0 -0.20286207993E+03 -0.10021705750E+03 -0.21401417094E+03  0.33559431976E+03  0.12500000000E+03 0.  0.
         25    1    1    2    0    0  0.85711194005E+02 -0.46325576557E+02  0.15193904977E+03  0.21955168564E+03  0.12500000000E+03 0.  0.
         25    1    1    2    0    0  0.11715088592E+03  0.14654263406E+03  0.37823716109E+02  0.22859288521E+03  0.12500000000E+03 0.  0.
</event>
<event>
 5    0  0.5677492E-005  0.2344913E+03  0.7546771E-02  0.1123518E+00
         21   -1    0    0  502  501  0.00000000000E+00  0.00000000000E+00  0.88887734686E+02  0.88887734686E+02  0.00000000000E+00 0.  1.
         21   -1    0    0  501  502 -0.00000000000E+00 -0.00000000000E+00 -0.61860221556E+03  0.61860221556E+03  0.00000000000E+00 0.  1.
         25    1    1    2    0    0 -0.46947889718E+02 -0.74773752836E+02 -0.10721597796E+03  0.18685685535E+03  0.12500000000E+03 0.  0.
         25    1    1    2    0    0  0.93769030211E+02  0.48613713010E+02 -0.27485024308E+03  0.31988057184E+03  0.12500000000E+03 0.  0.
         25    1    1    2    0    0 -0.46821140494E+02  0.26160039827E+02 -0.14764825983E+03  0.20075252305E+03  0.12500000000E+03 0.  0.
</event>
<event>
 5    0  0.6799432E-005  0.2778785E+03  0.7546771E-02  0.1096853E+00
         21   -1    0    0  502  501  0.00000000000E+00  0.00000000000E+00  0.50063211163E+03  0.50063211163E+03  0.00000000000E+00 0. -1.
         21   -1    0    0  501  502 -0.00000000000E+00 -0.00000000000E+00 -0.15423796914E+03  0.15423796914E+03  0.00000000000E+00 0. -1.
         25    1    1    2    0    0 -0.96440116924E+02  0.13740726110E+03  0.70036601253E+02  0.22070699371E+03  0.12500000000E+03 0.  0.
         25    1    1    2    0    0  0.52888558415E+02 -0.21432957641E+02  0.47339674185E+02  0.14533621722E+03  0.12500000000E+03 0.  0.
         25    1    1    2    0    0  0.43551558509E+02 -0.11597430346E+03  0.22901786705E+03  0.28882686984E+03  0.12500000000E+03 0.  0.
</event>
<event>
 5    0  0.5677492E-005  0.3771676E+03  0.7546771E-02  0.1051986E+00
         21   -1    0    0  502  501  0.00000000000E+00  0.00000000000E+00  0.26507861811E+03  0.26507861811E+03  0.00000000000E+00 0. -1.
         21   -1    0    0  501  502 -0.00000000000E+00 -0.00000000000E+00 -0.53665355930E+03  0.53665355930E+03  0.00000000000E+00 0. -1.
         25    1    1    2    0    0 -0.19061916116E+03 -0.53502195648E+02 -0.22415315788E+03  0.32414161678E+03  0.12500000000E+03 0.  0.
         25    1    1    2    0    0  0.19980693695E+03 -0.60168059679E+02  0.90255802642E+02  0.25944964323E+03  0.12500000000E+03 0.  0.
         25    1    1    2    0    0 -0.91877757884E+01  0.11367025533E+03 -0.13767758595E+03  0.21814091740E+03  0.12500000000E+03 0.  0.
</event>
<event>
 5    0  0.5677492E-005  0.3168417E+03  0.7546771E-02  0.1077112E+00
         21   -1    0    0  502  501  0.00000000000E+00  0.00000000000E+00  0.85521682346E+02  0.85521682346E+02  0.00000000000E+00 0. -1.
         21   -1    0    0  501  502 -0.00000000000E+00 -0.00000000000E+00 -0.11738386909E+04  0.11738386909E+04  0.00000000000E+00 0. -1.
         25    1    1    2    0    0 -0.77978114480E+02 -0.40521631231E+02 -0.28244063736E+03  0.32112350049E+03  0.12500000000E+03 0.  0.
         25    1    1    2    0    0  0.21948634916E+03 -0.44153410245E+02 -0.31948558518E+03  0.40965817487E+03  0.12500000000E+03 0.  0.
         25    1    1    2    0    0 -0.14150823468E+03  0.84675041476E+02 -0.48639078597E+03  0.52857869784E+03  0.12500000000E+03 0.  0.
</event>
<event>
 5    0  0.5677492E-005  0.2333523E+03  0.7546771E-02  0.1124302E+00
         21   -1    0    0  502  501  0.00000000000E+00  0.00000000000E+00  0.44245447946E+03  0.44245447946E+03  0.00000000000E+00 0.  1.
         21   -1    0    0  501  502 -0.00000000000E+00 -0.00000000000E+00 -0.12307100130E+03  0.12307100130E+03  0.00000000000E+00 0.  1.
         25    1    1    2    0    0 -0.30089330419E+02  0.71838135640E+02  0.16156057948E+03  0.21861588776E+03  0.12500000000E+03 0.  0.
         25    1    1    2    0    0  0.92714944646E+02 -0.65183973087E+02  0.92936075514E+02  0.19263209868E+03  0.12500000000E+03 0.  0.
         25    1    1    2    0    0 -0.62625614227E+02 -0.66541625537E+01  0.64886823165E+02  0.15427749433E+03  0.12500000000E+03 0.  0.
</event>
<event>
 5    0  0.5677492E-005  0.4909609E+03  0.7546771E-02  0.1016166E+00
         21   -1    0    0  502  501  0.00000000000E+00  0.00000000000E+00  0.70591202513E+03  0.70591202513E+03  0.00000000000E+00 0. -1.
         21   -1    0    0  501  502 -0.00000000000E+00 -0.00000000000E+00 -0.34146267154E+03  0.34146267154E+03  0.00000000000E+00 0. -1.
         25    1    1    2    0    0  0.36729311057E+03 -0.94193727152E+02  0.16960574766E+03  0.43378312202E+03  0.12500000000E+03 0.  0.
         25    1    1    2    0    0 -0.14561858268E+03  0.18018628699E+03  0.22097887948E+03  0.34369831949E+03  0.12500000000E+03 0.  0.
         25    1    1    2    0    0 -0.22167452789E+03 -0.85992559840E+02 -0.26135273554E+02  0.26989325517E+03  0.12500000000E+03 0.  0.
</event>
<event>
 5    0  0.5677492E-005  0.2987437E+03  0.7546771E-02  0.1085870E+00
         21   -1    0    0  502  501  0.00000000000E+00  0.00000000000E+00  0.11828879368E+04  0.11828879368E+04  0.00000000000E+00 0. -1.
         21   -1    0    0  501  502 -0.00000000000E+00 -0.00000000000E+00 -0.75449085954E+02  0.75449085954E+02  0.00000000000E+00 0. -1.
         25    1    1    2    0    0 -0.10880701662E+03 -0.16867899374E+02  0.78362524358E+02  0.18409013585E+03  0.12500000000E+03 0.  0.
         25    1    1    2    0    0  0.86045952742E+01 -0.48250424738E+02  0.40655962559E+03  0.42815636362E+03  0.12500000000E+03 0.  0.
         25    1    1    2    0    0  0.10020242134E+03  0.65118324112E+02  0.62251670088E+03  0.64609052326E+03  0.12500000000E+03 0.  0.
</event>
<event>
 5    0  0.5677492E-005  0.2446170E+03  0.7546771E-02  0.1116755E+00
         21   -1    0    0  502  501  0.00000000000E+00  0.00000000000E+00  0.14914565826E+03  0.14914565826E+03  0.00000000000E+00 0.  1.
         21   -1    0    0  501  502 -0.00000000000E+00 -0.00000000000E+00 -0.40120145988E+03  0.40120145988E+03  0.00000000000E+00 0.  1.
         25    1    1    2    0    0 -0.79172357809E+02 -0.52874526343E+02 -0.65161923597E+02  0.17010306894E+03  0.12500000000E+03 0.  0.
         25    1    1    2    0    0  0.11648502300E+02  0.11332681253E+03 -0.56998938650E+02  0.17847277958E+03  0.12500000000E+03 0.  0.
         25    1    1    2    0    0  0.67523855509E+02 -0.60452286185E+02 -0.12989493937E+03  0.20177126961E+03  0.12500000000E+03 0.  0.
</event>
<event>
 5    0  0.5677492E-005  0.3841256E+03  0.7546771E-02  0.1049419E+00
         21   -1    0    0  502  501  0.00000000000E+00  0.00000000000E+00  0.31629244724E+03  0.31629244724E+03  0.00000000000E+00 0. -1.
         21   -1    0    0  501  502 -0.00000000000E+00 -0.00000000000E+00 -0.46650651485E+03  0.46650651485E+03  0.00000000000E+00 0. -1.
         25    1    1    2    0    0  0.46711126674E+02  0.19264295727E+03  0.84695434056E+02  0.24918177079E+03  0.12500000000E+03 0.  0.
         25    1    1    2    0    0 -0.89080868052E+02 -0.26461834870E+03 -0.23082309823E+03  0.38322653118E+03  0.12500000000E+03 0.  0.
         25    1    1    2    0    0  0.42369741378E+02  0.71975391431E+02 -0.40864034334E+01  0.15039066011E+03  0.12500000000E+03 0.  0.
</event>
<event>
 5    0  0.5677492E-005  0.2623845E+03  0.7546771E-02  0.1105719E+00
         21   -1    0    0  502  501  0.00000000000E+00  0.00000000000E+00  0.53134453182E+02  0.53134453182E+02  0.00000000000E+00 0.  1.
         21   -1    0    0  501  502 -0.00000000000E+00 -0.00000000000E+00 -0.12956869753E+04  0.12956869753E+04  0.00000000000E+00 0.  1.
         25    1    1    2    0    0  0.20613132735E+02 -0.81340414861E+01 -0.43365421583E+03  0.45185400605E+03  0.12500000000E+03 0.  0.
         25    1    1    2    0    0 -0.13615412096E+03  0.67649042016E+02 -0.31784078017E+03  0.37384769503E+03  0.12500000000E+03 0.  0.
         25    1    1    2    0    0  0.11554098822E+03 -0.59515000529E+02 -0.49105752614E+03  0.52311972743E+03  0.12500000000E+03 0.  0.
</event>
<event>
 5    0  0.5677492E-005  0.2593941E+03  0.7546771E-02  0.1107508E+00
         21   -1    0    0  502  501  0.00000000000E+00  0.00000000000E+00  0.19938289314E+03  0.19938289314E+03  0.00000000000E+00 0. -1.
         21   -1    0    0  501  502 -0.00000000000E+00 -0.00000000000E+00 -0.33746774949E+03  0.33746774949E+03  0.00000000000E+00 0. -1.
         25    1    1    2    0    0 -0.13727782846E+03 -0.17584242134E+02 -0.24657035187E+02  0.18811532937E+03  0.12500000000E+03 0.  0.
         25    1    1    2    0    0  0.18366929083E+02  0.25676715800E+02 -0.11967437796E+03  0.17590791499E+03  0.12500000000E+03 0.  0.
         25    1    1    2    0    0  0.11891089938E+03 -0.80924736657E+01  0.62465567903E+01  0.17282739827E+03  0.12500000000E+03 0.  0.
</event>
<event>
 5    0  0.5677492E-005  0.2819537E+03  0.7546771E-02  0.1094627E+00
         21   -1    0    0  502  501  0.00000000000E+00  0.00000000000E+00  0.52291291437E+02  0.52291291437E+02  0.00000000000E+00 0. -1.
         21   -1    0    0  501  502 -0.00000000000E+00 -0.00000000000E+00 -0.15202894315E+04  0.15202894315E+04  0.00000000000E+00 0. -1.
         25    1    1    2    0    0  0.14766070162E+03  0.19546388792E+02 -0.49801796630E+03  0.53463318160E+03  0.12500000000E+03 0.  0.
         25    1    1    2    0    0  0.41705627086E+02  0.33034253644E+02 -0.38763868548E+03  0.41075463689E+03  0.12500000000E+03 0.  0.
         25    1    1    2    0    0 -0.18936632871E+03 -0.52580642436E+02 -0.58234148829E+03  0.62719290445E+03  0.12500000000E+03 0.  0.
</event>
<event>
 5    0  0.5677492E-005  0.2523413E+03  0.7546771E-02  0.1111834E+00
         21   -1    0    0  502  501  0.00000000000E+00  0.00000000000E+00  0.10924061463E+03  0.10924061463E+03  0.00000000000E+00 0.  1.
         21   -1    0    0  501  502 -0.00000000000E+00 -0.00000000000E+00 -0.58289798097E+03  0.58289798097E+03  0.00000000000E+00 0.  1.
         25    1    1    2    0    0  0.17524653314E+02  0.25771848796E+02 -0.15482077746E+02  0.12975359878E+03  0.12500000000E+03 0.  0.
         25    1    1    2    0    0  0.93437543075E+02  0.50792532394E+01 -0.22054317021E+03  0.27022335797E+03  0.12500000000E+03 0.  0.
         25    1    1    2    0    0 -0.11096219639E+03 -0.30851102036E+02 -0.23763211839E+03  0.29216163885E+03  0.12500000000E+03 0.  0.
</event>
<event>
 5    0  0.5677492E-005  0.4972970E+03  0.7546771E-02  0.1014487E+00
         21   -1    0    0  502  501  0.00000000000E+00  0.00000000000E+00  0.55065187914E+03  0.55065187914E+03  0.00000000000E+00 0. -1.
         21   -1    0    0  501  502 -0.00000000000E+00 -0.00000000000E+00 -0.44911181385E+03  0.44911181385E+03  0.00000000000E+00 0. -1.
         25    1    1    2    0    0  0.32026260631E+03  0.25543193695E+03  0.21484175103E+03  0.47916133964E+03  0.12500000000E+03 0.  0.
         25    1    1    2    0    0 -0.16486302100E+03 -0.19700189164E+03 -0.12634884690E+03  0.31237572267E+03  0.12500000000E+03 0.  0.
         25    1    1    2    0    0 -0.15539958531E+03 -0.58430045312E+02  0.13047161172E+02  0.20822663068E+03  0.12500000000E+03 0.  0.
</event>
<event>
 5    0  0.5677492E-005  0.3363532E+03  0.7546771E-02  0.1068360E+00
         21   -1    0    0  502  501  0.00000000000E+00  0.00000000000E+00  0.15482636649E+03  0.15482636649E+03  0.00000000000E+00 0.  1.
         21   -1    0    0  501  502 -0.00000000000E+00 -0.00000000000E+00 -0.73071210655E+03  0.73071210655E+03  0.00000000000E+00 0.  1.
         25    1    1    2    0    0 -0.38562536774E+02 -0.11129447416E+02 -0.11955072666E+02  0.13182889518E+03  0.12500000000E+03 0.  0.
         25    1    1    2    0    0 -0.66162188196E+02 -0.94380546960E+02 -0.52991526455E+03  0.55652521092E+03  0.12500000000E+03 0.  0.
         25    1    1    2    0    0  0.10472472497E+03  0.10550999438E+03 -0.34015402852E+02  0.19718436694E+03  0.12500000000E+03 0.  0.
</event>
<event>
 5    0  0.5677492E-005  0.4575019E+03  0.7546771E-02  0.1025508E+00
         21   -1    0    0  502  501  0.00000000000E+00  0.00000000000E+00  0.12718840270E+04  0.12718840270E+04  0.00000000000E+00 0.  1.
         21   -1    0    0  501  502 -0.00000000000E+00 -0.00000000000E+00 -0.16456527352E+03  0.16456527352E+03  0.00000000000E+00 0.  1.
         25    1    1    2    0    0 -0.60017028023E+02  0.10670915326E+03  0.30711915265E+03  0.35346295557E+03  0.12500000000E+03 0.  0.
         25    1    1    2    0    0  0.10228027347E+03 -0.64255089203E+02  0.89714907101E+03  0.91383336908E+03  0.12500000000E+03 0.  0.
         25    1    1    2    0    0 -0.42263245443E+02 -0.42454064054E+02 -0.96949470195E+02  0.16915297586E+03  0.12500000000E+03 0.  0.
</event>
<event>
 5    0  0.5677492E-005  0.3672637E+03  0.7546771E-02  0.1055744E+00
         21   -1    0    0  502  501  0.00000000000E+00  0.00000000000E+00  0.11070214906E+03  0.11070214906E+03  0.00000000000E+00 0. -1.
         21   -1    0    0  501  502 -0.00000000000E+00 -0.00000000000E+00 -0.12184280455E+04  0.12184280455E+04  0.00000000000E+00 0. -1.
         25    1    1    2    0    0  0.29022607452E+03 -0.32257485298E+02 -0.61129466732E+03  0.68889613874E+03  0.12500000000E+03 0.  0.
         25    1    1    2    0    0 -0.14859501890E+03 -0.46138268900E+02 -0.23545115451E+03  0.30866076145E+03  0.12500000000E+03 0.  0.
         25    1    1    2    0    0 -0.14163105562E+03  0.78395754198E+02 -0.26098007466E+03  0.33157329440E+03  0.12500000000E+03 0.  0.
</event>
<event>
 5    0  0.5677492E-005  0.2357219E+03  0.7546771E-02  0.1122676E+00
         21   -1    0    0  502  501  0.00000000000E+00  0.00000000000E+00  0.11401220075E+03  0.11401220075E+03  0.00000000000E+00 0.  1.
         21   -1    0    0  501  502 -0.00000000000E+00 -0.00000000000E+00 -0.48735836388E+03  0.48735836388E+03  0.00000000000E+00 0.  1.
         25    1    1    2    0    0 -0.75189857562E+02  0.61603859842E+01 -0.11461665695E+03  0.18561638690E+03  0.12500000000E+03 0.  0.
         25    1    1    2    0    0  0.70577956582E+02 -0.93605622002E+02 -0.15633480409E+03  0.23196730674E+03  0.12500000000E+03 0.  0.
         25    1    1    2    0    0  0.46119009792E+01  0.87445236018E+02 -0.10239470208E+03  0.18378687099E+03  0.12500000000E+03 0.  0.
</event>
<event>
 5    0  0.5677492E-005  0.3008859E+03  0.7546771E-02  0.1084799E+00
         21   -1    0    0  502  501  0.00000000000E+00  0.00000000000E+00  0.73943223908E+02  0.73943223908E+02  0.00000000000E+00 0. -1.
         21   -1    0    0  501  502 -0.00000000000E+00 -0.00000000000E+00 -0.12243490145E+04  0.12243490145E+04  0.00000000000E+00 0. -1.
         25    1    1    2    0    0  0.94380041477E+02  0.33808675244E+02 -0.64702641404E+03  0.66657242608E+03  0.12500000000E+03 0.  0.
         25    1    1    2    0    0 -0.14041822018E+03 -0.10614449435E+03 -0.37667241996E+03  0.43415555069E+03  0.12500000000E+03 0.  0.
         25    1    1    2    0    0  0.46038178703E+02  0.72335819102E+02 -0.12670695658E+03  0.19756426162E+03  0.12500000000E+03 0.  0.
</event>
<event>
 5    0  0.5677492E-005  0.3619440E+03  0.7546771E-02  0.1057817E+00
         21   -1    0    0  502  501  0.00000000000E+00  0.00000000000E+00  0.37192047511E+03  0.37192047511E+03  0.00000000000E+00 0. -1.
         21   -1    0    0  501  502 -0.00000000000E+00 -0.00000000000E+00 -0.35223505183E+03  0.35223505183E+03  0.00000000000E+00 0. -1.
         25    1    1    2    0    0  0.12188892166E+03 -0.11031156847E+03  0.22509806627E+03  0.30548271767E+03  0.12500000000E+03 0.  0.
         25    1    1    2    0    0 -0.75156575893E+02 -0.44274709734E+02 -0.44837733763E+02  0.15888418169E+03  0.12500000000E+03 0.  0.
         25    1    1    2    0    0 -0.46732345770E+02  0.15458627820E+03 -0.16057490922E+03  0.25978862758E+03  0.12500000000E+03 0.  0.
</event>
<event>
 5    0  0.5677492E-005  0.4608486E+03  0.7546771E-02  0.1024535E+00
         21   -1    0    0  502  501  0.00000000000E+00  0.00000000000E+00  0.14558312601E+03  0.14558312601E+03  0.00000000000E+00 0.  1.
         21   -1    0    0  501  502 -0.00000000000E+00 -0.00000000000E+00 -0.14588326245E+04  0.14588326245E+04  0.00000000000E+00 0.  1.
         25    1    1    2    0    0 -0.69378804645E+02  0.98403007012E+02 -0.95780539186E+03  0.97340266026E+03  0.12500000000E+03 0.  0.
         25    1    1    2    0    0  0.25217280168E+02  0.60270775023E+02  0.70390951853E+02  0.15763363741E+03  0.12500000000E+03 0.  0.
         25    1    1    2    0    0  0.44161524478E+02 -0.15867378203E+03 -0.42583505853E+03  0.47337945289E+03  0.12500000000E+03 0.  0.
</event>
<event>
 5    0  0.5677492E-005  0.2786324E+03  0.7546771E-02  0.1096438E+00
         21   -1    0    0  502  501  0.00000000000E+00  0.00000000000E+00  0.39167277160E+03  0.39167277160E+03  0.00000000000E+00 0.  1.
         21   -1    0    0  501  502 -0.00000000000E+00 -0.00000000000E+00 -0.19821654545E+03  0.19821654545E+03  0.00000000000E+00 0.  1.
         25    1    1    2    0    0  0.15114555619E+03  0.17996443158E+01  0.57366537916E+02  0.20436275969E+03  0.12500000000E+03 0.  0.
         25    1    1    2    0    0 -0.12782497870E+03  0.39733559745E+02  0.16742075518E+03  0.24813844969E+03  0.12500000000E+03 0.  0.
         25    1    1    2    0    0 -0.23320577487E+02 -0.41533204061E+02 -0.31331066949E+02  0.13738810767E+03  0.12500000000E+03 0.  0.
</event>
<event>
 5    0  0.5677492E-005  0.2987314E+03  0.7546771E-02  0.1085876E+00
         21   -1    0    0  502  501  0.00000000000E+00  0.00000000000E+00  0.87116457004E+03  0.87116457004E+03  0.00000000000E+00 0. -1.
         21   -1    0    0  501  502 -0.00000000000E+00 -0.00000000000E+00 -0.10243810485E+03  0.10243810485E+03  0.00000000000E+00 0. -1.
         25    1    1    2    0    0  0.74510252738E+02 -0.27936302060E+02  0.41746034784E+03  0.44297895746E+03  0.12500000000E+03 0.  0.
         25    1    1    2    0    0 -0.64348878468E+02  0.90566103600E+02  0.16932510713E+02  0.16809136563E+03  0.12500000000E+03 0.  0.
         25    1    1    2    0    0 -0.10161374270E+02 -0.62629801540E+02  0.33433360664E+03  0.36253235179E+03  0.12500000000E+03 0.  0.
</event>
<event>
 5    0  0.5677492E-005  0.2498268E+03  0.7546771E-02  0.1113414E+00
         21   -1    0    0  502  501  0.00000000000E+00  0.00000000000E+00  0.44285546610E+03  0.44285546610E+03  0.00000000000E+00 0.  1.
         21   -1    0    0  501  502 -0.00000000000E+00 -0.00000000000E+00 -0.14093407878E+03  0.14093407878E+03  0.00000000000E+00 0.  1.
         25    1    1    2    0    0  0.11741518764E+02 -0.15079610329E+02  0.12128110010E+03  0.17521233733E+03  0.12500000000E+03 0.  0.
         25    1    1    2    0    0  0.12086107166E+03 -0.10982971754E+02  0.13081890348E+03  0.21786833138E+03  0.12500000000E+03 0.  0.
         25    1    1    2    0    0 -0.13260259042E+03  0.26062582084E+02  0.49821383743E+02  0.19070887617E+03  0.12500000000E+03 0.  0.
</event>
<event>
 5    0  0.5837727E-005  0.2749773E+03  0.7546771E-02  0.1098464E+00
         21   -1    0    0  502  501  0.00000000000E+00  0.00000000000E+00  0.42228761175E+03  0.42228761175E+03  0.00000000000E+00 0.  1.
         21   -1    0    0  501  502 -0.00000000000E+00 -0.00000000000E+00 -0.17905459117E+03  0.17905459117E+03  0.00000000000E+00 0.  1.
         25    1    1    2    0    0  0.11003165844E+03 -0.53681331618E+02  0.89927120395E+02  0.19672452365E+03  0.12500000000E+03 0.  0.
         25    1    1    2    0    0  0.31723484813E+01 -0.12787493230E+02 -0.47252509007E+02  0.13428098669E+03  0.12500000000E+03 0.  0.
         25    1    1    2    0    0 -0.11320400692E+03  0.66468824848E+02  0.20055840919E+03  0.27033669258E+03  0.12500000000E+03 0.  0.
</event>
<event>
 5    0  0.5677492E-005  0.2608967E+03  0.7546771E-02  0.1106606E+00
         21   -1    0    0  502  501  0.00000000000E+00  0.00000000000E+00  0.25147829117E+03  0.25147829117E+03  0.00000000000E+00 0. -1.
         21   -1    0    0  501  502 -0.00000000000E+00 -0.00000000000E+00 -0.27066792601E+03  0.27066792601E+03  0.00000000000E+00 0. -1.
         25    1    1    2    0    0 -0.37789862650E+02 -0.10852598945E+03 -0.53324789645E+02  0.17797330501E+03  0.12500000000E+03 0.  0.
         25    1    1    2    0    0 -0.24202985911E+02 -0.23984451868E+02  0.71757276894E+02  0.14810518305E+03  0.12500000000E+03 0.  0.
         25    1    1    2    0    0  0.61992848561E+02  0.13251044132E+03 -0.37622122091E+02  0.19606772912E+03  0.12500000000E+03 0.  0.
</event>
<event>
 5    0  0.5677492E-005  0.2441007E+03  0.7546771E-02  0.1117091E+00
         21   -1    0    0  502  501  0.00000000000E+00  0.00000000000E+00  0.10797158694E+03  0.10797158694E+03  0.00000000000E+00 0.  1.
         21   -1    0    0  501  502 -0.00000000000E+00 -0.00000000000E+00 -0.55185957694E+03  0.55185957694E+03  0.00000000000E+00 0.  1.
         25    1    1    2    0    0 -0.11453886851E+02  0.99505512976E+02 -0.18303447123E+03  0.24322655343E+03  0.12500000000E+03 0.  0.
         25    1    1    2    0    0  0.20535033747E+02 -0.78981920536E+02 -0.28744503439E+02  0.15202328065E+03  0.12500000000E+03 0.  0.
         25    1    1    2    0    0 -0.90811468967E+01 -0.20523592440E+02 -0.23210901534E+03  0.26458132979E+03  0.12500000000E+03 0.  0.
</event>
<event>
 5    0  0.5677492E-005  0.5329099E+03  0.7546771E-02  0.1005529E+00
         21   -1    0    0  502  501  0.00000000000E+00  0.00000000000E+00  0.23008803335E+03  0.23008803335E+03  0.00000000000E+00 0. -1.
         21   -1    0    0  501  502 -0.00000000000E+00 -0.00000000000E+00 -0.12342797813E+04  0.12342797813E+04  0.00000000000E+00 0. -1.
         25    1    1    2    0    0  0.14214124371E+03  0.28831504725E+03 -0.57428151479E+03  0.66989100446E+03  0.12500000000E+03 0.  0.
         25    1    1    2    0    0  0.27952826682E+01  0.13821629797E+03 -0.20040474919E+03  0.27367612634E+03  0.12500000000E+03 0.  0.
         25    1    1    2    0    0 -0.14493652638E+03 -0.42653134522E+03 -0.22950548399E+03  0.52080068387E+03  0.12500000000E+03 0.  0.
</event>
<event>
 5    0  0.5677492E-005  0.3467071E+03  0.7546771E-02  0.1063975E+00
         21   -1    0    0  502  501  0.00000000000E+00  0.00000000000E+00  0.72950973038E+03  0.72950973038E+03  0.00000000000E+00 0. -1.
         21   -1    0    0  501  502 -0.00000000000E+00 -0.00000000000E+00 -0.16477616385E+03  0.16477616385E+03  0.00000000000E+00 0. -1.
         25    1    1    2    0    0 -0.19686971565E+03 -0.92919881273E+02  0.15494269571E+03  0.29499835293E+03  0.12500000000E+03 0.  0.
         25    1    1    2    0    0  0.99156834920E+02  0.47382011923E+02  0.99754261655E+01  0.16673824424E+03  0.12500000000E+03 0.  0.
         25    1    1    2    0    0  0.97712880725E+02  0.45537869350E+02  0.39981544466E+03  0.43254929706E+03  0.12500000000E+03 0.  0.
</event>
<event>
 5    0  0.5677492E-005  0.2974607E+03  0.7546771E-02  0.1086517E+00
         21   -1    0    0  502  501  0.00000000000E+00  0.00000000000E+00  0.53211139189E+02  0.53211139189E+02  0.00000000000E+00 0.  1.
         21   -1    0    0  501  502 -0.00000000000E+00 -0.00000000000E+00 -0.16628636263E+04  0.16628636263E+04  0.00000000000E+00 0.  1.
         25    1    1    2    0    0  0.18782028197E+03 -0.59045913493E+02 -0.74690533601E+03  0.78246754513E+03  0.12500000000E+03 0.  0.
         25    1    1    2    0    0 -0.14007683180E+03  0.50482317582E+01 -0.64966450952E+03  0.67626620378E+03  0.12500000000E+03 0.  0.
         25    1    1    2    0    0 -0.47743450161E+02  0.53997681735E+02 -0.21308264155E+03  0.25734101654E+03  0.12500000000E+03 0.  0.
</event>
<event>
 5    0  0.5677492E-005  0.3749039E+03  0.7546771E-02  0.1052834E+00
         21   -1    0    0  502  501  0.00000000000E+00  0.00000000000E+00  0.69815705703E+03  0.69815705703E+03  0.00000000000E+00 0.  1.
         21   -1    0    0  501  502 -0.00000000000E+00 -0.00000000000E+00 -0.20131989281E+03  0.20131989281E+03  0.00000000000E+00 0.  1.
         25    1    1    2    0    0  0.71982302535E+02  0.11236079844E+03  0.76691497812E+02  0.19827502803E+03  0.12500000000E+03 0.  0.
         25    1    1    2    0    0 -0.27052783519E+03 -0.98509583313E+02  0.31175372389E+03  0.44238538852E+03  0.12500000000E+03 0.  0.
         25    1    1    2    0    0  0.19854553266E+03 -0.13851215127E+02  0.10839194252E+03  0.25881653328E+03  0.12500000000E+03 0.  0.
</event>
<event>
 5    0  0.6450153E-005  0.3386619E+03  0.7546771E-02  0.1067367E+00
         21   -1    0    0  502  501  0.00000000000E+00  0.00000000000E+00  0.38023622923E+03  0.38023622923E+03  0.00000000000E+00 0. -1.
         21   -1    0    0  501  502 -0.00000000000E+00 -0.00000000000E+00 -0.30163314263E+03  0.30163314263E+03  0.00000000000E+00 0. -1.
         25    1    1    2    0    0  0.59116381628E+02 -0.29521498757E+02 -0.17392974163E+03  0.22414910325E+03  0.12500000000E+03 0.  0.
         25    1    1    2    0    0  0.49636211678E+01 -0.12001132587E+03  0.14546211914E+03  0.22629976575E+03  0.12500000000E+03 0.  0.
         25    1    1    2    0    0 -0.64080002796E+02  0.14953282463E+03  0.10707070909E+03  0.23142050286E+03  0.12500000000E+03 0.  0.
</event>
<event>
 5    0  0.5998372E-005  0.2557417E+03  0.7546771E-02  0.1109729E+00
         21   -1    0    0  502  501  0.00000000000E+00  0.00000000000E+00  0.41289134042E+03  0.41289134042E+03  0.00000000000E+00 0. -1.
         21   -1    0    0  501  502 -0.00000000000E+00 -0.00000000000E+00 -0.15840447248E+03  0.15840447248E+03  0.00000000000E+00 0.  1.
         25    1    1    2    0    0 -0.71633762763E+01 -0.39385281328E+02 -0.46553498377E+00  0.13125445161E+03  0.12500000000E+03 0.  0.
         25    1    1    2    0    0  0.86433781434E+02  0.11651767475E+03  0.12800660807E+03  0.23034291570E+03  0.12500000000E+03 0.  0.
         25    1    1    2    0    0 -0.79270405157E+02 -0.77132393425E+02  0.12694579486E+03  0.20969844559E+03  0.12500000000E+03 0.  0.
</event>
<event>
 5    0  0.5842332E-005  0.2940969E+03  0.7546771E-02  0.1088229E+00
         21   -1    0    0  502  501  0.00000000000E+00  0.00000000000E+00  0.11327616426E+03  0.11327616426E+03  0.00000000000E+00 0.  1.
         21   -1    0    0  501  502 -0.00000000000E+00 -0.00000000000E+00 -0.76355880497E+03  0.76355880497E+03  0.00000000000E+00 0.  1.
         25    1    1    2    0    0 -0.12094645621E+02  0.29955103502E+02 -0.50607609929E+02  0.13867126184E+03  0.12500000000E+03 0.  0.
         25    1    1    2    0    0 -0.61743731797E+02 -0.13430969931E+03 -0.49375948787E+03  0.53035348175E+03  0.12500000000E+03 0.  0.
         25    1    1    2    0    0  0.73838377418E+02  0.10435459581E+03 -0.10591554291E+03  0.20781022563E+03  0.12500000000E+03 0.  0.
</event>
<event>
 5    0  0.5677492E-005  0.2429200E+03  0.7546771E-02  0.1117863E+00
         21   -1    0    0  502  501  0.00000000000E+00  0.00000000000E+00  0.70924052288E+03  0.70924052288E+03  0.00000000000E+00 0. -1.
         21   -1    0    0  501  502 -0.00000000000E+00 -0.00000000000E+00 -0.83201831683E+02  0.83201831683E+02  0.00000000000E+00 0. -1.
         25    1    1    2    0    0  0.11307660571E+02 -0.48373709352E+02  0.22011486667E+03  0.25796013931E+03  0.12500000000E+03 0.  0.
         25    1    1    2    0    0 -0.10714652670E+03  0.46577638128E+02  0.29769768421E+03  0.34336389697E+03  0.12500000000E+03 0.  0.
         25    1    1    2    0    0  0.95838866134E+02  0.17960712236E+01  0.10822614031E+03  0.19111831827E+03  0.12500000000E+03 0.  0.
</event>
<event>
 5    0  0.5677492E-005  0.2905545E+03  0.7546771E-02  0.1090060E+00
         21   -1    0    0  502  501  0.00000000000E+00  0.00000000000E+00  0.35610672964E+02  0.35610672964E+02  0.00000000000E+00 0.  1.
         21   -1    0    0  501  502 -0.00000000000E+00 -0.00000000000E+00 -0.23706907393E+04  0.23706907393E+04  0.00000000000E+00 0.  1.
         25    1    1    2    0    0 -0.49509730831E+02  0.48472480733E+02 -0.26726895294E+03  0.30308165243E+03  0.12500000000E+03 0.  0.
         25    1    1    2    0    0  0.20866195521E+02  0.12240487258E+02 -0.17564016639E+04  0.17610102307E+04  0.12500000000E+03 0.  0.
         25    1    1    2    0    0  0.28643535310E+02 -0.60712967990E+02 -0.31140944946E+03  0.34220952910E+03  0.12500000000E+03 0.  0.
</event>
<event>
 5    0  0.5677492E-005  0.3133675E+03  0.7546771E-02  0.1078743E+00
         21   -1    0    0  502  501  0.00000000000E+00  0.00000000000E+00  0.11791851777E+03  0.11791851777E+03  0.00000000000E+00 0.  1.
         21   -1    0    0  501  502 -0.00000000000E+00 -0.00000000000E+00 -0.83277144189E+03  0.83277144189E+03  0.00000000000E+00 0.  1.
         25    1    1    2    0    0  0.44519643650E+02  0.97795850684E+02 -0.18821753025E+03  0.25019365655E+03  0.12500000000E+03 0.  0.
         25    1    1    2    0    0  0.61735190584E+02 -0.11309144377E+03 -0.50295772527E+03  0.53403406429E+03  0.12500000000E+03 0.  0.
         25    1    1    2    0    0 -0.10625483423E+03  0.15295593083E+02 -0.23677668597E+02  0.16646223883E+03  0.12500000000E+03 0.  0.
</event>
<event>
 5    0  0.5677492E-005  0.3851141E+03  0.7546771E-02  0.1049060E+00
         21   -1    0    0  502  501  0.00000000000E+00  0.00000000000E+00  0.29513991908E+03  0.29513991908E+03  0.00000000000E+00 0.  1.
         21   -1    0    0  501  502 -0.00000000000E+00 -0.00000000000E+00 -0.50251720199E+03  0.50251720199E+03  0.00000000000E+00 0.  1.
         25    1    1    2    0    0  0.47927482606E+02  0.70675587547E+02  0.44937283991E+02  0.15791276629E+03  0.12500000000E+03 0.  0.
         25    1    1    2    0    0 -0.93525733675E+01 -0.27083935313E+03 -0.26662781791E+03  0.40019597589E+03  0.12500000000E+03 0.  0.
         25    1    1    2    0    0 -0.38574909239E+02  0.20016376558E+03  0.14313251012E+02  0.23954837889E+03  0.12500000000E+03 0.  0.
</event>
<event>
 5    0  0.5677492E-005  0.2980887E+03  0.7546771E-02  0.1086200E+00
         21   -1    0    0  502  501  0.00000000000E+00  0.00000000000E+00  0.16266212638E+04  0.16266212638E+04  0.00000000000E+00 0. -1.
         21   -1    0    0  501  502 -0.00000000000E+00 -0.00000000000E+00 -0.54626638056E+02  0.54626638056E+02  0.00000000000E+00 0. -1.
         25    1    1    2    0    0 -0.23740720552E+02 -0.79915181597E+01  0.68952671684E+03  0.70121293443E+03  0.12500000000E+03 0.  0.
         25    1    1    2    0    0  0.17992664895E+03 -0.30422983483E+02  0.49884261535E+03  0.54568132808E+03  0.12500000000E+03 0.  0.
         25    1    1    2    0    0 -0.15618592840E+03  0.38414501643E+02  0.38362529360E+03  0.43435363939E+03  0.12500000000E+03 0.  0.
</event>
<event>
 5    0  0.5677492E-005  0.2842580E+03  0.7546771E-02  0.1093386E+00
         21   -1    0    0  502  501  0.00000000000E+00  0.00000000000E+00  0.10671447149E+04  0.10671447149E+04  0.00000000000E+00 0.  1.
         21   -1    0    0  501  502 -0.00000000000E+00 -0.00000000000E+00 -0.75718530027E+02  0.75718530027E+02  0.00000000000E+00 0.  1.
         25    1    1    2    0    0  0.30429151692E+02 -0.48127406372E+02  0.29485035415E+03  0.32527513255E+03  0.12500000000E+03 0.  0.
         25    1    1    2    0    0  0.42442805309E+02  0.17961156533E+03  0.45618302820E+03  0.50772990984E+03  0.12500000000E+03 0.  0.
         25    1    1    2    0    0 -0.72871957000E+02 -0.13148415896E+03  0.24039280252E+03  0.30985820253E+03  0.12500000000E+03 0.  0.
</event>
<event>
 5    0  0.5677492E-005  0.4560519E+03  0.7546771E-02  0.1025933E+00
         21   -1    0    0  502  501  0.00000000000E+00  0.00000000000E+00  0.53375035059E+03  0.53375035059E+03  0.00000000000E+00 0. -1.
         21   -1    0    0  501  502 -0.00000000000E+00 -0.00000000000E+00 -0.38966407077E+03  0.38966407077E+03  0.00000000000E+00 0. -1.
         25    1    1    2    0    0 -0.13790038996E+02 -0.83924321232E+02 -0.73848478143E+02  0.16826186316E+03  0.12500000000E+03 0.  0.
         25    1    1    2    0    0 -0.23938696577E+03 -0.18954290017E+03  0.97417835846E+02  0.34401724539E+03  0.12500000000E+03 0.  0.
         25    1    1    2    0    0  0.25317700477E+03  0.27346722140E+03  0.12051692211E+03  0.41113531281E+03  0.12500000000E+03 0.  0.
</event>
<event>
 5    0  0.5677492E-005  0.3160180E+03  0.7546771E-02  0.1077497E+00
         21   -1    0    0  502  501  0.00000000000E+00  0.00000000000E+00  0.69806611565E+03  0.69806611565E+03  0.00000000000E+00 0. -1.
         21   -1    0    0  501  502 -0.00000000000E+00 -0.00000000000E+00 -0.14306289657E+03  0.14306289657E+03  0.00000000000E+00 0. -1.
         25    1    1    2    0    0 -0.99174836579E+02 -0.18166356637E+03  0.33380998418E+03  0.41217885086E+03  0.12500000000E+03 0.  0.
         25    1    1    2    0    0  0.10747701441E+03  0.80491851674E+02  0.42316592113E+02  0.18827092389E+03  0.12500000000E+03 0.  0.
         25    1    1    2    0    0 -0.83021778335E+01  0.10117171470E+03  0.17887664279E+03  0.24067923746E+03  0.12500000000E+03 0.  0.
</event>
<event>
 5    0  0.5677492E-005  0.4928516E+03  0.7546771E-02  0.1015662E+00
         21   -1    0    0  502  501  0.00000000000E+00  0.00000000000E+00  0.13914282015E+04  0.13914282015E+04  0.00000000000E+00 0. -1.
         21   -1    0    0  501  502 -0.00000000000E+00 -0.00000000000E+00 -0.17457074203E+03  0.17457074203E+03  0.00000000000E+00 0. -1.
         25    1    1    2    0    0  0.50047935067E+02  0.23409381198E+03  0.22653783728E+03  0.35248985848E+03  0.12500000000E+03 0.  0.
         25    1    1    2    0    0  0.26176559494E+03 -0.63136160007E+02  0.27362052903E+03  0.40373332202E+03  0.12500000000E+03 0.  0.
         25    1    1    2    0    0 -0.31181353001E+03 -0.17095765197E+03  0.71669909318E+03  0.80977576305E+03  0.12500000000E+03 0.  0.
</event>
<event>
 5    0  0.5677492E-005  0.3995772E+03  0.7546771E-02  0.1043926E+00
         21   -1    0    0  502  501  0.00000000000E+00  0.00000000000E+00  0.19858042641E+04  0.19858042641E+04  0.00000000000E+00 0.  1.
         21   -1    0    0  501  502 -0.00000000000E+00 -0.00000000000E+00 -0.80401631749E+02  0.80401631749E+02  0.00000000000E+00 0.  1.
         25    1    1    2    0    0 -0.23035446898E+03 -0.39977688868E+02  0.14558583674E+04  0.14798006565E+04  0.12500000000E+03 0.  0.
         25    1    1    2    0    0  0.14236601377E+03 -0.29617734250E+02  0.15185539474E+03  0.24460243860E+03  0.12500000000E+03 0.  0.
         25    1    1    2    0    0  0.87988455217E+02  0.69595423119E+02  0.29768887025E+03  0.34180280081E+03  0.12500000000E+03 0.  0.
</event>
<event>
 5    0  0.7359937E-005  0.3565122E+03  0.7546771E-02  0.1059973E+00
         21   -1    0    0  502  501  0.00000000000E+00  0.00000000000E+00  0.24004978844E+03  0.24004978844E+03  0.00000000000E+00 0. -1.
         21   -1    0    0  501  502 -0.00000000000E+00 -0.00000000000E+00 -0.52947752672E+03  0.52947752672E+03  0.00000000000E+00 0. -1.
         25    1    1    2    0    0  0.13955404130E+03 -0.12505138473E+03 -0.20085207580E+03  0.30179419414E+03  0.12500000000E+03 0.  0.
         25    1    1    2    0    0 -0.98169310704E+02  0.49667430686E+02 -0.21380612153E+03  0.27100207534E+03  0.12500000000E+03 0.  0.
         25    1    1    2    0    0 -0.41384730600E+02  0.75383954042E+02  0.12523045906E+03  0.19673104567E+03  0.12500000000E+03 0.  0.
</event>
<event>
 5    0  0.5677492E-005  0.4426868E+03  0.7546771E-02  0.1029926E+00
         21   -1    0    0  502  501  0.00000000000E+00  0.00000000000E+00  0.57351643540E+03  0.57351643540E+03  0.00000000000E+00 0.  1.
         21   -1    0    0  501  502 -0.00000000000E+00 -0.00000000000E+00 -0.34170173231E+03  0.34170173231E+03  0.00000000000E+00 0.  1.
         25    1    1    2    0    0  0.51607422090E+02 -0.18115917693E+03  0.42191660787E+03  0.47866543368E+03  0.12500000000E+03 0.  0.
         25    1    1    2    0    0 -0.10939815136E+03  0.68020187916E+02 -0.49629497141E+01  0.17956706924E+03  0.12500000000E+03 0.  0.
         25    1    1    2    0    0  0.57790729273E+02  0.11313898901E+03 -0.18513895506E+03  0.25698566479E+03  0.12500000000E+03 0.  0.
</event>
<event>
 5    0  0.5677492E-005  0.2469816E+03  0.7546771E-02  0.1115227E+00
         21   -1    0    0  502  501  0.00000000000E+00  0.00000000000E+00  0.92322588772E+02  0.92322588772E+02  0.00000000000E+00 0.  1.
         21   -1    0    0  501  502 -0.00000000000E+00 -0.00000000000E+00 -0.66072571165E+03  0.66072571165E+03  0.00000000000E+00 0.  1.
         25    1    1    2    0    0  0.80939805232E+02  0.11726804564E+02 -0.15730671782E+03  0.21693126443E+03  0.12500000000E+03 0.  0.
         25    1    1    2    0    0  0.26464060309E+02  0.65175076972E+02 -0.27075006522E+03  0.30639636904E+03  0.12500000000E+03 0.  0.
         25    1    1    2    0    0 -0.10740386554E+03 -0.76901881536E+02 -0.14034633984E+03  0.22972066695E+03  0.12500000000E+03 0.  0.
</event>
<event>
 5    0  0.5677492E-005  0.3552316E+03  0.7546771E-02  0.1060488E+00
         21   -1    0    0  502  501  0.00000000000E+00  0.00000000000E+00  0.37532211257E+03  0.37532211257E+03  0.00000000000E+00 0.  1.
         21   -1    0    0  501  502 -0.00000000000E+00 -0.00000000000E+00 -0.33621642446E+03  0.33621642446E+03  0.00000000000E+00 0.  1.
         25    1    1    2    0    0  0.10421781329E+03 -0.60325200487E+02  0.85316539201E+02  0.19340215687E+03  0.12500000000E+03 0.  0.
         25    1    1    2    0    0 -0.12755961617E+03  0.21198572553E+03 -0.12632757523E+03  0.30461953281E+03  0.12500000000E+03 0.  0.
         25    1    1    2    0    0  0.23341802881E+02 -0.15166052504E+03  0.80116724136E+02  0.21351684735E+03  0.12500000000E+03 0.  0.
</event>
<event>
 5    0  0.5677492E-005  0.3596296E+03  0.7546771E-02  0.1058731E+00
         21   -1    0    0  502  501  0.00000000000E+00  0.00000000000E+00  0.12458413345E+03  0.12458413345E+03  0.00000000000E+00 0.  1.
         21   -1    0    0  501  502 -0.00000000000E+00 -0.00000000000E+00 -0.10381214371E+04  0.10381214371E+04  0.00000000000E+00 0.  1.
         25    1    1    2    0    0 -0.21376442070E+02  0.24596739691E+03 -0.37299648903E+03  0.46444406924E+03  0.12500000000E+03 0.  0.
         25    1    1    2    0    0  0.17646436423E+02 -0.22107005147E+03 -0.50556328040E+03  0.56604116004E+03  0.12500000000E+03 0.  0.
         25    1    1    2    0    0  0.37300056471E+01 -0.24897345445E+02 -0.34977534249E+02  0.13222034130E+03  0.12500000000E+03 0.  0.
</event>
<event>
 5    0  0.5677492E-005  0.6523485E+03  0.7546771E-02  0.9802382E-01
         21   -1    0    0  502  501  0.00000000000E+00  0.00000000000E+00  0.37037875819E+04  0.37037875819E+04  0.00000000000E+00 0. -1.
         21   -1    0    0  501  502 -0.00000000000E+00 -0.00000000000E+00 -0.11489822274E+03  0.11489822274E+03  0.00000000000E+00 0. -1.
         25    1    1    2    0    0  0.12302447697E+03  0.32474335239E+03  0.40637903793E+03  0.54896465216E+03  0.12500000000E+03 0.  0.
         25    1    1    2    0    0 -0.50928785674E+01 -0.37588049841E+03  0.29481160226E+04  0.29746134487E+04  0.12500000000E+03 0.  0.
         25    1    1    2    0    0 -0.11793159840E+03  0.51137146020E+02  0.23439429867E+03  0.29510770382E+03  0.12500000000E+03 0.  0.
</event>
<event>
 5    0  0.6722139E-005  0.4862879E+03  0.7546771E-02  0.1017421E+00
         21   -1    0    0  502  501  0.00000000000E+00  0.00000000000E+00  0.89296008072E+03  0.89296008072E+03  0.00000000000E+00 0. -1.
         21   -1    0    0  501  502 -0.00000000000E+00 -0.00000000000E+00 -0.26482245543E+03  0.26482245543E+03  0.00000000000E+00 0. -1.
         25    1    1    2    0    0 -0.23764999268E+03 -0.17012458053E+03  0.11364290707E+03  0.33757903112E+03  0.12500000000E+03 0.  0.
         25    1    1    2    0    0 -0.66618291102E+02  0.26016398451E+03  0.26729264834E+03  0.39899079613E+03  0.12500000000E+03 0.  0.
         25    1    1    2    0    0  0.30426828378E+03 -0.90039403979E+02  0.24720206989E+03  0.42121270890E+03  0.12500000000E+03 0.  0.
</event>
<event>
 5    0  0.5677492E-005  0.2892999E+03  0.7546771E-02  0.1090715E+00
         21   -1    0    0  502  501  0.00000000000E+00  0.00000000000E+00  0.37609444825E+03  0.37609444825E+03  0.00000000000E+00 0.  1.
         21   -1    0    0  501  502 -0.00000000000E+00 -0.00000000000E+00 -0.22253571619E+03  0.22253571619E+03  0.00000000000E+00 0.  1.
         25    1    1    2    0    0  0.35273213129E+02 -0.27090737393E+01  0.18331565910E+03  0.22468014936E+03  0.12500000000E+03 0.  0.
         25    1    1    2    0    0 -0.36676445590E+02 -0.50991580469E+02  0.11070547672E+03  0.17839844594E+03  0.12500000000E+03 0.  0.
         25    1    1    2    0    0  0.14032324613E+01  0.53700654209E+02 -0.14046240375E+03  0.19555156914E+03  0.12500000000E+03 0.  0.
</event>
<event>
 5    0  0.5869533E-005  0.4079932E+03  0.7546771E-02  0.1041047E+00
         21   -1    0    0  502  501  0.00000000000E+00  0.00000000000E+00  0.46547033421E+03  0.46547033421E+03  0.00000000000E+00 0. -1.
         21   -1    0    0  501  502 -0.00000000000E+00 -0.00000000000E+00 -0.35761339060E+03  0.35761339060E+03  0.00000000000E+00 0. -1.
         25    1    1    2    0    0  0.27893077491E+02  0.22576725138E+03  0.16085037900E+03  0.30536325907E+03  0.12500000000E+03 0.  0.
         25    1    1    2    0    0 -0.75217198877E+02  0.14768365876E+02 -0.16489598602E+03  0.22066131932E+03  0.12500000000E+03 0.  0.
         25    1    1    2    0    0  0.47324121387E+02 -0.24053561726E+03  0.11190255064E+03  0.29705914642E+03  0.12500000000E+03 0.  0.
</event>
<event>
 5    0  0.5677492E-005  0.3640470E+03  0.7546771E-02  0.1056993E+00
         21   -1    0    0  502  501  0.00000000000E+00  0.00000000000E+00  0.38381733939E+03  0.38381733939E+03  0.00000000000E+00 0. -1.
         21   -1    0    0  501  502 -0.00000000000E+00 -0.00000000000E+00 -0.34529499144E+03  0.34529499144E+03  0.00000000000E+00 0. -1.
         25    1    1    2    0    0 -0.22364435238E+02 -0.65541717618E+00  0.25992503991E+03  0.28928640464E+03  0.12500000000E+03 0.  0.
         25    1    1    2    0    0  0.64172247315E+02  0.56408998522E+02  0.26372449040E+02  0.15368981264E+03  0.12500000000E+03 0.  0.
         25    1    1    2    0    0 -0.41807812077E+02 -0.55753581346E+02 -0.24777514100E+03  0.28613611355E+03  0.12500000000E+03 0.  0.
</event>
<event>
 5    0  0.5677492E-005  0.3962622E+03  0.7546771E-02  0.1045082E+00
         21   -1    0    0  502  501  0.00000000000E+00  0.00000000000E+00  0.86547840541E+03  0.86547840541E+03  0.00000000000E+00 0.  1.
         21   -1    0    0  501  502 -0.00000000000E+00 -0.00000000000E+00 -0.18142995902E+03  0.18142995902E+03  0.00000000000E+00 0.  1.
         25    1    1    2    0    0 -0.30206827682E+02  0.51448290653E+02  0.38545926158E+03  0.40958908847E+03  0.12500000000E+03 0.  0.
         25    1    1    2    0    0 -0.15819657801E+02  0.37116973246E+02  0.41771158390E+03  0.43787657918E+03  0.12500000000E+03 0.  0.
         25    1    1    2    0    0  0.46026485483E+02 -0.88565263899E+02 -0.11912239909E+03  0.19944269678E+03  0.12500000000E+03 0.  0.
</event>
<event>
 5    0  0.5677492E-005  0.3644999E+03  0.7546771E-02  0.1056816E+00
         21   -1    0    0  502  501  0.00000000000E+00  0.00000000000E+00  0.10604234893E+03  0.10604234893E+03  0.00000000000E+00 0. -1.
         21   -1    0    0  501  502 -0.00000000000E+00 -0.00000000000E+00 -0.12528970259E+04  0.12528970259E+04  0.00000000000E+00 0. -1.
         25    1    1    2    0    0  0.17696212985E+01  0.17170932370E+01 -0.38287357973E+03  0.40276948497E+03  0.12500000000E+03 0.  0.
         25    1    1    2    0    0  0.23994651662E+03 -0.95424477511E+02 -0.36653630706E+03  0.46546108983E+03  0.12500000000E+03 0.  0.
         25    1    1    2    0    0 -0.24171613792E+03  0.93707384274E+02 -0.39744479019E+03  0.49070880005E+03  0.12500000000E+03 0.  0.
</event>
<event>
 5    0  0.5677492E-005  0.3340696E+03  0.7546771E-02  0.1069350E+00
         21   -1    0    0  502  501  0.00000000000E+00  0.00000000000E+00  0.72332057120E+03  0.72332057120E+03  0.00000000000E+00 0.  1.
         21   -1    0    0  501  502 -0.00000000000E+00 -0.00000000000E+00 -0.15429193561E+03  0.15429193561E+03  0.00000000000E+00 0.  1.
         25    1    1    2    0    0 -0.15956850945E+03 -0.34341012243E+02  0.55548711941E+02  0.21296026326E+03  0.12500000000E+03 0.  0.
         25    1    1    2    0    0  0.14677121703E+02  0.45666729919E+02  0.43905763929E+03  0.45901795035E+03  0.12500000000E+03 0.  0.
         25    1    1    2    0    0  0.14489138775E+03 -0.11325717676E+02  0.74422284356E+02  0.20563429319E+03  0.12500000000E+03 0.  0.
</event>
<event>
 5    0  0.5677492E-005  0.2144957E+03  0.7546771E-02  0.1138055E+00
         21   -1    0    0  502  501  0.00000000000E+00  0.00000000000E+00  0.16336636408E+03  0.16336636408E+03  0.00000000000E+00 0. -1.
         21   -1    0    0  501  502 -0.00000000000E+00 -0.00000000000E+00 -0.28162720361E+03  0.28162720361E+03  0.00000000000E+00 0. -1.
         25    1    1    2    0    0 -0.34646794342E+02  0.14105695883E+02 -0.50406669563E+02  0.13987567105E+03  0.12500000000E+03 0.  0.
         25    1    1    2    0    0 -0.30719723893E+02  0.42783844600E+02  0.65369350469E+01  0.13580092163E+03  0.12500000000E+03 0.  0.
         25    1    1    2    0    0  0.65366518234E+02 -0.56889540483E+02 -0.74391105011E+02  0.16931697501E+03  0.12500000000E+03 0.  0.
</event>
<event>
 5    0  0.6161492E-005  0.2636515E+03  0.7546771E-02  0.1104969E+00
         21   -1    0    0  502  501  0.00000000000E+00  0.00000000000E+00  0.11543470839E+04  0.11543470839E+04  0.00000000000E+00 0.  1.
         21   -1    0    0  501  502 -0.00000000000E+00 -0.00000000000E+00 -0.60217708474E+02  0.60217708474E+02  0.00000000000E+00 0.  1.
         25    1    1    2    0    0  0.70656687221E+01 -0.80585441934E+02  0.38823336175E+03  0.41580533943E+03  0.12500000000E+03 0.  0.
         25    1    1    2    0    0 -0.29016068005E+02  0.16689519807E+03  0.49516646957E+03  0.53806205211E+03  0.12500000000E+03 0.  0.
         25    1    1    2    0    0  0.21950399283E+02 -0.86309756137E+02  0.21072954407E+03  0.26069740079E+03  0.12500000000E+03 0.  0.
</event>
<event>
 5    0  0.5677492E-005  0.2725634E+03  0.7546771E-02  0.1099821E+00
         21   -1    0    0  502  501  0.00000000000E+00  0.00000000000E+00  0.16547558293E+03  0.16547558293E+03  0.00000000000E+00 0.  1.
         21   -1    0    0  501  502 -0.00000000000E+00 -0.00000000000E+00 -0.44895339430E+03  0.44895339430E+03  0.00000000000E+00 0.  1.
         25    1    1    2    0    0 -0.51320506337E+02 -0.16618705901E+03 -0.14085608595E+03  0.25635399334E+03  0.12500000000E+03 0.  0.
         25    1    1    2    0    0 -0.29524703479E+02  0.47396756210E+02 -0.45357896497E+02  0.14422378233E+03  0.12500000000E+03 0.  0.
         25    1    1    2    0    0  0.80845209815E+02  0.11879030280E+03 -0.97263828923E+02  0.21385120155E+03  0.12500000000E+03 0.  0.
</event>
<event>
 5    0  0.5677492E-005  0.2933001E+03  0.7546771E-02  0.1088639E+00
         21   -1    0    0  502  501  0.00000000000E+00  0.00000000000E+00  0.55488553762E+03  0.55488553762E+03  0.00000000000E+00 0.  1.
         21   -1    0    0  501  502 -0.00000000000E+00 -0.00000000000E+00 -0.15503192608E+03  0.15503192608E+03  0.00000000000E+00 0.  1.
         25    1    1    2    0    0  0.36447484663E+02 -0.11908397778E+03 -0.10064540499E+02  0.17673626645E+03  0.12500000000E+03 0.  0.
         25    1    1    2    0    0  0.43375919688E+02  0.71921518668E+02  0.31944496944E+03  0.35316322537E+03  0.12500000000E+03 0.  0.
         25    1    1    2    0    0 -0.79823404352E+02  0.47162459110E+02  0.90473182608E+02  0.18001797189E+03  0.12500000000E+03 0.  0.
</event>
<event>
 5    0  0.5677492E-005  0.2484027E+03  0.7546771E-02  0.1114318E+00
         21   -1    0    0  502  501  0.00000000000E+00  0.00000000000E+00  0.20360684520E+03  0.20360684520E+03  0.00000000000E+00 0. -1.
         21   -1    0    0  501  502 -0.00000000000E+00 -0.00000000000E+00 -0.30305414810E+03  0.30305414810E+03  0.00000000000E+00 0. -1.
         25    1    1    2    0    0 -0.96771890604E+02 -0.64782470318E+02  0.26059211305E+02  0.17281680985E+03  0.12500000000E+03 0.  0.
         25    1    1    2    0    0 -0.10684461164E+02 -0.14673411860E+02 -0.48194705042E+02  0.13519318148E+03  0.12500000000E+03 0.  0.
         25    1    1    2    0    0  0.10745635177E+03  0.79455882179E+02 -0.77311809163E+02  0.19865100197E+03  0.12500000000E+03 0.  0.
</event>
<event>
 5    0  0.5677492E-005  0.3548451E+03  0.7546771E-02  0.1060644E+00
         21   -1    0    0  502  501  0.00000000000E+00  0.00000000000E+00  0.12860920817E+04  0.12860920817E+04  0.00000000000E+00 0. -1.
         21   -1    0    0  501  502 -0.00000000000E+00 -0.00000000000E+00 -0.97905166982E+02  0.97905166982E+02  0.00000000000E+00 0. -1.
         25    1    1    2    0    0  0.12208236655E+02 -0.82412865471E+02  0.10645308296E+03  0.18411458473E+03  0.12500000000E+03 0.  0.
         25    1    1    2    0    0  0.78465379300E+02 -0.14886831920E+03  0.67778683990E+03  0.70946359494E+03  0.12500000000E+03 0.  0.
         25    1    1    2    0    0 -0.90673615956E+02  0.23128118467E+03  0.40394699182E+03  0.49041906897E+03  0.12500000000E+03 0.  0.
</event>
<event>
 5    0  0.5677492E-005  0.3854168E+03  0.7546771E-02  0.1048950E+00
         21   -1    0    0  502  501  0.00000000000E+00  0.00000000000E+00  0.13419128260E+04  0.13419128260E+04  0.00000000000E+00 0. -1.
         21   -1    0    0  501  502 -0.00000000000E+00 -0.00000000000E+00 -0.11069726896E+03  0.11069726896E+03  0.00000000000E+00 0. -1.
         25    1    1    2    0    0 -0.15325928101E+03 -0.13808191452E+02  0.68606510781E+03  0.71413542520E+03  0.12500000000E+03 0.  0.
         25    1    1    2    0    0  0.31245781307E+02  0.98231056238E+02  0.51778870980E+03  0.54254565453E+03  0.12500000000E+03 0.  0.
         25    1    1    2    0    0  0.12201349970E+03 -0.84422864786E+02  0.27361739389E+02  0.19592901518E+03  0.12500000000E+03 0.  0.
</event>
<event>
 5    0  0.5677492E-005  0.3561915E+03  0.7546771E-02  0.1060102E+00
         21   -1    0    0  502  501  0.00000000000E+00  0.00000000000E+00  0.97764889910E+02  0.97764889910E+02  0.00000000000E+00 0. -1.
         21   -1    0    0  501  502 -0.00000000000E+00 -0.00000000000E+00 -0.12977293078E+04  0.12977293078E+04  0.00000000000E+00 0. -1.
         25    1    1    2    0    0  0.12146077056E+03  0.23295668942E+03 -0.49891313534E+03  0.57754727473E+03  0.12500000000E+03 0.  0.
         25    1    1    2    0    0 -0.13216381255E+03 -0.37662767833E+02 -0.36452846441E+03  0.40913537955E+03  0.12500000000E+03 0.  0.
         25    1    1    2    0    0  0.10703041986E+02 -0.19529392159E+03 -0.33652281812E+03  0.40881154342E+03  0.12500000000E+03 0.  0.
</event>
<event>
 5    0  0.5862765E-005  0.2747150E+03  0.7546771E-02  0.1098611E+00
         21   -1    0    0  502  501  0.00000000000E+00  0.00000000000E+00  0.23643626280E+03  0.23643626280E+03  0.00000000000E+00 0.  1.
         21   -1    0    0  501  502 -0.00000000000E+00 -0.00000000000E+00 -0.31919104740E+03  0.31919104740E+03  0.00000000000E+00 0.  1.
         25    1    1    2    0    0 -0.96764887617E+02 -0.52626506403E+02 -0.61219357590E+02  0.17749873914E+03  0.12500000000E+03 0.  0.
         25    1    1    2    0    0  0.86841925793E+02  0.77896662739E+02  0.10299636565E+03  0.19960626613E+03  0.12500000000E+03 0.  0.
         25    1    1    2    0    0  0.99229618238E+01 -0.25270156336E+02 -0.12453179267E+03  0.17852230493E+03  0.12500000000E+03 0.  0.
</event>
<event>
 5    0  0.5677492E-005  0.2943420E+03  0.7546771E-02  0.1088104E+00
         21   -1    0    0  502  501  0.00000000000E+00  0.00000000000E+00  0.11298843118E+04  0.11298843118E+04  0.00000000000E+00 0.  1.
         21   -1    0    0  501  502 -0.00000000000E+00 -0.00000000000E+00 -0.76677970004E+02  0.76677970004E+02  0.00000000000E+00 0.  1.
         25    1    1    2    0    0 -0.67274067891E+02 -0.60936660156E+02  0.43696483847E+03  0.46346774087E+03  0.12500000000E+03 0.  0.
         25    1    1    2    0    0 -0.12637525166E+03  0.23432600696E+02  0.22820916317E+03  0.29021408161E+03  0.12500000000E+03 0.  0.
         25    1    1    2    0    0  0.19364931955E+03  0.37504059459E+02  0.38803234011E+03  0.45288045929E+03  0.12500000000E+03 0.  0.
</event>
<event>
 5    0  0.5677492E-005  0.5181152E+03  0.7546771E-02  0.1009156E+00
         21   -1    0    0  502  501  0.00000000000E+00  0.00000000000E+00  0.21837416071E+04  0.21837416071E+04  0.00000000000E+00 0.  1.
         21   -1    0    0  501  502 -0.00000000000E+00 -0.00000000000E+00 -0.12292816363E+03  0.12292816363E+03  0.00000000000E+00 0.  1.
         25    1    1    2    0    0 -0.50538551897E+02 -0.19512627825E+02  0.71137208962E+03  0.72429975684E+03  0.12500000000E+03 0.  0.
         25    1    1    2    0    0 -0.17064235993E+03  0.32527436695E+03  0.42169716697E+03  0.57304077467E+03  0.12500000000E+03 0.  0.
         25    1    1    2    0    0  0.22118091183E+03 -0.30576173912E+03  0.92774418691E+03  0.10093292392E+04  0.12500000000E+03 0.  0.
</event>
<event>
 5    0  0.5677492E-005  0.5529338E+03  0.7546771E-02  0.1000817E+00
         21   -1    0    0  502  501  0.00000000000E+00  0.00000000000E+00  0.31088688222E+03  0.31088688222E+03  0.00000000000E+00 0. -1.
         21   -1    0    0  501  502 -0.00000000000E+00 -0.00000000000E+00 -0.98343106546E+03  0.98343106546E+03  0.00000000000E+00 0. -1.
         25    1    1    2    0    0  0.34751514480E+03 -0.19192516463E+03 -0.98885893543E+02  0.42779137979E+03  0.12500000000E+03 0.  0.
         25    1    1    2    0    0 -0.23938286684E+03  0.32738899545E+03 -0.30196635918E+03  0.52086120354E+03  0.12500000000E+03 0.  0.
         25    1    1    2    0    0 -0.10813227796E+03 -0.13546383082E+03 -0.27169193052E+03  0.34566536434E+03  0.12500000000E+03 0.  0.
</event>
<event>
 5    0  0.5677492E-005  0.3045439E+03  0.7546771E-02  0.1082991E+00
         21   -1    0    0  502  501  0.00000000000E+00  0.00000000000E+00  0.40446296859E+03  0.40446296859E+03  0.00000000000E+00 0. -1.
         21   -1    0    0  501  502 -0.00000000000E+00 -0.00000000000E+00 -0.22930891253E+03  0.22930891253E+03  0.00000000000E+00 0. -1.
         25    1    1    2    0    0 -0.28470797390E+02 -0.17571422093E+03  0.18897208706E+03  0.28813455785E+03  0.12500000000E+03 0.  0.
         25    1    1    2    0    0  0.42026396518E+02  0.17219624901E+03 -0.29465219868E+02  0.21888573585E+03  0.12500000000E+03 0.  0.
         25    1    1    2    0    0 -0.13555599128E+02  0.35179719205E+01  0.15647188868E+02  0.12675158742E+03  0.12500000000E+03 0.  0.
</event>
<event>
 5    0  0.5677492E-005  0.4565694E+03  0.7546771E-02  0.1025781E+00
         21   -1    0    0  502  501  0.00000000000E+00  0.00000000000E+00  0.50726646334E+03  0.50726646334E+03  0.00000000000E+00 0.  1.
         21   -1    0    0  501  502 -0.00000000000E+00 -0.00000000000E+00 -0.41093905319E+03  0.41093905319E+03  0.00000000000E+00 0.  1.
         25    1    1    2    0    0 -0.12035434863E+03  0.10788782370E+03 -0.90076833292E+02  0.22330200992E+03  0.12500000000E+03 0.  0.
         25    1    1    2    0    0  0.94874264049E+02 -0.20638884559E+03 -0.16567580444E+03  0.30768645361E+03  0.12500000000E+03 0.  0.
         25    1    1    2    0    0  0.25480084582E+02  0.98501021887E+02  0.35208004787E+03  0.38721705300E+03  0.12500000000E+03 0.  0.
</event>
<event>
 5    0  0.5677492E-005  0.2645636E+03  0.7546771E-02  0.1104432E+00
         21   -1    0    0  502  501  0.00000000000E+00  0.00000000000E+00  0.71870861539E+03  0.71870861539E+03  0.00000000000E+00 0. -1.
         21   -1    0    0  501  502 -0.00000000000E+00 -0.00000000000E+00 -0.97388445656E+02  0.97388445656E+02  0.00000000000E+00 0. -1.
         25    1    1    2    0    0  0.58422285003E+02 -0.12495214187E+03  0.30198613099E+03  0.35474895977E+03  0.12500000000E+03 0.  0.
         25    1    1    2    0    0 -0.19967045417E+02  0.45741934521E+02  0.35896742880E+02  0.13930033606E+03  0.12500000000E+03 0.  0.
         25    1    1    2    0    0 -0.38455239586E+02  0.79210207349E+02  0.28343729586E+03  0.32204776522E+03  0.12500000000E+03 0.  0.
</event>
<event>
 5    0  0.5677492E-005  0.2850420E+03  0.7546771E-02  0.1092967E+00
         21   -1    0    0  502  501  0.00000000000E+00  0.00000000000E+00  0.12236213671E+04  0.12236213671E+04  0.00000000000E+00 0.  1.
         21   -1    0    0  501  502 -0.00000000000E+00 -0.00000000000E+00 -0.66400384540E+02  0.66400384540E+02  0.00000000000E+00 0.  1.
         25    1    1    2    0    0 -0.30280199285E+00  0.31891169468E+02  0.65325086896E+03  0.66586698084E+03  0.12500000000E+03 0.  0.
         25    1    1    2    0    0 -0.20806457268E+02 -0.14777991344E+03  0.29824155313E+03  0.35615282604E+03  0.12500000000E+03 0.  0.
         25    1    1    2    0    0  0.21109259261E+02  0.11588874397E+03  0.20572856049E+03  0.26800194478E+03  0.12500000000E+03 0.  0.
</event>
<event>
 5    0  0.5677492E-005  0.2154351E+03  0.7546771E-02  0.1137333E+00
         21   -1    0    0  502  501  0.00000000000E+00  0.00000000000E+00  0.44460545262E+02  0.44460545262E+02  0.00000000000E+00 0. -1.
         21   -1    0    0  501  502 -0.00000000000E+00 -0.00000000000E+00 -0.10438979459E+04  0.10438979459E+04  0.00000000000E+00 0. -1.
         25    1    1    2    0    0 -0.49054456650E+02 -0.17884177695E+02 -0.30311914074E+03  0.33201264586E+03  0.12500000000E+03 0.  0.
         25    1    1    2    0    0 -0.33202059172E+02  0.16085071127E+02 -0.44652702807E+03  0.46515856764E+03  0.12500000000E+03 0.  0.
         25    1    1    2    0    0  0.82256515821E+02  0.17991065685E+01 -0.24979123186E+03  0.29118727770E+03  0.12500000000E+03 0.  0.
</event>
<event>
 5    0  0.5677492E-005  0.3595040E+03  0.7546771E-02  0.1058780E+00
         21   -1    0    0  502  501  0.00000000000E+00  0.00000000000E+00  0.63807414974E+03  0.63807414974E+03  0.00000000000E+00 0. -1.
         21   -1    0    0  501  502 -0.00000000000E+00 -0.00000000000E+00 -0.20255194543E+03  0.20255194543E+03  0.00000000000E+00 0.  1.
         25    1    1    2    0    0 -0.23624038477E+03 -0.14995214261E+03  0.22426102711E+03  0.37975409510E+03  0.12500000000E+03 0.  0.
         25    1    1    2    0    0  0.13887939838E+03  0.24772620889E+02  0.32657674267E+02  0.19129216850E+03  0.12500000000E+03 0.  0.
         25    1    1    2    0    0  0.97360986384E+02  0.12517952172E+03  0.17860350294E+03  0.26957983157E+03  0.12500000000E+03 0.  0.
</event>
<event>
 5    0  0.5677492E-005  0.3953175E+03  0.7546771E-02  0.1045413E+00
         21   -1    0    0  502  501  0.00000000000E+00  0.00000000000E+00  0.42137536988E+03  0.42137536988E+03  0.00000000000E+00 0. -1.
         21   -1    0    0  501  502 -0.00000000000E+00 -0.00000000000E+00 -0.37087098611E+03  0.37087098611E+03  0.00000000000E+00 0. -1.
         25    1    1    2    0    0  0.26078503919E+03 -0.18016156392E+02  0.14752687741E+02  0.29013110890E+03  0.12500000000E+03 0.  0.
         25    1    1    2    0    0 -0.10812346603E+03 -0.15874714956E+03 -0.24414924149E+02  0.23046134149E+03  0.12500000000E+03 0.  0.
         25    1    1    2    0    0 -0.15266157316E+03  0.17676330595E+03  0.60166620172E+02  0.27165390561E+03  0.12500000000E+03 0.  0.
</event>
<event>
 5    0  0.5677492E-005  0.2425098E+03  0.7546771E-02  0.1118132E+00
         21   -1    0    0  502  501  0.00000000000E+00  0.00000000000E+00  0.11038931774E+03  0.11038931774E+03  0.00000000000E+00 0. -1.
         21   -1    0    0  501  502 -0.00000000000E+00 -0.00000000000E+00 -0.53275969625E+03  0.53275969625E+03  0.00000000000E+00 0. -1.
         25    1    1    2    0    0  0.58707320281E+01  0.33226720464E+02 -0.20240809106E+03  0.24027591593E+03  0.12500000000E+03 0.  0.
         25    1    1    2    0    0 -0.10115194974E+03 -0.56156876387E+02 -0.15817061334E+03  0.23243978710E+03  0.12500000000E+03 0.  0.
         25    1    1    2    0    0  0.95281217709E+02  0.22930155923E+02 -0.61791674098E+02  0.17043331097E+03  0.12500000000E+03 0.  0.
</event>
<event>
 5    0  0.5677492E-005  0.3968750E+03  0.7546771E-02  0.1044867E+00
         21   -1    0    0  502  501  0.00000000000E+00  0.00000000000E+00  0.95357416024E+02  0.95357416024E+02  0.00000000000E+00 0.  1.
         21   -1    0    0  501  502 -0.00000000000E+00 -0.00000000000E+00 -0.16517829556E+04  0.16517829556E+04  0.00000000000E+00 0.  1.
         25    1    1    2    0    0 -0.19014198740E+02 -0.50721815355E+02 -0.46423182338E+03  0.48380825556E+03  0.12500000000E+03 0.  0.
         25    1    1    2    0    0  0.18956956944E+03  0.12659735925E+03 -0.97673392448E+03  0.10107411500E+04  0.12500000000E+03 0.  0.
         25    1    1    2    0    0 -0.17055537070E+03 -0.75875543891E+02 -0.11545979167E+03  0.25259096604E+03  0.12500000000E+03 0.  0.
</event>
<event>
 5    0  0.5677492E-005  0.4860868E+03  0.7546771E-02  0.1017476E+00
         21   -1    0    0  502  501  0.00000000000E+00  0.00000000000E+00  0.14281189285E+03  0.14281189285E+03  0.00000000000E+00 0.  1.
         21   -1    0    0  501  502 -0.00000000000E+00 -0.00000000000E+00 -0.16544864415E+04  0.16544864415E+04  0.00000000000E+00 0.  1.
         25    1    1    2    0    0 -0.24733311810E+02  0.93939904883E+02 -0.30044566382E+03  0.33960129469E+03  0.12500000000E+03 0.  0.
         25    1    1    2    0    0  0.18084230026E+03 -0.30638471298E+03 -0.10681033918E+04  0.11327159333E+04  0.12500000000E+03 0.  0.
         25    1    1    2    0    0 -0.15610898845E+03  0.21244480809E+03 -0.14312549301E+03  0.32498110639E+03  0.12500000000E+03 0.  0.
</event>
<event>
 5    0  0.5677492E-005  0.4065974E+03  0.7546771E-02  0.1041519E+00
         21   -1    0    0  502  501  0.00000000000E+00  0.00000000000E+00  0.26998743514E+03  0.26998743514E+03  0.00000000000E+00 0.  1.
         21   -1    0    0  501  502 -0.00000000000E+00 -0.00000000000E+00 -0.61233015337E+03  0.61233015337E+03  0.00000000000E+00 0. -1.
         25    1    1    2    0    0  0.12851918633E+03  0.21431483649E+03  0.84246294348E+01  0.27954249189E+03  0.12500000000E+03 0.  0.
         25    1    1    2    0    0  0.47790483305E+02  0.49765800483E+02 -0.14889404358E+03  0.20628863615E+03  0.12500000000E+03 0.  0.
         25    1    1    2    0    0 -0.17630966963E+03 -0.26408063697E+03 -0.20187330408E+03  0.39648646046E+03  0.12500000000E+03 0.  0.
</event>
<event>
 5    0  0.5677492E-005  0.3393058E+03  0.7546771E-02  0.1067092E+00
         21   -1    0    0  502  501  0.00000000000E+00  0.00000000000E+00  0.45898555590E+03  0.45898555590E+03  0.00000000000E+00 0.  1.
         21   -1    0    0  501  502 -0.00000000000E+00 -0.00000000000E+00 -0.25083238104E+03  0.25083238104E+03  0.00000000000E+00 0.  1.
         25    1    1    2    0    0  0.20598088504E+01 -0.16897846045E+03  0.24823728379E+03  0.32527636246E+03  0.12500000000E+03 0.  0.
         25    1    1    2    0    0  0.53670873617E+02  0.70498994804E+01 -0.94333675481E+02  0.16569280638E+03  0.12500000000E+03 0.  0.
         25    1    1    2    0    0 -0.55730682467E+02  0.16192856097E+03  0.54249566546E+02  0.21884876810E+03  0.12500000000E+03 0.  0.
</event>
<event>
 5    0  0.5677492E-005  0.2170363E+03  0.7546771E-02  0.1136112E+00
         21   -1    0    0  502  501  0.00000000000E+00  0.00000000000E+00  0.92859403589E+02  0.92859403589E+02  0.00000000000E+00 0.  1.
         21   -1    0    0  501  502 -0.00000000000E+00 -0.00000000000E+00 -0.50726963337E+03  0.50726963337E+03  0.00000000000E+00 0.  1.
         25    1    1    2    0    0  0.94189883444E+02 -0.28225510820E+02 -0.13864608817E+03  0.21098851004E+03  0.12500000000E+03 0.  0.
         25    1    1    2    0    0 -0.21737883580E+02  0.17600828707E+02 -0.15045236066E+03  0.19759361726E+03  0.12500000000E+03 0.  0.
         25    1    1    2    0    0 -0.72451999864E+02  0.10624682113E+02 -0.12531178095E+03  0.19154690965E+03  0.12500000000E+03 0.  0.
</event>
<event>
 5    0  0.5677492E-005  0.2925843E+03  0.7546771E-02  0.1089008E+00
         21   -1    0    0  502  501  0.00000000000E+00  0.00000000000E+00  0.11944014127E+04  0.11944014127E+04  0.00000000000E+00 0.  1.
         21   -1    0    0  501  502 -0.00000000000E+00 -0.00000000000E+00 -0.71672366420E+02  0.71672366420E+02  0.00000000000E+00 0.  1.
         25    1    1    2    0    0 -0.28896046016E+02  0.50716228571E+01  0.80341837938E+03  0.81361341874E+03  0.12500000000E+03 0.  0.
         25    1    1    2    0    0 -0.85031109773E+01 -0.12729218715E+02  0.29330661511E+03  0.31919916412E+03  0.12500000000E+03 0.  0.
         25    1    1    2    0    0  0.37399156994E+02  0.76575958579E+01  0.26004051786E+02  0.13326119626E+03  0.12500000000E+03 0.  0.
</event>
<event>
 5    0  0.5677492E-005  0.3671272E+03  0.7546771E-02  0.1055797E+00
         21   -1    0    0  502  501  0.00000000000E+00  0.00000000000E+00  0.46224088744E+03  0.46224088744E+03  0.00000000000E+00 0.  1.
         21   -1    0    0  501  502 -0.00000000000E+00 -0.00000000000E+00 -0.29158466773E+03  0.29158466773E+03  0.00000000000E+00 0.  1.
         25    1    1    2    0    0  0.77394123586E+01 -0.12801220382E+03  0.10655927890E+03  0.20839122522E+03  0.12500000000E+03 0.  0.
         25    1    1    2    0    0  0.22451305483E+03  0.86657778461E+02  0.13670685593E+01  0.27118729917E+03  0.12500000000E+03 0.  0.
         25    1    1    2    0    0 -0.23225246719E+03  0.41354425359E+02  0.62729872256E+02  0.27424703077E+03  0.12500000000E+03 0.  0.
</event>
<event>
 5    0  0.5677492E-005  0.2915970E+03  0.7546771E-02  0.1089518E+00
         21   -1    0    0  502  501  0.00000000000E+00  0.00000000000E+00  0.20760961133E+04  0.20760961133E+04  0.00000000000E+00 0. -1.
         21   -1    0    0  501  502 -0.00000000000E+00 -0.00000000000E+00 -0.40956103555E+02  0.40956103555E+02  0.00000000000E+00 0. -1.
         25    1    1    2    0    0 -0.86235285852E+02 -0.88842909808E+01  0.29843297412E+03  0.33496670759E+03  0.12500000000E+03 0.  0.
         25    1    1    2    0    0 -0.21906667428E+02 -0.11044666900E+03  0.47272676257E+03  0.50177082500E+03  0.12500000000E+03 0.  0.
         25    1    1    2    0    0  0.10814195328E+03  0.11933095998E+03  0.12639802730E+04  0.12803146842E+04  0.12500000000E+03 0.  0.
</event>
<event>
 5    0  0.5677492E-005  0.2723817E+03  0.7546771E-02  0.1099924E+00
         21   -1    0    0  502  501  0.00000000000E+00  0.00000000000E+00  0.60804817144E+03  0.60804817144E+03  0.00000000000E+00 0. -1.
         21   -1    0    0  501  502 -0.00000000000E+00 -0.00000000000E+00 -0.12201634646E+03  0.12201634646E+03  0.00000000000E+00 0. -1.
         25    1    1    2    0    0  0.79794800819E+02 -0.68609322120E+02  0.21963520779E+02  0.16486917712E+03  0.12500000000E+03 0.  0.
         25    1    1    2    0    0 -0.57657619208E+02 -0.45085159517E+02  0.27388384607E+03  0.30982968515E+03  0.12500000000E+03 0.  0.
         25    1    1    2    0    0 -0.22137181611E+02  0.11369448164E+03  0.19018445813E+03  0.25536565563E+03  0.12500000000E+03 0.  0.
</event>
<event>
 5    0  0.5677492E-005  0.4949144E+03  0.7546771E-02  0.1015115E+00
         21   -1    0    0  502  501  0.00000000000E+00  0.00000000000E+00  0.81655901876E+03  0.81655901876E+03  0.00000000000E+00 0.  1.
         21   -1    0    0  501  502 -0.00000000000E+00 -0.00000000000E+00 -0.29996639383E+03  0.29996639383E+03  0.00000000000E+00 0.  1.
         25    1    1    2    0    0 -0.28581446114E+03 -0.19452663210E+03  0.39014772876E+03  0.53606974085E+03  0.12500000000E+03 0.  0.
         25    1    1    2    0    0 -0.30203721121E+02  0.18642234877E+03  0.45129327671E+02  0.23092685661E+03  0.12500000000E+03 0.  0.
         25    1    1    2    0    0  0.31601818226E+03  0.81042833372E+01  0.81315568493E+02  0.34952881513E+03  0.12500000000E+03 0.  0.
</event>
<event>
 5    0  0.5677492E-005  0.2458673E+03  0.7546771E-02  0.1115945E+00
         21   -1    0    0  502  501  0.00000000000E+00  0.00000000000E+00  0.67654801285E+02  0.67654801285E+02  0.00000000000E+00 0. -1.
         21   -1    0    0  501  502 -0.00000000000E+00 -0.00000000000E+00 -0.89351752829E+03  0.89351752829E+03  0.00000000000E+00 0. -1.
         25    1    1    2    0    0 -0.47187122477E+02  0.77196371860E+02 -0.94311407638E+02  0.18084674718E+03  0.12500000000E+03 0.  0.
         25    1    1    2    0    0  0.16250688564E+02 -0.62690496670E+02 -0.34439600641E+03  0.37205885621E+03  0.12500000000E+03 0.  0.
         25    1    1    2    0    0  0.30936433913E+02 -0.14505875189E+02 -0.38715531296E+03  0.40826672619E+03  0.12500000000E+03 0.  0.
</event>
<event>
 5    0  0.5677492E-005  0.3250241E+03  0.7546771E-02  0.1073360E+00
         21   -1    0    0  502  501  0.00000000000E+00  0.00000000000E+00  0.10631098357E+04  0.10631098357E+04  0.00000000000E+00 0. -1.
         21   -1    0    0  501  502 -0.00000000000E+00 -0.00000000000E+00 -0.99369472964E+02  0.99369472964E+02  0.00000000000E+00 0. -1.
         25    1    1    2    0    0 -0.21583801688E+03  0.41188675601E+02  0.35153892382E+03  0.43299788855E+03  0.12500000000E+03 0.  0.
         25    1    1    2    0    0  0.13220914996E+03  0.78662170611E+02  0.24664712358E+03  0.31642819089E+03  0.12500000000E+03 0.  0.
         25    1    1    2    0    0  0.83628866916E+02 -0.11985084621E+03  0.36555431538E+03  0.41305322928E+03  0.12500000000E+03 0.  0.
</event>
<event>
 5    0  0.5677492E-005  0.3161496E+03  0.7546771E-02  0.1077435E+00
         21   -1    0    0  502  501  0.00000000000E+00  0.00000000000E+00  0.15844727276E+03  0.15844727276E+03  0.00000000000E+00 0. -1.
         21   -1    0    0  501  502 -0.00000000000E+00 -0.00000000000E+00 -0.63081281987E+03  0.63081281987E+03  0.00000000000E+00 0. -1.
         25    1    1    2    0    0  0.13935097139E+03  0.32868394414E+02 -0.13191471101E+03  0.23135582024E+03  0.12500000000E+03 0.  0.
         25    1    1    2    0    0 -0.11490910769E+03  0.12151952415E+03 -0.67499153598E+02  0.21943617185E+03  0.12500000000E+03 0.  0.
         25    1    1    2    0    0 -0.24441863695E+02 -0.15438791857E+03 -0.27295168250E+03  0.33846810054E+03  0.12500000000E+03 0.  0.
</event>
<event>
 5    0  0.5677492E-005  0.4052748E+03  0.7546771E-02  0.1041968E+00
         21   -1    0    0  502  501  0.00000000000E+00  0.00000000000E+00  0.62132234396E+03  0.62132234396E+03  0.00000000000E+00 0. -1.
         21   -1    0    0  501  502 -0.00000000000E+00 -0.00000000000E+00 -0.26435177973E+03  0.26435177973E+03  0.00000000000E+00 0. -1.
         25    1    1    2    0    0 -0.19313965402E+03 -0.42946242902E+02 -0.25626419188E+02  0.23543368300E+03  0.12500000000E+03 0.  0.
         25    1    1    2    0    0 -0.73093789989E+02 -0.19678486160E+02 -0.20255626810E+02  0.14753045574E+03  0.12500000000E+03 0.  0.
         25    1    1    2    0    0  0.26623344400E+03  0.62624729062E+02  0.40285261023E+03  0.50270998495E+03  0.12500000000E+03 0.  0.
</event>
<event>
 5    0  0.5677492E-005  0.5083070E+03  0.7546771E-02  0.1011633E+00
         21   -1    0    0  502  501  0.00000000000E+00  0.00000000000E+00  0.76034851185E+03  0.76034851185E+03  0.00000000000E+00 0.  1.
         21   -1    0    0  501  502 -0.00000000000E+00 -0.00000000000E+00 -0.33981259449E+03  0.33981259449E+03  0.00000000000E+00 0.  1.
         25    1    1    2    0    0 -0.95080264612E+02  0.15446837009E+03  0.47210787776E+03  0.52097176730E+03  0.12500000000E+03 0.  0.
         25    1    1    2    0    0  0.56574606499E+02 -0.33025462907E+03 -0.38552641034E+02  0.35969447070E+03  0.12500000000E+03 0.  0.
         25    1    1    2    0    0  0.38505658113E+02  0.17578625898E+03 -0.13019319370E+02  0.21949486834E+03  0.12500000000E+03 0.  0.
</event>
<event>
 5    0  0.5677492E-005  0.4774717E+03  0.7546771E-02  0.1019832E+00
         21   -1    0    0  502  501  0.00000000000E+00  0.00000000000E+00  0.66536195937E+03  0.66536195937E+03  0.00000000000E+00 0. -1.
         21   -1    0    0  501  502 -0.00000000000E+00 -0.00000000000E+00 -0.34263939890E+03  0.34263939890E+03  0.00000000000E+00 0. -1.
         25    1    1    2    0    0 -0.15396586731E+02 -0.12900710078E+03  0.52129617441E+02  0.18767627433E+03  0.12500000000E+03 0.  0.
         25    1    1    2    0    0 -0.93554487693E+02 -0.23911931550E+03 -0.67804780702E+02  0.29351827456E+03  0.12500000000E+03 0.  0.
         25    1    1    2    0    0  0.10895107442E+03  0.36812641628E+03  0.33839772373E+03  0.52680680938E+03  0.12500000000E+03 0.  0.
</event>
<event>
 5    0  0.5677492E-005  0.3920798E+03  0.7546771E-02  0.1046557E+00
         21   -1    0    0  502  501  0.00000000000E+00  0.00000000000E+00  0.83753467440E+03  0.83753467440E+03  0.00000000000E+00 0.  1.
         21   -1    0    0  501  502 -0.00000000000E+00 -0.00000000000E+00 -0.18354647551E+03  0.18354647551E+03  0.00000000000E+00 0.  1.
         25    1    1    2    0    0  0.13322099189E+03  0.14969176061E+03  0.15341208739E+03  0.28163047497E+03  0.12500000000E+03 0.  0.
         25    1    1    2    0    0  0.14186394789E+03  0.20984771954E+02  0.12255888721E+03  0.22629940609E+03  0.12500000000E+03 0.  0.
         25    1    1    2    0    0 -0.27508493978E+03 -0.17067653256E+03  0.37801722429E+03  0.51315126885E+03  0.12500000000E+03 0.  0.
</event>
<event>
 5    0  0.5677492E-005  0.4813376E+03  0.7546771E-02  0.1018768E+00
         21   -1    0    0  502  501  0.00000000000E+00  0.00000000000E+00  0.14250978104E+03  0.14250978104E+03  0.00000000000E+00 0. -1.
         21   -1    0    0  501  502 -0.00000000000E+00 -0.00000000000E+00 -0.16257544796E+04  0.16257544796E+04  0.00000000000E+00 0. -1.
         25    1    1    2    0    0  0.64290774446E+02 -0.29164538958E+02 -0.10557253360E+02  0.14394557864E+03  0.12500000000E+03 0.  0.
         25    1    1    2    0    0  0.28264153863E+03 -0.22212657258E+02 -0.74639869898E+03  0.80815571478E+03  0.12500000000E+03 0.  0.
         25    1    1    2    0    0 -0.34693231308E+03  0.51377196216E+02 -0.72628874623E+03  0.81616296721E+03  0.12500000000E+03 0.  0.
</event>
<event>
 5    0  0.5677492E-005  0.2574818E+03  0.7546771E-02  0.1108666E+00
         21   -1    0    0  502  501  0.00000000000E+00  0.00000000000E+00  0.14792122483E+03  0.14792122483E+03  0.00000000000E+00 0. -1.
         21   -1    0    0  501  502 -0.00000000000E+00 -0.00000000000E+00 -0.44819055798E+03  0.44819055798E+03  0.00000000000E+00 0.  1.
         25    1    1    2    0    0  0.14864022766E+02 -0.45191605642E+01 -0.14592485394E+03  0.19277039447E+03  0.12500000000E+03 0.  0.
         25    1    1    2    0    0 -0.74963264342E+02  0.11670884750E+03 -0.38541636736E+02  0.19065912999E+03  0.12500000000E+03 0.  0.
         25    1    1    2    0    0  0.60099241576E+02 -0.11218968694E+03 -0.11580284247E+03  0.21268225835E+03  0.12500000000E+03 0.  0.
</event>
<event>
 5    0  0.5677492E-005  0.3373858E+03  0.7546771E-02  0.1067915E+00
         21   -1    0    0  502  501  0.00000000000E+00  0.00000000000E+00  0.11222907198E+04  0.11222907198E+04  0.00000000000E+00 0.  1.
         21   -1    0    0  501  502 -0.00000000000E+00 -0.00000000000E+00 -0.10142577247E+03  0.10142577247E+03  0.00000000000E+00 0.  1.
         25    1    1    2    0    0 -0.10751578858E+03 -0.11143343149E+03  0.35737095548E+03  0.40904285139E+03  0.12500000000E+03 0.  0.
         25    1    1    2    0    0  0.10761481972E+03  0.21290669507E+03  0.56506781246E+03  0.62596872358E+03  0.12500000000E+03 0.  0.
         25    1    1    2    0    0 -0.99031130656E-01 -0.10147326358E+03  0.98426179429E+02  0.18870491733E+03  0.12500000000E+03 0.  0.
</event>
<event>
 5    0  0.5677492E-005  0.3237929E+03  0.7546771E-02  0.1073917E+00
         21   -1    0    0  502  501  0.00000000000E+00  0.00000000000E+00  0.34784451163E+03  0.34784451163E+03  0.00000000000E+00 0.  1.
         21   -1    0    0  501  502 -0.00000000000E+00 -0.00000000000E+00 -0.30140437759E+03  0.30140437759E+03  0.00000000000E+00 0.  1.
         25    1    1    2    0    0  0.57344875114E+01  0.83938160879E+02  0.68963970194E+02  0.16570916807E+03  0.12500000000E+03 0.  0.
         25    1    1    2    0    0  0.14678345130E+03 -0.17309432463E+03  0.30035480364E+02  0.26083358080E+03  0.12500000000E+03 0.  0.
         25    1    1    2    0    0 -0.15251793881E+03  0.89156163749E+02 -0.52559316521E+02  0.22270614034E+03  0.12500000000E+03 0.  0.
</event>
<event>
 5    0  0.6758151E-005  0.2759979E+03  0.7546771E-02  0.1097895E+00
         21   -1    0    0  502  501  0.00000000000E+00  0.00000000000E+00  0.13721492565E+03  0.13721492565E+03  0.00000000000E+00 0. -1.
         21   -1    0    0  501  502 -0.00000000000E+00 -0.00000000000E+00 -0.55514967008E+03  0.55514967008E+03  0.00000000000E+00 0. -1.
         25    1    1    2    0    0 -0.46681339136E+02  0.77893742847E+02 -0.36565827642E+02  0.15877229717E+03  0.12500000000E+03 0.  0.
         25    1    1    2    0    0 -0.19205805298E+02  0.52574319879E+02 -0.28990386238E+03  0.32062777717E+03  0.12500000000E+03 0.  0.
         25    1    1    2    0    0  0.65887144434E+02 -0.13046806273E+03 -0.91465054409E+02  0.21296452139E+03  0.12500000000E+03 0.  0.
</event>
<event>
 5    0  0.5677492E-005  0.3706976E+03  0.7546771E-02  0.1054427E+00
         21   -1    0    0  502  501  0.00000000000E+00  0.00000000000E+00  0.23543067832E+03  0.23543067832E+03  0.00000000000E+00 0.  1.
         21   -1    0    0  501  502 -0.00000000000E+00 -0.00000000000E+00 -0.58368234683E+03  0.58368234683E+03  0.00000000000E+00 0.  1.
         25    1    1    2    0    0  0.19634043824E+03  0.15143062560E+03 -0.49325309072E+02  0.28202621894E+03  0.12500000000E+03 0.  0.
         25    1    1    2    0    0  0.19056306787E+02  0.75372240187E+01 -0.17655952948E+03  0.21729753801E+03  0.12500000000E+03 0.  0.
         25    1    1    2    0    0 -0.21539674502E+03 -0.15896784962E+03 -0.12236682997E+03  0.31978926820E+03  0.12500000000E+03 0.  0.
</event>
<event>
 5    0  0.5677492E-005  0.3085744E+03  0.7546771E-02  0.1081031E+00
         21   -1    0    0  502  501  0.00000000000E+00  0.00000000000E+00  0.19449608894E+03  0.19449608894E+03  0.00000000000E+00 0.  1.
         21   -1    0    0  501  502 -0.00000000000E+00 -0.00000000000E+00 -0.48956334793E+03  0.48956334793E+03  0.00000000000E+00 0.  1.
         25    1    1    2    0    0 -0.50368008281E+02 -0.13726391749E+03  0.62173094018E+02  0.20216036437E+03  0.12500000000E+03 0.  0.
         25    1    1    2    0    0  0.93478396255E+02  0.97334986916E+02 -0.22564813497E+03  0.29112607417E+03  0.12500000000E+03 0.  0.
         25    1    1    2    0    0 -0.43110387974E+02  0.39928930571E+02 -0.13159221803E+03  0.19077299833E+03  0.12500000000E+03 0.  0.
</event>
<event>
 5    0  0.5677492E-005  0.5183898E+03  0.7546771E-02  0.1009087E+00
         21   -1    0    0  502  501  0.00000000000E+00  0.00000000000E+00  0.16454711928E+03  0.16454711928E+03  0.00000000000E+00 0.  1.
         21   -1    0    0  501  502 -0.00000000000E+00 -0.00000000000E+00 -0.16331372624E+04  0.16331372624E+04  0.00000000000E+00 0.  1.
         25    1    1    2    0    0  0.11547599207E+03  0.31344719689E+03 -0.72932163367E+03  0.81186137691E+03  0.12500000000E+03 0.  0.
         25    1    1    2    0    0 -0.96535801381E+02  0.58735004580E+02 -0.49534048191E+03  0.52321712007E+03  0.12500000000E+03 0.  0.
         25    1    1    2    0    0 -0.18940190686E+02 -0.37218220147E+03 -0.24392802749E+03  0.46260588465E+03  0.12500000000E+03 0.  0.
</event>
<event>
 5    0  0.5677492E-005  0.4822711E+03  0.7546771E-02  0.1018513E+00
         21   -1    0    0  502  501  0.00000000000E+00  0.00000000000E+00  0.19185284488E+03  0.19185284488E+03  0.00000000000E+00 0.  1.
         21   -1    0    0  501  502 -0.00000000000E+00 -0.00000000000E+00 -0.12123116427E+04  0.12123116427E+04  0.00000000000E+00 0.  1.
         25    1    1    2    0    0  0.92219871652E+02  0.30489645993E+03 -0.87394970153E+03  0.93855177630E+03  0.12500000000E+03 0.  0.
         25    1    1    2    0    0  0.22067580476E+02 -0.68514471833E+02 -0.88060693388E+02  0.16899969431E+03  0.12500000000E+03 0.  0.
         25    1    1    2    0    0 -0.11428745213E+03 -0.23638198810E+03 -0.58448402862E+02  0.29661301692E+03  0.12500000000E+03 0.  0.
</event>
<event>
 5    0  0.5677492E-005  0.3165444E+03  0.7546771E-02  0.1077251E+00
         21   -1    0    0  502  501  0.00000000000E+00  0.00000000000E+00  0.96698377200E+03  0.96698377200E+03  0.00000000000E+00 0.  1.
         21   -1    0    0  501  502 -0.00000000000E+00 -0.00000000000E+00 -0.10362153321E+03  0.10362153321E+03  0.00000000000E+00 0.  1.
         25    1    1    2    0    0  0.18612352727E+02  0.68333315010E+02  0.20713141208E+03  0.25207991488E+03  0.12500000000E+03 0.  0.
         25    1    1    2    0    0 -0.15413224406E+03  0.83608192165E+02  0.46523562556E+03  0.51265608915E+03  0.12500000000E+03 0.  0.
         25    1    1    2    0    0  0.13551989133E+03 -0.15194150717E+03  0.19099520115E+03  0.30586930119E+03  0.12500000000E+03 0.  0.
</event>
<event>
 5    0  0.5677492E-005  0.2802618E+03  0.7546771E-02  0.1095546E+00
         21   -1    0    0  502  501  0.00000000000E+00  0.00000000000E+00  0.44307784250E+03  0.44307784250E+03  0.00000000000E+00 0. -1.
         21   -1    0    0  501  502 -0.00000000000E+00 -0.00000000000E+00 -0.17727509388E+03  0.17727509388E+03  0.00000000000E+00 0. -1.
         25    1    1    2    0    0  0.81388968873E+02 -0.11279890026E+02 -0.34450938853E+02  0.15350331384E+03  0.12500000000E+03 0.  0.
         25    1    1    2    0    0  0.36293767768E+02 -0.23163257254E+00  0.25905983249E+03  0.28992117557E+03  0.12500000000E+03 0.  0.
         25    1    1    2    0    0 -0.11768273664E+03  0.11511522598E+02  0.41193854985E+02  0.17692844696E+03  0.12500000000E+03 0.  0.
</event>
<event>
 5    0  0.5677492E-005  0.2589480E+03  0.7546771E-02  0.1107777E+00
         21   -1    0    0  502  501  0.00000000000E+00  0.00000000000E+00  0.12931368863E+03  0.12931368863E+03  0.00000000000E+00 0. -1.
         21   -1    0    0  501  502 -0.00000000000E+00 -0.00000000000E+00 -0.51853816821E+03  0.51853816821E+03  0.00000000000E+00 0. -1.
         25    1    1    2    0    0  0.54741035496E+02  0.73384672491E+02 -0.35082362433E+02  0.15886366255E+03  0.12500000000E+03 0.  0.
         25    1    1    2    0    0 -0.69655892970E+02 -0.12470303597E+02 -0.31110776383E+03  0.34266673695E+03  0.12500000000E+03 0.  0.
         25    1    1    2    0    0  0.14914857475E+02 -0.60914368894E+02 -0.43034353320E+02  0.14632145734E+03  0.12500000000E+03 0.  0.
</event>
<event>
 5    0  0.5677492E-005  0.2926307E+03  0.7546771E-02  0.1088984E+00
         21   -1    0    0  502  501  0.00000000000E+00  0.00000000000E+00  0.42897955863E+03  0.42897955863E+03  0.00000000000E+00 0.  1.
         21   -1    0    0  501  502 -0.00000000000E+00 -0.00000000000E+00 -0.19961954773E+03  0.19961954773E+03  0.00000000000E+00 0.  1.
         25    1    1    2    0    0  0.27957456510E+02 -0.61065355412E+02  0.30501510455E+02  0.14514110082E+03  0.12500000000E+03 0.  0.
         25    1    1    2    0    0 -0.12320577853E+03  0.16347661170E+03  0.52483780285E+02  0.24552762294E+03  0.12500000000E+03 0.  0.
         25    1    1    2    0    0  0.95248322018E+02 -0.10241125628E+03  0.14637472017E+03  0.23793038260E+03  0.12500000000E+03 0.  0.
</event>
<event>
 5    0  0.5677492E-005  0.3015378E+03  0.7546771E-02  0.1084474E+00
         21   -1    0    0  502  501  0.00000000000E+00  0.00000000000E+00  0.77592988464E+03  0.77592988464E+03  0.00000000000E+00 0.  1.
         21   -1    0    0  501  502 -0.00000000000E+00 -0.00000000000E+00 -0.11718200356E+03  0.11718200356E+03  0.00000000000E+00 0.  1.
         25    1    1    2    0    0 -0.48959143063E+02  0.22603899925E+02  0.12957855584E+03  0.18794556689E+03  0.12500000000E+03 0.  0.
         25    1    1    2    0    0  0.44466996482E+02 -0.15374892483E+03  0.75537125453E+02  0.21667234015E+03  0.12500000000E+03 0.  0.
         25    1    1    2    0    0  0.44921465807E+01  0.13114502491E+03  0.45363219979E+03  0.48849398115E+03  0.12500000000E+03 0.  0.
</event>
<event>
 5    0  0.5677492E-005  0.3585445E+03  0.7546771E-02  0.1059162E+00
         21   -1    0    0  502  501  0.00000000000E+00  0.00000000000E+00  0.83623342410E+02  0.83623342410E+02  0.00000000000E+00 0.  1.
         21   -1    0    0  501  502 -0.00000000000E+00 -0.00000000000E+00 -0.15372998820E+04  0.15372998820E+04  0.00000000000E+00 0.  1.
         25    1    1    2    0    0 -0.42791663112E+01  0.33485274001E+02 -0.46299423417E+01  0.12956083978E+03  0.12500000000E+03 0.  0.
         25    1    1    2    0    0  0.61147989059E+02  0.80338611320E+02 -0.48412524030E+03  0.51009373387E+03  0.12500000000E+03 0.  0.
         25    1    1    2    0    0 -0.56868822747E+02 -0.11382388532E+03 -0.96492135695E+03  0.98126865076E+03  0.12500000000E+03 0.  0.
</event>
<event>
 5    0  0.5677492E-005  0.2068447E+03  0.7546771E-02  0.1144089E+00
         21   -1    0    0  502  501  0.00000000000E+00  0.00000000000E+00  0.32032258787E+03  0.32032258787E+03  0.00000000000E+00 0.  1.
         21   -1    0    0  501  502 -0.00000000000E+00 -0.00000000000E+00 -0.13356760101E+03  0.13356760101E+03  0.00000000000E+00 0.  1.
         25    1    1    2    0    0 -0.26635589204E+01 -0.64499538102E+02  0.98996294191E+02  0.17202485642E+03  0.12500000000E+03 0.  0.
         25    1    1    2    0    0 -0.17114711895E+02  0.53599930172E+02  0.68993256520E+02  0.15346313995E+03  0.12500000000E+03 0.  0.
         25    1    1    2    0    0  0.19778270815E+02  0.10899607931E+02  0.18765436154E+02  0.12840219252E+03  0.12500000000E+03 0.  0.
</event>
<event>
 5    0  0.5677492E-005  0.3011020E+03  0.7546771E-02  0.1084691E+00
         21   -1    0    0  502  501  0.00000000000E+00  0.00000000000E+00  0.34939101693E+03  0.34939101693E+03  0.00000000000E+00 0.  1.
         21   -1    0    0  501  502 -0.00000000000E+00 -0.00000000000E+00 -0.25948691455E+03  0.25948691455E+03  0.00000000000E+00 0.  1.
         25    1    1    2    0    0 -0.49474962781E+02 -0.97742801867E+01  0.71631812980E+01  0.13498007135E+03  0.12500000000E+03 0.  0.
         25    1    1    2    0    0  0.19751207069E+03  0.69421268684E+02  0.11331686559E+03  0.26887923431E+03  0.12500000000E+03 0.  0.
         25    1    1    2    0    0 -0.14803710791E+03 -0.59646988497E+02 -0.30575944510E+02  0.20501862583E+03  0.12500000000E+03 0.  0.
</event>
<event>
 5    0  0.5677492E-005  0.3783054E+03  0.7546771E-02  0.1051562E+00
         21   -1    0    0  502  501  0.00000000000E+00  0.00000000000E+00  0.38675221506E+03  0.38675221506E+03  0.00000000000E+00 0. -1.
         21   -1    0    0  501  502 -0.00000000000E+00 -0.00000000000E+00 -0.37004310087E+03  0.37004310087E+03  0.00000000000E+00 0. -1.
         25    1    1    2    0    0  0.37664387106E+02 -0.14963279444E+03  0.17183025727E+03  0.26260086927E+03  0.12500000000E+03 0.  0.
         25    1    1    2    0    0 -0.15598771082E+03  0.14992628498E+02 -0.18605183133E+03  0.27349082028E+03  0.12500000000E+03 0.  0.
         25    1    1    2    0    0  0.11832332371E+03  0.13464016594E+03  0.30930688246E+02  0.22070362637E+03  0.12500000000E+03 0.  0.
</event>
<event>
 5    0  0.5677492E-005  0.2853216E+03  0.7546771E-02  0.1092817E+00
         21   -1    0    0  502  501  0.00000000000E+00  0.00000000000E+00  0.13963913741E+04  0.13963913741E+04  0.00000000000E+00 0. -1.
         21   -1    0    0  501  502 -0.00000000000E+00 -0.00000000000E+00 -0.58299153851E+02  0.58299153851E+02  0.00000000000E+00 0. -1.
         25    1    1    2    0    0 -0.91579178594E+02  0.47782048777E+02  0.86258954718E+03  0.87769903557E+03  0.12500000000E+03 0.  0.
         25    1    1    2    0    0  0.54355776804E+02 -0.31671929318E+02  0.82155015869E+02  0.16227171106E+03  0.12500000000E+03 0.  0.
         25    1    1    2    0    0  0.37223401790E+02 -0.16110119459E+02  0.39334765716E+03  0.41471978128E+03  0.12500000000E+03 0.  0.
</event>
<event>
 5    0  0.5677492E-005  0.5091415E+03  0.7546771E-02  0.1011420E+00
         21   -1    0    0  502  501  0.00000000000E+00  0.00000000000E+00  0.12033565672E+04  0.12033565672E+04  0.00000000000E+00 0.  1.
         21   -1    0    0  501  502 -0.00000000000E+00 -0.00000000000E+00 -0.21541832526E+03  0.21541832526E+03  0.00000000000E+00 0.  1.
         25    1    1    2    0    0  0.23224352276E+03 -0.27172182679E+03  0.25773969364E+03  0.45806610297E+03  0.12500000000E+03 0.  0.
         25    1    1    2    0    0 -0.34025099455E+03  0.85802474187E+02  0.48402917525E+03  0.61077168104E+03  0.12500000000E+03 0.  0.
         25    1    1    2    0    0  0.10800747180E+03  0.18591935260E+03  0.24616937300E+03  0.34993710840E+03  0.12500000000E+03 0.  0.
</event>
<event>
 5    0  0.5677492E-005  0.2368141E+03  0.7546771E-02  0.1121934E+00
         21   -1    0    0  502  501  0.00000000000E+00  0.00000000000E+00  0.14251709837E+03  0.14251709837E+03  0.00000000000E+00 0.  1.
         21   -1    0    0  501  502 -0.00000000000E+00 -0.00000000000E+00 -0.39350323184E+03  0.39350323184E+03  0.00000000000E+00 0.  1.
         25    1    1    2    0    0 -0.10291293226E+03  0.18596368411E+02 -0.54305095227E+02  0.17178748474E+03  0.12500000000E+03 0.  0.
         25    1    1    2    0    0  0.14691958500E+02 -0.51237794957E+02 -0.37327538172E+02  0.14092377508E+03  0.12500000000E+03 0.  0.
         25    1    1    2    0    0  0.88220973759E+02  0.32641426546E+02 -0.15935350007E+03  0.22330907040E+03  0.12500000000E+03 0.  0.
</event>
<event>
 5    0  0.5677492E-005  0.2492899E+03  0.7546771E-02  0.1113754E+00
         21   -1    0    0  502  501  0.00000000000E+00  0.00000000000E+00  0.16038547556E+03  0.16038547556E+03  0.00000000000E+00 0. -1.
         21   -1    0    0  501  502 -0.00000000000E+00 -0.00000000000E+00 -0.38747544782E+03  0.38747544782E+03  0.00000000000E+00 0. -1.
         25    1    1    2    0    0 -0.50327180084E+02 -0.62045716765E+02 -0.96860431416E+02  0.17717064993E+03  0.12500000000E+03 0.  0.
         25    1    1    2    0    0  0.11357762284E+03 -0.90881303129E+01 -0.13040773590E+03  0.21357351921E+03  0.12500000000E+03 0.  0.
         25    1    1    2    0    0 -0.63250442759E+02  0.71133847078E+02  0.17819505963E+00  0.15711675424E+03  0.12500000000E+03 0.  0.
</event>
<event>
 5    0  0.5677492E-005  0.3145274E+03  0.7546771E-02  0.1078196E+00
         21   -1    0    0  502  501  0.00000000000E+00  0.00000000000E+00  0.41217504656E+03  0.41217504656E+03  0.00000000000E+00 0.  1.
         21   -1    0    0  501  502 -0.00000000000E+00 -0.00000000000E+00 -0.24001326130E+03  0.24001326130E+03  0.00000000000E+00 0.  1.
         25    1    1    2    0    0 -0.60636979092E+02  0.11077736186E+03 -0.63392250518E+02  0.18865853959E+03  0.12500000000E+03 0.  0.
         25    1    1    2    0    0 -0.26231827777E+02 -0.14590804404E+03  0.16689272032E+02  0.19462989983E+03  0.12500000000E+03 0.  0.
         25    1    1    2    0    0  0.86868806869E+02  0.35130682187E+02  0.21886476375E+03  0.26889986844E+03  0.12500000000E+03 0.  0.
</event>
<event>
 5    0  0.5677492E-005  0.2324095E+03  0.7546771E-02  0.1124955E+00
         21   -1    0    0  502  501  0.00000000000E+00  0.00000000000E+00  0.44943099657E+02  0.44943099657E+02  0.00000000000E+00 0. -1.
         21   -1    0    0  501  502 -0.00000000000E+00 -0.00000000000E+00 -0.12018350201E+04  0.12018350201E+04  0.00000000000E+00 0. -1.
         25    1    1    2    0    0 -0.27967543754E+02 -0.28079477180E+02 -0.29051149683E+03  0.31873589433E+03  0.12500000000E+03 0.  0.
         25    1    1    2    0    0 -0.29532880349E+02  0.95950717033E+02 -0.59579231642E+03  0.61698639809E+03  0.12500000000E+03 0.  0.
         25    1    1    2    0    0  0.57500424103E+02 -0.67871239852E+02 -0.27058810722E+03  0.31105582736E+03  0.12500000000E+03 0.  0.
</event>
<event>
 5    0  0.5677492E-005  0.2947422E+03  0.7546771E-02  0.1087899E+00
         21   -1    0    0  502  501  0.00000000000E+00  0.00000000000E+00  0.13032493439E+03  0.13032493439E+03  0.00000000000E+00 0. -1.
         21   -1    0    0  501  502 -0.00000000000E+00 -0.00000000000E+00 -0.66658756912E+03  0.66658756912E+03  0.00000000000E+00 0. -1.
         25    1    1    2    0    0  0.54257829300E+01  0.99341862814E+02 -0.39749964605E+03  0.42840309690E+03  0.12500000000E+03 0.  0.
         25    1    1    2    0    0 -0.63699659673E+02  0.16510109198E+02 -0.12369011303E+03  0.18776174906E+03  0.12500000000E+03 0.  0.
         25    1    1    2    0    0  0.58273876743E+02 -0.11585197201E+03 -0.15072875647E+02  0.18074765755E+03  0.12500000000E+03 0.  0.
</event>
<event>
 5    0  0.5677492E-005  0.2667550E+03  0.7546771E-02  0.1103151E+00
         21   -1    0    0  502  501  0.00000000000E+00  0.00000000000E+00  0.17059170202E+04  0.17059170202E+04  0.00000000000E+00 0. -1.
         21   -1    0    0  501  502 -0.00000000000E+00 -0.00000000000E+00 -0.41712607472E+02  0.41712607472E+02  0.00000000000E+00 0. -1.
         25    1    1    2    0    0  0.11221885750E+03  0.11951216596E+03  0.92516551029E+03  0.94785676725E+03  0.12500000000E+03 0.  0.
         25    1    1    2    0    0 -0.21775556492E+02 -0.55511850248E+02  0.34865019260E+03  0.37515023281E+03  0.12500000000E+03 0.  0.
         25    1    1    2    0    0 -0.90443301011E+02 -0.64000315711E+02  0.39038870982E+03  0.42462262759E+03  0.12500000000E+03 0.  0.
</event>
<event>
 5    0  0.6215082E-005  0.5030310E+03  0.7546771E-02  0.1012991E+00
         21   -1    0    0  502  501  0.00000000000E+00  0.00000000000E+00  0.54873595791E+03  0.54873595791E+03  0.00000000000E+00 0.  1.
         21   -1    0    0  501  502 -0.00000000000E+00 -0.00000000000E+00 -0.46113295209E+03  0.46113295209E+03  0.00000000000E+00 0.  1.
         25    1    1    2    0    0  0.25564309215E+03 -0.59260948797E+02  0.16134322772E+03  0.33244832342E+03  0.12500000000E+03 0.  0.
         25    1    1    2    0    0  0.12069645701E+02 -0.11380464742E+03 -0.24236280421E+03  0.29573958644E+03  0.12500000000E+03 0.  0.
         25    1    1    2    0    0 -0.26771273785E+03  0.17306559621E+03  0.16862258231E+03  0.38168100014E+03  0.12500000000E+03 0.  0.
</event>
<event>
 5    0  0.5677492E-005  0.5062904E+03  0.7546771E-02  0.1012150E+00
         21   -1    0    0  502  501  0.00000000000E+00  0.00000000000E+00  0.86239045659E+02  0.86239045659E+02  0.00000000000E+00 0. -1.
         21   -1    0    0  501  502 -0.00000000000E+00 -0.00000000000E+00 -0.29723194653E+04  0.29723194653E+04  0.00000000000E+00 0. -1.
         25    1    1    2    0    0 -0.11295574558E+03  0.23002066813E+02 -0.11033574387E+03  0.20269946204E+03  0.12500000000E+03 0.  0.
         25    1    1    2    0    0  0.44053421523E+02  0.93261944990E+02 -0.14135757067E+03  0.21504756943E+03  0.12500000000E+03 0.  0.
         25    1    1    2    0    0  0.68902324053E+02 -0.11626401180E+03 -0.26343871051E+04  0.26408114795E+04  0.12500000000E+03 0.  0.
</event>
<event>
 5    0  0.5677492E-005  0.4374902E+03  0.7546771E-02  0.1031520E+00
         21   -1    0    0  502  501  0.00000000000E+00  0.00000000000E+00  0.43032364832E+03  0.43032364832E+03  0.00000000000E+00 0.  1.
         21   -1    0    0  501  502 -0.00000000000E+00 -0.00000000000E+00 -0.44477614877E+03  0.44477614877E+03  0.00000000000E+00 0.  1.
         25    1    1    2    0    0  0.13818571041E+03  0.17352463109E+03  0.19880081449E+03  0.32303692049E+03  0.12500000000E+03 0.  0.
         25    1    1    2    0    0 -0.24641955343E+03 -0.19242499406E+02 -0.15947489803E+03  0.31960931338E+03  0.12500000000E+03 0.  0.
         25    1    1    2    0    0  0.10823384301E+03 -0.15428213168E+03 -0.53778416907E+02  0.23245356322E+03  0.12500000000E+03 0.  0.
</event>
<event>
 5    0  0.5677492E-005  0.2633894E+03  0.7546771E-02  0.1105124E+00
         21   -1    0    0  502  501  0.00000000000E+00  0.00000000000E+00  0.51984998752E+03  0.51984998752E+03  0.00000000000E+00 0. -1.
         21   -1    0    0  501  502 -0.00000000000E+00 -0.00000000000E+00 -0.13344997105E+03  0.13344997105E+03  0.00000000000E+00 0. -1.
         25    1    1    2    0    0 -0.81509821055E+02 -0.31954783344E+02  0.79592652177E+02  0.17211899775E+03  0.12500000000E+03 0.  0.
         25    1    1    2    0    0  0.67454944692E+02 -0.54313817461E+02  0.29035651267E+03  0.32776830960E+03  0.12500000000E+03 0.  0.
         25    1    1    2    0    0  0.14054876362E+02  0.86268600805E+02  0.16450851630E+02  0.15341265122E+03  0.12500000000E+03 0.  0.
</event>
<event>
 5    0  0.5955166E-005  0.2927435E+03  0.7546771E-02  0.1088925E+00
         21   -1    0    0  502  501  0.00000000000E+00  0.00000000000E+00  0.72768838825E+03  0.72768838825E+03  0.00000000000E+00 0.  1.
         21   -1    0    0  501  502 -0.00000000000E+00 -0.00000000000E+00 -0.11776844448E+03  0.11776844448E+03  0.00000000000E+00 0.  1.
         25    1    1    2    0    0  0.53176561736E+02  0.56490177697E+02  0.28062094837E+03  0.31684697183E+03  0.12500000000E+03 0.  0.
         25    1    1    2    0    0  0.11779630597E+03  0.56268711555E+01  0.22864609136E+03  0.28602738762E+03  0.12500000000E+03 0.  0.
         25    1    1    2    0    0 -0.17097286770E+03 -0.62117048852E+02  0.10065290404E+03  0.24258247328E+03  0.12500000000E+03 0.  0.
</event>
<event>
 5    0  0.5677492E-005  0.5670496E+03  0.7546771E-02  0.9976229E-01
         21   -1    0    0  502  501  0.00000000000E+00  0.00000000000E+00  0.81964701829E+03  0.81964701829E+03  0.00000000000E+00 0.  1.
         21   -1    0    0  501  502 -0.00000000000E+00 -0.00000000000E+00 -0.39229726491E+03  0.39229726491E+03  0.00000000000E+00 0.  1.
         25    1    1    2    0    0 -0.29179821847E+03  0.69060382751E+02  0.48012933610E+03  0.57971089015E+03  0.12500000000E+03 0.  0.
         25    1    1    2    0    0  0.41800659344E+03 -0.69797223833E+02  0.15020702109E+02  0.44209929440E+03  0.12500000000E+03 0.  0.
         25    1    1    2    0    0 -0.12620837497E+03  0.73684108172E+00 -0.67800284837E+02  0.19013409866E+03  0.12500000000E+03 0.  0.
</event>
<event>
 5    0  0.5677492E-005  0.2888359E+03  0.7546771E-02  0.1090959E+00
         21   -1    0    0  502  501  0.00000000000E+00  0.00000000000E+00  0.10854461971E+03  0.10854461971E+03  0.00000000000E+00 0.  1.
         21   -1    0    0  501  502 -0.00000000000E+00 -0.00000000000E+00 -0.76858872232E+03  0.76858872232E+03  0.00000000000E+00 0.  1.
         25    1    1    2    0    0  0.48127895846E+02  0.16172515984E+03 -0.31304336095E+03  0.37695154532E+03  0.12500000000E+03 0.  0.
         25    1    1    2    0    0 -0.94113805040E+02 -0.98032739048E+02 -0.93846987625E+02  0.20712335289E+03  0.12500000000E+03 0.  0.
         25    1    1    2    0    0  0.45985909194E+02 -0.63692420796E+02 -0.25315375404E+03  0.29305844382E+03  0.12500000000E+03 0.  0.
</event>
<event>
 5    0  0.5677492E-005  0.5481289E+03  0.7546771E-02  0.1001928E+00
         21   -1    0    0  502  501  0.00000000000E+00  0.00000000000E+00  0.18929225609E+03  0.18929225609E+03  0.00000000000E+00 0. -1.
         21   -1    0    0  501  502 -0.00000000000E+00 -0.00000000000E+00 -0.15872035347E+04  0.15872035347E+04  0.00000000000E+00 0. -1.
         25    1    1    2    0    0  0.40485434233E+02  0.17896589458E+03 -0.13294630361E+03  0.25878095265E+03  0.12500000000E+03 0.  0.
         25    1    1    2    0    0 -0.20593882836E+03  0.82060214575E+02 -0.11295958217E+04  0.11579103593E+04  0.12500000000E+03 0.  0.
         25    1    1    2    0    0  0.16545339413E+03 -0.26102610916E+03 -0.13536915325E+03  0.35980447877E+03  0.12500000000E+03 0.  0.
</event>
<event>
 5    0  0.5677492E-005  0.4014798E+03  0.7546771E-02  0.1043268E+00
         21   -1    0    0  502  501  0.00000000000E+00  0.00000000000E+00  0.12146221165E+04  0.12146221165E+04  0.00000000000E+00 0.  1.
         21   -1    0    0  501  502 -0.00000000000E+00 -0.00000000000E+00 -0.13270465449E+03  0.13270465449E+03  0.00000000000E+00 0.  1.
         25    1    1    2    0    0 -0.94038746526E+02  0.64859601388E+02  0.68903989099E+02  0.18281907300E+03  0.12500000000E+03 0.  0.
         25    1    1    2    0    0 -0.21071053636E+02  0.48400760968E+02  0.47512356959E+01  0.13577259372E+03  0.12500000000E+03 0.  0.
         25    1    1    2    0    0  0.11510980016E+03 -0.11326036236E+03  0.10082622372E+04  0.10287351043E+04  0.12500000000E+03 0.  0.
</event>
<event>
 5    0  0.5677492E-005  0.3733615E+03  0.7546771E-02  0.1053415E+00
         21   -1    0    0  502  501  0.00000000000E+00  0.00000000000E+00  0.17380314677E+03  0.17380314677E+03  0.00000000000E+00 0. -1.
         21   -1    0    0  501  502 -0.00000000000E+00 -0.00000000000E+00 -0.80205013170E+03  0.80205013170E+03  0.00000000000E+00 0. -1.
         25    1    1    2    0    0 -0.52912043290E+02  0.13042037036E+03 -0.10518228441E+03  0.21563272081E+03  0.12500000000E+03 0.  0.
         25    1    1    2    0    0  0.25200587250E+03 -0.17023934449E+02 -0.20348582102E+03  0.34760358668E+03  0.12500000000E+03 0.  0.
         25    1    1    2    0    0 -0.19909382921E+03 -0.11339643592E+03 -0.31957887951E+03  0.41261697097E+03  0.12500000000E+03 0.  0.
</event>
<event>
 5    0  0.5677492E-005  0.2562045E+03  0.7546771E-02  0.1109445E+00
         21   -1    0    0  502  501  0.00000000000E+00  0.00000000000E+00  0.27984693224E+03  0.27984693224E+03  0.00000000000E+00 0.  1.
         21   -1    0    0  501  502 -0.00000000000E+00 -0.00000000000E+00 -0.23455947203E+03  0.23455947203E+03  0.00000000000E+00 0.  1.
         25    1    1    2    0    0 -0.12642833760E+03 -0.99730089221E+02 -0.24122468850E+01  0.20386523534E+03  0.12500000000E+03 0.  0.
         25    1    1    2    0    0  0.68102956452E+02  0.71023786677E+02  0.57868909738E+02  0.16928142741E+03  0.12500000000E+03 0.  0.
         25    1    1    2    0    0  0.58325381147E+02  0.28706302543E+02 -0.10169202644E+02  0.14125974152E+03  0.12500000000E+03 0.  0.
</event>
<event>
 5    0  0.5677492E-005  0.2963530E+03  0.7546771E-02  0.1087078E+00
         21   -1    0    0  502  501  0.00000000000E+00  0.00000000000E+00  0.29313785427E+03  0.29313785427E+03  0.00000000000E+00 0. -1.
         21   -1    0    0  501  502 -0.00000000000E+00 -0.00000000000E+00 -0.29960345341E+03  0.29960345341E+03  0.00000000000E+00 0. -1.
         25    1    1    2    0    0 -0.17482061479E+03 -0.60971713108E+01  0.20339161747E+02  0.21595857092E+03  0.12500000000E+03 0.  0.
         25    1    1    2    0    0  0.12202894633E+03  0.10685099911E+03 -0.34209573327E+02  0.20761381134E+03  0.12500000000E+03 0.  0.
         25    1    1    2    0    0  0.52791668461E+02 -0.10075382780E+03  0.74048124418E+01  0.16916892541E+03  0.12500000000E+03 0.  0.
</event>
<event>
 5    0  0.5677492E-005  0.3085415E+03  0.7546771E-02  0.1081047E+00
         21   -1    0    0  502  501  0.00000000000E+00  0.00000000000E+00  0.70960906277E+03  0.70960906277E+03  0.00000000000E+00 0.  1.
         21   -1    0    0  501  502 -0.00000000000E+00 -0.00000000000E+00 -0.13415531517E+03  0.13415531517E+03  0.00000000000E+00 0.  1.
         25    1    1    2    0    0 -0.60002156982E+02 -0.73832813997E+02  0.48264746597E+03  0.50756784736E+03  0.12500000000E+03 0.  0.
         25    1    1    2    0    0  0.39769487801E+02 -0.50576463224E+02  0.70534353622E+02  0.15728854324E+03  0.12500000000E+03 0.  0.
         25    1    1    2    0    0  0.20232669181E+02  0.12440927722E+03  0.22271928009E+02  0.17890798735E+03  0.12500000000E+03 0.  0.
</event>
<event>
 5    0  0.5677492E-005  0.2388628E+03  0.7546771E-02  0.1120553E+00
         21   -1    0    0  502  501  0.00000000000E+00  0.00000000000E+00  0.68529195703E+03  0.68529195703E+03  0.00000000000E+00 0. -1.
         21   -1    0    0  501  502 -0.00000000000E+00 -0.00000000000E+00 -0.83257132001E+02  0.83257132001E+02  0.00000000000E+00 0. -1.
         25    1    1    2    0    0 -0.54379711048E+01  0.87292389099E+01  0.24121538810E+03  0.27187429926E+03  0.12500000000E+03 0.  0.
         25    1    1    2    0    0  0.96554361973E+02 -0.64639497616E+02  0.23062555776E+03  0.28690443942E+03  0.12500000000E+03 0.  0.
         25    1    1    2    0    0 -0.91116390868E+02  0.55910258706E+02  0.13019387917E+03  0.20977035035E+03  0.12500000000E+03 0.  0.
</event>
<event>
 5    0  0.5677492E-005  0.4983463E+03  0.7546771E-02  0.1014211E+00
         21   -1    0    0  502  501  0.00000000000E+00  0.00000000000E+00  0.31320294695E+03  0.31320294695E+03  0.00000000000E+00 0. -1.
         21   -1    0    0  501  502 -0.00000000000E+00 -0.00000000000E+00 -0.79293331161E+03  0.79293331161E+03  0.00000000000E+00 0. -1.
         25    1    1    2    0    0 -0.26635285299E+00  0.39311779521E+03 -0.33114015328E+03  0.52898059791E+03  0.12500000000E+03 0.  0.
         25    1    1    2    0    0 -0.95528046138E+02 -0.34213483430E+03 -0.16435155924E+03  0.41087502657E+03  0.12500000000E+03 0.  0.
         25    1    1    2    0    0  0.95794398991E+02 -0.50982960908E+02  0.15761347856E+02  0.16628063407E+03  0.12500000000E+03 0.  0.
</event>
<event>
 5    0  0.5677492E-005  0.5124504E+03  0.7546771E-02  0.1010579E+00
         21   -1    0    0  502  501  0.00000000000E+00  0.00000000000E+00  0.94934521634E+03  0.94934521634E+03  0.00000000000E+00 0. -1.
         21   -1    0    0  501  502 -0.00000000000E+00 -0.00000000000E+00 -0.27661738976E+03  0.27661738976E+03  0.00000000000E+00 0. -1.
         25    1    1    2    0    0 -0.12510718574E+03 -0.26667039963E+03  0.36970278237E+03  0.48894790853E+03  0.12500000000E+03 0.  0.
         25    1    1    2    0    0  0.13008024547E+03  0.41863860529E+03  0.12766350319E+03  0.47339425656E+03  0.12500000000E+03 0.  0.
         25    1    1    2    0    0 -0.49730597304E+01 -0.15196820566E+03  0.17536154101E+03  0.26362044102E+03  0.12500000000E+03 0.  0.
</event>
<event>
 5    0  0.5677492E-005  0.3578412E+03  0.7546771E-02  0.1059442E+00
         21   -1    0    0  502  501  0.00000000000E+00  0.00000000000E+00  0.79454603469E+02  0.79454603469E+02  0.00000000000E+00 0.  1.
         21   -1    0    0  501  502 -0.00000000000E+00 -0.00000000000E+00 -0.16116160784E+04  0.16116160784E+04  0.00000000000E+00 0.  1.
         25    1    1    2    0    0  0.17920468301E+03  0.41911367199E+02 -0.19302587099E+03  0.29454179328E+03  0.12500000000E+03 0.  0.
         25    1    1    2    0    0 -0.79270209279E+02 -0.13954741284E+03 -0.81040885262E+03  0.83555056994E+03  0.12500000000E+03 0.  0.
         25    1    1    2    0    0 -0.99934473733E+02  0.97636045641E+02 -0.52872675135E+03  0.56097831869E+03  0.12500000000E+03 0.  0.
</event>
<event>
 5    0  0.5677492E-005  0.2723481E+03  0.7546771E-02  0.1099943E+00
         21   -1    0    0  502  501  0.00000000000E+00  0.00000000000E+00  0.18109851710E+03  0.18109851710E+03  0.00000000000E+00 0.  1.
         21   -1    0    0  501  502 -0.00000000000E+00 -0.00000000000E+00 -0.40957538574E+03  0.40957538574E+03  0.00000000000E+00 0.  1.
         25    1    1    2    0    0 -0.75896436208E+02 -0.20223746314E+02 -0.26068743215E+03  0.29958672571E+03  0.12500000000E+03 0.  0.
         25    1    1    2    0    0  0.80356484207E+02 -0.55536685518E+01 -0.25620126232E+02  0.15089532351E+03  0.12500000000E+03 0.  0.
         25    1    1    2    0    0 -0.44600479987E+01  0.25777414866E+02  0.57830689744E+02  0.14019185362E+03  0.12500000000E+03 0.  0.
</event>
<event>
 5    0  0.6256147E-005  0.2606315E+03  0.7546771E-02  0.1106764E+00
         21   -1    0    0  502  501  0.00000000000E+00  0.00000000000E+00  0.23305425148E+03  0.23305425148E+03  0.00000000000E+00 0.  1.
         21   -1    0    0  501  502 -0.00000000000E+00 -0.00000000000E+00 -0.29147206260E+03  0.29147206260E+03  0.00000000000E+00 0.  1.
         25    1    1    2    0    0 -0.14171240636E+03  0.18213171882E+02  0.55485310312E+02  0.19778206543E+03  0.12500000000E+03 0.  0.
         25    1    1    2    0    0  0.62802301244E+02 -0.12134869177E+02 -0.63668871149E+00  0.14041648573E+03  0.12500000000E+03 0.  0.
         25    1    1    2    0    0  0.78910105117E+02 -0.60783027041E+01 -0.11326643272E+03  0.18632776292E+03  0.12500000000E+03 0.  0.
</event>
<event>
 5    0  0.6000325E-005  0.4758225E+03  0.7546771E-02  0.1020290E+00
         21   -1    0    0  502  501  0.00000000000E+00  0.00000000000E+00  0.62850039483E+03  0.62850039483E+03  0.00000000000E+00 0. -1.
         21   -1    0    0  501  502 -0.00000000000E+00 -0.00000000000E+00 -0.36023376951E+03  0.36023376951E+03  0.00000000000E+00 0. -1.
         25    1    1    2    0    0  0.30605954663E+03 -0.99885268534E+02  0.10376890610E+03  0.36061405800E+03  0.12500000000E+03 0.  0.
         25    1    1    2    0    0 -0.18982440711E+03 -0.16449803694E+03  0.18416959474E+02  0.28117093393E+03  0.12500000000E+03 0.  0.
         25    1    1    2    0    0 -0.11623513952E+03  0.26438330548E+03  0.14608075975E+03  0.34694917242E+03  0.12500000000E+03 0.  0.
</event>
<event>
 5    0  0.5677492E-005  0.2223384E+03  0.7546771E-02  0.1132152E+00
         21   -1    0    0  502  501  0.00000000000E+00  0.00000000000E+00  0.45112377534E+03  0.45112377534E+03  0.00000000000E+00 0.  1.
         21   -1    0    0  501  502 -0.00000000000E+00 -0.00000000000E+00 -0.10958047890E+03  0.10958047890E+03  0.00000000000E+00 0.  1.
         25    1    1    2    0    0 -0.39031059788E+02 -0.23002729214E+01  0.23151474248E+03  0.26599396773E+03  0.12500000000E+03 0.  0.
         25    1    1    2    0    0  0.51897745672E+02 -0.98088135670E+01  0.99023800136E+02  0.16798899316E+03  0.12500000000E+03 0.  0.
         25    1    1    2    0    0 -0.12866685884E+02  0.12109086488E+02  0.11004753828E+02  0.12672129335E+03  0.12500000000E+03 0.  0.
</event>
<event>
 5    0  0.5677492E-005  0.2247523E+03  0.7546771E-02  0.1130389E+00
         21   -1    0    0  502  501  0.00000000000E+00  0.00000000000E+00  0.22615232496E+03  0.22615232496E+03  0.00000000000E+00 0.  1.
         21   -1    0    0  501  502 -0.00000000000E+00 -0.00000000000E+00 -0.22336088279E+03  0.22336088279E+03  0.00000000000E+00 0.  1.
         25    1    1    2    0    0 -0.60857400372E+02  0.36373408770E+01 -0.26917811613E+02  0.14165599885E+03  0.12500000000E+03 0.  0.
         25    1    1    2    0    0  0.63541596981E+02  0.72319711492E+02  0.34433194017E+02  0.16148783257E+03  0.12500000000E+03 0.  0.
         25    1    1    2    0    0 -0.26841966085E+01 -0.75957052369E+02 -0.47239402411E+01  0.14636937633E+03  0.12500000000E+03 0.  0.
</event>
<event>
 5    0  0.5677492E-005  0.3638804E+03  0.7546771E-02  0.1057058E+00
         21   -1    0    0  502  501  0.00000000000E+00  0.00000000000E+00  0.60779973780E+02  0.60779973780E+02  0.00000000000E+00 0.  1.
         21   -1    0    0  501  502 -0.00000000000E+00 -0.00000000000E+00 -0.21784963807E+04  0.21784963807E+04  0.00000000000E+00 0.  1.
         25    1    1    2    0    0 -0.18932996326E+02  0.34277671876E+01 -0.40684473955E+03  0.42604911693E+03  0.12500000000E+03 0.  0.
         25    1    1    2    0    0  0.24351409454E+03 -0.10716803645E+03 -0.59778364802E+03  0.66614892638E+03  0.12500000000E+03 0.  0.
         25    1    1    2    0    0 -0.22458109821E+03  0.10374026926E+03 -0.11130880194E+04  0.11470783112E+04  0.12500000000E+03 0.  0.
</event>
<event>
 5    0  0.5677492E-005  0.2606706E+03  0.7546771E-02  0.1106741E+00
         21   -1    0    0  502  501  0.00000000000E+00  0.00000000000E+00  0.32659351948E+02  0.32659351948E+02  0.00000000000E+00 0. -1.
         21   -1    0    0  501  502 -0.00000000000E+00 -0.00000000000E+00 -0.20805428247E+04  0.20805428247E+04  0.00000000000E+00 0. -1.
         25    1    1    2    0    0  0.57801656468E+02 -0.47526287591E+02 -0.11863629994E+04  0.11952748412E+04  0.12500000000E+03 0.  0.
         25    1    1    2    0    0 -0.14234041098E+02  0.11206043072E+03 -0.42189107921E+03  0.45428760799E+03  0.12500000000E+03 0.  0.
         25    1    1    2    0    0 -0.43567615370E+02 -0.64534143127E+02 -0.43962939407E+03  0.46363972745E+03  0.12500000000E+03 0.  0.
</event>
<event>
 5    0  0.5677492E-005  0.3510758E+03  0.7546771E-02  0.1062174E+00
         21   -1    0    0  502  501  0.00000000000E+00  0.00000000000E+00  0.38459217709E+03  0.38459217709E+03  0.00000000000E+00 0.  1.
         21   -1    0    0  501  502 -0.00000000000E+00 -0.00000000000E+00 -0.32048028257E+03  0.32048028257E+03  0.00000000000E+00 0.  1.
         25    1    1    2    0    0 -0.98177803032E+02  0.87951227797E+02  0.38810127285E+02  0.18575662965E+03  0.12500000000E+03 0.  0.
         25    1    1    2    0    0  0.14466139267E+03 -0.31490697687E+02  0.20926107123E+03  0.28519077562E+03  0.12500000000E+03 0.  0.
         25    1    1    2    0    0 -0.46483589636E+02 -0.56460530109E+02 -0.18395930399E+03  0.23412505438E+03  0.12500000000E+03 0.  0.
</event>
<event>
 5    0  0.5677492E-005  0.2804721E+03  0.7546771E-02  0.1095431E+00
         21   -1    0    0  502  501  0.00000000000E+00  0.00000000000E+00  0.24407405167E+04  0.24407405167E+04  0.00000000000E+00 0.  1.
         21   -1    0    0  501  502 -0.00000000000E+00 -0.00000000000E+00 -0.32229803454E+02  0.32229803454E+02  0.00000000000E+00 0.  1.
         25    1    1    2    0    0  0.12801325589E+03  0.21634442393E+02  0.13799780178E+04  0.13916967243E+04  0.12500000000E+03 0.  0.
         25    1    1    2    0    0 -0.11278407063E+03  0.62717252718E+02  0.62108186245E+03  0.64654572942E+03  0.12500000000E+03 0.  0.
         25    1    1    2    0    0 -0.15229185255E+02 -0.84351695111E+02  0.40745083302E+03  0.43472786647E+03  0.12500000000E+03 0.  0.
</event>
<event>
 5    0  0.5677492E-005  0.2490212E+03  0.7546771E-02  0.1113925E+00
         21   -1    0    0  502  501  0.00000000000E+00  0.00000000000E+00  0.84787126370E+03  0.84787126370E+03  0.00000000000E+00 0.  1.
         21   -1    0    0  501  502 -0.00000000000E+00 -0.00000000000E+00 -0.73137917509E+02  0.73137917509E+02  0.00000000000E+00 0.  1.
         25    1    1    2    0    0 -0.95711028649E+01 -0.39373164953E+02  0.27547532405E+03  0.30521059334E+03  0.12500000000E+03 0.  0.
         25    1    1    2    0    0  0.66808738826E+02  0.80654615903E+02  0.99462087803E+02  0.19101382557E+03  0.12500000000E+03 0.  0.
         25    1    1    2    0    0 -0.57237635961E+02 -0.41281450950E+02  0.39979593435E+03  0.42478476230E+03  0.12500000000E+03 0.  0.
</event>
<event>
 5    0  0.5677492E-005  0.3506724E+03  0.7546771E-02  0.1062339E+00
         21   -1    0    0  502  501  0.00000000000E+00  0.00000000000E+00  0.24547130972E+03  0.24547130972E+03  0.00000000000E+00 0.  1.
         21   -1    0    0  501  502 -0.00000000000E+00 -0.00000000000E+00 -0.50095916000E+03  0.50095916000E+03  0.00000000000E+00 0.  1.
         25    1    1    2    0    0  0.10987088444E+03 -0.45011230878E+01 -0.67297115748E+02  0.17957108104E+03  0.12500000000E+03 0.  0.
         25    1    1    2    0    0 -0.17797422398E+03  0.15592921552E+03 -0.23233603178E+03  0.35439212225E+03  0.12500000000E+03 0.  0.
         25    1    1    2    0    0  0.68103339538E+02 -0.15142809243E+03  0.44145297242E+02  0.21246726643E+03  0.12500000000E+03 0.  0.
</event>
<event>
 5    0  0.5677492E-005  0.2382901E+03  0.7546771E-02  0.1120937E+00
         21   -1    0    0  502  501  0.00000000000E+00  0.00000000000E+00  0.95001136760E+02  0.95001136760E+02  0.00000000000E+00 0.  1.
         21   -1    0    0  501  502 -0.00000000000E+00 -0.00000000000E+00 -0.59769986858E+03  0.59769986858E+03  0.00000000000E+00 0.  1.
         25    1    1    2    0    0  0.43858829119E+00  0.45457547940E+01 -0.28344020429E+03  0.30981317864E+03  0.12500000000E+03 0.  0.
         25    1    1    2    0    0 -0.41935358971E+02 -0.46100894430E+01 -0.57859633082E+01  0.13205417308E+03  0.12500000000E+03 0.  0.
         25    1    1    2    0    0  0.41496770680E+02  0.64334649009E-01 -0.21347256422E+03  0.25083365362E+03  0.12500000000E+03 0.  0.
</event>
<event>
 5    0  0.6230718E-005  0.2545938E+03  0.7546771E-02  0.1110436E+00
         21   -1    0    0  502  501  0.00000000000E+00  0.00000000000E+00  0.57424274493E+03  0.57424274493E+03  0.00000000000E+00 0.  1.
         21   -1    0    0  501  502 -0.00000000000E+00 -0.00000000000E+00 -0.11287561228E+03  0.11287561228E+03  0.00000000000E+00 0. -1.
         25    1    1    2    0    0 -0.55214548683E+02 -0.91360095004E+02  0.17048975831E+03  0.23682709101E+03  0.12500000000E+03 0.  0.
         25    1    1    2    0    0  0.12144861709E+03  0.86767294800E+02  0.12120073678E+03  0.22933152561E+03  0.12500000000E+03 0.  0.
         25    1    1    2    0    0 -0.66234068412E+02  0.45928002033E+01  0.16967663756E+03  0.22095974060E+03  0.12500000000E+03 0.  0.
</event>
<event>
 5    0  0.5677492E-005  0.2441511E+03  0.7546771E-02  0.1117058E+00
         21   -1    0    0  502  501  0.00000000000E+00  0.00000000000E+00  0.21835598259E+03  0.21835598259E+03  0.00000000000E+00 0.  1.
         21   -1    0    0  501  502 -0.00000000000E+00 -0.00000000000E+00 -0.27299343758E+03  0.27299343758E+03  0.00000000000E+00 0.  1.
         25    1    1    2    0    0  0.65213931542E+02  0.39335440254E+02 -0.11349684876E+03  0.18522059391E+03  0.12500000000E+03 0.  0.
         25    1    1    2    0    0 -0.88884113333E+02 -0.61919534272E+02  0.62620781600E+02  0.17686372329E+03  0.12500000000E+03 0.  0.
         25    1    1    2    0    0  0.23670181791E+02  0.22584094018E+02 -0.37613878276E+01  0.12926510297E+03  0.12500000000E+03 0.  0.
</event>
<event>
 5    0  0.5677492E-005  0.2511358E+03  0.7546771E-02  0.1112589E+00
         21   -1    0    0  502  501  0.00000000000E+00  0.00000000000E+00  0.90422008762E+02  0.90422008762E+02  0.00000000000E+00 0. -1.
         21   -1    0    0  501  502 -0.00000000000E+00 -0.00000000000E+00 -0.69749826700E+03  0.69749826700E+03  0.00000000000E+00 0. -1.
         25    1    1    2    0    0 -0.13426348644E+03 -0.21056336146E+02 -0.29186046822E+03  0.34536587265E+03  0.12500000000E+03 0.  0.
         25    1    1    2    0    0  0.40447218839E+02  0.19746969276E+02 -0.65910895136E+02  0.14830767480E+03  0.12500000000E+03 0.  0.
         25    1    1    2    0    0  0.93816267601E+02  0.13093668703E+01 -0.24930489487E+03  0.29424672830E+03  0.12500000000E+03 0.  0.
</event>
<event>
 5    0  0.7143091E-005  0.2620840E+03  0.7546771E-02  0.1105898E+00
         21   -1    0    0  502  501  0.00000000000E+00  0.00000000000E+00  0.14686157111E+03  0.14686157111E+03  0.00000000000E+00 0.  1.
         21   -1    0    0  501  502 -0.00000000000E+00 -0.00000000000E+00 -0.46770583445E+03  0.46770583445E+03  0.00000000000E+00 0.  1.
         25    1    1    2    0    0 -0.81730748822E+02 -0.20400234815E+02 -0.12917673121E+03  0.19851375965E+03  0.12500000000E+03 0.  0.
         25    1    1    2    0    0 -0.54566538531E+02  0.19310569726E+02 -0.18544354882E+03  0.23100804105E+03  0.12500000000E+03 0.  0.
         25    1    1    2    0    0  0.13629728735E+03  0.10896650888E+01 -0.62239833027E+01  0.18504560486E+03  0.12500000000E+03 0.  0.
</event>
<event>
 5    0  0.5677492E-005  0.4503726E+03  0.7546771E-02  0.1027611E+00
         21   -1    0    0  502  501  0.00000000000E+00  0.00000000000E+00  0.60765848868E+03  0.60765848868E+03  0.00000000000E+00 0.  1.
         21   -1    0    0  501  502 -0.00000000000E+00 -0.00000000000E+00 -0.33379843206E+03  0.33379843206E+03  0.00000000000E+00 0.  1.
         25    1    1    2    0    0  0.21730506776E+03  0.14005259887E+03  0.38818344983E+03  0.48285361514E+03  0.12500000000E+03 0.  0.
         25    1    1    2    0    0 -0.14474317352E+03  0.48360916960E+02 -0.53816621567E+01  0.19734063661E+03  0.12500000000E+03 0.  0.
         25    1    1    2    0    0 -0.72561894242E+02 -0.18841351583E+03 -0.10894173106E+03  0.26126266900E+03  0.12500000000E+03 0.  0.
</event>
<event>
 5    0  0.5677492E-005  0.3423831E+03  0.7546771E-02  0.1065785E+00
         21   -1    0    0  502  501  0.00000000000E+00  0.00000000000E+00  0.12328104510E+04  0.12328104510E+04  0.00000000000E+00 0.  1.
         21   -1    0    0  501  502 -0.00000000000E+00 -0.00000000000E+00 -0.95088568562E+02  0.95088568562E+02  0.00000000000E+00 0.  1.
         25    1    1    2    0    0 -0.25254178355E+02 -0.24201033703E+03  0.28863786580E+03  0.39767272263E+03  0.12500000000E+03 0.  0.
         25    1    1    2    0    0 -0.21929117911E+02  0.20509158873E+03  0.52556370816E+03  0.57826089035E+03  0.12500000000E+03 0.  0.
         25    1    1    2    0    0  0.47183296266E+02  0.36918748306E+02  0.32352030846E+03  0.35196540656E+03  0.12500000000E+03 0.  0.
</event>
<event>
 5    0  0.5677492E-005  0.2694001E+03  0.7546771E-02  0.1101623E+00
         21   -1    0    0  502  501  0.00000000000E+00  0.00000000000E+00  0.44340511280E+03  0.44340511280E+03  0.00000000000E+00 0.  1.
         21   -1    0    0  501  502 -0.00000000000E+00 -0.00000000000E+00 -0.16367972075E+03  0.16367972075E+03  0.00000000000E+00 0.  1.
         25    1    1    2    0    0 -0.46367281999E+02 -0.10347955375E+03  0.19662327935E+03  0.25912093097E+03  0.12500000000E+03 0.  0.
         25    1    1    2    0    0 -0.35420515461E+02  0.33573016694E+02 -0.42385499006E+02  0.14072416598E+03  0.12500000000E+03 0.  0.
         25    1    1    2    0    0  0.81787797460E+02  0.69906537052E+02  0.12548761171E+03  0.20723973660E+03  0.12500000000E+03 0.  0.
</event>
<event>
 5    0  0.5677492E-005  0.4452511E+03  0.7546771E-02  0.1029148E+00
         21   -1    0    0  502  501  0.00000000000E+00  0.00000000000E+00  0.31942657801E+04  0.31942657801E+04  0.00000000000E+00 0.  1.
         21   -1    0    0  501  502 -0.00000000000E+00 -0.00000000000E+00 -0.62063886253E+02  0.62063886253E+02  0.00000000000E+00 0.  1.
         25    1    1    2    0    0  0.69667911818E+01  0.12856434644E+03  0.12032358358E+04  0.12165437945E+04  0.12500000000E+03 0.  0.
         25    1    1    2    0    0  0.13259297334E+03  0.15991340032E+03  0.36321570372E+03  0.43669650744E+03  0.12500000000E+03 0.  0.
         25    1    1    2    0    0 -0.13955976452E+03 -0.28847774676E+03  0.15657503543E+04  0.16030893644E+04  0.12500000000E+03 0.  0.
</event>
<event>
 5    0  0.5677492E-005  0.3387986E+03  0.7546771E-02  0.1067309E+00
         21   -1    0    0  502  501  0.00000000000E+00  0.00000000000E+00  0.20522412805E+03  0.20522412805E+03  0.00000000000E+00 0.  1.
         21   -1    0    0  501  502 -0.00000000000E+00 -0.00000000000E+00 -0.55931299310E+03  0.55931299310E+03  0.00000000000E+00 0.  1.
         25    1    1    2    0    0  0.15202914536E+03  0.19538472250E+03 -0.21221745714E+03  0.34921239946E+03  0.12500000000E+03 0.  0.
         25    1    1    2    0    0 -0.34230790121E+02 -0.24999403520E+02 -0.10897278393E+03  0.17116303575E+03  0.12500000000E+03 0.  0.
         25    1    1    2    0    0 -0.11779835524E+03 -0.17038531898E+03 -0.32898623977E+02  0.24416168594E+03  0.12500000000E+03 0.  0.
</event>
<event>
 5    0  0.5677492E-005  0.3339198E+03  0.7546771E-02  0.1069416E+00
         21   -1    0    0  502  501  0.00000000000E+00  0.00000000000E+00  0.17517420589E+03  0.17517420589E+03  0.00000000000E+00 0.  1.
         21   -1    0    0  501  502 -0.00000000000E+00 -0.00000000000E+00 -0.63652320742E+03  0.63652320742E+03  0.00000000000E+00 0.  1.
         25    1    1    2    0    0 -0.12094631925E+02  0.12268375304E+03 -0.55515013128E+02  0.18413174649E+03  0.12500000000E+03 0.  0.
         25    1    1    2    0    0  0.98448867076E+02 -0.21794756848E+03 -0.13241349185E+03  0.30058552004E+03  0.12500000000E+03 0.  0.
         25    1    1    2    0    0 -0.86354235151E+02  0.95263815436E+02 -0.27342049654E+03  0.32698014678E+03  0.12500000000E+03 0.  0.
</event>
<event>
 5    0  0.5677492E-005  0.3992939E+03  0.7546771E-02  0.1044024E+00
         21   -1    0    0  502  501  0.00000000000E+00  0.00000000000E+00  0.11884649388E+03  0.11884649388E+03  0.00000000000E+00 0. -1.
         21   -1    0    0  501  502 -0.00000000000E+00 -0.00000000000E+00 -0.13415259128E+04  0.13415259128E+04  0.00000000000E+00 0. -1.
         25    1    1    2    0    0  0.20801555446E+03  0.20400164851E+03 -0.90776813336E+03  0.96153789704E+03  0.12500000000E+03 0.  0.
         25    1    1    2    0    0 -0.10513382407E+03 -0.11899381198E+03 -0.14039373164E+03  0.24606512987E+03  0.12500000000E+03 0.  0.
         25    1    1    2    0    0 -0.10288173039E+03 -0.85007836534E+02 -0.17451755390E+03  0.25276937975E+03  0.12500000000E+03 0.  0.
</event>
<event>
 5    0  0.5677492E-005  0.3742942E+03  0.7546771E-02  0.1053063E+00
         21   -1    0    0  502  501  0.00000000000E+00  0.00000000000E+00  0.54424075246E+03  0.54424075246E+03  0.00000000000E+00 0. -1.
         21   -1    0    0  501  502 -0.00000000000E+00 -0.00000000000E+00 -0.25741572460E+03  0.25741572460E+03  0.00000000000E+00 0. -1.
         25    1    1    2    0    0 -0.30224273548E+03 -0.95578335649E+00  0.16487938480E+03  0.36628103446E+03  0.12500000000E+03 0.  0.
         25    1    1    2    0    0  0.14875676174E+03 -0.71437780500E+02  0.66448063799E+02  0.21742188443E+03  0.12500000000E+03 0.  0.
         25    1    1    2    0    0  0.15348597374E+03  0.72393563856E+02  0.55497579260E+02  0.21795355819E+03  0.12500000000E+03 0.  0.
</event>
<event>
 5    0  0.5677492E-005  0.5301854E+03  0.7546771E-02  0.1006187E+00
         21   -1    0    0  502  501  0.00000000000E+00  0.00000000000E+00  0.58347393899E+03  0.58347393899E+03  0.00000000000E+00 0.  1.
         21   -1    0    0  501  502 -0.00000000000E+00 -0.00000000000E+00 -0.48176363849E+03  0.48176363849E+03  0.00000000000E+00 0.  1.
         25    1    1    2    0    0  0.20066605485E+03 -0.35615151253E+03  0.19041658625E+02  0.42789993014E+03  0.12500000000E+03 0.  0.
         25    1    1    2    0    0  0.30318591698E+02  0.19739615994E+02 -0.10874574775E+03  0.16958628216E+03  0.12500000000E+03 0.  0.
         25    1    1    2    0    0 -0.23098464655E+03  0.33641189654E+03  0.19141438963E+03  0.46775136519E+03  0.12500000000E+03 0.  0.
</event>
<event>
 5    0  0.5677492E-005  0.4611083E+03  0.7546771E-02  0.1024460E+00
         21   -1    0    0  502  501  0.00000000000E+00  0.00000000000E+00  0.23368389490E+03  0.23368389490E+03  0.00000000000E+00 0.  1.
         21   -1    0    0  501  502 -0.00000000000E+00 -0.00000000000E+00 -0.90986548244E+03  0.90986548244E+03  0.00000000000E+00 0.  1.
         25    1    1    2    0    0  0.14120820944E+03  0.16601788459E+03 -0.41886137318E+01  0.25128517843E+03  0.12500000000E+03 0.  0.
         25    1    1    2    0    0  0.10057109534E+03 -0.24880877834E+03 -0.40848015764E+03  0.50448131044E+03  0.12500000000E+03 0.  0.
         25    1    1    2    0    0 -0.24177930478E+03  0.82790893751E+02 -0.26351281617E+03  0.38778288847E+03  0.12500000000E+03 0.  0.
</event>
<event>
 5    0  0.5677492E-005  0.2700369E+03  0.7546771E-02  0.1101258E+00
         21   -1    0    0  502  501  0.00000000000E+00  0.00000000000E+00  0.27555944390E+03  0.27555944390E+03  0.00000000000E+00 0.  1.
         21   -1    0    0  501  502 -0.00000000000E+00 -0.00000000000E+00 -0.26462512417E+03  0.26462512417E+03  0.00000000000E+00 0.  1.
         25    1    1    2    0    0  0.67891959750E+02 -0.50555010929E+02 -0.82385806340E+02  0.17198124437E+03  0.12500000000E+03 0.  0.
         25    1    1    2    0    0 -0.15410400703E+03  0.90154102898E+01  0.56875473832E+02  0.20661350907E+03  0.12500000000E+03 0.  0.
         25    1    1    2    0    0  0.86212047280E+02  0.41539600639E+02  0.36444652233E+02  0.16158981464E+03  0.12500000000E+03 0.  0.
</event>
<event>
 5    0  0.5677492E-005  0.3216122E+03  0.7546771E-02  0.1074910E+00
         21   -1    0    0  502  501  0.00000000000E+00  0.00000000000E+00  0.24986043654E+03  0.24986043654E+03  0.00000000000E+00 0. -1.
         21   -1    0    0  501  502 -0.00000000000E+00 -0.00000000000E+00 -0.41396861209E+03  0.41396861209E+03  0.00000000000E+00 0.  1.
         25    1    1    2    0    0  0.19063986093E+03  0.27277465024E+02 -0.76079128274E+02  0.24186907705E+03  0.12500000000E+03 0.  0.
         25    1    1    2    0    0 -0.11134848159E+03 -0.97496338588E+01 -0.18063830332E+03  0.24647258739E+03  0.12500000000E+03 0.  0.
         25    1    1    2    0    0 -0.79291379343E+02 -0.17527831166E+02  0.92609256043E+02  0.17548738419E+03  0.12500000000E+03 0.  0.
</event>
<event>
 5    0  0.5677492E-005  0.4777242E+03  0.7546771E-02  0.1019763E+00
         21   -1    0    0  502  501  0.00000000000E+00  0.00000000000E+00  0.93574605211E+02  0.93574605211E+02  0.00000000000E+00 0. -1.
         21   -1    0    0  501  502 -0.00000000000E+00 -0.00000000000E+00 -0.24389139198E+04  0.24389139198E+04  0.00000000000E+00 0. -1.
         25    1    1    2    0    0  0.19328020819E+03  0.14349290377E+03 -0.94404465008E+03  0.98223864394E+03  0.12500000000E+03 0.  0.
         25    1    1    2    0    0 -0.35641697464E+03 -0.12112336594E+03 -0.11911804968E+04  0.12554839328E+04  0.12500000000E+03 0.  0.
         25    1    1    2    0    0  0.16313676645E+03 -0.22369537831E+02 -0.21011416777E+03  0.29476594832E+03  0.12500000000E+03 0.  0.
</event>
<event>
 5    0  0.5677492E-005  0.6394364E+03  0.7546771E-02  0.9826805E-01
         21   -1    0    0  502  501  0.00000000000E+00  0.00000000000E+00  0.25706040902E+03  0.25706040902E+03  0.00000000000E+00 0. -1.
         21   -1    0    0  501  502 -0.00000000000E+00 -0.00000000000E+00 -0.15905947618E+04  0.15905947618E+04  0.00000000000E+00 0. -1.
         25    1    1    2    0    0 -0.28619076879E+03 -0.11923314962E+03 -0.11513584774E+04  0.11989049352E+04  0.12500000000E+03 0.  0.
         25    1    1    2    0    0  0.21912981146E+03  0.28513530454E+03 -0.19943527673E+03  0.42979000195E+03  0.12500000000E+03 0.  0.
         25    1    1    2    0    0  0.67060957327E+02 -0.16590215492E+03  0.17259401361E+02  0.21896023369E+03  0.12500000000E+03 0.  0.
</event>
<event>
 5    0  0.5677492E-005  0.2619314E+03  0.7546771E-02  0.1105988E+00
         21   -1    0    0  502  501  0.00000000000E+00  0.00000000000E+00  0.98523791217E+03  0.98523791217E+03  0.00000000000E+00 0.  1.
         21   -1    0    0  501  502 -0.00000000000E+00 -0.00000000000E+00 -0.69636032600E+02  0.69636032600E+02  0.00000000000E+00 0.  1.
         25    1    1    2    0    0  0.17103830620E+02  0.97023270876E+02  0.39611936046E+03  0.42689765031E+03  0.12500000000E+03 0.  0.
         25    1    1    2    0    0  0.51417504494E+02 -0.12544805451E+03  0.17561766616E+03  0.25465179916E+03  0.12500000000E+03 0.  0.
         25    1    1    2    0    0 -0.68521335114E+02  0.28424783637E+02  0.34386485295E+03  0.37332449529E+03  0.12500000000E+03 0.  0.
</event>
<event>
 5    0  0.5677492E-005  0.6721998E+03  0.7546771E-02  0.9765992E-01
         21   -1    0    0  502  501  0.00000000000E+00  0.00000000000E+00  0.51313790383E+03  0.51313790383E+03  0.00000000000E+00 0. -1.
         21   -1    0    0  501  502 -0.00000000000E+00 -0.00000000000E+00 -0.88056740291E+03  0.88056740291E+03  0.00000000000E+00 0. -1.
         25    1    1    2    0    0 -0.13740311589E+02 -0.78481173695E+02  0.47964194058E+03  0.50202537979E+03  0.12500000000E+03 0.  0.
         25    1    1    2    0    0  0.47877101246E+02  0.55855492636E+02 -0.49615581095E+03  0.51692131086E+03  0.12500000000E+03 0.  0.
         25    1    1    2    0    0 -0.34136789658E+02  0.22625681059E+02 -0.35091562872E+03  0.37475861609E+03  0.12500000000E+03 0.  0.
</event>
<event>
 5    0  0.5677492E-005  0.2679792E+03  0.7546771E-02  0.1102442E+00
         21   -1    0    0  502  501  0.00000000000E+00  0.00000000000E+00  0.69252840814E+02  0.69252840814E+02  0.00000000000E+00 0.  1.
         21   -1    0    0  501  502 -0.00000000000E+00 -0.00000000000E+00 -0.10369661429E+04  0.10369661429E+04  0.00000000000E+00 0.  1.
         25    1    1    2    0    0 -0.14746794141E+02  0.86906054822E+02 -0.16837570543E+03  0.22747639104E+03  0.12500000000E+03 0.  0.
         25    1    1    2    0    0  0.88076668394E+02 -0.86753229803E+02 -0.63842530358E+03  0.66218992037E+03  0.12500000000E+03 0.  0.
         25    1    1    2    0    0 -0.73329874253E+02 -0.15282501936E+00 -0.16091229305E+03  0.21655267227E+03  0.12500000000E+03 0.  0.
</event>
<event>
 5    0  0.5677492E-005  0.3880322E+03  0.7546771E-02  0.1048004E+00
         21   -1    0    0  502  501  0.00000000000E+00  0.00000000000E+00  0.15120732156E+03  0.15120732156E+03  0.00000000000E+00 0.  1.
         21   -1    0    0  501  502 -0.00000000000E+00 -0.00000000000E+00 -0.99577866164E+03  0.99577866164E+03  0.00000000000E+00 0.  1.
         25    1    1    2    0    0 -0.22259613453E+03  0.20752569237E+03 -0.23466596609E+03  0.40411516644E+03  0.12500000000E+03 0.  0.
         25    1    1    2    0    0  0.44990406371E+02 -0.14412227356E+03 -0.24870816767E+03  0.31666404764E+03  0.12500000000E+03 0.  0.
         25    1    1    2    0    0  0.17760572816E+03 -0.63403418806E+02 -0.36119720632E+03  0.42620676912E+03  0.12500000000E+03 0.  0.
</event>
<event>
 5    0  0.5677492E-005  0.2911333E+03  0.7546771E-02  0.1089759E+00
         21   -1    0    0  502  501  0.00000000000E+00  0.00000000000E+00  0.13550692982E+04  0.13550692982E+04  0.00000000000E+00 0.  1.
         21   -1    0    0  501  502 -0.00000000000E+00 -0.00000000000E+00 -0.62549282209E+02  0.62549282209E+02  0.00000000000E+00 0.  1.
         25    1    1    2    0    0  0.14533445090E+03  0.89478499521E+02  0.76586269562E+03  0.79454337392E+03  0.12500000000E+03 0.  0.
         25    1    1    2    0    0 -0.14565008329E+03 -0.44307694553E+02  0.27222205268E+03  0.33601631586E+03  0.12500000000E+03 0.  0.
         25    1    1    2    0    0  0.31563238661E+00 -0.45170804968E+02  0.25443526769E+03  0.28705889063E+03  0.12500000000E+03 0.  0.
</event>
<event>
 5    0  0.5677492E-005  0.3234952E+03  0.7546771E-02  0.1074052E+00
         21   -1    0    0  502  501  0.00000000000E+00  0.00000000000E+00  0.21270056769E+03  0.21270056769E+03  0.00000000000E+00 0.  1.
         21   -1    0    0  501  502 -0.00000000000E+00 -0.00000000000E+00 -0.49200213446E+03  0.49200213446E+03  0.00000000000E+00 0.  1.
         25    1    1    2    0    0  0.11318911639E+03  0.14229034148E+02 -0.61748305407E+02  0.18014464939E+03  0.12500000000E+03 0.  0.
         25    1    1    2    0    0  0.19231846236E+02 -0.18241933472E+03 -0.14907589792E+03  0.26738605224E+03  0.12500000000E+03 0.  0.
         25    1    1    2    0    0 -0.13242096263E+03  0.16819030057E+03 -0.68477363436E+02  0.25717200053E+03  0.12500000000E+03 0.  0.
</event>
<event>
 5    0  0.5677492E-005  0.3134855E+03  0.7546771E-02  0.1078687E+00
         21   -1    0    0  502  501  0.00000000000E+00  0.00000000000E+00  0.63441430449E+03  0.63441430449E+03  0.00000000000E+00 0. -1.
         21   -1    0    0  501  502 -0.00000000000E+00 -0.00000000000E+00 -0.15490377196E+03  0.15490377196E+03  0.00000000000E+00 0. -1.
         25    1    1    2    0    0 -0.69186335765E+02 -0.71234072651E+02  0.43567811649E+02  0.16548171009E+03  0.12500000000E+03 0.  0.
         25    1    1    2    0    0  0.15115787058E+03  0.16054656019E+03  0.34288021452E+03  0.42639857098E+03  0.12500000000E+03 0.  0.
         25    1    1    2    0    0 -0.81971534819E+02 -0.89312487537E+02  0.93062506364E+02  0.19743779537E+03  0.12500000000E+03 0.  0.
</event>
<event>
 5    0  0.5677492E-005  0.3241841E+03  0.7546771E-02  0.1073740E+00
         21   -1    0    0  502  501  0.00000000000E+00  0.00000000000E+00  0.90919697898E+02  0.90919697898E+02  0.00000000000E+00 0. -1.
         21   -1    0    0  501  502 -0.00000000000E+00 -0.00000000000E+00 -0.11559137240E+04  0.11559137240E+04  0.00000000000E+00 0. -1.
         25    1    1    2    0    0  0.15952569489E+03  0.60863754358E+02 -0.31898966810E+03  0.38279531382E+03  0.12500000000E+03 0.  0.
         25    1    1    2    0    0  0.23127376570E+02 -0.10819613227E+03 -0.51181830630E+03  0.53835328294E+03  0.12500000000E+03 0.  0.
         25    1    1    2    0    0 -0.18265307146E+03  0.47332377915E+02 -0.23418605167E+03  0.32568482511E+03  0.12500000000E+03 0.  0.
</event>
<event>
 5    0  0.5677492E-005  0.2557504E+03  0.7546771E-02  0.1109724E+00
         21   -1    0    0  502  501  0.00000000000E+00  0.00000000000E+00  0.18741009533E+03  0.18741009533E+03  0.00000000000E+00 0.  1.
         21   -1    0    0  501  502 -0.00000000000E+00 -0.00000000000E+00 -0.34901144675E+03  0.34901144675E+03  0.00000000000E+00 0.  1.
         25    1    1    2    0    0  0.35036636029E+02  0.41618055705E+02 -0.27722299382E+02  0.13911561490E+03  0.12500000000E+03 0.  0.
         25    1    1    2    0    0 -0.19291503097E+02 -0.48600817562E+02  0.73806344118E+02  0.15429380413E+03  0.12500000000E+03 0.  0.
         25    1    1    2    0    0 -0.15745132932E+02  0.69827618569E+01 -0.20768539616E+03  0.24301212306E+03  0.12500000000E+03 0.  0.
</event>
<event>
 5    0  0.5677492E-005  0.2487695E+03  0.7546771E-02  0.1114085E+00
         21   -1    0    0  502  501  0.00000000000E+00  0.00000000000E+00  0.39102844114E+03  0.39102844114E+03  0.00000000000E+00 0.  1.
         21   -1    0    0  501  502 -0.00000000000E+00 -0.00000000000E+00 -0.15826540491E+03  0.15826540491E+03  0.00000000000E+00 0.  1.
         25    1    1    2    0    0 -0.93230005615E+02 -0.56656601728E+02  0.12033236897E+03  0.20495532071E+03  0.12500000000E+03 0.  0.
         25    1    1    2    0    0 -0.78362511415E+00 -0.20786401938E+02  0.11303379653E+03  0.16980673642E+03  0.12500000000E+03 0.  0.
         25    1    1    2    0    0  0.94013630729E+02  0.77443003666E+02 -0.60312926967E+00  0.17453178892E+03  0.12500000000E+03 0.  0.
</event>
<event>
 5    0  0.5677492E-005  0.2909873E+03  0.7546771E-02  0.1089835E+00
         21   -1    0    0  502  501  0.00000000000E+00  0.00000000000E+00  0.17593668673E+03  0.17593668673E+03  0.00000000000E+00 0. -1.
         21   -1    0    0  501  502 -0.00000000000E+00 -0.00000000000E+00 -0.48127306806E+03  0.48127306806E+03  0.00000000000E+00 0. -1.
         25    1    1    2    0    0 -0.77064925141E+02 -0.79998574620E+02 -0.35182172583E+02  0.17088463915E+03  0.12500000000E+03 0.  0.
         25    1    1    2    0    0  0.11514912454E+03 -0.87022574792E+02 -0.14812011527E+03  0.24165433568E+03  0.12500000000E+03 0.  0.
         25    1    1    2    0    0 -0.38084199396E+02  0.16702114941E+03 -0.12203409348E+03  0.24467077996E+03  0.12500000000E+03 0.  0.
</event>
<event>
 5    0  0.5677492E-005  0.3637904E+03  0.7546771E-02  0.1057093E+00
         21   -1    0    0  502  501  0.00000000000E+00  0.00000000000E+00  0.10817362909E+04  0.10817362909E+04  0.00000000000E+00 0.  1.
         21   -1    0    0  501  502 -0.00000000000E+00 -0.00000000000E+00 -0.12234355964E+03  0.12234355964E+03  0.00000000000E+00 0.  1.
         25    1    1    2    0    0 -0.16775915087E+03  0.13015537201E+03  0.35015673712E+03  0.42815685691E+03  0.12500000000E+03 0.  0.
         25    1    1    2    0    0  0.84121991620E+02  0.19476031244E+02  0.24496496964E+02  0.15388600856E+03  0.12500000000E+03 0.  0.
         25    1    1    2    0    0  0.83637159247E+02 -0.14963140326E+03  0.58473949714E+03  0.62203698504E+03  0.12500000000E+03 0.  0.
</event>
<event>
 5    0  0.5677492E-005  0.2389322E+03  0.7546771E-02  0.1120506E+00
         21   -1    0    0  502  501  0.00000000000E+00  0.00000000000E+00  0.15946855747E+03  0.15946855747E+03  0.00000000000E+00 0. -1.
         21   -1    0    0  501  502 -0.00000000000E+00 -0.00000000000E+00 -0.35799278070E+03  0.35799278070E+03  0.00000000000E+00 0. -1.
         25    1    1    2    0    0 -0.39404142351E+02  0.90540038874E+02 -0.12975183519E+03  0.20545248553E+03  0.12500000000E+03 0.  0.
         25    1    1    2    0    0 -0.39415474543E+02 -0.27852452255E+01 -0.44458163025E+02  0.13843000211E+03  0.12500000000E+03 0.  0.
         25    1    1    2    0    0  0.78819616893E+02 -0.87754793649E+02 -0.24314225010E+02  0.17357885054E+03  0.12500000000E+03 0.  0.
</event>
<event>
 5    0  0.5677492E-005  0.2004194E+03  0.7546771E-02  0.1149386E+00
         21   -1    0    0  502  501  0.00000000000E+00  0.00000000000E+00  0.15249243287E+03  0.15249243287E+03  0.00000000000E+00 0.  1.
         21   -1    0    0  501  502 -0.00000000000E+00 -0.00000000000E+00 -0.26340946938E+03  0.26340946938E+03  0.00000000000E+00 0.  1.
         25    1    1    2    0    0  0.43793921086E+02  0.18037035816E+02 -0.99955338304E+01  0.13404533890E+03  0.12500000000E+03 0.  0.
         25    1    1    2    0    0 -0.13264400747E+02 -0.35968564602E+02 -0.70015738271E+02  0.14831347064E+03  0.12500000000E+03 0.  0.
         25    1    1    2    0    0 -0.30529520339E+02  0.17931528786E+02 -0.30905764401E+02  0.13354309271E+03  0.12500000000E+03 0.  0.
</event>
<event>
 5    0  0.5773595E-005  0.3001792E+03  0.7546771E-02  0.1085151E+00
         21   -1    0    0  502  501  0.00000000000E+00  0.00000000000E+00  0.54041070026E+03  0.54041070026E+03  0.00000000000E+00 0. -1.
         21   -1    0    0  501  502 -0.00000000000E+00 -0.00000000000E+00 -0.16673901540E+03  0.16673901540E+03  0.00000000000E+00 0. -1.
         25    1    1    2    0    0 -0.51423511991E+01  0.84391042148E+02  0.37749496503E+03  0.40654119151E+03  0.12500000000E+03 0.  0.
         25    1    1    2    0    0  0.62678603056E+02 -0.74709851487E+02  0.22633467458E+02  0.16014819087E+03  0.12500000000E+03 0.  0.
         25    1    1    2    0    0 -0.57536251857E+02 -0.96811906615E+01 -0.26456747634E+02  0.14046033328E+03  0.12500000000E+03 0.  0.
</event>
<event>
 5    0  0.5677492E-005  0.3359273E+03  0.7546771E-02  0.1068544E+00
         21   -1    0    0  502  501  0.00000000000E+00  0.00000000000E+00  0.34524809917E+03  0.34524809917E+03  0.00000000000E+00 0.  1.
         21   -1    0    0  501  502 -0.00000000000E+00 -0.00000000000E+00 -0.32685804433E+03  0.32685804433E+03  0.00000000000E+00 0.  1.
         25    1    1    2    0    0 -0.20232769396E+03  0.17302516631E+03  0.65796189700E+02  0.30137740874E+03  0.12500000000E+03 0.  0.
         25    1    1    2    0    0  0.12645783488E+03 -0.10388410456E+03 -0.25484007978E+02  0.20750403814E+03  0.12500000000E+03 0.  0.
         25    1    1    2    0    0  0.75869859080E+02 -0.69141061756E+02 -0.21922126882E+02  0.16322469661E+03  0.12500000000E+03 0.  0.
</event>
<event>
 5    0  0.5677492E-005  0.3035030E+03  0.7546771E-02  0.1083503E+00
         21   -1    0    0  502  501  0.00000000000E+00  0.00000000000E+00  0.87178186921E+02  0.87178186921E+02  0.00000000000E+00 0.  1.
         21   -1    0    0  501  502 -0.00000000000E+00 -0.00000000000E+00 -0.10566181219E+04  0.10566181219E+04  0.00000000000E+00 0.  1.
         25    1    1    2    0    0  0.13659298492E+02  0.33501845737E+02 -0.42609185674E+02  0.13692878736E+03  0.12500000000E+03 0.  0.
         25    1    1    2    0    0 -0.83935083933E+02 -0.88598388296E+02 -0.76108850783E+03  0.78088122623E+03  0.12500000000E+03 0.  0.
         25    1    1    2    0    0  0.70275785440E+02  0.55096542560E+02 -0.16574224144E+03  0.22598629520E+03  0.12500000000E+03 0.  0.
</event>
<event>
 5    0  0.5677492E-005  0.5613032E+03  0.7546771E-02  0.9989110E-01
         21   -1    0    0  502  501  0.00000000000E+00  0.00000000000E+00  0.18580462927E+04  0.18580462927E+04  0.00000000000E+00 0. -1.
         21   -1    0    0  501  502 -0.00000000000E+00 -0.00000000000E+00 -0.16956588457E+03  0.16956588457E+03  0.00000000000E+00 0. -1.
         25    1    1    2    0    0  0.20803878845E+03 -0.21983766908E+03  0.18620945906E+03  0.37670638552E+03  0.12500000000E+03 0.  0.
         25    1    1    2    0    0  0.15803347434E+03  0.21551941376E+03  0.57812409147E+03  0.64905751814E+03  0.12500000000E+03 0.  0.
         25    1    1    2    0    0 -0.36607226279E+03  0.43182553192E+01  0.92414685760E+03  0.10018482736E+04  0.12500000000E+03 0.  0.
</event>
<event>
 5    0  0.5677492E-005  0.3902331E+03  0.7546771E-02  0.1047215E+00
         21   -1    0    0  502  501  0.00000000000E+00  0.00000000000E+00  0.74011277276E+03  0.74011277276E+03  0.00000000000E+00 0.  1.
         21   -1    0    0  501  502 -0.00000000000E+00 -0.00000000000E+00 -0.20575495992E+03  0.20575495992E+03  0.00000000000E+00 0.  1.
         25    1    1    2    0    0 -0.42799105823E+02  0.12866377175E+03  0.28804973016E+03  0.34202891203E+03  0.12500000000E+03 0.  0.
         25    1    1    2    0    0  0.11191388206E+03 -0.17576105926E+03  0.34643859260E+03  0.42315643135E+03  0.12500000000E+03 0.  0.
         25    1    1    2    0    0 -0.69114776240E+02  0.47097287510E+02 -0.10013050992E+03  0.18068238930E+03  0.12500000000E+03 0.  0.
</event>
<event>
 5    0  0.5677492E-005  0.2798189E+03  0.7546771E-02  0.1095788E+00
         21   -1    0    0  502  501  0.00000000000E+00  0.00000000000E+00  0.10363938516E+03  0.10363938516E+03  0.00000000000E+00 0. -1.
         21   -1    0    0  501  502 -0.00000000000E+00 -0.00000000000E+00 -0.75549118753E+03  0.75549118753E+03  0.00000000000E+00 0. -1.
         25    1    1    2    0    0  0.42598863610E+02  0.10187122039E+03 -0.27371348776E+03  0.32052532210E+03  0.12500000000E+03 0.  0.
         25    1    1    2    0    0  0.62008945244E+02 -0.15719396008E+03 -0.22917902868E+03  0.31097118446E+03  0.12500000000E+03 0.  0.
         25    1    1    2    0    0 -0.10460780885E+03  0.55322739694E+02 -0.14895928593E+03  0.22763406614E+03  0.12500000000E+03 0.  0.
</event>
<event>
 5    0  0.5677492E-005  0.2934760E+03  0.7546771E-02  0.1088548E+00
         21   -1    0    0  502  501  0.00000000000E+00  0.00000000000E+00  0.66794553796E+02  0.66794553796E+02  0.00000000000E+00 0.  1.
         21   -1    0    0  501  502 -0.00000000000E+00 -0.00000000000E+00 -0.12894492361E+04  0.12894492361E+04  0.00000000000E+00 0. -1.
         25    1    1    2    0    0  0.42565018690E+01  0.80874582392E+01 -0.83753423072E+02  0.15074203350E+03  0.12500000000E+03 0.  0.
         25    1    1    2    0    0  0.13647002098E+02  0.13538081428E+03 -0.37491780287E+03  0.41797435860E+03  0.12500000000E+03 0.  0.
         25    1    1    2    0    0 -0.17903503967E+02 -0.14346827252E+03 -0.76398345640E+03  0.78752739783E+03  0.12500000000E+03 0.  0.
</event>
<event>
 5    0  0.7065451E-005  0.4431148E+03  0.7546771E-02  0.1029795E+00
         21   -1    0    0  502  501  0.00000000000E+00  0.00000000000E+00  0.38989355899E+03  0.38989355899E+03  0.00000000000E+00 0. -1.
         21   -1    0    0  501  502 -0.00000000000E+00 -0.00000000000E+00 -0.50360094715E+03  0.50360094715E+03  0.00000000000E+00 0. -1.
         25    1    1    2    0    0 -0.69475362195E+02 -0.11411383938E+03 -0.29110782957E+03  0.34382780971E+03  0.12500000000E+03 0.  0.
         25    1    1    2    0    0  0.25486129229E+03  0.66926973470E+02  0.94429236447E+02  0.30655403892E+03  0.12500000000E+03 0.  0.
         25    1    1    2    0    0 -0.18538593009E+03  0.47186865906E+02  0.82971204970E+02  0.24311265751E+03  0.12500000000E+03 0.  0.
</event>
<event>
 5    0  0.5677492E-005  0.7738751E+03  0.7546771E-02  0.9598621E-01
         21   -1    0    0  502  501  0.00000000000E+00  0.00000000000E+00  0.61029991847E+03  0.61029991847E+03  0.00000000000E+00 0. -1.
         21   -1    0    0  501  502 -0.00000000000E+00 -0.00000000000E+00 -0.98129245322E+03  0.98129245322E+03  0.00000000000E+00 0. -1.
         25    1    1    2    0    0  0.27232717497E+03  0.30336211990E+03  0.14042348298E+03  0.44892585200E+03  0.12500000000E+03 0.  0.
         25    1    1    2    0    0 -0.38107680400E+03 -0.53136778527E+03 -0.54294509392E+03  0.85906089934E+03  0.12500000000E+03 0.  0.
         25    1    1    2    0    0  0.10874962902E+03  0.22800566536E+03  0.31529076199E+02  0.28360562035E+03  0.12500000000E+03 0.  0.
</event>
<event>
 5    0  0.5677492E-005  0.4124885E+03  0.7546771E-02  0.1039539E+00
         21   -1    0    0  502  501  0.00000000000E+00  0.00000000000E+00  0.89110117728E+02  0.89110117728E+02  0.00000000000E+00 0.  1.
         21   -1    0    0  501  502 -0.00000000000E+00 -0.00000000000E+00 -0.19093989628E+04  0.19093989628E+04  0.00000000000E+00 0.  1.
         25    1    1    2    0    0 -0.10815308886E+03  0.82097795539E+02 -0.12958727989E+04  0.13089493686E+04  0.12500000000E+03 0.  0.
         25    1    1    2    0    0 -0.11143939164E+03  0.31369984001E+02 -0.21379829476E+03  0.27338164669E+03  0.12500000000E+03 0.  0.
         25    1    1    2    0    0  0.21959248050E+03 -0.11346777954E+03 -0.31061775143E+03  0.41617806525E+03  0.12500000000E+03 0.  0.
</event>
<event>
 5    0  0.5677492E-005  0.4946735E+03  0.7546771E-02  0.1015179E+00
         21   -1    0    0  502  501  0.00000000000E+00  0.00000000000E+00  0.98391429170E+03  0.98391429170E+03  0.00000000000E+00 0.  1.
         21   -1    0    0  501  502 -0.00000000000E+00 -0.00000000000E+00 -0.24870239823E+03  0.24870239823E+03  0.00000000000E+00 0.  1.
         25    1    1    2    0    0  0.40330946323E+03  0.34592526975E+01  0.34742707213E+03  0.54680989385E+03  0.12500000000E+03 0.  0.
         25    1    1    2    0    0 -0.34298596226E+03 -0.10805759567E+03  0.32644399072E+03  0.50150423066E+03  0.12500000000E+03 0.  0.
         25    1    1    2    0    0 -0.60323500968E+02  0.10459834298E+03  0.61340830618E+02  0.18430256543E+03  0.12500000000E+03 0.  0.
</event>
<event>
 5    0  0.5677492E-005  0.4012831E+03  0.7546771E-02  0.1043336E+00
         21   -1    0    0  502  501  0.00000000000E+00  0.00000000000E+00  0.78035276355E+02  0.78035276355E+02  0.00000000000E+00 0.  1.
         21   -1    0    0  501  502 -0.00000000000E+00 -0.00000000000E+00 -0.20635295824E+04  0.20635295824E+04  0.00000000000E+00 0.  1.
         25    1    1    2    0    0 -0.27543668339E+01 -0.80805325572E+02 -0.87531796073E+03  0.88788716600E+03  0.12500000000E+03 0.  0.
         25    1    1    2    0    0  0.14924971324E+03  0.35525739768E+02 -0.95202816327E+02  0.21960448840E+03  0.12500000000E+03 0.  0.
         25    1    1    2    0    0 -0.14649534641E+03  0.45279585804E+02 -0.10149735290E+04  0.10340732043E+04  0.12500000000E+03 0.  0.
</event>
<event>
 5    0  0.5677492E-005  0.3050546E+03  0.7546771E-02  0.1082741E+00
         21   -1    0    0  502  501  0.00000000000E+00  0.00000000000E+00  0.15741791734E+03  0.15741791734E+03  0.00000000000E+00 0.  1.
         21   -1    0    0  501  502 -0.00000000000E+00 -0.00000000000E+00 -0.59115441666E+03  0.59115441666E+03  0.00000000000E+00 0.  1.
         25    1    1    2    0    0  0.17099595330E+03 -0.66230112711E+02 -0.26116732253E+03  0.34272352448E+03  0.12500000000E+03 0.  0.
         25    1    1    2    0    0 -0.11248412783E+03  0.13254793043E+03 -0.96152599973E+02  0.23471675559E+03  0.12500000000E+03 0.  0.
         25    1    1    2    0    0 -0.58511825477E+02 -0.66317817723E+02 -0.76416576813E+02  0.17113205392E+03  0.12500000000E+03 0.  0.
</event>
<event>
 5    0  0.5677492E-005  0.4715661E+03  0.7546771E-02  0.1021479E+00
         21   -1    0    0  502  501  0.00000000000E+00  0.00000000000E+00  0.10224688276E+04  0.10224688276E+04  0.00000000000E+00 0.  1.
         21   -1    0    0  501  502 -0.00000000000E+00 -0.00000000000E+00 -0.21748786936E+03  0.21748786936E+03  0.00000000000E+00 0.  1.
         25    1    1    2    0    0  0.58395549974E+02  0.22885593927E+03  0.72424209662E+03  0.77196936190E+03  0.12500000000E+03 0.  0.
         25    1    1    2    0    0 -0.14195189578E+03 -0.10828392227E+03 -0.63786731182E+02  0.22708917987E+03  0.12500000000E+03 0.  0.
         25    1    1    2    0    0  0.83556345804E+02 -0.12057201700E+03  0.14452559284E+03  0.24089815523E+03  0.12500000000E+03 0.  0.
</event>
<event>
 5    0  0.5677492E-005  0.3740265E+03  0.7546771E-02  0.1053164E+00
         21   -1    0    0  502  501  0.00000000000E+00  0.00000000000E+00  0.45937214908E+03  0.45937214908E+03  0.00000000000E+00 0.  1.
         21   -1    0    0  501  502 -0.00000000000E+00 -0.00000000000E+00 -0.30453703299E+03  0.30453703299E+03  0.00000000000E+00 0.  1.
         25    1    1    2    0    0 -0.13158555811E+03  0.22618228840E+03 -0.16651523414E+02  0.29047454264E+03  0.12500000000E+03 0.  0.
         25    1    1    2    0    0 -0.31200920404E+02 -0.18582643403E+03  0.12784507991E+03  0.25975820579E+03  0.12500000000E+03 0.  0.
         25    1    1    2    0    0  0.16278647852E+03 -0.40355854373E+02  0.43641559599E+02  0.21367643364E+03  0.12500000000E+03 0.  0.
</event>
<event>
 5    0  0.5677492E-005  0.3062641E+03  0.7546771E-02  0.1082151E+00
         21   -1    0    0  502  501  0.00000000000E+00  0.00000000000E+00  0.18509349083E+03  0.18509349083E+03  0.00000000000E+00 0.  1.
         21   -1    0    0  501  502 -0.00000000000E+00 -0.00000000000E+00 -0.50675836161E+03  0.50675836161E+03  0.00000000000E+00 0.  1.
         25    1    1    2    0    0  0.48351157492E+02 -0.40775851800E+02 -0.28012205739E+03  0.31319941181E+03  0.12500000000E+03 0.  0.
         25    1    1    2    0    0 -0.83374164518E+02  0.66095646584E+02 -0.13840943677E+03  0.21471389800E+03  0.12500000000E+03 0.  0.
         25    1    1    2    0    0  0.35023007027E+02 -0.25319794785E+02  0.96866623395E+02  0.16393854262E+03  0.12500000000E+03 0.  0.
</event>
<event>
 5    0  0.5677492E-005  0.3138370E+03  0.7546771E-02  0.1078521E+00
         21   -1    0    0  502  501  0.00000000000E+00  0.00000000000E+00  0.78352670249E+02  0.78352670249E+02  0.00000000000E+00 0. -1.
         21   -1    0    0  501  502 -0.00000000000E+00 -0.00000000000E+00 -0.12570553823E+04  0.12570553823E+04  0.00000000000E+00 0. -1.
         25    1    1    2    0    0 -0.11244186094E+03 -0.79338751538E+02 -0.65105136904E+03  0.67707510272E+03  0.12500000000E+03 0.  0.
         25    1    1    2    0    0  0.12083333538E+03  0.10641901515E+03 -0.13300747365E+03  0.24339615809E+03  0.12500000000E+03 0.  0.
         25    1    1    2    0    0 -0.83914744411E+01 -0.27080263615E+02 -0.39464386937E+03  0.41493679176E+03  0.12500000000E+03 0.  0.
</event>
<event>
 5    0  0.5677492E-005  0.5279202E+03  0.7546771E-02  0.1006738E+00
         21   -1    0    0  502  501  0.00000000000E+00  0.00000000000E+00  0.12132889238E+04  0.12132889238E+04  0.00000000000E+00 0. -1.
         21   -1    0    0  501  502 -0.00000000000E+00 -0.00000000000E+00 -0.22970600015E+03  0.22970600015E+03  0.00000000000E+00 0. -1.
         25    1    1    2    0    0  0.29317101831E+03 -0.10883597808E+03  0.91537209502E+02  0.34899652839E+03  0.12500000000E+03 0.  0.
         25    1    1    2    0    0 -0.16043677192E+02  0.22651723405E+03  0.61050590406E+03  0.66325705107E+03  0.12500000000E+03 0.  0.
         25    1    1    2    0    0 -0.27712734112E+03 -0.11768125597E+03  0.28153981013E+03  0.43074134453E+03  0.12500000000E+03 0.  0.
</event>
<event>
 5    0  0.5677492E-005  0.2109307E+03  0.7546771E-02  0.1140831E+00
         21   -1    0    0  502  501  0.00000000000E+00  0.00000000000E+00  0.25743588515E+03  0.25743588515E+03  0.00000000000E+00 0. -1.
         21   -1    0    0  501  502 -0.00000000000E+00 -0.00000000000E+00 -0.17282652698E+03  0.17282652698E+03  0.00000000000E+00 0. -1.
         25    1    1    2    0    0  0.27398270017E+01 -0.26297121228E+02  0.11144099130E+03  0.16953801868E+03  0.12500000000E+03 0.  0.
         25    1    1    2    0    0  0.48026371003E+01  0.39971290966E+02  0.26457214124E+01  0.13134979736E+03  0.12500000000E+03 0.  0.
         25    1    1    2    0    0 -0.75424641020E+01 -0.13674169738E+02 -0.29477354536E+02  0.12937459609E+03  0.12500000000E+03 0.  0.
</event>
<event>
 5    0  0.5677492E-005  0.3875267E+03  0.7546771E-02  0.1048186E+00
         21   -1    0    0  502  501  0.00000000000E+00  0.00000000000E+00  0.52368355222E+02  0.52368355222E+02  0.00000000000E+00 0.  1.
         21   -1    0    0  501  502 -0.00000000000E+00 -0.00000000000E+00 -0.28677041219E+04  0.28677041219E+04  0.00000000000E+00 0.  1.
         25    1    1    2    0    0  0.14649874755E+03  0.64621589226E+02 -0.36195874141E+03  0.41506260168E+03  0.12500000000E+03 0.  0.
         25    1    1    2    0    0 -0.25652390331E+03 -0.13592809907E+03 -0.13246089742E+04  0.13617984049E+04  0.12500000000E+03 0.  0.
         25    1    1    2    0    0  0.11002515576E+03  0.71306509846E+02 -0.11287680511E+04  0.11432114705E+04  0.12500000000E+03 0.  0.
</event>
<event>
 5    0  0.5677492E-005  0.5384616E+03  0.7546771E-02  0.1004200E+00
         21   -1    0    0  502  501  0.00000000000E+00  0.00000000000E+00  0.67947663905E+03  0.67947663905E+03  0.00000000000E+00 0.  1.
         21   -1    0    0  501  502 -0.00000000000E+00 -0.00000000000E+00 -0.42671206213E+03  0.42671206213E+03  0.00000000000E+00 0.  1.
         25    1    1    2    0    0  0.45639408671E+02  0.36037673301E+01 -0.50195205403E+01  0.13321463264E+03  0.12500000000E+03 0.  0.
         25    1    1    2    0    0 -0.42125551778E+03  0.12284764715E+03  0.31363898136E+03  0.55366250216E+03  0.12500000000E+03 0.  0.
         25    1    1    2    0    0  0.37561610911E+03 -0.12645141448E+03 -0.55854883896E+02  0.41931156638E+03  0.12500000000E+03 0.  0.
</event>
<event>
 5    0  0.5677492E-005  0.3413823E+03  0.7546771E-02  0.1066209E+00
         21   -1    0    0  502  501  0.00000000000E+00  0.00000000000E+00  0.24316486837E+03  0.24316486837E+03  0.00000000000E+00 0.  1.
         21   -1    0    0  501  502 -0.00000000000E+00 -0.00000000000E+00 -0.47927088528E+03  0.47927088528E+03  0.00000000000E+00 0.  1.
         25    1    1    2    0    0 -0.24679768903E+03  0.13385793003E+02 -0.48146735662E+02  0.28112521573E+03  0.12500000000E+03 0.  0.
         25    1    1    2    0    0  0.12479906224E+03  0.20885537904E+02  0.61152436556E+01  0.17797024424E+03  0.12500000000E+03 0.  0.
         25    1    1    2    0    0  0.12199862679E+03 -0.34271330907E+02 -0.19407452490E+03  0.26334029368E+03  0.12500000000E+03 0.  0.
</event>
<event>
 5    0  0.5677492E-005  0.3660845E+03  0.7546771E-02  0.1056200E+00
         21   -1    0    0  502  501  0.00000000000E+00  0.00000000000E+00  0.47539022779E+03  0.47539022779E+03  0.00000000000E+00 0.  1.
         21   -1    0    0  501  502 -0.00000000000E+00 -0.00000000000E+00 -0.28191131305E+03  0.28191131305E+03  0.00000000000E+00 0.  1.
         25    1    1    2    0    0 -0.55698478830E+02 -0.15626880849E+03  0.17742324076E+03  0.27317808736E+03  0.12500000000E+03 0.  0.
         25    1    1    2    0    0  0.10051259744E+03  0.17788130145E+03 -0.14051174956E+03  0.27769244033E+03  0.12500000000E+03 0.  0.
         25    1    1    2    0    0 -0.44814118614E+02 -0.21612492963E+02  0.15656742354E+03  0.20643101316E+03  0.12500000000E+03 0.  0.
</event>
<event>
 5    0  0.5677492E-005  0.3025481E+03  0.7546771E-02  0.1083974E+00
         21   -1    0    0  502  501  0.00000000000E+00  0.00000000000E+00  0.22900856248E+03  0.22900856248E+03  0.00000000000E+00 0.  1.
         21   -1    0    0  501  502 -0.00000000000E+00 -0.00000000000E+00 -0.39970269656E+03  0.39970269656E+03  0.00000000000E+00 0.  1.
         25    1    1    2    0    0  0.16451226329E+03 -0.76048570082E+02 -0.12898897709E+03  0.25516823077E+03  0.12500000000E+03 0.  0.
         25    1    1    2    0    0 -0.17499583423E+03  0.10952027460E+03 -0.24390814789E+02  0.24256575272E+03  0.12500000000E+03 0.  0.
         25    1    1    2    0    0  0.10483570944E+02 -0.33471704519E+02 -0.17314342198E+02  0.13097727554E+03  0.12500000000E+03 0.  0.
</event>
<event>
 5    0  0.5677492E-005  0.2468594E+03  0.7546771E-02  0.1115306E+00
         21   -1    0    0  502  501  0.00000000000E+00  0.00000000000E+00  0.79842638285E+02  0.79842638285E+02  0.00000000000E+00 0. -1.
         21   -1    0    0  501  502 -0.00000000000E+00 -0.00000000000E+00 -0.76324584118E+03  0.76324584118E+03  0.00000000000E+00 0. -1.
         25    1    1    2    0    0 -0.49681566810E+02 -0.79268079782E+02 -0.31705389345E+03  0.35341173991E+03  0.12500000000E+03 0.  0.
         25    1    1    2    0    0 -0.13016753705E+02  0.12195703096E+03 -0.16318449814E+03  0.23936819695E+03  0.12500000000E+03 0.  0.
         25    1    1    2    0    0  0.62698320515E+02 -0.42688951181E+02 -0.20316481130E+03  0.25030854260E+03  0.12500000000E+03 0.  0.
</event>
<event>
 5    0  0.5677492E-005  0.3056425E+03  0.7546771E-02  0.1082454E+00
         21   -1    0    0  502  501  0.00000000000E+00  0.00000000000E+00  0.19418682470E+03  0.19418682470E+03  0.00000000000E+00 0.  1.
         21   -1    0    0  501  502 -0.00000000000E+00 -0.00000000000E+00 -0.48106946274E+03  0.48106946274E+03  0.00000000000E+00 0.  1.
         25    1    1    2    0    0 -0.62062973117E+02  0.13817288568E+03 -0.30263924072E+02  0.19870698042E+03  0.12500000000E+03 0.  0.
         25    1    1    2    0    0  0.37153304261E+01 -0.15043171840E+03 -0.12673193538E+02  0.19603345484E+03  0.12500000000E+03 0.  0.
         25    1    1    2    0    0  0.58347642691E+02  0.12258832719E+02 -0.24394552043E+03  0.28051585218E+03  0.12500000000E+03 0.  0.
</event>
<event>
 5    0  0.5677492E-005  0.2231902E+03  0.7546771E-02  0.1131527E+00
         21   -1    0    0  502  501  0.00000000000E+00  0.00000000000E+00  0.24159135431E+04  0.24159135431E+04  0.00000000000E+00 0. -1.
         21   -1    0    0  501  502 -0.00000000000E+00 -0.00000000000E+00 -0.20619053368E+02  0.20619053368E+02  0.00000000000E+00 0. -1.
         25    1    1    2    0    0 -0.66476256327E+02  0.17874360867E+02  0.87571961657E+03  0.88727021378E+03  0.12500000000E+03 0.  0.
         25    1    1    2    0    0  0.40705681115E+02  0.61220084156E+02  0.58521434947E+03  0.60291432725E+03  0.12500000000E+03 0.  0.
         25    1    1    2    0    0  0.25770575212E+02 -0.79094445023E+02  0.93436052373E+03  0.94634805547E+03  0.12500000000E+03 0.  0.
</event>
<event>
 5    0  0.5677492E-005  0.2228737E+03  0.7546771E-02  0.1131759E+00
         21   -1    0    0  502  501  0.00000000000E+00  0.00000000000E+00  0.21582073423E+03  0.21582073423E+03  0.00000000000E+00 0.  1.
         21   -1    0    0  501  502 -0.00000000000E+00 -0.00000000000E+00 -0.23015722324E+03  0.23015722324E+03  0.00000000000E+00 0.  1.
         25    1    1    2    0    0 -0.56810010449E+02  0.11158406211E+02  0.48908240078E+02  0.14618106329E+03  0.12500000000E+03 0.  0.
         25    1    1    2    0    0  0.91699379525E+02  0.25918486504E+02 -0.22308007963E+02  0.15875513021E+03  0.12500000000E+03 0.  0.
         25    1    1    2    0    0 -0.34889369076E+02 -0.37076892715E+02 -0.40936721128E+02  0.14104176397E+03  0.12500000000E+03 0.  0.
</event>
<event>
 5    0  0.6183981E-005  0.3695351E+03  0.7546771E-02  0.1054871E+00
         21   -1    0    0  502  501  0.00000000000E+00  0.00000000000E+00  0.59689563612E+03  0.59689563612E+03  0.00000000000E+00 0. -1.
         21   -1    0    0  501  502 -0.00000000000E+00 -0.00000000000E+00 -0.22877735494E+03  0.22877735494E+03  0.00000000000E+00 0. -1.
         25    1    1    2    0    0  0.11141198617E+03 -0.74776095166E+02  0.13316532377E+02  0.18386523626E+03  0.12500000000E+03 0.  0.
         25    1    1    2    0    0 -0.22903765216E+03 -0.57416617153E+02  0.56407213754E+02  0.27305986120E+03  0.12500000000E+03 0.  0.
         25    1    1    2    0    0  0.11762566600E+03  0.13219271232E+03  0.29839453505E+03  0.36874789360E+03  0.12500000000E+03 0.  0.
</event>
<event>
 5    0  0.5677492E-005  0.3514850E+03  0.7546771E-02  0.1062007E+00
         21   -1    0    0  502  501  0.00000000000E+00  0.00000000000E+00  0.45374017913E+03  0.45374017913E+03  0.00000000000E+00 0. -1.
         21   -1    0    0  501  502 -0.00000000000E+00 -0.00000000000E+00 -0.27227406196E+03  0.27227406196E+03  0.00000000000E+00 0. -1.
         25    1    1    2    0    0  0.16368051885E+03  0.67456967185E+02  0.42648821810E+02  0.22087479864E+03  0.12500000000E+03 0.  0.
         25    1    1    2    0    0  0.31157614920E+02 -0.18489009767E+03  0.78749525314E+02  0.23870825901E+03  0.12500000000E+03 0.  0.
         25    1    1    2    0    0 -0.19483813377E+03  0.11743313049E+03  0.60067770046E+02  0.26643118343E+03  0.12500000000E+03 0.  0.
</event>
<event>
 5    0  0.5677492E-005  0.2606012E+03  0.7546771E-02  0.1106783E+00
         21   -1    0    0  502  501  0.00000000000E+00  0.00000000000E+00  0.12407148521E+03  0.12407148521E+03  0.00000000000E+00 0. -1.
         21   -1    0    0  501  502 -0.00000000000E+00 -0.00000000000E+00 -0.54736987364E+03  0.54736987364E+03  0.00000000000E+00 0. -1.
         25    1    1    2    0    0  0.12018460610E+03 -0.95761010212E+01 -0.11913221176E+03  0.21060276620E+03  0.12500000000E+03 0.  0.
         25    1    1    2    0    0 -0.16514433889E+03 -0.21941444523E+02 -0.20370579718E+03  0.29133336825E+03  0.12500000000E+03 0.  0.
         25    1    1    2    0    0  0.44959732791E+02  0.31517545544E+02 -0.10046037950E+03  0.16950522440E+03  0.12500000000E+03 0.  0.
</event>
<event>
 5    0  0.5677492E-005  0.3220594E+03  0.7546771E-02  0.1074705E+00
         21   -1    0    0  502  501  0.00000000000E+00  0.00000000000E+00  0.31216380917E+04  0.31216380917E+04  0.00000000000E+00 0.  1.
         21   -1    0    0  501  502 -0.00000000000E+00 -0.00000000000E+00 -0.33226868966E+02  0.33226868966E+02  0.00000000000E+00 0.  1.
         25    1    1    2    0    0  0.89578095004E+02  0.30194775711E+02  0.56716575775E+03  0.58841988100E+03  0.12500000000E+03 0.  0.
         25    1    1    2    0    0 -0.14537145778E+03 -0.15598045800E+03  0.19526581111E+04  0.19682381621E+04  0.12500000000E+03 0.  0.
         25    1    1    2    0    0  0.55793362781E+02  0.12578568229E+03  0.56858735391E+03  0.59820691757E+03  0.12500000000E+03 0.  0.
</event>
<event>
 5    0  0.5677492E-005  0.2198709E+03  0.7546771E-02  0.1133979E+00
         21   -1    0    0  502  501  0.00000000000E+00  0.00000000000E+00  0.19501361811E+03  0.19501361811E+03  0.00000000000E+00 0. -1.
         21   -1    0    0  501  502 -0.00000000000E+00 -0.00000000000E+00 -0.24789654372E+03  0.24789654372E+03  0.00000000000E+00 0. -1.
         25    1    1    2    0    0 -0.67633893041E+01 -0.10533953601E+03 -0.36859285807E+02  0.16770738872E+03  0.12500000000E+03 0.  0.
         25    1    1    2    0    0  0.99584265015E+01  0.59274296698E+02 -0.27690472585E+02  0.14143682257E+03  0.12500000000E+03 0.  0.
         25    1    1    2    0    0 -0.31950371975E+01  0.46065239315E+02  0.11666832779E+02  0.13376595054E+03  0.12500000000E+03 0.  0.
</event>
<event>
 5    0  0.5677492E-005  0.3992683E+03  0.7546771E-02  0.1044033E+00
         21   -1    0    0  502  501  0.00000000000E+00  0.00000000000E+00  0.40775171046E+03  0.40775171046E+03  0.00000000000E+00 0.  1.
         21   -1    0    0  501  502 -0.00000000000E+00 -0.00000000000E+00 -0.39096147041E+03  0.39096147041E+03  0.00000000000E+00 0.  1.
         25    1    1    2    0    0 -0.17839006797E+03 -0.11220981404E+03  0.17912697616E+03  0.30352188110E+03  0.12500000000E+03 0.  0.
         25    1    1    2    0    0 -0.12519027507E+02  0.11824125316E+03 -0.19968196979E+03  0.26388559843E+03  0.12500000000E+03 0.  0.
         25    1    1    2    0    0  0.19090909547E+03 -0.60314391239E+01  0.37345233680E+02  0.23130570134E+03  0.12500000000E+03 0.  0.
</event>
<event>
 5    0  0.5677492E-005  0.2172240E+03  0.7546771E-02  0.1135970E+00
         21   -1    0    0  502  501  0.00000000000E+00  0.00000000000E+00  0.38511928455E+02  0.38511928455E+02  0.00000000000E+00 0.  1.
         21   -1    0    0  501  502 -0.00000000000E+00 -0.00000000000E+00 -0.12252378345E+04  0.12252378345E+04  0.00000000000E+00 0.  1.
         25    1    1    2    0    0 -0.22472416242E+02  0.14682095279E+02 -0.65492196160E+03  0.66728430912E+03  0.12500000000E+03 0.  0.
         25    1    1    2    0    0  0.33175418889E+02  0.24873850543E+02 -0.33283320055E+03  0.35794169392E+03  0.12500000000E+03 0.  0.
         25    1    1    2    0    0 -0.10703002647E+02 -0.39555945823E+02 -0.19897074388E+03  0.23852375990E+03  0.12500000000E+03 0.  0.
</event>
<event>
 5    0  0.5677492E-005  0.2128414E+03  0.7546771E-02  0.1139335E+00
         21   -1    0    0  502  501  0.00000000000E+00  0.00000000000E+00  0.12148894405E+03  0.12148894405E+03  0.00000000000E+00 0. -1.
         21   -1    0    0  501  502 -0.00000000000E+00 -0.00000000000E+00 -0.37288560188E+03  0.37288560188E+03  0.00000000000E+00 0. -1.
         25    1    1    2    0    0 -0.20897911015E+02  0.46589079748E+02 -0.80067660092E+02  0.15698119387E+03  0.12500000000E+03 0.  0.
         25    1    1    2    0    0  0.53880293636E+02 -0.78271759478E+02 -0.10288651901E+03  0.18772370699E+03  0.12500000000E+03 0.  0.
         25    1    1    2    0    0 -0.32982382621E+02  0.31682679731E+02 -0.68442478737E+02  0.14966964507E+03  0.12500000000E+03 0.  0.
</event>
<event>
 5    0  0.5677492E-005  0.2499648E+03  0.7546771E-02  0.1113327E+00
         21   -1    0    0  502  501  0.00000000000E+00  0.00000000000E+00  0.11508256888E+03  0.11508256888E+03  0.00000000000E+00 0. -1.
         21   -1    0    0  501  502 -0.00000000000E+00 -0.00000000000E+00 -0.54293536846E+03  0.54293536846E+03  0.00000000000E+00 0. -1.
         25    1    1    2    0    0  0.40802775952E+02  0.79096470214E+02 -0.29093073159E+02  0.15618106489E+03  0.12500000000E+03 0.  0.
         25    1    1    2    0    0 -0.86221065118E+02 -0.79119372381E+02 -0.21071153113E+03  0.27151113514E+03  0.12500000000E+03 0.  0.
         25    1    1    2    0    0  0.45418289165E+02  0.22902166850E-01 -0.18804819529E+03  0.23032573731E+03  0.12500000000E+03 0.  0.
</event>
<event>
 5    0  0.5677492E-005  0.4248107E+03  0.7546771E-02  0.1035512E+00
         21   -1    0    0  502  501  0.00000000000E+00  0.00000000000E+00  0.64179699570E+03  0.64179699570E+03  0.00000000000E+00 0. -1.
         21   -1    0    0  501  502 -0.00000000000E+00 -0.00000000000E+00 -0.28118573658E+03  0.28118573658E+03  0.00000000000E+00 0. -1.
         25    1    1    2    0    0 -0.18054125241E+02  0.16217592904E+03  0.40054293475E+03  0.45020731444E+03  0.12500000000E+03 0.  0.
         25    1    1    2    0    0 -0.33272449051E+02  0.78943308304E+02 -0.11045124532E+03  0.18751954401E+03  0.12500000000E+03 0.  0.
         25    1    1    2    0    0  0.51326574292E+02 -0.24111923735E+03  0.70519569699E+02  0.28525587383E+03  0.12500000000E+03 0.  0.
</event>
<event>
 5    0  0.5677492E-005  0.2857409E+03  0.7546771E-02  0.1092594E+00
         21   -1    0    0  502  501  0.00000000000E+00  0.00000000000E+00  0.19686487191E+03  0.19686487191E+03  0.00000000000E+00 0. -1.
         21   -1    0    0  501  502 -0.00000000000E+00 -0.00000000000E+00 -0.41474054453E+03  0.41474054453E+03  0.00000000000E+00 0. -1.
         25    1    1    2    0    0 -0.37811055792E+02 -0.13038809684E+03  0.10592882270E+02  0.18484572187E+03  0.12500000000E+03 0.  0.
         25    1    1    2    0    0  0.11561442406E+03  0.44456640875E+02 -0.17478858827E+03  0.24803051941E+03  0.12500000000E+03 0.  0.
         25    1    1    2    0    0 -0.77803368265E+02  0.85931455964E+02 -0.53679966624E+02  0.17872917516E+03  0.12500000000E+03 0.  0.
</event>
<event>
 5    0  0.5677492E-005  0.2668252E+03  0.7546771E-02  0.1103111E+00
         21   -1    0    0  502  501  0.00000000000E+00  0.00000000000E+00  0.69223540642E+03  0.69223540642E+03  0.00000000000E+00 0. -1.
         21   -1    0    0  501  502 -0.00000000000E+00 -0.00000000000E+00 -0.10284893703E+03  0.10284893703E+03  0.00000000000E+00 0. -1.
         25    1    1    2    0    0 -0.14849792153E+03  0.91127889876E+02  0.23187089799E+03  0.31582437896E+03  0.12500000000E+03 0.  0.
         25    1    1    2    0    0  0.27423850645E+02 -0.49404502271E+02  0.18830567001E+03  0.23297402814E+03  0.12500000000E+03 0.  0.
         25    1    1    2    0    0  0.12107407089E+03 -0.41723387605E+02  0.16920990139E+03  0.24628593635E+03  0.12500000000E+03 0.  0.
</event>
<event>
 5    0  0.5898369E-005  0.2769445E+03  0.7546771E-02  0.1097370E+00
         21   -1    0    0  502  501  0.00000000000E+00  0.00000000000E+00  0.22384642722E+03  0.22384642722E+03  0.00000000000E+00 0. -1.
         21   -1    0    0  501  502 -0.00000000000E+00 -0.00000000000E+00 -0.34263773931E+03  0.34263773931E+03  0.00000000000E+00 0. -1.
         25    1    1    2    0    0  0.59377043141E+02  0.51129372182E+02 -0.20167481485E+03  0.24987512261E+03  0.12500000000E+03 0.  0.
         25    1    1    2    0    0 -0.98128580443E+02 -0.60205521583E+02  0.19931092161E+02  0.17110280992E+03  0.12500000000E+03 0.  0.
         25    1    1    2    0    0  0.38751537302E+02  0.90761494011E+01  0.62952410598E+02  0.14550623399E+03  0.12500000000E+03 0.  0.
</event>
<event>
 5    0  0.5677492E-005  0.3090631E+03  0.7546771E-02  0.1080796E+00
         21   -1    0    0  502  501  0.00000000000E+00  0.00000000000E+00  0.20111334299E+04  0.20111334299E+04  0.00000000000E+00 0.  1.
         21   -1    0    0  501  502 -0.00000000000E+00 -0.00000000000E+00 -0.47495603145E+02  0.47495603145E+02  0.00000000000E+00 0.  1.
         25    1    1    2    0    0 -0.12342504207E+03 -0.40458950738E+02  0.32069905849E+03  0.36789068188E+03  0.12500000000E+03 0.  0.
         25    1    1    2    0    0 -0.32601085250E+02  0.10482778910E+03  0.45686764087E+03  0.48621470299E+03  0.12500000000E+03 0.  0.
         25    1    1    2    0    0  0.15602612732E+03 -0.64368838361E+02  0.11860711274E+04  0.12045236482E+04  0.12500000000E+03 0.  0.
</event>
<event>
 5    0  0.5677492E-005  0.2921664E+03  0.7546771E-02  0.1089223E+00
         21   -1    0    0  502  501  0.00000000000E+00  0.00000000000E+00  0.33708640355E+02  0.33708640355E+02  0.00000000000E+00 0.  1.
         21   -1    0    0  501  502 -0.00000000000E+00 -0.00000000000E+00 -0.25323246785E+04  0.25323246785E+04  0.00000000000E+00 0.  1.
         25    1    1    2    0    0 -0.54193259108E+02  0.64626041180E+02 -0.13250101390E+04  0.13335630105E+04  0.12500000000E+03 0.  0.
         25    1    1    2    0    0  0.71030476432E+01 -0.89310436809E+02 -0.21530733264E+03  0.26459224270E+03  0.12500000000E+03 0.  0.
         25    1    1    2    0    0  0.47090211465E+02  0.24684395629E+02 -0.95829856655E+03  0.96787806570E+03  0.12500000000E+03 0.  0.
</event>
<event>
 5    0  0.5677492E-005  0.3937685E+03  0.7546771E-02  0.1045959E+00
         21   -1    0    0  502  501  0.00000000000E+00  0.00000000000E+00  0.40538778221E+03  0.40538778221E+03  0.00000000000E+00 0.  1.
         21   -1    0    0  501  502 -0.00000000000E+00 -0.00000000000E+00 -0.38248233242E+03  0.38248233242E+03  0.00000000000E+00 0.  1.
         25    1    1    2    0    0 -0.53360941645E+02  0.10742808499E+03 -0.83258315306E+02  0.19221116150E+03  0.12500000000E+03 0.  0.
         25    1    1    2    0    0 -0.98723496575E+02 -0.25406645061E+03  0.16634353074E+03  0.34291582104E+03  0.12500000000E+03 0.  0.
         25    1    1    2    0    0  0.15208443822E+03  0.14663836562E+03 -0.60179765643E+02  0.25274313208E+03  0.12500000000E+03 0.  0.
</event>
<event>
 5    0  0.5677492E-005  0.4621386E+03  0.7546771E-02  0.1024163E+00
         21   -1    0    0  502  501  0.00000000000E+00  0.00000000000E+00  0.12340822734E+03  0.12340822734E+03  0.00000000000E+00 0. -1.
         21   -1    0    0  501  502 -0.00000000000E+00 -0.00000000000E+00 -0.17306149505E+04  0.17306149505E+04  0.00000000000E+00 0. -1.
         25    1    1    2    0    0  0.22325791790E+03 -0.11720748469E+03 -0.14897409535E+03  0.31843362489E+03  0.12500000000E+03 0.  0.
         25    1    1    2    0    0 -0.13071686039E+03 -0.87473342045E+02 -0.41390093059E+03  0.46008419175E+03  0.12500000000E+03 0.  0.
         25    1    1    2    0    0 -0.92541057508E+02  0.20468082673E+03 -0.10443316972E+04  0.10755053612E+04  0.12500000000E+03 0.  0.
</event>
<event>
 5    0  0.5677492E-005  0.3099924E+03  0.7546771E-02  0.1080350E+00
         21   -1    0    0  502  501  0.00000000000E+00  0.00000000000E+00  0.17427438365E+04  0.17427438365E+04  0.00000000000E+00 0. -1.
         21   -1    0    0  501  502 -0.00000000000E+00 -0.00000000000E+00 -0.55140213629E+02  0.55140213629E+02  0.00000000000E+00 0. -1.
         25    1    1    2    0    0  0.69562479407E+02  0.83196964939E+02  0.64510402910E+03  0.66599165301E+03  0.12500000000E+03 0.  0.
         25    1    1    2    0    0  0.11197550333E+03 -0.36603894698E+02  0.70846067542E+03  0.72898551911E+03  0.12500000000E+03 0.  0.
         25    1    1    2    0    0 -0.18153798274E+03 -0.46593070241E+02  0.33403891833E+03  0.40290687799E+03  0.12500000000E+03 0.  0.
</event>
<event>
 5    0  0.6988527E-005  0.2992118E+03  0.7546771E-02  0.1085635E+00
         21   -1    0    0  502  501  0.00000000000E+00  0.00000000000E+00  0.24430162616E+03  0.24430162616E+03  0.00000000000E+00 0.  1.
         21   -1    0    0  501  502 -0.00000000000E+00 -0.00000000000E+00 -0.36646384997E+03  0.36646384997E+03  0.00000000000E+00 0.  1.
         25    1    1    2    0    0 -0.56372970786E+02  0.11125360246E+02 -0.17237752755E+03  0.22054636130E+03  0.12500000000E+03 0.  0.
         25    1    1    2    0    0  0.30300100734E+02 -0.88055307419E+02 -0.94642320042E+02  0.18235679865E+03  0.12500000000E+03 0.  0.
         25    1    1    2    0    0  0.26072870052E+02  0.76929947174E+02  0.14485762378E+03  0.20786231619E+03  0.12500000000E+03 0.  0.
</event>
<event>
 5    0  0.5677492E-005  0.3155740E+03  0.7546771E-02  0.1077704E+00
         21   -1    0    0  502  501  0.00000000000E+00  0.00000000000E+00  0.32028899170E+02  0.32028899170E+02  0.00000000000E+00 0. -1.
         21   -1    0    0  501  502 -0.00000000000E+00 -0.00000000000E+00 -0.31092846988E+04  0.31092846988E+04  0.00000000000E+00 0. -1.
         25    1    1    2    0    0 -0.49023372477E+02 -0.81566745731E+02 -0.74934157279E+03  0.76563321360E+03  0.12500000000E+03 0.  0.
         25    1    1    2    0    0  0.11311107033E+03 -0.97148989670E+02 -0.16325770809E+04  0.16441304588E+04  0.12500000000E+03 0.  0.
         25    1    1    2    0    0 -0.64087697849E+02  0.17871573540E+03 -0.69533714589E+03  0.73154992554E+03  0.12500000000E+03 0.  0.
</event>
<event>
 5    0  0.5677492E-005  0.3671654E+03  0.7546771E-02  0.1055782E+00
         21   -1    0    0  502  501  0.00000000000E+00  0.00000000000E+00  0.48924543825E+03  0.48924543825E+03  0.00000000000E+00 0.  1.
         21   -1    0    0  501  502 -0.00000000000E+00 -0.00000000000E+00 -0.27554759639E+03  0.27554759639E+03  0.00000000000E+00 0.  1.
         25    1    1    2    0    0 -0.48962003657E+02 -0.39797102401E+02  0.17123675107E+03  0.22119699835E+03  0.12500000000E+03 0.  0.
         25    1    1    2    0    0 -0.79366935965E+01  0.45488616500E+02 -0.21430177273E+03  0.25235382924E+03  0.12500000000E+03 0.  0.
         25    1    1    2    0    0  0.56898697254E+02 -0.56915140984E+01  0.25676286352E+03  0.29124220705E+03  0.12500000000E+03 0.  0.
</event>
<event>
 5    0  0.5677492E-005  0.2469197E+03  0.7546771E-02  0.1115267E+00
         21   -1    0    0  502  501  0.00000000000E+00  0.00000000000E+00  0.20841700200E+03  0.20841700200E+03  0.00000000000E+00 0. -1.
         21   -1    0    0  501  502 -0.00000000000E+00 -0.00000000000E+00 -0.29253527412E+03  0.29253527412E+03  0.00000000000E+00 0. -1.
         25    1    1    2    0    0 -0.23121511955E+02 -0.66634719579E+02  0.25486883952E+02  0.14577164135E+03  0.12500000000E+03 0.  0.
         25    1    1    2    0    0  0.28058710521E+02  0.10200967414E+03  0.27706450552E+02  0.16609007272E+03  0.12500000000E+03 0.  0.
         25    1    1    2    0    0 -0.49371985663E+01 -0.35374954563E+02 -0.13731160662E+03  0.18909056204E+03  0.12500000000E+03 0.  0.
</event>
<event>
 5    0  0.5677492E-005  0.3068080E+03  0.7546771E-02  0.1081886E+00
         21   -1    0    0  502  501  0.00000000000E+00  0.00000000000E+00  0.99097159616E+03  0.99097159616E+03  0.00000000000E+00 0.  1.
         21   -1    0    0  501  502 -0.00000000000E+00 -0.00000000000E+00 -0.94988728522E+02  0.94988728522E+02  0.00000000000E+00 0.  1.
         25    1    1    2    0    0  0.30777303317E+02  0.11926987890E+03  0.21073680908E+03  0.27423994806E+03  0.12500000000E+03 0.  0.
         25    1    1    2    0    0 -0.17222809031E+03 -0.96708531514E+02  0.46734775003E+03  0.52254566749E+03  0.12500000000E+03 0.  0.
         25    1    1    2    0    0  0.14145078700E+03 -0.22561347383E+02  0.21789830853E+03  0.28917470913E+03  0.12500000000E+03 0.  0.
</event>
<event>
 5    0  0.5677492E-005  0.3061824E+03  0.7546771E-02  0.1082190E+00
         21   -1    0    0  502  501  0.00000000000E+00  0.00000000000E+00  0.59042402732E+02  0.59042402732E+02  0.00000000000E+00 0. -1.
         21   -1    0    0  501  502 -0.00000000000E+00 -0.00000000000E+00 -0.15878024713E+04  0.15878024713E+04  0.00000000000E+00 0. -1.
         25    1    1    2    0    0 -0.75346243414E+02  0.84286791126E+02 -0.62767344563E+03  0.64990789648E+03  0.12500000000E+03 0.  0.
         25    1    1    2    0    0  0.19489754878E+03 -0.10120830429E+03 -0.54088883261E+03  0.59700410771E+03  0.12500000000E+03 0.  0.
         25    1    1    2    0    0 -0.11955130537E+03  0.16921513159E+02 -0.36019779028E+03  0.39993286980E+03  0.12500000000E+03 0.  0.
</event>
<event>
 5    0  0.5677492E-005  0.4295316E+03  0.7546771E-02  0.1034008E+00
         21   -1    0    0  502  501  0.00000000000E+00  0.00000000000E+00  0.20615900675E+03  0.20615900675E+03  0.00000000000E+00 0. -1.
         21   -1    0    0  501  502 -0.00000000000E+00 -0.00000000000E+00 -0.89492751050E+03  0.89492751050E+03  0.00000000000E+00 0. -1.
         25    1    1    2    0    0 -0.55882514178E+02  0.74562367242E+02 -0.70926149640E+03  0.72619506489E+03  0.12500000000E+03 0.  0.
         25    1    1    2    0    0  0.15638060915E+03 -0.14116244954E+02 -0.93344257452E+01  0.20091365010E+03  0.12500000000E+03 0.  0.
         25    1    1    2    0    0 -0.10049809498E+03 -0.60446122288E+02  0.29827418396E+02  0.17397780227E+03  0.12500000000E+03 0.  0.
</event>
<event>
 5    0  0.5677492E-005  0.3214877E+03  0.7546771E-02  0.1074967E+00
         21   -1    0    0  502  501  0.00000000000E+00  0.00000000000E+00  0.23119241151E+04  0.23119241151E+04  0.00000000000E+00 0. -1.
         21   -1    0    0  501  502 -0.00000000000E+00 -0.00000000000E+00 -0.44704892251E+02  0.44704892251E+02  0.00000000000E+00 0. -1.
         25    1    1    2    0    0  0.10629452911E+03 -0.57489380157E+01  0.50309841813E+03  0.52921129573E+03  0.12500000000E+03 0.  0.
         25    1    1    2    0    0  0.24432488102E+01  0.56857079798E+01  0.15577576973E+04  0.15627771243E+04  0.12500000000E+03 0.  0.
         25    1    1    2    0    0 -0.10873777792E+03  0.63230035888E-01  0.20636310735E+03  0.26464058725E+03  0.12500000000E+03 0.  0.
</event>
<event>
 5    0  0.5677492E-005  0.3089126E+03  0.7546771E-02  0.1080868E+00
         21   -1    0    0  502  501  0.00000000000E+00  0.00000000000E+00  0.17470092220E+03  0.17470092220E+03  0.00000000000E+00 0.  1.
         21   -1    0    0  501  502 -0.00000000000E+00 -0.00000000000E+00 -0.54623052369E+03  0.54623052369E+03  0.00000000000E+00 0.  1.
         25    1    1    2    0    0 -0.76250405627E+02  0.14543617375E+03 -0.18683702136E+03  0.27838620215E+03  0.12500000000E+03 0.  0.
         25    1    1    2    0    0  0.14614794097E+03 -0.64578095529E+02 -0.19006664802E+03  0.27799259300E+03  0.12500000000E+03 0.  0.
         25    1    1    2    0    0 -0.69897535345E+02 -0.80858078223E+02  0.53740679032E+01  0.16455265074E+03  0.12500000000E+03 0.  0.
</event>
<event>
 5    0  0.5677492E-005  0.3459275E+03  0.7546771E-02  0.1064299E+00
         21   -1    0    0  502  501  0.00000000000E+00  0.00000000000E+00  0.97348012299E+03  0.97348012299E+03  0.00000000000E+00 0.  1.
         21   -1    0    0  501  502 -0.00000000000E+00 -0.00000000000E+00 -0.12292578738E+03  0.12292578738E+03  0.00000000000E+00 0.  1.
         25    1    1    2    0    0 -0.12445516070E+03  0.78304758932E+02  0.71938576811E+03  0.74482320429E+03  0.12500000000E+03 0.  0.
         25    1    1    2    0    0  0.53882669722E+00  0.16739652251E+02  0.47823631904E+02  0.13487996908E+03  0.12500000000E+03 0.  0.
         25    1    1    2    0    0  0.12391633400E+03 -0.95044411183E+02  0.83344935605E+02  0.21670273699E+03  0.12500000000E+03 0.  0.
</event>
<event>
 5    0  0.5677492E-005  0.3369867E+03  0.7546771E-02  0.1068087E+00
         21   -1    0    0  502  501  0.00000000000E+00  0.00000000000E+00  0.16435945721E+03  0.16435945721E+03  0.00000000000E+00 0.  1.
         21   -1    0    0  501  502 -0.00000000000E+00 -0.00000000000E+00 -0.69092470877E+03  0.69092470877E+03  0.00000000000E+00 0.  1.
         25    1    1    2    0    0 -0.10683848291E+03 -0.91040966552E+02 -0.42768121144E+02  0.19276159163E+03  0.12500000000E+03 0.  0.
         25    1    1    2    0    0 -0.10420289349E+03  0.78263820076E+02 -0.31957287365E+03  0.36706306013E+03  0.12500000000E+03 0.  0.
         25    1    1    2    0    0  0.21104137640E+03  0.12777146477E+02 -0.16422425677E+03  0.29545951421E+03  0.12500000000E+03 0.  0.
</event>
<event>
 5    0  0.5677492E-005  0.2980687E+03  0.7546771E-02  0.1086210E+00
         21   -1    0    0  502  501  0.00000000000E+00  0.00000000000E+00  0.31802117445E+03  0.31802117445E+03  0.00000000000E+00 0. -1.
         21   -1    0    0  501  502 -0.00000000000E+00 -0.00000000000E+00 -0.27936797530E+03  0.27936797530E+03  0.00000000000E+00 0. -1.
         25    1    1    2    0    0 -0.24172631742E+01 -0.97020710061E+02 -0.76928714316E+02  0.17595990574E+03  0.12500000000E+03 0.  0.
         25    1    1    2    0    0 -0.11542983051E+03  0.80135728215E+02 -0.36253504627E+02  0.19153354094E+03  0.12500000000E+03 0.  0.
         25    1    1    2    0    0  0.11784709369E+03  0.16884981847E+02  0.15183541809E+03  0.22989570307E+03  0.12500000000E+03 0.  0.
</event>
<event>
 5    0  0.5677492E-005  0.3308944E+03  0.7546771E-02  0.1070742E+00
         21   -1    0    0  502  501  0.00000000000E+00  0.00000000000E+00  0.13132810809E+03  0.13132810809E+03  0.00000000000E+00 0.  1.
         21   -1    0    0  501  502 -0.00000000000E+00 -0.00000000000E+00 -0.83372175327E+03  0.83372175327E+03  0.00000000000E+00 0.  1.
         25    1    1    2    0    0  0.11908329934E+03 -0.14403587063E+03 -0.55382215024E+03  0.59772162275E+03  0.12500000000E+03 0.  0.
         25    1    1    2    0    0 -0.23922218989E+01  0.78207826255E+02 -0.98619543705E+02  0.17740631672E+03  0.12500000000E+03 0.  0.
         25    1    1    2    0    0 -0.11669107745E+03  0.65828044370E+02 -0.49951951232E+02  0.18992192189E+03  0.12500000000E+03 0.  0.
</event>
<event>
 5    0  0.5677492E-005  0.3052604E+03  0.7546771E-02  0.1082640E+00
         21   -1    0    0  502  501  0.00000000000E+00  0.00000000000E+00  0.97107921242E+03  0.97107921242E+03  0.00000000000E+00 0.  1.
         21   -1    0    0  501  502 -0.00000000000E+00 -0.00000000000E+00 -0.95959130972E+02  0.95959130972E+02  0.00000000000E+00 0.  1.
         25    1    1    2    0    0  0.64200837529E+02  0.53434813610E+02  0.41134789782E+03  0.43796018070E+03  0.12500000000E+03 0.  0.
         25    1    1    2    0    0  0.11753361819E+03 -0.34607015711E+02  0.32111034716E+03  0.36571662799E+03  0.12500000000E+03 0.  0.
         25    1    1    2    0    0 -0.18173445572E+03 -0.18827797899E+02  0.14266183647E+03  0.26336153469E+03  0.12500000000E+03 0.  0.
</event>
<event>
 5    0  0.6256846E-005  0.2538316E+03  0.7546771E-02  0.1110907E+00
         21   -1    0    0  502  501  0.00000000000E+00  0.00000000000E+00  0.13491129635E+03  0.13491129635E+03  0.00000000000E+00 0. -1.
         21   -1    0    0  501  502 -0.00000000000E+00 -0.00000000000E+00 -0.47757672162E+03  0.47757672162E+03  0.00000000000E+00 0. -1.
         25    1    1    2    0    0  0.89575783582E+02 -0.75563788198E+02 -0.11229478001E+03  0.20486294128E+03  0.12500000000E+03 0.  0.
         25    1    1    2    0    0 -0.77778426681E+01 -0.55813544211E+02 -0.10147406242E+03  0.17058027992E+03  0.12500000000E+03 0.  0.
         25    1    1    2    0    0 -0.81797940914E+02  0.13137733241E+03 -0.12889658284E+03  0.23704479677E+03  0.12500000000E+03 0.  0.
</event>
<event>
 5    0  0.6537722E-005  0.3492051E+03  0.7546771E-02  0.1062942E+00
         21   -1    0    0  502  501  0.00000000000E+00  0.00000000000E+00  0.42885694341E+03  0.42885694341E+03  0.00000000000E+00 0.  1.
         21   -1    0    0  501  502 -0.00000000000E+00 -0.00000000000E+00 -0.28434703332E+03  0.28434703332E+03  0.00000000000E+00 0.  1.
         25    1    1    2    0    0  0.81375597224E+02  0.60045704886E+02  0.14910559830E+03  0.21928281725E+03  0.12500000000E+03 0.  0.
         25    1    1    2    0    0  0.81018886275E+02 -0.16241442722E+03 -0.10462751639E+03  0.24395578142E+03  0.12500000000E+03 0.  0.
         25    1    1    2    0    0 -0.16239448350E+03  0.10236872233E+03  0.10003182818E+03  0.24996537807E+03  0.12500000000E+03 0.  0.
</event>
<event>
 5    0  0.5677492E-005  0.4532719E+03  0.7546771E-02  0.1026751E+00
         21   -1    0    0  502  501  0.00000000000E+00  0.00000000000E+00  0.54800721267E+03  0.54800721267E+03  0.00000000000E+00 0. -1.
         21   -1    0    0  501  502 -0.00000000000E+00 -0.00000000000E+00 -0.37491371194E+03  0.37491371194E+03  0.00000000000E+00 0. -1.
         25    1    1    2    0    0 -0.68449362933E+01 -0.15323683819E+03  0.22023065814E+03  0.29606574357E+03  0.12500000000E+03 0.  0.
         25    1    1    2    0    0  0.21024079802E+03 -0.68118812479E+02  0.95692724340E+02  0.27133643924E+03  0.12500000000E+03 0.  0.
         25    1    1    2    0    0 -0.20339586173E+03  0.22135565067E+03 -0.14282988175E+03  0.35551874180E+03  0.12500000000E+03 0.  0.
</event>
<event>
 5    0  0.6613477E-005  0.3837627E+03  0.7546771E-02  0.1049552E+00
         21   -1    0    0  502  501  0.00000000000E+00  0.00000000000E+00  0.77432489882E+03  0.77432489882E+03  0.00000000000E+00 0. -1.
         21   -1    0    0  501  502 -0.00000000000E+00 -0.00000000000E+00 -0.19019643341E+03  0.19019643341E+03  0.00000000000E+00 0. -1.
         25    1    1    2    0    0  0.21783322292E+03 -0.39805895157E+02  0.19225454952E+03  0.31878305179E+03  0.12500000000E+03 0.  0.
         25    1    1    2    0    0 -0.11377934881E+03 -0.95063402966E+01  0.43804827579E+03  0.46962474662E+03  0.12500000000E+03 0.  0.
         25    1    1    2    0    0 -0.10405387411E+03  0.49312235454E+02 -0.46174359903E+02  0.17611353382E+03  0.12500000000E+03 0.  0.
</event>
<event>
 5    0  0.5677492E-005  0.2387954E+03  0.7546771E-02  0.1120598E+00
         21   -1    0    0  502  501  0.00000000000E+00  0.00000000000E+00  0.11258367018E+03  0.11258367018E+03  0.00000000000E+00 0.  1.
         21   -1    0    0  501  502 -0.00000000000E+00 -0.00000000000E+00 -0.50649656121E+03  0.50649656121E+03  0.00000000000E+00 0.  1.
         25    1    1    2    0    0 -0.16421870970E+02  0.10169161897E+02 -0.16458860457E+02  0.12754992665E+03  0.12500000000E+03 0.  0.
         25    1    1    2    0    0 -0.85194095108E+01 -0.86806513390E+02 -0.11914924957E+03  0.19346703796E+03  0.12500000000E+03 0.  0.
         25    1    1    2    0    0  0.24941280481E+02  0.76637351493E+02 -0.25830478101E+03  0.29806326679E+03  0.12500000000E+03 0.  0.
</event>
<event>
 5    0  0.5677492E-005  0.3746723E+03  0.7546771E-02  0.1052921E+00
         21   -1    0    0  502  501  0.00000000000E+00  0.00000000000E+00  0.20757046700E+03  0.20757046700E+03  0.00000000000E+00 0. -1.
         21   -1    0    0  501  502 -0.00000000000E+00 -0.00000000000E+00 -0.67629726755E+03  0.67629726755E+03  0.00000000000E+00 0. -1.
         25    1    1    2    0    0  0.95633530609E+02  0.19863630799E+03 -0.42008663863E+03  0.49061180069E+03  0.12500000000E+03 0.  0.
         25    1    1    2    0    0 -0.28819402062E+02 -0.20862158455E+03 -0.55080334621E+02  0.25102264188E+03  0.12500000000E+03 0.  0.
         25    1    1    2    0    0 -0.66814128548E+02  0.99852765668E+01  0.64401726958E+01  0.14223329197E+03  0.12500000000E+03 0.  0.
</event>
<event>
 5    0  0.5677492E-005  0.2862819E+03  0.7546771E-02  0.1092307E+00
         21   -1    0    0  502  501  0.00000000000E+00  0.00000000000E+00  0.68016527438E+03  0.68016527438E+03  0.00000000000E+00 0.  1.
         21   -1    0    0  501  502 -0.00000000000E+00 -0.00000000000E+00 -0.12049618941E+03  0.12049618941E+03  0.00000000000E+00 0.  1.
         25    1    1    2    0    0  0.31477466489E+01  0.14831053966E+03  0.13967047492E+03  0.23903716457E+03  0.12500000000E+03 0.  0.
         25    1    1    2    0    0 -0.79217816067E+02 -0.88437466695E+02  0.87240419586E+02  0.19321630031E+03  0.12500000000E+03 0.  0.
         25    1    1    2    0    0  0.76070069418E+02 -0.59873072966E+02  0.33275819047E+03  0.36840799890E+03  0.12500000000E+03 0.  0.
</event>
<event>
 5    0  0.5677492E-005  0.3217282E+03  0.7546771E-02  0.1074857E+00
         21   -1    0    0  502  501  0.00000000000E+00  0.00000000000E+00  0.56281863612E+03  0.56281863612E+03  0.00000000000E+00 0. -1.
         21   -1    0    0  501  502 -0.00000000000E+00 -0.00000000000E+00 -0.18391190967E+03  0.18391190967E+03  0.00000000000E+00 0. -1.
         25    1    1    2    0    0 -0.60578117310E+02 -0.26782689846E+02  0.28157785669E+02  0.14423897416E+03  0.12500000000E+03 0.  0.
         25    1    1    2    0    0  0.27258375736E+02 -0.11949723567E+02  0.42803146179E+03  0.44690239116E+03  0.12500000000E+03 0.  0.
         25    1    1    2    0    0  0.33319741574E+02  0.38732413413E+02 -0.77282521004E+02  0.15558918047E+03  0.12500000000E+03 0.  0.
</event>
<event>
 5    0  0.5677492E-005  0.2645957E+03  0.7546771E-02  0.1104413E+00
         21   -1    0    0  502  501  0.00000000000E+00  0.00000000000E+00  0.15082954740E+03  0.15082954740E+03  0.00000000000E+00 0. -1.
         21   -1    0    0  501  502 -0.00000000000E+00 -0.00000000000E+00 -0.46417232112E+03  0.46417232112E+03  0.00000000000E+00 0. -1.
         25    1    1    2    0    0 -0.53578323442E+02  0.57125147225E+02 -0.77993662269E+02  0.16685901397E+03  0.12500000000E+03 0.  0.
         25    1    1    2    0    0  0.99427003735E+02  0.88580653288E+02 -0.94293275568E+02  0.20554435781E+03  0.12500000000E+03 0.  0.
         25    1    1    2    0    0 -0.45848680293E+02 -0.14570580051E+03 -0.14105583588E+03  0.24259849674E+03  0.12500000000E+03 0.  0.
</event>
<event>
 5    0  0.5677492E-005  0.2812959E+03  0.7546771E-02  0.1094983E+00
         21   -1    0    0  502  501  0.00000000000E+00  0.00000000000E+00  0.94471261767E+02  0.94471261767E+02  0.00000000000E+00 0. -1.
         21   -1    0    0  501  502 -0.00000000000E+00 -0.00000000000E+00 -0.83758168583E+03  0.83758168583E+03  0.00000000000E+00 0. -1.
         25    1    1    2    0    0  0.41311960655E+02 -0.83964286411E+01 -0.23504022098E+03  0.26952937426E+03  0.12500000000E+03 0.  0.
         25    1    1    2    0    0 -0.10920897769E+03 -0.10229587936E+03 -0.10606212778E+03  0.22195770473E+03  0.12500000000E+03 0.  0.
         25    1    1    2    0    0  0.67897017035E+02  0.11069230800E+03 -0.40200807530E+03  0.44056586860E+03  0.12500000000E+03 0.  0.
</event>
<event>
 5    0  0.5677492E-005  0.5780464E+03  0.7546771E-02  0.9952030E-01
         21   -1    0    0  502  501  0.00000000000E+00  0.00000000000E+00  0.62708115026E+03  0.62708115026E+03  0.00000000000E+00 0.  1.
         21   -1    0    0  501  502 -0.00000000000E+00 -0.00000000000E+00 -0.53284593067E+03  0.53284593067E+03  0.00000000000E+00 0.  1.
         25    1    1    2    0    0  0.20090061952E+03 -0.11416730656E+03  0.17343525026E+03  0.31480155470E+03  0.12500000000E+03 0.  0.
         25    1    1    2    0    0  0.26630150036E+03  0.18522476676E+03  0.12101319548E+02  0.34784500176E+03  0.12500000000E+03 0.  0.
         25    1    1    2    0    0 -0.46720211988E+03 -0.71057460196E+02 -0.91301350216E+02  0.49728052447E+03  0.12500000000E+03 0.  0.
</event>
<event>
 5    0  0.5677492E-005  0.2923279E+03  0.7546771E-02  0.1089140E+00
         21   -1    0    0  502  501  0.00000000000E+00  0.00000000000E+00  0.19434232140E+03  0.19434232140E+03  0.00000000000E+00 0. -1.
         21   -1    0    0  501  502 -0.00000000000E+00 -0.00000000000E+00 -0.43971687557E+03  0.43971687557E+03  0.00000000000E+00 0. -1.
         25    1    1    2    0    0 -0.31712920944E+02  0.14183209658E+03 -0.10825457168E+03  0.22015018798E+03  0.12500000000E+03 0.  0.
         25    1    1    2    0    0  0.31548583251E+01  0.68573054590E+02 -0.32756067097E+02  0.14632216810E+03  0.12500000000E+03 0.  0.
         25    1    1    2    0    0  0.28558062619E+02 -0.21040515117E+03 -0.10436391539E+03  0.26758684089E+03  0.12500000000E+03 0.  0.
</event>
<event>
 5    0  0.5677492E-005  0.3685721E+03  0.7546771E-02  0.1055240E+00
         21   -1    0    0  502  501  0.00000000000E+00  0.00000000000E+00  0.15039360723E+03  0.15039360723E+03  0.00000000000E+00 0. -1.
         21   -1    0    0  501  502 -0.00000000000E+00 -0.00000000000E+00 -0.90326561832E+03  0.90326561832E+03  0.00000000000E+00 0. -1.
         25    1    1    2    0    0 -0.12881022097E+02  0.16953289088E+03 -0.54571054567E+02  0.21796862576E+03  0.12500000000E+03 0.  0.
         25    1    1    2    0    0  0.16996894470E+03 -0.47064841893E+02 -0.41134159849E+03  0.46468424996E+03  0.12500000000E+03 0.  0.
         25    1    1    2    0    0 -0.15708792261E+03 -0.12246804899E+03 -0.28695935804E+03  0.37100634983E+03  0.12500000000E+03 0.  0.
</event>
<event>
 5    0  0.5677492E-005  0.2063650E+03  0.7546771E-02  0.1144477E+00
         21   -1    0    0  502  501  0.00000000000E+00  0.00000000000E+00  0.43230172018E+03  0.43230172018E+03  0.00000000000E+00 0.  1.
         21   -1    0    0  501  502 -0.00000000000E+00 -0.00000000000E+00 -0.98511071055E+02  0.98511071055E+02  0.00000000000E+00 0.  1.
         25    1    1    2    0    0 -0.11202089642E+02 -0.70364870166E+02  0.88219892329E+02  0.16877337221E+03  0.12500000000E+03 0.  0.
         25    1    1    2    0    0 -0.12850501881E+01  0.27514920219E+02  0.15657210820E+03  0.20223389245E+03  0.12500000000E+03 0.  0.
         25    1    1    2    0    0  0.12487139830E+02  0.42849949947E+02  0.88998648598E+02  0.15980552657E+03  0.12500000000E+03 0.  0.
</event>
<event>
 5    0  0.5677492E-005  0.2614307E+03  0.7546771E-02  0.1106287E+00
         21   -1    0    0  502  501  0.00000000000E+00  0.00000000000E+00  0.34491783221E+03  0.34491783221E+03  0.00000000000E+00 0. -1.
         21   -1    0    0  501  502 -0.00000000000E+00 -0.00000000000E+00 -0.19815158483E+03  0.19815158483E+03  0.00000000000E+00 0. -1.
         25    1    1    2    0    0  0.10470512302E+03  0.66813729294E+02  0.77497682548E+02  0.19250487789E+03  0.12500000000E+03 0.  0.
         25    1    1    2    0    0 -0.13292575008E+03  0.27493578285E+02  0.39004700831E+02  0.18860413190E+03  0.12500000000E+03 0.  0.
         25    1    1    2    0    0  0.28220627060E+02 -0.94307307578E+02  0.30263864007E+02  0.16196040726E+03  0.12500000000E+03 0.  0.
</event>
<event>
 5    0  0.5677492E-005  0.4000343E+03  0.7546771E-02  0.1043768E+00
         21   -1    0    0  502  501  0.00000000000E+00  0.00000000000E+00  0.10740394834E+04  0.10740394834E+04  0.00000000000E+00 0.  1.
         21   -1    0    0  501  502 -0.00000000000E+00 -0.00000000000E+00 -0.14899585202E+03  0.14899585202E+03  0.00000000000E+00 0.  1.
         25    1    1    2    0    0  0.45874984302E+02  0.60674694538E+02 -0.92032595362E+01  0.14661388996E+03  0.12500000000E+03 0.  0.
         25    1    1    2    0    0 -0.12124260394E+03  0.17966116631E+03  0.38088017309E+03  0.45571110359E+03  0.12500000000E+03 0.  0.
         25    1    1    2    0    0  0.75367619633E+02 -0.24033586085E+03  0.55336671781E+03  0.62071034185E+03  0.12500000000E+03 0.  0.
</event>
<event>
 5    0  0.5677492E-005  0.2242086E+03  0.7546771E-02  0.1130784E+00
         21   -1    0    0  502  501  0.00000000000E+00  0.00000000000E+00  0.22657729330E+03  0.22657729330E+03  0.00000000000E+00 0.  1.
         21   -1    0    0  501  502 -0.00000000000E+00 -0.00000000000E+00 -0.22186459963E+03  0.22186459963E+03  0.00000000000E+00 0.  1.
         25    1    1    2    0    0 -0.27576096877E+02 -0.53690674816E+02 -0.45542368136E+02  0.14608982503E+03  0.12500000000E+03 0.  0.
         25    1    1    2    0    0  0.50016366802E+02 -0.22515750018E+01 -0.35455298633E+02  0.13924361651E+03  0.12500000000E+03 0.  0.
         25    1    1    2    0    0 -0.22440269926E+02  0.55942249818E+02  0.85710360443E+02  0.16310845139E+03  0.12500000000E+03 0.  0.
</event>
<event>
 5    0  0.6137896E-005  0.3136922E+03  0.7546771E-02  0.1078590E+00
         21   -1    0    0  502  501  0.00000000000E+00  0.00000000000E+00  0.61202840082E+03  0.61202840082E+03  0.00000000000E+00 0. -1.
         21   -1    0    0  501  502 -0.00000000000E+00 -0.00000000000E+00 -0.16078137260E+03  0.16078137260E+03  0.00000000000E+00 0. -1.
         25    1    1    2    0    0  0.47151349150E+02 -0.94552924122E+02  0.43673182534E+02  0.16939850076E+03  0.12500000000E+03 0.  0.
         25    1    1    2    0    0 -0.11748790773E+02  0.87314185075E+01 -0.37959401112E+02  0.13145412845E+03  0.12500000000E+03 0.  0.
         25    1    1    2    0    0 -0.35402558377E+02  0.85821505614E+02  0.44553324680E+03  0.47195714420E+03  0.12500000000E+03 0.  0.
</event>
<event>
 5    0  0.5677492E-005  0.2592716E+03  0.7546771E-02  0.1107582E+00
         21   -1    0    0  502  501  0.00000000000E+00  0.00000000000E+00  0.59517888247E+02  0.59517888247E+02  0.00000000000E+00 0.  1.
         21   -1    0    0  501  502 -0.00000000000E+00 -0.00000000000E+00 -0.11294381798E+04  0.11294381798E+04  0.00000000000E+00 0.  1.
         25    1    1    2    0    0  0.15597837274E+02  0.82123611530E+01 -0.10007121910E+03  0.16108998819E+03  0.12500000000E+03 0.  0.
         25    1    1    2    0    0  0.18607144614E+02  0.10513993397E+03 -0.39667249170E+03  0.42938874836E+03  0.12500000000E+03 0.  0.
         25    1    1    2    0    0 -0.34204981888E+02 -0.11335229512E+03 -0.57317658076E+03  0.59847733151E+03  0.12500000000E+03 0.  0.
</event>
<event>
 5    0  0.5727732E-005  0.2810427E+03  0.7546771E-02  0.1095121E+00
         21   -1    0    0  502  501  0.00000000000E+00  0.00000000000E+00  0.15642786365E+03  0.15642786365E+03  0.00000000000E+00 0. -1.
         21   -1    0    0  501  502 -0.00000000000E+00 -0.00000000000E+00 -0.50492911180E+03  0.50492911180E+03  0.00000000000E+00 0. -1.
         25    1    1    2    0    0 -0.11988892463E+03  0.28143471509E+02 -0.15383133067E+03  0.23335485324E+03  0.12500000000E+03 0.  0.
         25    1    1    2    0    0 -0.47277045734E+02 -0.83389151619E+02 -0.40367936213E+02  0.16261439031E+03  0.12500000000E+03 0.  0.
         25    1    1    2    0    0  0.16716597036E+03  0.55245680110E+02 -0.15430198127E+03  0.26538773189E+03  0.12500000000E+03 0.  0.
</event>
<event>
 5    0  0.5677492E-005  0.4150310E+03  0.7546771E-02  0.1038696E+00
         21   -1    0    0  502  501  0.00000000000E+00  0.00000000000E+00  0.42992707862E+03  0.42992707862E+03  0.00000000000E+00 0. -1.
         21   -1    0    0  501  502 -0.00000000000E+00 -0.00000000000E+00 -0.40065106255E+03  0.40065106255E+03  0.00000000000E+00 0. -1.
         25    1    1    2    0    0  0.18071978811E+03 -0.17243292172E+03 -0.13836902745E+03  0.31171099125E+03  0.12500000000E+03 0.  0.
         25    1    1    2    0    0 -0.97907070628E+02  0.16063573690E+03 -0.71016188438E+02  0.23676556648E+03  0.12500000000E+03 0.  0.
         25    1    1    2    0    0 -0.82812717483E+02  0.11797184819E+02  0.23866123195E+03  0.28210158345E+03  0.12500000000E+03 0.  0.
</event>
<event>
 5    0  0.7244048E-005  0.4858342E+03  0.7546771E-02  0.1017544E+00
         21   -1    0    0  502  501  0.00000000000E+00  0.00000000000E+00  0.48325624416E+03  0.48325624416E+03  0.00000000000E+00 0. -1.
         21   -1    0    0  501  502 -0.00000000000E+00 -0.00000000000E+00 -0.48842584617E+03  0.48842584617E+03  0.00000000000E+00 0. -1.
         25    1    1    2    0    0 -0.12756644012E+03  0.21851031465E+03  0.17499865563E+03  0.33206849252E+03  0.12500000000E+03 0.  0.
         25    1    1    2    0    0  0.85253853312E+02  0.79280647262E+02 -0.25355510629E+03  0.30572672841E+03  0.12500000000E+03 0.  0.
         25    1    1    2    0    0  0.42312586805E+02 -0.29779096192E+03  0.73386848652E+02  0.33388686940E+03  0.12500000000E+03 0.  0.
</event>
<event>
 5    0  0.5677492E-005  0.2375644E+03  0.7546771E-02  0.1121426E+00
         21   -1    0    0  502  501  0.00000000000E+00  0.00000000000E+00  0.16241267233E+04  0.16241267233E+04  0.00000000000E+00 0. -1.
         21   -1    0    0  501  502 -0.00000000000E+00 -0.00000000000E+00 -0.34749042144E+02  0.34749042144E+02  0.00000000000E+00 0. -1.
         25    1    1    2    0    0 -0.10295834317E+03 -0.99617824026E+01  0.31652549154E+03  0.35568672218E+03  0.12500000000E+03 0.  0.
         25    1    1    2    0    0  0.29690331824E+02 -0.48398433244E+01  0.72478640404E+03  0.73610140020E+03  0.12500000000E+03 0.  0.
         25    1    1    2    0    0  0.73268011343E+02  0.14801625727E+02  0.54806578558E+03  0.56708764308E+03  0.12500000000E+03 0.  0.
</event>
<event>
 5    0  0.5677492E-005  0.4109055E+03  0.7546771E-02  0.1040068E+00
         21   -1    0    0  502  501  0.00000000000E+00  0.00000000000E+00  0.61905972781E+03  0.61905972781E+03  0.00000000000E+00 0.  1.
         21   -1    0    0  501  502 -0.00000000000E+00 -0.00000000000E+00 -0.27274158829E+03  0.27274158829E+03  0.00000000000E+00 0.  1.
         25    1    1    2    0    0  0.39724615219E+02  0.77064431424E+02  0.13465010460E+03  0.20315664477E+03  0.12500000000E+03 0.  0.
         25    1    1    2    0    0 -0.14968689889E+03 -0.45778563521E+02  0.39262401587E+03  0.44077257448E+03  0.12500000000E+03 0.  0.
         25    1    1    2    0    0  0.10996228367E+03 -0.31285867904E+02 -0.18095598094E+03  0.24787209686E+03  0.12500000000E+03 0.  0.
</event>
<event>
 5    0  0.5677492E-005  0.2742397E+03  0.7546771E-02  0.1098877E+00
         21   -1    0    0  502  501  0.00000000000E+00  0.00000000000E+00  0.56252530919E+03  0.56252530919E+03  0.00000000000E+00 0. -1.
         21   -1    0    0  501  502 -0.00000000000E+00 -0.00000000000E+00 -0.13369605140E+03  0.13369605140E+03  0.00000000000E+00 0. -1.
         25    1    1    2    0    0  0.47541661019E+02 -0.13842929286E+03  0.36378231117E+02  0.19588581968E+03  0.12500000000E+03 0.  0.
         25    1    1    2    0    0 -0.72214994758E+02  0.10227773401E+03  0.24401501497E+03  0.30140349678E+03  0.12500000000E+03 0.  0.
         25    1    1    2    0    0  0.24673333739E+02  0.36151558854E+02  0.14843601170E+03  0.19893204411E+03  0.12500000000E+03 0.  0.
</event>
<event>
 5    0  0.5677492E-005  0.3028613E+03  0.7546771E-02  0.1083819E+00
         21   -1    0    0  502  501  0.00000000000E+00  0.00000000000E+00  0.63886900179E+03  0.63886900179E+03  0.00000000000E+00 0.  1.
         21   -1    0    0  501  502 -0.00000000000E+00 -0.00000000000E+00 -0.14357393619E+03  0.14357393619E+03  0.00000000000E+00 0.  1.
         25    1    1    2    0    0 -0.32691450191E+02 -0.13667156445E+03  0.38372074838E+02  0.19195120102E+03  0.12500000000E+03 0.  0.
         25    1    1    2    0    0  0.21889667489E+02  0.14219437947E+03  0.10667814928E+03  0.21841159912E+03  0.12500000000E+03 0.  0.
         25    1    1    2    0    0  0.10801782702E+02 -0.55228150147E+01  0.35024484148E+03  0.37208013784E+03  0.12500000000E+03 0.  0.
</event>
<event>
 5    0  0.5677492E-005  0.2489459E+03  0.7546771E-02  0.1113973E+00
         21   -1    0    0  502  501  0.00000000000E+00  0.00000000000E+00  0.56814411253E+03  0.56814411253E+03  0.00000000000E+00 0. -1.
         21   -1    0    0  501  502 -0.00000000000E+00 -0.00000000000E+00 -0.10908157614E+03  0.10908157614E+03  0.00000000000E+00 0. -1.
         25    1    1    2    0    0  0.49281116102E+02  0.45941642659E+02  0.73371161583E+02  0.15983613573E+03  0.12500000000E+03 0.  0.
         25    1    1    2    0    0 -0.92755397732E+02 -0.87884240749E+02  0.31357381704E+03  0.36094423713E+03  0.12500000000E+03 0.  0.
         25    1    1    2    0    0  0.43474281629E+02  0.41942598091E+02  0.72117557765E+02  0.15644531580E+03  0.12500000000E+03 0.  0.
</event>
<event>
 5    0  0.5677492E-005  0.4236818E+03  0.7546771E-02  0.1035875E+00
         21   -1    0    0  502  501  0.00000000000E+00  0.00000000000E+00  0.58357625655E+03  0.58357625655E+03  0.00000000000E+00 0. -1.
         21   -1    0    0  501  502 -0.00000000000E+00 -0.00000000000E+00 -0.30759700351E+03  0.30759700351E+03  0.00000000000E+00 0. -1.
         25    1    1    2    0    0 -0.91724343876E+02 -0.16917377802E+02  0.11316558016E+03  0.19269406183E+03  0.12500000000E+03 0.  0.
         25    1    1    2    0    0  0.12046988005E+03  0.57090412079E+02 -0.22393545720E+03  0.28904047492E+03  0.12500000000E+03 0.  0.
         25    1    1    2    0    0 -0.28745536176E+02 -0.40173034277E+02  0.38674913007E+03  0.40943872331E+03  0.12500000000E+03 0.  0.
</event>
<event>
 5    0  0.5677492E-005  0.3549157E+03  0.7546771E-02  0.1060615E+00
         21   -1    0    0  502  501  0.00000000000E+00  0.00000000000E+00  0.89664067497E+02  0.89664067497E+02  0.00000000000E+00 0.  1.
         21   -1    0    0  501  502 -0.00000000000E+00 -0.00000000000E+00 -0.14048569629E+04  0.14048569629E+04  0.00000000000E+00 0.  1.
         25    1    1    2    0    0 -0.24371750531E+02 -0.14574425145E+03 -0.38840393093E+03  0.43395619896E+03  0.12500000000E+03 0.  0.
         25    1    1    2    0    0  0.10490277151E+03  0.40921833385E+02 -0.84414171655E+03  0.86074353064E+03  0.12500000000E+03 0.  0.
         25    1    1    2    0    0 -0.80531020981E+02  0.10482241807E+03 -0.82647247953E+02  0.19982130083E+03  0.12500000000E+03 0.  0.
</event>
<event>
 5    0  0.5677492E-005  0.3055225E+03  0.7546771E-02  0.1082512E+00
         21   -1    0    0  502  501  0.00000000000E+00  0.00000000000E+00  0.15906575810E+03  0.15906575810E+03  0.00000000000E+00 0. -1.
         21   -1    0    0  501  502 -0.00000000000E+00 -0.00000000000E+00 -0.58682648358E+03  0.58682648358E+03  0.00000000000E+00 0. -1.
         25    1    1    2    0    0 -0.12257578416E+03 -0.13454627640E+03 -0.24404104342E+03  0.32910264999E+03  0.12500000000E+03 0.  0.
         25    1    1    2    0    0  0.15931333870E+03  0.11084214552E+03 -0.16336909078E+03  0.28280944279E+03  0.12500000000E+03 0.  0.
         25    1    1    2    0    0 -0.36737554533E+02  0.23704130879E+02 -0.20350591284E+02  0.13398014890E+03  0.12500000000E+03 0.  0.
</event>
<event>
 5    0  0.5677492E-005  0.2775399E+03  0.7546771E-02  0.1097040E+00
         21   -1    0    0  502  501  0.00000000000E+00  0.00000000000E+00  0.39011796624E+03  0.39011796624E+03  0.00000000000E+00 0.  1.
         21   -1    0    0  501  502 -0.00000000000E+00 -0.00000000000E+00 -0.19744903415E+03  0.19744903415E+03  0.00000000000E+00 0.  1.
         25    1    1    2    0    0 -0.17654491655E+02 -0.43267267926E+02  0.11873706026E+03  0.17862594165E+03  0.12500000000E+03 0.  0.
         25    1    1    2    0    0  0.31809684621E+02  0.15577219061E+03  0.11848116937E+03  0.23439201970E+03  0.12500000000E+03 0.  0.
         25    1    1    2    0    0 -0.14155192966E+02 -0.11250492269E+03 -0.44549297545E+02  0.17454903904E+03  0.12500000000E+03 0.  0.
</event>
<event>
 5    0  0.5677492E-005  0.3094924E+03  0.7546771E-02  0.1080589E+00
         21   -1    0    0  502  501  0.00000000000E+00  0.00000000000E+00  0.12801644068E+03  0.12801644068E+03  0.00000000000E+00 0.  1.
         21   -1    0    0  501  502 -0.00000000000E+00 -0.00000000000E+00 -0.74822869543E+03  0.74822869543E+03  0.00000000000E+00 0.  1.
         25    1    1    2    0    0  0.99044036555E+02 -0.13064252240E+03 -0.64106868957E+02  0.21589784733E+03  0.12500000000E+03 0.  0.
         25    1    1    2    0    0 -0.44897326602E+02 -0.20956324934E+02 -0.12543604453E+03  0.18388621144E+03  0.12500000000E+03 0.  0.
         25    1    1    2    0    0 -0.54146709954E+02  0.15159884733E+03 -0.43066934127E+03  0.47646107734E+03  0.12500000000E+03 0.  0.
</event>
<event>
 5    0  0.5677492E-005  0.2469131E+03  0.7546771E-02  0.1115271E+00
         21   -1    0    0  502  501  0.00000000000E+00  0.00000000000E+00  0.80676478645E+02  0.80676478645E+02  0.00000000000E+00 0.  1.
         21   -1    0    0  501  502 -0.00000000000E+00 -0.00000000000E+00 -0.75568603509E+03  0.75568603509E+03  0.00000000000E+00 0.  1.
         25    1    1    2    0    0 -0.43108938138E+02  0.68324417173E+02 -0.10687102147E+03  0.18322942383E+03  0.12500000000E+03 0.  0.
         25    1    1    2    0    0  0.22986953536E+02 -0.10594409609E+03 -0.43583181399E+03  0.46618335621E+03  0.12500000000E+03 0.  0.
         25    1    1    2    0    0  0.20121984602E+02  0.37619678912E+02 -0.13230672099E+03  0.18694973369E+03  0.12500000000E+03 0.  0.
</event>
<event>
 5    0  0.5677492E-005  0.3347139E+03  0.7546771E-02  0.1069070E+00
         21   -1    0    0  502  501  0.00000000000E+00  0.00000000000E+00  0.40277334502E+03  0.40277334502E+03  0.00000000000E+00 0. -1.
         21   -1    0    0  501  502 -0.00000000000E+00 -0.00000000000E+00 -0.27815498409E+03  0.27815498409E+03  0.00000000000E+00 0. -1.
         25    1    1    2    0    0  0.15035502700E+03 -0.19186504446E+02 -0.42571228498E+01  0.19651432312E+03  0.12500000000E+03 0.  0.
         25    1    1    2    0    0 -0.14168964475E+03 -0.12327072417E+03 -0.41537595101E+02  0.22939485320E+03  0.12500000000E+03 0.  0.
         25    1    1    2    0    0 -0.86653822480E+01  0.14245722861E+03  0.17041307888E+03  0.25501915278E+03  0.12500000000E+03 0.  0.
</event>
<event>
 5    0  0.5677492E-005  0.2591805E+03  0.7546771E-02  0.1107637E+00
         21   -1    0    0  502  501  0.00000000000E+00  0.00000000000E+00  0.13434465535E+03  0.13434465535E+03  0.00000000000E+00 0. -1.
         21   -1    0    0  501  502 -0.00000000000E+00 -0.00000000000E+00 -0.50001636015E+03  0.50001636015E+03  0.00000000000E+00 0. -1.
         25    1    1    2    0    0  0.60777924088E+02  0.10633576374E+03 -0.15333620763E+03  0.23267626281E+03  0.12500000000E+03 0.  0.
         25    1    1    2    0    0 -0.47803554610E+02 -0.12494744970E+03 -0.39704710285E+02  0.18734596083E+03  0.12500000000E+03 0.  0.
         25    1    1    2    0    0 -0.12974369478E+02  0.18611685963E+02 -0.17263078688E+03  0.21433879186E+03  0.12500000000E+03 0.  0.
</event>
<event>
 5    0  0.5677492E-005  0.2333747E+03  0.7546771E-02  0.1124287E+00
         21   -1    0    0  502  501  0.00000000000E+00  0.00000000000E+00  0.10181874069E+04  0.10181874069E+04  0.00000000000E+00 0.  1.
         21   -1    0    0  501  502 -0.00000000000E+00 -0.00000000000E+00 -0.53490869460E+02  0.53490869460E+02  0.00000000000E+00 0.  1.
         25    1    1    2    0    0 -0.84108645557E+02 -0.51410507013E+02  0.23981166535E+03  0.28784012807E+03  0.12500000000E+03 0.  0.
         25    1    1    2    0    0  0.90804246580E+02  0.73532603645E+02  0.41901020078E+03  0.45260026884E+03  0.12500000000E+03 0.  0.
         25    1    1    2    0    0 -0.66956010224E+01 -0.22122096632E+02  0.30587467128E+03  0.33123787942E+03  0.12500000000E+03 0.  0.
</event>
<event>
 5    0  0.5677492E-005  0.4123659E+03  0.7546771E-02  0.1039580E+00
         21   -1    0    0  502  501  0.00000000000E+00  0.00000000000E+00  0.36499571051E+03  0.36499571051E+03  0.00000000000E+00 0. -1.
         21   -1    0    0  501  502 -0.00000000000E+00 -0.00000000000E+00 -0.46588397886E+03  0.46588397886E+03  0.00000000000E+00 0. -1.
         25    1    1    2    0    0 -0.10217668542E+03 -0.22222823729E+03 -0.50704938206E+02  0.27932320930E+03  0.12500000000E+03 0.  0.
         25    1    1    2    0    0 -0.11342706534E+03  0.19837282199E+03 -0.12686404481E+03  0.28971876281E+03  0.12500000000E+03 0.  0.
         25    1    1    2    0    0  0.21560375076E+03  0.23855415301E+02  0.76680714670E+02  0.26183771726E+03  0.12500000000E+03 0.  0.
</event>
<event>
 5    0  0.5677492E-005  0.4858128E+03  0.7546771E-02  0.1017550E+00
         21   -1    0    0  502  501  0.00000000000E+00  0.00000000000E+00  0.60038873405E+03  0.60038873405E+03  0.00000000000E+00 0.  1.
         21   -1    0    0  501  502 -0.00000000000E+00 -0.00000000000E+00 -0.39310211100E+03  0.39310211100E+03  0.00000000000E+00 0.  1.
         25    1    1    2    0    0  0.12331290881E+03  0.13276594199E+03 -0.24810199301E+02  0.22152520133E+03  0.12500000000E+03 0.  0.
         25    1    1    2    0    0  0.16358070231E+03  0.14458447584E+03  0.24833169911E+03  0.35349250290E+03  0.12500000000E+03 0.  0.
         25    1    1    2    0    0 -0.28689361112E+03 -0.27735041783E+03 -0.16234876755E+02  0.41847314083E+03  0.12500000000E+03 0.  0.
</event>
<event>
 5    0  0.5677492E-005  0.2623915E+03  0.7546771E-02  0.1105715E+00
         21   -1    0    0  502  501  0.00000000000E+00  0.00000000000E+00  0.61708119514E+03  0.61708119514E+03  0.00000000000E+00 0. -1.
         21   -1    0    0  501  502 -0.00000000000E+00 -0.00000000000E+00 -0.11157250843E+03  0.11157250843E+03  0.00000000000E+00 0. -1.
         25    1    1    2    0    0 -0.92320198411E+02  0.10319418272E+02  0.62516734053E+02  0.16781791163E+03  0.12500000000E+03 0.  0.
         25    1    1    2    0    0  0.94102465701E+01 -0.13715598874E+02  0.37589085695E+03  0.39647901171E+03  0.12500000000E+03 0.  0.
         25    1    1    2    0    0  0.82909951841E+02  0.33961806020E+01  0.67101095710E+02  0.16435678021E+03  0.12500000000E+03 0.  0.
</event>
<event>
 5    0  0.5677492E-005  0.2339818E+03  0.7546771E-02  0.1123868E+00
         21   -1    0    0  502  501  0.00000000000E+00  0.00000000000E+00  0.90848626144E+02  0.90848626144E+02  0.00000000000E+00 0.  1.
         21   -1    0    0  501  502 -0.00000000000E+00 -0.00000000000E+00 -0.60262298299E+03  0.60262298299E+03  0.00000000000E+00 0.  1.
         25    1    1    2    0    0 -0.18705406773E+02 -0.36098686882E+02 -0.89720579963E+02  0.15914707005E+03  0.12500000000E+03 0.  0.
         25    1    1    2    0    0 -0.93784984432E+02  0.31621648433E+02 -0.20264982176E+03  0.25785170586E+03  0.12500000000E+03 0.  0.
         25    1    1    2    0    0  0.11249039121E+03  0.44770384487E+01 -0.21940395512E+03  0.27647283322E+03  0.12500000000E+03 0.  0.
</event>
<event>
 5    0  0.5677492E-005  0.2585175E+03  0.7546771E-02  0.1108037E+00
         21   -1    0    0  502  501  0.00000000000E+00  0.00000000000E+00  0.50055540345E+02  0.50055540345E+02  0.00000000000E+00 0.  1.
         21   -1    0    0  501  502 -0.00000000000E+00 -0.00000000000E+00 -0.13351426028E+04  0.13351426028E+04  0.00000000000E+00 0.  1.
         25    1    1    2    0    0  0.87351707900E+02  0.11015000840E+02 -0.47329335569E+03  0.49737636821E+03  0.12500000000E+03 0.  0.
         25    1    1    2    0    0 -0.86091855611E+02  0.72293043242E+02 -0.21785385002E+03  0.27517883580E+03  0.12500000000E+03 0.  0.
         25    1    1    2    0    0 -0.12598522892E+01 -0.83308044082E+02 -0.59393985671E+03  0.61264293910E+03  0.12500000000E+03 0.  0.
</event>
<event>
 5    0  0.5677492E-005  0.2934377E+03  0.7546771E-02  0.1088568E+00
         21   -1    0    0  502  501  0.00000000000E+00  0.00000000000E+00  0.11389231192E+04  0.11389231192E+04  0.00000000000E+00 0.  1.
         21   -1    0    0  501  502 -0.00000000000E+00 -0.00000000000E+00 -0.75602703512E+02  0.75602703512E+02  0.00000000000E+00 0.  1.
         25    1    1    2    0    0 -0.54362882261E+02 -0.70320891754E+02  0.51893762694E+02  0.16192070094E+03  0.12500000000E+03 0.  0.
         25    1    1    2    0    0 -0.17029807658E+02  0.76063234612E+02  0.52876391897E+03  0.54890063947E+03  0.12500000000E+03 0.  0.
         25    1    1    2    0    0  0.71392689919E+02 -0.57423428580E+01  0.48266273399E+03  0.50370448227E+03  0.12500000000E+03 0.  0.
</event>
<event>
 5    0  0.5677492E-005  0.3170694E+03  0.7546771E-02  0.1077006E+00
         21   -1    0    0  502  501  0.00000000000E+00  0.00000000000E+00  0.56885689575E+03  0.56885689575E+03  0.00000000000E+00 0. -1.
         21   -1    0    0  501  502 -0.00000000000E+00 -0.00000000000E+00 -0.17672815253E+03  0.17672815253E+03  0.00000000000E+00 0. -1.
         25    1    1    2    0    0  0.18596207232E+03 -0.11568564673E+03  0.16050410807E+03  0.29891742992E+03  0.12500000000E+03 0.  0.
         25    1    1    2    0    0 -0.36902907179E+02  0.13330662445E+03  0.11946381075E+03  0.22142511772E+03  0.12500000000E+03 0.  0.
         25    1    1    2    0    0 -0.14905916514E+03 -0.17620977719E+02  0.11216082440E+03  0.22524250064E+03  0.12500000000E+03 0.  0.
</event>
<event>
 5    0  0.5677492E-005  0.7321828E+03  0.7546771E-02  0.9663725E-01
         21   -1    0    0  502  501  0.00000000000E+00  0.00000000000E+00  0.55084387939E+03  0.55084387939E+03  0.00000000000E+00 0.  1.
         21   -1    0    0  501  502 -0.00000000000E+00 -0.00000000000E+00 -0.97321880403E+03  0.97321880403E+03  0.00000000000E+00 0.  1.
         25    1    1    2    0    0  0.47794798943E+03 -0.14345819079E+03  0.15442296742E+03  0.53710891444E+03  0.12500000000E+03 0.  0.
         25    1    1    2    0    0 -0.35866051956E+03  0.31524253894E+03 -0.55437703598E+03  0.74227631288E+03  0.12500000000E+03 0.  0.
         25    1    1    2    0    0 -0.11928746987E+03 -0.17178434815E+03 -0.22420856077E+02  0.24467745610E+03  0.12500000000E+03 0.  0.
</event>
<event>
 5    0  0.7100157E-005  0.3431118E+03  0.7546771E-02  0.1065478E+00
         21   -1    0    0  502  501  0.00000000000E+00  0.00000000000E+00  0.26595848651E+03  0.26595848651E+03  0.00000000000E+00 0.  1.
         21   -1    0    0  501  502 -0.00000000000E+00 -0.00000000000E+00 -0.44264686218E+03  0.44264686218E+03  0.00000000000E+00 0.  1.
         25    1    1    2    0    0  0.14319977750E+03  0.13516401135E+02  0.41882563359E+02  0.19511027264E+03  0.12500000000E+03 0.  0.
         25    1    1    2    0    0  0.57916006987E+02  0.11512684370E+03 -0.24051430417E+02  0.18114062303E+03  0.12500000000E+03 0.  0.
         25    1    1    2    0    0 -0.20111578449E+03 -0.12864324484E+03 -0.19451950862E+03  0.33235445302E+03  0.12500000000E+03 0.  0.
</event>
<event>
 5    0  0.5677492E-005  0.3405343E+03  0.7546771E-02  0.1066569E+00
         21   -1    0    0  502  501  0.00000000000E+00  0.00000000000E+00  0.95553009479E+02  0.95553009479E+02  0.00000000000E+00 0.  1.
         21   -1    0    0  501  502 -0.00000000000E+00 -0.00000000000E+00 -0.12136049816E+04  0.12136049816E+04  0.00000000000E+00 0.  1.
         25    1    1    2    0    0 -0.21297535563E+03 -0.56582244614E+02 -0.38228852602E+03  0.45861701848E+03  0.12500000000E+03 0.  0.
         25    1    1    2    0    0 -0.24543251662E+02  0.78270118648E+02 -0.18830821162E+03  0.24044451592E+03  0.12500000000E+03 0.  0.
         25    1    1    2    0    0  0.23751860729E+03 -0.21687874034E+02 -0.54745523448E+03  0.61009645668E+03  0.12500000000E+03 0.  0.
</event>
<event>
 5    0  0.5677492E-005  0.2282976E+03  0.7546771E-02  0.1127844E+00
         21   -1    0    0  502  501  0.00000000000E+00  0.00000000000E+00  0.10740850411E+03  0.10740850411E+03  0.00000000000E+00 0. -1.
         21   -1    0    0  501  502 -0.00000000000E+00 -0.00000000000E+00 -0.48524815860E+03  0.48524815860E+03  0.00000000000E+00 0. -1.
         25    1    1    2    0    0 -0.40546133899E+02  0.74126851275E+02 -0.95610779695E+02  0.17862026830E+03  0.12500000000E+03 0.  0.
         25    1    1    2    0    0 -0.22988027004E+02  0.96072049366E+01 -0.67417723506E+02  0.14419048934E+03  0.12500000000E+03 0.  0.
         25    1    1    2    0    0  0.63534160902E+02 -0.83734056211E+02 -0.21481115129E+03  0.26984590508E+03  0.12500000000E+03 0.  0.
</event>
<event>
 5    0  0.5677492E-005  0.2913048E+03  0.7546771E-02  0.1089670E+00
         21   -1    0    0  502  501  0.00000000000E+00  0.00000000000E+00  0.65157281828E+03  0.65157281828E+03  0.00000000000E+00 0.  1.
         21   -1    0    0  501  502 -0.00000000000E+00 -0.00000000000E+00 -0.13023639208E+03  0.13023639208E+03  0.00000000000E+00 0.  1.
         25    1    1    2    0    0 -0.59819576446E+01 -0.78232955416E+02  0.12083688102E+03  0.19074257769E+03  0.12500000000E+03 0.  0.
         25    1    1    2    0    0  0.15742235246E+03 -0.56728772724E+01  0.28348715964E+03  0.34756862383E+03  0.12500000000E+03 0.  0.
         25    1    1    2    0    0 -0.15144039481E+03  0.83905832689E+02  0.11701238553E+03  0.24349800884E+03  0.12500000000E+03 0.  0.
</event>
<event>
 5    0  0.5677492E-005  0.3819254E+03  0.7546771E-02  0.1050224E+00
         21   -1    0    0  502  501  0.00000000000E+00  0.00000000000E+00  0.16331269299E+04  0.16331269299E+04  0.00000000000E+00 0.  1.
         21   -1    0    0  501  502 -0.00000000000E+00 -0.00000000000E+00 -0.89317603422E+02  0.89317603422E+02  0.00000000000E+00 0.  1.
         25    1    1    2    0    0  0.13218694355E+03  0.14368768251E+03  0.12240242118E+04  0.12457848166E+04  0.12500000000E+03 0.  0.
         25    1    1    2    0    0 -0.34851325588E+02 -0.39758853488E+01  0.18528200609E+03  0.22624067791E+03  0.12500000000E+03 0.  0.
         25    1    1    2    0    0 -0.97335617964E+02 -0.13971179717E+03  0.13450310859E+03  0.25041903884E+03  0.12500000000E+03 0.  0.
</event>
<event>
 5    0  0.5677492E-005  0.5148558E+03  0.7546771E-02  0.1009972E+00
         21   -1    0    0  502  501  0.00000000000E+00  0.00000000000E+00  0.55286102402E+03  0.55286102402E+03  0.00000000000E+00 0. -1.
         21   -1    0    0  501  502 -0.00000000000E+00 -0.00000000000E+00 -0.47946309418E+03  0.47946309418E+03  0.00000000000E+00 0. -1.
         25    1    1    2    0    0 -0.57304898096E+02  0.90277225764E+02  0.19850630820E+03  0.25780532041E+03  0.12500000000E+03 0.  0.
         25    1    1    2    0    0 -0.53351447212E+02 -0.37332178108E+03  0.52891853003E+02  0.40079680296E+03  0.12500000000E+03 0.  0.
         25    1    1    2    0    0  0.11065634531E+03  0.28304455531E+03 -0.17800023137E+03  0.37372199482E+03  0.12500000000E+03 0.  0.
</event>
<event>
 5    0  0.5677492E-005  0.3373814E+03  0.7546771E-02  0.1067917E+00
         21   -1    0    0  502  501  0.00000000000E+00  0.00000000000E+00  0.18290021487E+03  0.18290021487E+03  0.00000000000E+00 0. -1.
         21   -1    0    0  501  502 -0.00000000000E+00 -0.00000000000E+00 -0.62234045455E+03  0.62234045455E+03  0.00000000000E+00 0. -1.
         25    1    1    2    0    0 -0.11880145691E+02  0.13078835389E+03 -0.31197722714E+03  0.36083447955E+03  0.12500000000E+03 0.  0.
         25    1    1    2    0    0  0.80966698517E+02  0.18561880921E+02  0.63565109883E+02  0.16298979381E+03  0.12500000000E+03 0.  0.
         25    1    1    2    0    0 -0.69086552826E+02 -0.14935023481E+03 -0.19102812242E+03  0.28141639607E+03  0.12500000000E+03 0.  0.
</event>
<event>
 5    0  0.5677492E-005  0.4041446E+03  0.7546771E-02  0.1042354E+00
         21   -1    0    0  502  501  0.00000000000E+00  0.00000000000E+00  0.67726934199E+03  0.67726934199E+03  0.00000000000E+00 0. -1.
         21   -1    0    0  501  502 -0.00000000000E+00 -0.00000000000E+00 -0.24116375973E+03  0.24116375973E+03  0.00000000000E+00 0. -1.
         25    1    1    2    0    0  0.31796090108E+02  0.19386748772E+03  0.32445485369E+03  0.39936392704E+03  0.12500000000E+03 0.  0.
         25    1    1    2    0    0 -0.19087639816E+03 -0.19778344754E+03  0.40946460816E+02  0.30471905774E+03  0.12500000000E+03 0.  0.
         25    1    1    2    0    0  0.15908030805E+03  0.39159598264E+01  0.70704267762E+02  0.21435011694E+03  0.12500000000E+03 0.  0.
</event>
<event>
 5    0  0.5677492E-005  0.6881924E+03  0.7546771E-02  0.9737640E-01
         21   -1    0    0  502  501  0.00000000000E+00  0.00000000000E+00  0.13103299076E+04  0.13103299076E+04  0.00000000000E+00 0. -1.
         21   -1    0    0  501  502 -0.00000000000E+00 -0.00000000000E+00 -0.36144242604E+03  0.36144242604E+03  0.00000000000E+00 0. -1.
         25    1    1    2    0    0 -0.23599886783E+03  0.47036943521E+03  0.60047074187E+03  0.80816643276E+03  0.12500000000E+03 0.  0.
         25    1    1    2    0    0  0.25606507962E+03 -0.18098095960E+03  0.42088530910E+03  0.53953023655E+03  0.12500000000E+03 0.  0.
         25    1    1    2    0    0 -0.20066211788E+02 -0.28938847562E+03 -0.72468569390E+02  0.32407566435E+03  0.12500000000E+03 0.  0.
</event>
<event>
 5    0  0.5677492E-005  0.2318376E+03  0.7546771E-02  0.1125353E+00
         21   -1    0    0  502  501  0.00000000000E+00  0.00000000000E+00  0.75481977760E+03  0.75481977760E+03  0.00000000000E+00 0.  1.
         21   -1    0    0  501  502 -0.00000000000E+00 -0.00000000000E+00 -0.71207316802E+02  0.71207316802E+02  0.00000000000E+00 0.  1.
         25    1    1    2    0    0 -0.29217301251E+02 -0.30401546274E+02  0.25003878391E+03  0.28270532037E+03  0.12500000000E+03 0.  0.
         25    1    1    2    0    0 -0.69930765110E+02  0.33154398485E+02  0.30431127701E+03  0.33796431670E+03  0.12500000000E+03 0.  0.
         25    1    1    2    0    0  0.99148066361E+02 -0.27528522109E+01  0.12926239988E+03  0.20535745733E+03  0.12500000000E+03 0.  0.
</event>
<event>
 5    0  0.5677492E-005  0.3605123E+03  0.7546771E-02  0.1058381E+00
         21   -1    0    0  502  501  0.00000000000E+00  0.00000000000E+00  0.48667084934E+03  0.48667084934E+03  0.00000000000E+00 0. -1.
         21   -1    0    0  501  502 -0.00000000000E+00 -0.00000000000E+00 -0.26705754289E+03  0.26705754289E+03  0.00000000000E+00 0. -1.
         25    1    1    2    0    0  0.27701576188E+02  0.22869888650E+03  0.11990175831E+03  0.28822211861E+03  0.12500000000E+03 0.  0.
         25    1    1    2    0    0 -0.15463936097E+03 -0.98255817901E+02  0.10331120691E+03  0.24467477023E+03  0.12500000000E+03 0.  0.
         25    1    1    2    0    0  0.12693778478E+03 -0.13044306859E+03 -0.35996587779E+01  0.22083150340E+03  0.12500000000E+03 0.  0.
</event>
<event>
 5    0  0.5677492E-005  0.2108938E+03  0.7546771E-02  0.1140860E+00
         21   -1    0    0  502  501  0.00000000000E+00  0.00000000000E+00  0.37972119959E+02  0.37972119959E+02  0.00000000000E+00 0. -1.
         21   -1    0    0  501  502 -0.00000000000E+00 -0.00000000000E+00 -0.11712858293E+04  0.11712858293E+04  0.00000000000E+00 0. -1.
         25    1    1    2    0    0 -0.54308483227E+02  0.49471387131E+02 -0.44156085457E+03  0.46475565385E+03  0.12500000000E+03 0.  0.
         25    1    1    2    0    0  0.95113388615E+00 -0.60115414134E+02 -0.33422500362E+03  0.36186478236E+03  0.12500000000E+03 0.  0.
         25    1    1    2    0    0  0.53357349341E+02  0.10644027004E+02 -0.35752785113E+03  0.38263751303E+03  0.12500000000E+03 0.  0.
</event>
<event>
 5    0  0.5677492E-005  0.2676818E+03  0.7546771E-02  0.1102614E+00
         21   -1    0    0  502  501  0.00000000000E+00  0.00000000000E+00  0.23554904265E+02  0.23554904265E+02  0.00000000000E+00 0.  1.
         21   -1    0    0  501  502 -0.00000000000E+00 -0.00000000000E+00 -0.30419795109E+04  0.30419795109E+04  0.00000000000E+00 0.  1.
         25    1    1    2    0    0 -0.18690575186E+02 -0.12175586428E+02 -0.23058992466E+03  0.26323809728E+03  0.12500000000E+03 0.  0.
         25    1    1    2    0    0 -0.25422090464E+02  0.33872860242E+02 -0.18741538895E+04  0.18787952136E+04  0.12500000000E+03 0.  0.
         25    1    1    2    0    0  0.44112665650E+02 -0.21697273813E+02 -0.91368079245E+03  0.92350110420E+03  0.12500000000E+03 0.  0.
</event>
<event>
 5    0  0.5677492E-005  0.3837635E+03  0.7546771E-02  0.1049551E+00
         21   -1    0    0  502  501  0.00000000000E+00  0.00000000000E+00  0.18704003933E+03  0.18704003933E+03  0.00000000000E+00 0.  1.
         21   -1    0    0  501  502 -0.00000000000E+00 -0.00000000000E+00 -0.78739523709E+03  0.78739523709E+03  0.00000000000E+00 0.  1.
         25    1    1    2    0    0  0.99900685461E+02 -0.88382457768E+02  0.35633862854E+02  0.18624279309E+03  0.12500000000E+03 0.  0.
         25    1    1    2    0    0  0.13296694722E+03  0.35489114921E+02 -0.34254789435E+03  0.38974831142E+03  0.12500000000E+03 0.  0.
         25    1    1    2    0    0 -0.23286763268E+03  0.52893342847E+02 -0.29344116627E+03  0.39844417191E+03  0.12500000000E+03 0.  0.
</event>
<event>
 5    0  0.5677492E-005  0.3650349E+03  0.7546771E-02  0.1056608E+00
         21   -1    0    0  502  501  0.00000000000E+00  0.00000000000E+00  0.59720678457E+03  0.59720678457E+03  0.00000000000E+00 0.  1.
         21   -1    0    0  501  502 -0.00000000000E+00 -0.00000000000E+00 -0.22312282365E+03  0.22312282365E+03  0.00000000000E+00 0.  1.
         25    1    1    2    0    0 -0.27389593559E+01 -0.13697376560E+03  0.22412120739E+03  0.29090312814E+03  0.12500000000E+03 0.  0.
         25    1    1    2    0    0 -0.28796555726E+02  0.86865015677E+02 -0.13959276975E+03  0.20853276466E+03  0.12500000000E+03 0.  0.
         25    1    1    2    0    0  0.31535515082E+02  0.50108749927E+02  0.28955552328E+03  0.32089371542E+03  0.12500000000E+03 0.  0.
</event>
<event>
 5    0  0.5677492E-005  0.2495236E+03  0.7546771E-02  0.1113606E+00
         21   -1    0    0  502  501  0.00000000000E+00  0.00000000000E+00  0.64232089586E+03  0.64232089586E+03  0.00000000000E+00 0. -1.
         21   -1    0    0  501  502 -0.00000000000E+00 -0.00000000000E+00 -0.96932887683E+02  0.96932887683E+02  0.00000000000E+00 0. -1.
         25    1    1    2    0    0 -0.10865142587E+03 -0.12614213635E+02  0.19484755764E+03  0.25603675800E+03  0.12500000000E+03 0.  0.
         25    1    1    2    0    0 -0.40151796493E+02  0.32223389981E+02  0.11721886214E+03  0.17892952597E+03  0.12500000000E+03 0.  0.
         25    1    1    2    0    0  0.14880322236E+03 -0.19609176347E+02  0.23332158840E+03  0.30428749957E+03  0.12500000000E+03 0.  0.
</event>
<event>
 5    0  0.5677492E-005  0.3084690E+03  0.7546771E-02  0.1081082E+00
         21   -1    0    0  502  501  0.00000000000E+00  0.00000000000E+00  0.37946658485E+03  0.37946658485E+03  0.00000000000E+00 0.  1.
         21   -1    0    0  501  502 -0.00000000000E+00 -0.00000000000E+00 -0.25075497556E+03  0.25075497556E+03  0.00000000000E+00 0.  1.
         25    1    1    2    0    0 -0.12753130963E+03  0.14022235992E+02 -0.10060782995E+03  0.20544535401E+03  0.12500000000E+03 0.  0.
         25    1    1    2    0    0  0.16460776701E+02 -0.10414718432E+03  0.74424084367E+02  0.17967063618E+03  0.12500000000E+03 0.  0.
         25    1    1    2    0    0  0.11107053293E+03  0.90124948331E+02  0.15489535486E+03  0.24510557022E+03  0.12500000000E+03 0.  0.
</event>
<event>
 5    0  0.5677492E-005  0.4434149E+03  0.7546771E-02  0.1029704E+00
         21   -1    0    0  502  501  0.00000000000E+00  0.00000000000E+00  0.10596361536E+04  0.10596361536E+04  0.00000000000E+00 0.  1.
         21   -1    0    0  501  502 -0.00000000000E+00 -0.00000000000E+00 -0.18555117581E+03  0.18555117581E+03  0.00000000000E+00 0.  1.
         25    1    1    2    0    0 -0.41986237983E+02 -0.64670027795E+02  0.15243774372E+03  0.21167740169E+03  0.12500000000E+03 0.  0.
         25    1    1    2    0    0 -0.21495536929E+03 -0.32510856886E+01  0.69553632922E+03  0.73865564751E+03  0.12500000000E+03 0.  0.
         25    1    1    2    0    0  0.25694160727E+03  0.67921113484E+02  0.26110904854E+02  0.29485428020E+03  0.12500000000E+03 0.  0.
</event>
<event>
 5    0  0.5677492E-005  0.2591106E+03  0.7546771E-02  0.1107679E+00
         21   -1    0    0  502  501  0.00000000000E+00  0.00000000000E+00  0.16672097357E+03  0.16672097357E+03  0.00000000000E+00 0.  1.
         21   -1    0    0  501  502 -0.00000000000E+00 -0.00000000000E+00 -0.40269859816E+03  0.40269859816E+03  0.00000000000E+00 0.  1.
         25    1    1    2    0    0 -0.27198454012E+02  0.16481363588E+03 -0.66709609811E+02  0.21903986513E+03  0.12500000000E+03 0.  0.
         25    1    1    2    0    0  0.26225151906E+02 -0.10174774799E+03 -0.11719734983E+03  0.20099895925E+03  0.12500000000E+03 0.  0.
         25    1    1    2    0    0  0.97330210629E+00 -0.63065887896E+02 -0.52070664940E+02  0.14938074735E+03  0.12500000000E+03 0.  0.
</event>
<event>
 5    0  0.5703381E-005  0.3294182E+03  0.7546771E-02  0.1071395E+00
         21   -1    0    0  502  501  0.00000000000E+00  0.00000000000E+00  0.28723347889E+03  0.28723347889E+03  0.00000000000E+00 0.  1.
         21   -1    0    0  501  502 -0.00000000000E+00 -0.00000000000E+00 -0.37779836099E+03  0.37779836099E+03  0.00000000000E+00 0.  1.
         25    1    1    2    0    0 -0.15012449000E+03 -0.35843542990E+02  0.20459593093E+02  0.19966401033E+03  0.12500000000E+03 0.  0.
         25    1    1    2    0    0  0.11873563482E+03 -0.64464141676E+02 -0.20615424770E+03  0.27636633366E+03  0.12500000000E+03 0.  0.
         25    1    1    2    0    0  0.31388855172E+02  0.10030768467E+03  0.95129772496E+02  0.18900149589E+03  0.12500000000E+03 0.  0.
</event>
<event>
 5    0  0.5677492E-005  0.3410963E+03  0.7546771E-02  0.1066330E+00
         21   -1    0    0  502  501  0.00000000000E+00  0.00000000000E+00  0.37940567652E+03  0.37940567652E+03  0.00000000000E+00 0. -1.
         21   -1    0    0  501  502 -0.00000000000E+00 -0.00000000000E+00 -0.30665517688E+03  0.30665517688E+03  0.00000000000E+00 0. -1.
         25    1    1    2    0    0 -0.57305851946E+02  0.19237146566E+02  0.10102109103E+03  0.17170989869E+03  0.12500000000E+03 0.  0.
         25    1    1    2    0    0  0.25013350237E+03 -0.15625840243E+02 -0.46101053417E+02  0.28383312530E+03  0.12500000000E+03 0.  0.
         25    1    1    2    0    0 -0.19282765042E+03 -0.36113063223E+01  0.17830462023E+02  0.23051782941E+03  0.12500000000E+03 0.  0.
</event>
<event>
 5    0  0.5677492E-005  0.3074799E+03  0.7546771E-02  0.1081560E+00
         21   -1    0    0  502  501  0.00000000000E+00  0.00000000000E+00  0.93486301483E+02  0.93486301483E+02  0.00000000000E+00 0. -1.
         21   -1    0    0  501  502 -0.00000000000E+00 -0.00000000000E+00 -0.10113128017E+04  0.10113128017E+04  0.00000000000E+00 0. -1.
         25    1    1    2    0    0 -0.95153547148E+02 -0.87996010357E+02 -0.15190655271E+03  0.23558033901E+03  0.12500000000E+03 0.  0.
         25    1    1    2    0    0  0.17754277354E+03  0.49248544195E+02 -0.27116696445E+03  0.35086090998E+03  0.12500000000E+03 0.  0.
         25    1    1    2    0    0 -0.82389226387E+02  0.38747466162E+02 -0.49475298302E+03  0.51835785416E+03  0.12500000000E+03 0.  0.
</event>
<event>
 5    0  0.5677492E-005  0.2748193E+03  0.7546771E-02  0.1098553E+00
         21   -1    0    0  502  501  0.00000000000E+00  0.00000000000E+00  0.77380242763E+03  0.77380242763E+03  0.00000000000E+00 0.  1.
         21   -1    0    0  501  502 -0.00000000000E+00 -0.00000000000E+00 -0.97603281254E+02  0.97603281254E+02  0.00000000000E+00 0.  1.
         25    1    1    2    0    0 -0.12372505986E+02 -0.10305127974E+03  0.11540962105E+03  0.19929130887E+03  0.12500000000E+03 0.  0.
         25    1    1    2    0    0 -0.80599619365E+02  0.22911174242E+02  0.42379738627E+03  0.44972263136E+03  0.12500000000E+03 0.  0.
         25    1    1    2    0    0  0.92972125351E+02  0.80140105498E+02  0.13699213905E+03  0.22239176865E+03  0.12500000000E+03 0.  0.
</event>
<event>
 5    0  0.5677492E-005  0.2809308E+03  0.7546771E-02  0.1095182E+00
         21   -1    0    0  502  501  0.00000000000E+00  0.00000000000E+00  0.17321602227E+03  0.17321602227E+03  0.00000000000E+00 0. -1.
         21   -1    0    0  501  502 -0.00000000000E+00 -0.00000000000E+00 -0.45562815643E+03  0.45562815643E+03  0.00000000000E+00 0. -1.
         25    1    1    2    0    0 -0.10540768006E+02  0.52007427623E+02 -0.74763688827E+02  0.15501770701E+03  0.12500000000E+03 0.  0.
         25    1    1    2    0    0 -0.14977842910E+03  0.32249451957E+02 -0.52536717468E+02  0.20459401667E+03  0.12500000000E+03 0.  0.
         25    1    1    2    0    0  0.16031919711E+03 -0.84256879580E+02 -0.15511172787E+03  0.26923245503E+03  0.12500000000E+03 0.  0.
</event>
<event>
 5    0  0.5677492E-005  0.3676359E+03  0.7546771E-02  0.1055601E+00
         21   -1    0    0  502  501  0.00000000000E+00  0.00000000000E+00  0.69453418977E+03  0.69453418977E+03  0.00000000000E+00 0.  1.
         21   -1    0    0  501  502 -0.00000000000E+00 -0.00000000000E+00 -0.19459976154E+03  0.19459976154E+03  0.00000000000E+00 0.  1.
         25    1    1    2    0    0 -0.91426353100E+02  0.32596729147E+02  0.31335518626E+03  0.35105241425E+03  0.12500000000E+03 0.  0.
         25    1    1    2    0    0 -0.16152338297E+03 -0.10576351592E+02  0.10534006177E+02  0.20478678606E+03  0.12500000000E+03 0.  0.
         25    1    1    2    0    0  0.25294973607E+03 -0.22020377555E+02  0.17604523579E+03  0.33329475101E+03  0.12500000000E+03 0.  0.
</event>
<event>
 5    0  0.5677492E-005  0.3813291E+03  0.7546771E-02  0.1050444E+00
         21   -1    0    0  502  501  0.00000000000E+00  0.00000000000E+00  0.65149368474E+03  0.65149368474E+03  0.00000000000E+00 0. -1.
         21   -1    0    0  501  502 -0.00000000000E+00 -0.00000000000E+00 -0.22319766465E+03  0.22319766465E+03  0.00000000000E+00 0. -1.
         25    1    1    2    0    0  0.28689838214E+02 -0.13683705118E+03  0.29854967985E+03  0.35256828662E+03  0.12500000000E+03 0.  0.
         25    1    1    2    0    0  0.43495945375E+02 -0.10759647953E+03 -0.59841962455E+02  0.18076216458E+03  0.12500000000E+03 0.  0.
         25    1    1    2    0    0 -0.72185783589E+02  0.24443353072E+03  0.18958830270E+03  0.34136089819E+03  0.12500000000E+03 0.  0.
</event>
<event>
 5    0  0.5677492E-005  0.2466273E+03  0.7546771E-02  0.1115455E+00
         21   -1    0    0  502  501  0.00000000000E+00  0.00000000000E+00  0.10883965294E+04  0.10883965294E+04  0.00000000000E+00 0.  1.
         21   -1    0    0  501  502 -0.00000000000E+00 -0.00000000000E+00 -0.55884986023E+02  0.55884986023E+02  0.00000000000E+00 0.  1.
         25    1    1    2    0    0  0.25681195836E+02  0.40914885544E+02  0.12663144940E+03  0.18437482381E+03  0.12500000000E+03 0.  0.
         25    1    1    2    0    0  0.60979957907E+02 -0.79684560815E+02  0.43914755899E+03  0.46748664480E+03  0.12500000000E+03 0.  0.
         25    1    1    2    0    0 -0.86661153743E+02  0.38769675270E+02  0.46673253501E+03  0.49242004684E+03  0.12500000000E+03 0.  0.
</event>
<event>
 5    0  0.5677492E-005  0.3569609E+03  0.7546771E-02  0.1059794E+00
         21   -1    0    0  502  501  0.00000000000E+00  0.00000000000E+00  0.74609021393E+03  0.74609021393E+03  0.00000000000E+00 0. -1.
         21   -1    0    0  501  502 -0.00000000000E+00 -0.00000000000E+00 -0.17078505525E+03  0.17078505525E+03  0.00000000000E+00 0. -1.
         25    1    1    2    0    0  0.99787040065E+02 -0.21465605860E+03  0.35345331245E+03  0.44338349196E+03  0.12500000000E+03 0.  0.
         25    1    1    2    0    0  0.46641800146E+00  0.81310675616E+02  0.21907510898E+03  0.26501046563E+03  0.12500000000E+03 0.  0.
         25    1    1    2    0    0 -0.10025345807E+03  0.13334538298E+03  0.27767372458E+01  0.20848131160E+03  0.12500000000E+03 0.  0.
</event>
<event>
 5    0  0.6146526E-005  0.2873453E+03  0.7546771E-02  0.1091743E+00
         21   -1    0    0  502  501  0.00000000000E+00  0.00000000000E+00  0.39381416579E+03  0.39381416579E+03  0.00000000000E+00 0.  1.
         21   -1    0    0  501  502 -0.00000000000E+00 -0.00000000000E+00 -0.20966059663E+03  0.20966059663E+03  0.00000000000E+00 0.  1.
         25    1    1    2    0    0  0.39135391357E+02 -0.93443362405E+02 -0.81931263906E+02  0.18055739486E+03  0.12500000000E+03 0.  0.
         25    1    1    2    0    0  0.44692948787E+02  0.20890108712E+02  0.20479643036E+03  0.24494986059E+03  0.12500000000E+03 0.  0.
         25    1    1    2    0    0 -0.83828340143E+02  0.72553253693E+02  0.61288402708E+02  0.17796750698E+03  0.12500000000E+03 0.  0.
</event>
<event>
 5    0  0.5677492E-005  0.2387577E+03  0.7546771E-02  0.1120623E+00
         21   -1    0    0  502  501  0.00000000000E+00  0.00000000000E+00  0.20770180749E+04  0.20770180749E+04  0.00000000000E+00 0. -1.
         21   -1    0    0  501  502 -0.00000000000E+00 -0.00000000000E+00 -0.27445721021E+02  0.27445721021E+02  0.00000000000E+00 0. -1.
         25    1    1    2    0    0  0.49025868413E+02 -0.19686077908E+02  0.58703975921E+03  0.60252116671E+03  0.12500000000E+03 0.  0.
         25    1    1    2    0    0 -0.70793025240E+02  0.10819264832E+03  0.93748943607E+03  0.95458302117E+03  0.12500000000E+03 0.  0.
         25    1    1    2    0    0  0.21767156827E+02 -0.88506570413E+02  0.52504315865E+03  0.54735960809E+03  0.12500000000E+03 0.  0.
</event>
<event>
 5    0  0.5677492E-005  0.3949918E+03  0.7546771E-02  0.1045528E+00
         21   -1    0    0  502  501  0.00000000000E+00  0.00000000000E+00  0.36086175646E+03  0.36086175646E+03  0.00000000000E+00 0. -1.
         21   -1    0    0  501  502 -0.00000000000E+00 -0.00000000000E+00 -0.43234989839E+03  0.43234989839E+03  0.00000000000E+00 0. -1.
         25    1    1    2    0    0  0.83102269926E+02  0.23137435054E+03  0.16448044924E+03  0.32112130969E+03  0.12500000000E+03 0.  0.
         25    1    1    2    0    0  0.34202204444E+02 -0.15777886679E+03 -0.53352423445E+02  0.21103422159E+03  0.12500000000E+03 0.  0.
         25    1    1    2    0    0 -0.11730447437E+03 -0.73595483755E+02 -0.18261616772E+03  0.26105612356E+03  0.12500000000E+03 0.  0.
</event>
<event>
 5    0  0.5677492E-005  0.2577751E+03  0.7546771E-02  0.1108487E+00
         21   -1    0    0  502  501  0.00000000000E+00  0.00000000000E+00  0.60166090046E+02  0.60166090046E+02  0.00000000000E+00 0.  1.
         21   -1    0    0  501  502 -0.00000000000E+00 -0.00000000000E+00 -0.11044091243E+04  0.11044091243E+04  0.00000000000E+00 0.  1.
         25    1    1    2    0    0  0.44197500049E+02  0.87594602027E+02 -0.12916752413E+03  0.20478154849E+03  0.12500000000E+03 0.  0.
         25    1    1    2    0    0 -0.61586711626E+02 -0.75216225659E+01 -0.41265657422E+03  0.43561444662E+03  0.12500000000E+03 0.  0.
         25    1    1    2    0    0  0.17389211577E+02 -0.80072979461E+02 -0.50241893594E+03  0.52417921927E+03  0.12500000000E+03 0.  0.
</event>
<event>
 5    0  0.5677492E-005  0.2192858E+03  0.7546771E-02  0.1134417E+00
         21   -1    0    0  502  501  0.00000000000E+00  0.00000000000E+00  0.10656199005E+04  0.10656199005E+04  0.00000000000E+00 0. -1.
         21   -1    0    0  501  502 -0.00000000000E+00 -0.00000000000E+00 -0.45125169012E+02  0.45125169012E+02  0.00000000000E+00 0. -1.
         25    1    1    2    0    0 -0.40716202751E+02 -0.44186123637E+02  0.38703734437E+03  0.41113638689E+03  0.12500000000E+03 0.  0.
         25    1    1    2    0    0 -0.53280921078E+02  0.32083954603E+02  0.27864156725E+03  0.31166385689E+03  0.12500000000E+03 0.  0.
         25    1    1    2    0    0  0.93997123828E+02  0.12102169034E+02  0.35481581991E+03  0.38794482577E+03  0.12500000000E+03 0.  0.
</event>
<event>
 5    0  0.5677492E-005  0.4899467E+03  0.7546771E-02  0.1016437E+00
         21   -1    0    0  502  501  0.00000000000E+00  0.00000000000E+00  0.59200813121E+03  0.59200813121E+03  0.00000000000E+00 0. -1.
         21   -1    0    0  501  502 -0.00000000000E+00 -0.00000000000E+00 -0.40548057086E+03  0.40548057086E+03  0.00000000000E+00 0. -1.
         25    1    1    2    0    0 -0.42336602729E+03 -0.65352396115E+02  0.68477300296E+02  0.45146856966E+03  0.12500000000E+03 0.  0.
         25    1    1    2    0    0  0.30784766959E+03  0.27902949615E+02  0.15528064836E+03  0.36781223746E+03  0.12500000000E+03 0.  0.
         25    1    1    2    0    0  0.11551835770E+03  0.37449446499E+02 -0.37230388301E+02  0.17820789495E+03  0.12500000000E+03 0.  0.
</event>
<event>
 5    0  0.5677492E-005  0.2823726E+03  0.7546771E-02  0.1094400E+00
         21   -1    0    0  502  501  0.00000000000E+00  0.00000000000E+00  0.24694633150E+03  0.24694633150E+03  0.00000000000E+00 0. -1.
         21   -1    0    0  501  502 -0.00000000000E+00 -0.00000000000E+00 -0.32288104306E+03  0.32288104306E+03  0.00000000000E+00 0. -1.
         25    1    1    2    0    0  0.55847969185E+02  0.90178093241E+02  0.63215400636E+02  0.17570506834E+03  0.12500000000E+03 0.  0.
         25    1    1    2    0    0 -0.98965156898E+02 -0.73080358740E+02 -0.18328465767E+03  0.25367914154E+03  0.12500000000E+03 0.  0.
         25    1    1    2    0    0  0.43117187714E+02 -0.17097734501E+02  0.44134545484E+02  0.14044316468E+03  0.12500000000E+03 0.  0.
</event>
<event>
 5    0  0.5677492E-005  0.2638310E+03  0.7546771E-02  0.1104863E+00
         21   -1    0    0  502  501  0.00000000000E+00  0.00000000000E+00  0.26911362123E+03  0.26911362123E+03  0.00000000000E+00 0. -1.
         21   -1    0    0  501  502 -0.00000000000E+00 -0.00000000000E+00 -0.25865201457E+03  0.25865201457E+03  0.00000000000E+00 0. -1.
         25    1    1    2    0    0  0.10516866592E+03 -0.21866415405E+02  0.14255293880E+02  0.16542914440E+03  0.12500000000E+03 0.  0.
         25    1    1    2    0    0 -0.10953543244E+03 -0.52150311264E+02  0.83107587871E+02  0.19300139141E+03  0.12500000000E+03 0.  0.
         25    1    1    2    0    0  0.43667665162E+01  0.74016726669E+02 -0.86901275086E+02  0.16933509999E+03  0.12500000000E+03 0.  0.
</event>
<event>
 5    0  0.5677492E-005  0.2723144E+03  0.7546771E-02  0.1099962E+00
         21   -1    0    0  502  501  0.00000000000E+00  0.00000000000E+00  0.60663705283E+03  0.60663705283E+03  0.00000000000E+00 0.  1.
         21   -1    0    0  501  502 -0.00000000000E+00 -0.00000000000E+00 -0.12223973884E+03  0.12223973884E+03  0.00000000000E+00 0.  1.
         25    1    1    2    0    0 -0.34352719699E+02  0.72943168326E+02  0.19843480962E+03  0.24799634841E+03  0.12500000000E+03 0.  0.
         25    1    1    2    0    0 -0.11708200764E+03 -0.75305843660E+02  0.17018179914E+03  0.25291502795E+03  0.12500000000E+03 0.  0.
         25    1    1    2    0    0  0.15143472734E+03  0.23626753344E+01  0.11578070523E+03  0.22796541532E+03  0.12500000000E+03 0.  0.
</event>
<event>
 5    0  0.5677492E-005  0.3397901E+03  0.7546771E-02  0.1066885E+00
         21   -1    0    0  502  501  0.00000000000E+00  0.00000000000E+00  0.65226072123E+03  0.65226072123E+03  0.00000000000E+00 0.  1.
         21   -1    0    0  501  502 -0.00000000000E+00 -0.00000000000E+00 -0.17701103548E+03  0.17701103548E+03  0.00000000000E+00 0. -1.
         25    1    1    2    0    0  0.13592327610E+02  0.37680030458E+02  0.12725070355E+03  0.18281760752E+03  0.12500000000E+03 0.  0.
         25    1    1    2    0    0 -0.19137262797E+03 -0.17474903916E+03  0.17686025182E+03  0.33773548540E+03  0.12500000000E+03 0.  0.
         25    1    1    2    0    0  0.17778030036E+03  0.13706900871E+03  0.17113873038E+03  0.30871866380E+03  0.12500000000E+03 0.  0.
</event>
<event>
 5    0  0.5677492E-005  0.2653344E+03  0.7546771E-02  0.1103980E+00
         21   -1    0    0  502  501  0.00000000000E+00  0.00000000000E+00  0.36880815798E+03  0.36880815798E+03  0.00000000000E+00 0. -1.
         21   -1    0    0  501  502 -0.00000000000E+00 -0.00000000000E+00 -0.19089150574E+03  0.19089150574E+03  0.00000000000E+00 0. -1.
         25    1    1    2    0    0 -0.84878709222E+02 -0.54328580838E+02 -0.84382180180E+02  0.18138727162E+03  0.12500000000E+03 0.  0.
         25    1    1    2    0    0  0.40241782489E+02  0.11765812615E+02  0.10850910432E+03  0.17075438830E+03  0.12500000000E+03 0.  0.
         25    1    1    2    0    0  0.44636926733E+02  0.42562768222E+02  0.15378972811E+03  0.20755800379E+03  0.12500000000E+03 0.  0.
</event>
<event>
 5    0  0.5677492E-005  0.3255884E+03  0.7546771E-02  0.1073106E+00
         21   -1    0    0  502  501  0.00000000000E+00  0.00000000000E+00  0.26814958242E+03  0.26814958242E+03  0.00000000000E+00 0.  1.
         21   -1    0    0  501  502 -0.00000000000E+00 -0.00000000000E+00 -0.39533094086E+03  0.39533094086E+03  0.00000000000E+00 0.  1.
         25    1    1    2    0    0  0.90212854235E+02 -0.10588521543E+03 -0.25893449110E+02  0.18880018173E+03  0.12500000000E+03 0.  0.
         25    1    1    2    0    0 -0.99980498425E+02  0.23463578161E+03 -0.62361421436E+02  0.29079889436E+03  0.12500000000E+03 0.  0.
         25    1    1    2    0    0  0.97676441904E+01 -0.12875056618E+03 -0.38926487893E+02  0.18388144720E+03  0.12500000000E+03 0.  0.
</event>
<event>
 5    0  0.5677492E-005  0.3989737E+03  0.7546771E-02  0.1044136E+00
         21   -1    0    0  502  501  0.00000000000E+00  0.00000000000E+00  0.46253842878E+03  0.46253842878E+03  0.00000000000E+00 0. -1.
         21   -1    0    0  501  502 -0.00000000000E+00 -0.00000000000E+00 -0.34414448463E+03  0.34414448463E+03  0.00000000000E+00 0. -1.
         25    1    1    2    0    0  0.19149428916E+02  0.73870245128E+01 -0.21102839992E+03  0.24612853214E+03  0.12500000000E+03 0.  0.
         25    1    1    2    0    0  0.58938152303E+02  0.15310408363E+03  0.61529821119E+02  0.21523355944E+03  0.12500000000E+03 0.  0.
         25    1    1    2    0    0 -0.78087581219E+02 -0.16049110815E+03  0.26789252295E+03  0.34532082183E+03  0.12500000000E+03 0.  0.
</event>
<event>
 5    0  0.5684623E-005  0.3360259E+03  0.7546771E-02  0.1068501E+00
         21   -1    0    0  502  501  0.00000000000E+00  0.00000000000E+00  0.33857687546E+03  0.33857687546E+03  0.00000000000E+00 0.  1.
         21   -1    0    0  501  502 -0.00000000000E+00 -0.00000000000E+00 -0.33349411199E+03  0.33349411199E+03  0.00000000000E+00 0.  1.
         25    1    1    2    0    0  0.10343703437E+03 -0.86912660295E+02 -0.69130278971E+02  0.19661390101E+03  0.12500000000E+03 0.  0.
         25    1    1    2    0    0  0.22761592126E+02  0.20626686168E+03 -0.16943302511E+02  0.24285012622E+03  0.12500000000E+03 0.  0.
         25    1    1    2    0    0 -0.12619862649E+03 -0.11935420139E+03  0.91156344954E+02  0.23260696022E+03  0.12500000000E+03 0.  0.
</event>
<event>
 5    0  0.5677492E-005  0.2544703E+03  0.7546771E-02  0.1110512E+00
         21   -1    0    0  502  501  0.00000000000E+00  0.00000000000E+00  0.22008063798E+02  0.22008063798E+02  0.00000000000E+00 0.  1.
         21   -1    0    0  501  502 -0.00000000000E+00 -0.00000000000E+00 -0.29423370426E+04  0.29423370426E+04  0.00000000000E+00 0.  1.
         25    1    1    2    0    0 -0.10786708085E+03  0.68824246920E+02 -0.87672126992E+03  0.89478336441E+03  0.12500000000E+03 0.  0.
         25    1    1    2    0    0  0.98568859947E+02  0.35380423668E+02 -0.10875411606E+04  0.10996992182E+04  0.12500000000E+03 0.  0.
         25    1    1    2    0    0  0.92982209034E+01 -0.10420467059E+03 -0.95606654828E+03  0.96986252378E+03  0.12500000000E+03 0.  0.
</event>
<event>
 5    0  0.5677492E-005  0.2065916E+03  0.7546771E-02  0.1144294E+00
         21   -1    0    0  502  501  0.00000000000E+00  0.00000000000E+00  0.61693109274E+02  0.61693109274E+02  0.00000000000E+00 0. -1.
         21   -1    0    0  501  502 -0.00000000000E+00 -0.00000000000E+00 -0.69181304659E+03  0.69181304659E+03  0.00000000000E+00 0. -1.
         25    1    1    2    0    0  0.33567433521E+02  0.10433540208E+02 -0.11058954566E+03  0.17055989846E+03  0.12500000000E+03 0.  0.
         25    1    1    2    0    0 -0.14673414744E+02 -0.28590937411E+02 -0.19153051184E+03  0.23095819485E+03  0.12500000000E+03 0.  0.
         25    1    1    2    0    0 -0.18894018777E+02  0.18157397203E+02 -0.32799987982E+03  0.35198806256E+03  0.12500000000E+03 0.  0.
</event>
<event>
 5    0  0.6375221E-005  0.4149464E+03  0.7546771E-02  0.1038724E+00
         21   -1    0    0  502  501  0.00000000000E+00  0.00000000000E+00  0.12512838633E+04  0.12512838633E+04  0.00000000000E+00 0. -1.
         21   -1    0    0  501  502 -0.00000000000E+00 -0.00000000000E+00 -0.13760306967E+03  0.13760306967E+03  0.00000000000E+00 0. -1.
         25    1    1    2    0    0  0.12285341140E+03 -0.15534044751E+03  0.26555418876E+03  0.35407293386E+03  0.12500000000E+03 0.  0.
         25    1    1    2    0    0 -0.17571878720E+02  0.34279764277E+02  0.81897180659E+03  0.82935136893E+03  0.12500000000E+03 0.  0.
         25    1    1    2    0    0 -0.10528153268E+03  0.12106068323E+03  0.29154798319E+02  0.20546263021E+03  0.12500000000E+03 0.  0.
</event>
<event>
 5    0  0.5677492E-005  0.4308619E+03  0.7546771E-02  0.1033588E+00
         21   -1    0    0  502  501  0.00000000000E+00  0.00000000000E+00  0.82200043851E+02  0.82200043851E+02  0.00000000000E+00 0.  1.
         21   -1    0    0  501  502 -0.00000000000E+00 -0.00000000000E+00 -0.22584169973E+04  0.22584169973E+04  0.00000000000E+00 0.  1.
         25    1    1    2    0    0  0.74075184820E+02 -0.34024881918E+02 -0.18119499756E+03  0.23473698630E+03  0.12500000000E+03 0.  0.
         25    1    1    2    0    0 -0.24624648138E+03  0.67223733118E+02 -0.17764803108E+04  0.17990729987E+04  0.12500000000E+03 0.  0.
         25    1    1    2    0    0  0.17217129656E+03 -0.33198851200E+02 -0.21854164505E+03  0.30680705615E+03  0.12500000000E+03 0.  0.
</event>
<event>
 5    0  0.5677492E-005  0.2623287E+03  0.7546771E-02  0.1105752E+00
         21   -1    0    0  502  501  0.00000000000E+00  0.00000000000E+00  0.57020038915E+03  0.57020038915E+03  0.00000000000E+00 0.  1.
         21   -1    0    0  501  502 -0.00000000000E+00 -0.00000000000E+00 -0.12068799740E+03  0.12068799740E+03  0.00000000000E+00 0.  1.
         25    1    1    2    0    0 -0.56603847209E+01  0.11524188353E+03  0.19829065698E+03  0.26126024634E+03  0.12500000000E+03 0.  0.
         25    1    1    2    0    0 -0.34479084627E+02 -0.63663052477E+02  0.34214917744E+01  0.14449393805E+03  0.12500000000E+03 0.  0.
         25    1    1    2    0    0  0.40139469348E+02 -0.51578831052E+02  0.24780024299E+03  0.28513420216E+03  0.12500000000E+03 0.  0.
</event>
<event>
 5    0  0.5677492E-005  0.3498893E+03  0.7546771E-02  0.1062660E+00
         21   -1    0    0  502  501  0.00000000000E+00  0.00000000000E+00  0.23723624001E+03  0.23723624001E+03  0.00000000000E+00 0. -1.
         21   -1    0    0  501  502 -0.00000000000E+00 -0.00000000000E+00 -0.51603632095E+03  0.51603632095E+03  0.00000000000E+00 0. -1.
         25    1    1    2    0    0  0.22118559516E+03 -0.15230227969E+03 -0.16071152508E+03  0.33700481628E+03  0.12500000000E+03 0.  0.
         25    1    1    2    0    0 -0.96312609645E+02  0.90218061766E+02 -0.13759792080E+03  0.22797720337E+03  0.12500000000E+03 0.  0.
         25    1    1    2    0    0 -0.12487298552E+03  0.62084217923E+02  0.19509364937E+02  0.18829054131E+03  0.12500000000E+03 0.  0.
</event>
<event>
 5    0  0.5677492E-005  0.2640954E+03  0.7546771E-02  0.1104707E+00
         21   -1    0    0  502  501  0.00000000000E+00  0.00000000000E+00  0.13474042536E+03  0.13474042536E+03  0.00000000000E+00 0. -1.
         21   -1    0    0  501  502 -0.00000000000E+00 -0.00000000000E+00 -0.51763530349E+03  0.51763530349E+03  0.00000000000E+00 0. -1.
         25    1    1    2    0    0 -0.36312227181E+02  0.15591996654E+03 -0.14417692904E+03  0.24908151412E+03  0.12500000000E+03 0.  0.
         25    1    1    2    0    0  0.79896171571E+02 -0.53976890882E+02 -0.11089197391E+03  0.19292209013E+03  0.12500000000E+03 0.  0.
         25    1    1    2    0    0 -0.43583944390E+02 -0.10194307565E+03 -0.12782597518E+03  0.21037212461E+03  0.12500000000E+03 0.  0.
</event>
<event>
 5    0  0.5677492E-005  0.2839651E+03  0.7546771E-02  0.1093543E+00
         21   -1    0    0  502  501  0.00000000000E+00  0.00000000000E+00  0.27501524184E+04  0.27501524184E+04  0.00000000000E+00 0. -1.
         21   -1    0    0  501  502 -0.00000000000E+00 -0.00000000000E+00 -0.29320631663E+02  0.29320631663E+02  0.00000000000E+00 0. -1.
         25    1    1    2    0    0  0.10052437586E+03  0.16867584245E+02  0.18103865163E+04  0.18175571528E+04  0.12500000000E+03 0.  0.
         25    1    1    2    0    0 -0.72710293633E+01  0.15961288602E+02  0.59795451094E+03  0.61113192336E+03  0.12500000000E+03 0.  0.
         25    1    1    2    0    0 -0.93253346497E+02 -0.32828872847E+02  0.31249075950E+03  0.35078397383E+03  0.12500000000E+03 0.  0.
</event>
<event>
 5    0  0.5677492E-005  0.3221063E+03  0.7546771E-02  0.1074684E+00
         21   -1    0    0  502  501  0.00000000000E+00  0.00000000000E+00  0.71927013722E+03  0.71927013722E+03  0.00000000000E+00 0. -1.
         21   -1    0    0  501  502 -0.00000000000E+00 -0.00000000000E+00 -0.14424689349E+03  0.14424689349E+03  0.00000000000E+00 0. -1.
         25    1    1    2    0    0 -0.65688812666E+02  0.22193424099E+03  0.18701886521E+03  0.32275514462E+03  0.12500000000E+03 0.  0.
         25    1    1    2    0    0  0.54185729378E+02 -0.19806234928E+02  0.16202746593E+03  0.21261768489E+03  0.12500000000E+03 0.  0.
         25    1    1    2    0    0  0.11503083288E+02 -0.20212800606E+03  0.22597691258E+03  0.32814420120E+03  0.12500000000E+03 0.  0.
</event>
<event>
 5    0  0.5708110E-005  0.3194398E+03  0.7546771E-02  0.1075907E+00
         21   -1    0    0  502  501  0.00000000000E+00  0.00000000000E+00  0.62905696960E+03  0.62905696960E+03  0.00000000000E+00 0.  1.
         21   -1    0    0  501  502 -0.00000000000E+00 -0.00000000000E+00 -0.16221389965E+03  0.16221389965E+03  0.00000000000E+00 0.  1.
         25    1    1    2    0    0  0.10217303825E+03 -0.92132526510E+02  0.14538735096E+03  0.23598774122E+03  0.12500000000E+03 0.  0.
         25    1    1    2    0    0 -0.14825596397E+02 -0.12218400952E+03  0.19857260969E+03  0.26496190633E+03  0.12500000000E+03 0.  0.
         25    1    1    2    0    0 -0.87347441850E+02  0.21431653603E+03  0.12288310931E+03  0.29032122170E+03  0.12500000000E+03 0.  0.
</event>
<event>
 5    0  0.5677492E-005  0.2335438E+03  0.7546771E-02  0.1124170E+00
         21   -1    0    0  502  501  0.00000000000E+00  0.00000000000E+00  0.21588145601E+03  0.21588145601E+03  0.00000000000E+00 0. -1.
         21   -1    0    0  501  502 -0.00000000000E+00 -0.00000000000E+00 -0.25265121036E+03  0.25265121036E+03  0.00000000000E+00 0. -1.
         25    1    1    2    0    0 -0.58780814579E+02  0.54260168226E+02  0.41535161427E+02  0.15410879162E+03  0.12500000000E+03 0.  0.
         25    1    1    2    0    0 -0.16069023895E+02  0.21114477922E+02 -0.79282165481E+02  0.15038183557E+03  0.12500000000E+03 0.  0.
         25    1    1    2    0    0  0.74849838474E+02 -0.75374646147E+02  0.97724970183E+00  0.16404203918E+03  0.12500000000E+03 0.  0.
</event>
<event>
 5    0  0.5677492E-005  0.4701932E+03  0.7546771E-02  0.1021866E+00
         21   -1    0    0  502  501  0.00000000000E+00  0.00000000000E+00  0.23941937257E+04  0.23941937257E+04  0.00000000000E+00 0.  1.
         21   -1    0    0  501  502 -0.00000000000E+00 -0.00000000000E+00 -0.92340735782E+02  0.92340735782E+02  0.00000000000E+00 0.  1.
         25    1    1    2    0    0  0.15332199360E+03 -0.24892665307E+03  0.55264712006E+03  0.63758603469E+03  0.12500000000E+03 0.  0.
         25    1    1    2    0    0 -0.30024398186E+03  0.21161363650E+03  0.13395356625E+04  0.13945994303E+04  0.12500000000E+03 0.  0.
         25    1    1    2    0    0  0.14692198826E+03  0.37313016570E+02  0.40967020736E+03  0.45434899652E+03  0.12500000000E+03 0.  0.
</event>
<event>
 5    0  0.5677492E-005  0.3247293E+03  0.7546771E-02  0.1073493E+00
         21   -1    0    0  502  501  0.00000000000E+00  0.00000000000E+00  0.67676601895E+02  0.67676601895E+02  0.00000000000E+00 0. -1.
         21   -1    0    0  501  502 -0.00000000000E+00 -0.00000000000E+00 -0.15581326127E+04  0.15581326127E+04  0.00000000000E+00 0. -1.
         25    1    1    2    0    0  0.12256482892E+03  0.11430865087E+03 -0.19246130327E+03  0.28417416879E+03  0.12500000000E+03 0.  0.
         25    1    1    2    0    0 -0.12877647069E+03 -0.11109777243E+03 -0.89971141169E+03  0.92413836560E+03  0.12500000000E+03 0.  0.
         25    1    1    2    0    0  0.62116417736E+01 -0.32108784421E+01 -0.39828329580E+03  0.41749668016E+03  0.12500000000E+03 0.  0.
</event>
<event>
 5    0  0.5677492E-005  0.4212285E+03  0.7546771E-02  0.1036667E+00
         21   -1    0    0  502  501  0.00000000000E+00  0.00000000000E+00  0.17504351832E+03  0.17504351832E+03  0.00000000000E+00 0.  1.
         21   -1    0    0  501  502 -0.00000000000E+00 -0.00000000000E+00 -0.10136532124E+04  0.10136532124E+04  0.00000000000E+00 0.  1.
         25    1    1    2    0    0  0.10721669240E+03  0.75166955761E+02  0.57801289297E+02  0.19003020658E+03  0.12500000000E+03 0.  0.
         25    1    1    2    0    0 -0.40456735061E+02  0.13279780380E+03 -0.33853735047E+03  0.38665817173E+03  0.12500000000E+03 0.  0.
         25    1    1    2    0    0 -0.66759957344E+02 -0.20796475956E+03 -0.55787363291E+03  0.61200835241E+03  0.12500000000E+03 0.  0.
</event>
<event>
 5    0  0.5677492E-005  0.3019442E+03  0.7546771E-02  0.1084273E+00
         21   -1    0    0  502  501  0.00000000000E+00  0.00000000000E+00  0.38970301313E+03  0.38970301313E+03  0.00000000000E+00 0. -1.
         21   -1    0    0  501  502 -0.00000000000E+00 -0.00000000000E+00 -0.23394814764E+03  0.23394814764E+03  0.00000000000E+00 0. -1.
         25    1    1    2    0    0  0.18653065405E+03  0.90232261313E+02  0.14263813233E+03  0.28090244334E+03  0.12500000000E+03 0.  0.
         25    1    1    2    0    0 -0.79449367719E+02 -0.90582324959E+02 -0.20291839941E+02  0.17479736381E+03  0.12500000000E+03 0.  0.
         25    1    1    2    0    0 -0.10708128633E+03  0.35006364571E+00  0.33408573108E+02  0.16795135362E+03  0.12500000000E+03 0.  0.
</event>
<event>
 5    0  0.5677492E-005  0.2600791E+03  0.7546771E-02  0.1107096E+00
         21   -1    0    0  502  501  0.00000000000E+00  0.00000000000E+00  0.22296042039E+03  0.22296042039E+03  0.00000000000E+00 0. -1.
         21   -1    0    0  501  502 -0.00000000000E+00 -0.00000000000E+00 -0.30337740008E+03  0.30337740008E+03  0.00000000000E+00 0. -1.
         25    1    1    2    0    0  0.64274420192E+02 -0.37974636978E+02  0.12111151872E+03  0.18938393309E+03  0.12500000000E+03 0.  0.
         25    1    1    2    0    0  0.16926347415E+01  0.26797871581E+02 -0.10488045721E+03  0.16536596154E+03  0.12500000000E+03 0.  0.
         25    1    1    2    0    0 -0.65967054934E+02  0.11176765397E+02 -0.96648041206E+02  0.17158792583E+03  0.12500000000E+03 0.  0.
</event>
<event>
 5    0  0.5677492E-005  0.2770343E+03  0.7546771E-02  0.1097320E+00
         21   -1    0    0  502  501  0.00000000000E+00  0.00000000000E+00  0.30943331456E+03  0.30943331456E+03  0.00000000000E+00 0. -1.
         21   -1    0    0  501  502 -0.00000000000E+00 -0.00000000000E+00 -0.24802754656E+03  0.24802754656E+03  0.00000000000E+00 0. -1.
         25    1    1    2    0    0  0.92018884397E+02 -0.17121915455E+02  0.58102026419E+02  0.16661776781E+03  0.12500000000E+03 0.  0.
         25    1    1    2    0    0  0.61445844219E+02 -0.65060893938E+02  0.66363525209E+02  0.16744440621E+03  0.12500000000E+03 0.  0.
         25    1    1    2    0    0 -0.15346472862E+03  0.82182809393E+02 -0.63059783628E+02  0.22339868711E+03  0.12500000000E+03 0.  0.
</event>
<event>
 5    0  0.7357325E-005  0.6909717E+03  0.7546771E-02  0.9732798E-01
         21   -1    0    0  502  501  0.00000000000E+00  0.00000000000E+00  0.87510540585E+03  0.87510540585E+03  0.00000000000E+00 0. -1.
         21   -1    0    0  501  502 -0.00000000000E+00 -0.00000000000E+00 -0.54558213571E+03  0.54558213571E+03  0.00000000000E+00 0. -1.
         25    1    1    2    0    0 -0.10083135661E+03 -0.46991219789E+03  0.75044820717E+02  0.50223616091E+03  0.12500000000E+03 0.  0.
         25    1    1    2    0    0 -0.20656008156E+03  0.33928784407E+03  0.35579308303E+03  0.54771984295E+03  0.12500000000E+03 0.  0.
         25    1    1    2    0    0  0.30739143816E+03  0.13062435383E+03 -0.10131463361E+03  0.37073153771E+03  0.12500000000E+03 0.  0.
</event>
<event>
 5    0  0.5677492E-005  0.5024359E+03  0.7546771E-02  0.1013145E+00
         21   -1    0    0  502  501  0.00000000000E+00  0.00000000000E+00  0.88701688054E+03  0.88701688054E+03  0.00000000000E+00 0. -1.
         21   -1    0    0  501  502 -0.00000000000E+00 -0.00000000000E+00 -0.28459643982E+03  0.28459643982E+03  0.00000000000E+00 0. -1.
         25    1    1    2    0    0  0.21525416511E+02 -0.30819170994E+03  0.14871860547E+03  0.36494889676E+03  0.12500000000E+03 0.  0.
         25    1    1    2    0    0 -0.14669701217E+03  0.36503056837E+03  0.46342041805E+03  0.62060519905E+03  0.12500000000E+03 0.  0.
         25    1    1    2    0    0  0.12517159566E+03 -0.56838858430E+02 -0.97185827925E+01  0.18605922455E+03  0.12500000000E+03 0.  0.
</event>
<event>
 5    0  0.5677492E-005  0.4811254E+03  0.7546771E-02  0.1018826E+00
         21   -1    0    0  502  501  0.00000000000E+00  0.00000000000E+00  0.57015617547E+03  0.57015617547E+03  0.00000000000E+00 0.  1.
         21   -1    0    0  501  502 -0.00000000000E+00 -0.00000000000E+00 -0.40599693720E+03  0.40599693720E+03  0.00000000000E+00 0.  1.
         25    1    1    2    0    0 -0.74839282581E+02 -0.24898455894E+03 -0.24083157857E+02  0.28948096189E+03  0.12500000000E+03 0.  0.
         25    1    1    2    0    0  0.22485021044E+03  0.23183003794E+03  0.30247103987E+03  0.45980051500E+03  0.12500000000E+03 0.  0.
         25    1    1    2    0    0 -0.15001092786E+03  0.17154520997E+02 -0.11422864375E+03  0.22687163578E+03  0.12500000000E+03 0.  0.
</event>
<event>
 5    0  0.5677492E-005  0.4132106E+03  0.7546771E-02  0.1039299E+00
         21   -1    0    0  502  501  0.00000000000E+00  0.00000000000E+00  0.19112767565E+03  0.19112767565E+03  0.00000000000E+00 0.  1.
         21   -1    0    0  501  502 -0.00000000000E+00 -0.00000000000E+00 -0.89334545676E+03  0.89334545676E+03  0.00000000000E+00 0.  1.
         25    1    1    2    0    0 -0.23444154937E+03  0.16043986109E+03 -0.20399019434E+03  0.37140380785E+03  0.12500000000E+03 0.  0.
         25    1    1    2    0    0  0.30277785717E+03 -0.16052122335E+03 -0.39118357523E+03  0.53487482972E+03  0.12500000000E+03 0.  0.
         25    1    1    2    0    0 -0.68336307801E+02  0.81362262871E-01 -0.10704401154E+03  0.17819449484E+03  0.12500000000E+03 0.  0.
</event>
<event>
 5    0  0.5677492E-005  0.2700059E+03  0.7546771E-02  0.1101276E+00
         21   -1    0    0  502  501  0.00000000000E+00  0.00000000000E+00  0.94042607982E+02  0.94042607982E+02  0.00000000000E+00 0.  1.
         21   -1    0    0  501  502 -0.00000000000E+00 -0.00000000000E+00 -0.77521438876E+03  0.77521438876E+03  0.00000000000E+00 0.  1.
         25    1    1    2    0    0  0.71852031840E+02 -0.43600163125E+02 -0.12389283566E+03  0.19503364692E+03  0.12500000000E+03 0.  0.
         25    1    1    2    0    0  0.26502780567E+01 -0.11023036583E+03 -0.22062306797E+03  0.27650912398E+03  0.12500000000E+03 0.  0.
         25    1    1    2    0    0 -0.74502309897E+02  0.15383052895E+03 -0.33665587715E+03  0.39771422584E+03  0.12500000000E+03 0.  0.
</event>
<event>
 5    0  0.6332089E-005  0.2843361E+03  0.7546771E-02  0.1093344E+00
         21   -1    0    0  502  501  0.00000000000E+00  0.00000000000E+00  0.62474767358E+03  0.62474767358E+03  0.00000000000E+00 0.  1.
         21   -1    0    0  501  502 -0.00000000000E+00 -0.00000000000E+00 -0.12940744221E+03  0.12940744221E+03  0.00000000000E+00 0.  1.
         25    1    1    2    0    0 -0.36237479504E+02 -0.10108310458E+03  0.55963078504E+02  0.17403394815E+03  0.12500000000E+03 0.  0.
         25    1    1    2    0    0 -0.30753604545E+02 -0.52369347846E+02  0.69684426277E+02  0.15546463280E+03  0.12500000000E+03 0.  0.
         25    1    1    2    0    0  0.66991084049E+02  0.15345245242E+03  0.36969272659E+03  0.42465653485E+03  0.12500000000E+03 0.  0.
</event>
<event>
 5    0  0.5677492E-005  0.2337130E+03  0.7546771E-02  0.1124053E+00
         21   -1    0    0  502  501  0.00000000000E+00  0.00000000000E+00  0.30571616454E+03  0.30571616454E+03  0.00000000000E+00 0.  1.
         21   -1    0    0  501  502 -0.00000000000E+00 -0.00000000000E+00 -0.17866820219E+03  0.17866820219E+03  0.00000000000E+00 0.  1.
         25    1    1    2    0    0 -0.84400677204E+02 -0.37148052901E+01 -0.46250025528E+02  0.15780158096E+03  0.12500000000E+03 0.  0.
         25    1    1    2    0    0  0.18586165189E+02  0.33674846162E+02  0.64805939404E+02  0.14595975672E+03  0.12500000000E+03 0.  0.
         25    1    1    2    0    0  0.65814512015E+02 -0.29960040872E+02  0.10849204847E+03  0.18062302905E+03  0.12500000000E+03 0.  0.
</event>
<event>
 5    0  0.5677492E-005  0.2482144E+03  0.7546771E-02  0.1114438E+00
         21   -1    0    0  502  501  0.00000000000E+00  0.00000000000E+00  0.23101402896E+03  0.23101402896E+03  0.00000000000E+00 0. -1.
         21   -1    0    0  501  502 -0.00000000000E+00 -0.00000000000E+00 -0.26669554350E+03  0.26669554350E+03  0.00000000000E+00 0. -1.
         25    1    1    2    0    0  0.14634298504E+02 -0.46270687575E+01 -0.81657452657E+02  0.15009501002E+03  0.12500000000E+03 0.  0.
         25    1    1    2    0    0  0.67416050173E+02  0.26772683467E+02 -0.66614400768E+02  0.15913572443E+03  0.12500000000E+03 0.  0.
         25    1    1    2    0    0 -0.82050348677E+02 -0.22145614709E+02  0.11259033888E+03  0.18847883801E+03  0.12500000000E+03 0.  0.
</event>
<event>
 5    0  0.5677492E-005  0.4356492E+03  0.7546771E-02  0.1032090E+00
         21   -1    0    0  502  501  0.00000000000E+00  0.00000000000E+00  0.15990228154E+04  0.15990228154E+04  0.00000000000E+00 0. -1.
         21   -1    0    0  501  502 -0.00000000000E+00 -0.00000000000E+00 -0.11869137629E+03  0.11869137629E+03  0.00000000000E+00 0. -1.
         25    1    1    2    0    0 -0.11195721861E+03 -0.90903302302E+02  0.20387783086E+03  0.27926510538E+03  0.12500000000E+03 0.  0.
         25    1    1    2    0    0 -0.16805813876E+03 -0.64318483950E+02  0.16279504173E+03  0.27296085982E+03  0.12500000000E+03 0.  0.
         25    1    1    2    0    0  0.28001535737E+03  0.15522178625E+03  0.11136585665E+04  0.11654882265E+04  0.12500000000E+03 0.  0.
</event>
<event>
 5    0  0.5677492E-005  0.2707458E+03  0.7546771E-02  0.1100854E+00
         21   -1    0    0  502  501  0.00000000000E+00  0.00000000000E+00  0.49298027531E+02  0.49298027531E+02  0.00000000000E+00 0.  1.
         21   -1    0    0  501  502 -0.00000000000E+00 -0.00000000000E+00 -0.14869420358E+04  0.14869420358E+04  0.00000000000E+00 0.  1.
         25    1    1    2    0    0 -0.14320226001E+03 -0.40427189921E+02 -0.46468874715E+03  0.50368827333E+03  0.12500000000E+03 0.  0.
         25    1    1    2    0    0  0.15962240335E+02  0.96498427848E+02 -0.44039634065E+03  0.46812463783E+03  0.12500000000E+03 0.  0.
         25    1    1    2    0    0  0.12724001968E+03 -0.56071237928E+02 -0.53255892042E+03  0.56442715212E+03  0.12500000000E+03 0.  0.
</event>
<event>
 5    0  0.5677492E-005  0.3189696E+03  0.7546771E-02  0.1076124E+00
         21   -1    0    0  502  501  0.00000000000E+00  0.00000000000E+00  0.31607497037E+03  0.31607497037E+03  0.00000000000E+00 0.  1.
         21   -1    0    0  501  502 -0.00000000000E+00 -0.00000000000E+00 -0.32189078387E+03  0.32189078387E+03  0.00000000000E+00 0.  1.
         25    1    1    2    0    0  0.94320255162E+02 -0.12871411909E+03  0.16002249363E+02  0.20333397889E+03  0.12500000000E+03 0.  0.
         25    1    1    2    0    0 -0.87066054562E+02  0.21747113015E+03 -0.68501886405E+02  0.27421104782E+03  0.12500000000E+03 0.  0.
         25    1    1    2    0    0 -0.72542006008E+01 -0.88757011060E+02  0.46683823547E+02  0.16042072753E+03  0.12500000000E+03 0.  0.
</event>
<event>
 5    0  0.5677492E-005  0.2026032E+03  0.7546771E-02  0.1147561E+00
         21   -1    0    0  502  501  0.00000000000E+00  0.00000000000E+00  0.15876969152E+03  0.15876969152E+03  0.00000000000E+00 0. -1.
         21   -1    0    0  501  502 -0.00000000000E+00 -0.00000000000E+00 -0.25853840469E+03  0.25853840469E+03  0.00000000000E+00 0. -1.
         25    1    1    2    0    0  0.51057635890E+02  0.21319027482E+02 -0.26860978731E+02  0.13931222234E+03  0.12500000000E+03 0.  0.
         25    1    1    2    0    0 -0.15519186661E+02 -0.32006837134E+02 -0.28927047801E+01  0.12999480958E+03  0.12500000000E+03 0.  0.
         25    1    1    2    0    0 -0.35538449229E+02  0.10687809652E+02 -0.70015029662E+02  0.14800106428E+03  0.12500000000E+03 0.  0.
</event>
<event>
 5    0  0.5677492E-005  0.2952182E+03  0.7546771E-02  0.1087656E+00
         21   -1    0    0  502  501  0.00000000000E+00  0.00000000000E+00  0.15675507071E+03  0.15675507071E+03  0.00000000000E+00 0. -1.
         21   -1    0    0  501  502 -0.00000000000E+00 -0.00000000000E+00 -0.55598707989E+03  0.55598707989E+03  0.00000000000E+00 0. -1.
         25    1    1    2    0    0  0.11918057691E+03 -0.14961460888E+02  0.48117261181E+02  0.17991143946E+03  0.12500000000E+03 0.  0.
         25    1    1    2    0    0 -0.15875874706E+02 -0.40606674744E+01 -0.18746707408E+03  0.22591466593E+03  0.12500000000E+03 0.  0.
         25    1    1    2    0    0 -0.10330470221E+03  0.19022128363E+02 -0.25988219628E+03  0.30691604521E+03  0.12500000000E+03 0.  0.
</event>
<event>
 5    0  0.6182584E-005  0.3414808E+03  0.7546771E-02  0.1066167E+00
         21   -1    0    0  502  501  0.00000000000E+00  0.00000000000E+00  0.61461460781E+03  0.61461460781E+03  0.00000000000E+00 0. -1.
         21   -1    0    0  501  502 -0.00000000000E+00 -0.00000000000E+00 -0.18972723380E+03  0.18972723380E+03  0.00000000000E+00 0. -1.
         25    1    1    2    0    0 -0.74748435700E+02 -0.19654918183E+03  0.25538084124E+03  0.35364287578E+03  0.12500000000E+03 0.  0.
         25    1    1    2    0    0  0.24800383884E+02  0.16408097931E+02 -0.48649088996E+02  0.13739002358E+03  0.12500000000E+03 0.  0.
         25    1    1    2    0    0  0.49948051816E+02  0.18014108390E+03  0.21815562176E+03  0.31330894226E+03  0.12500000000E+03 0.  0.
</event>
<event>
 5    0  0.5677492E-005  0.3134214E+03  0.7546771E-02  0.1078717E+00
         21   -1    0    0  502  501  0.00000000000E+00  0.00000000000E+00  0.24450033145E+03  0.24450033145E+03  0.00000000000E+00 0.  1.
         21   -1    0    0  501  502 -0.00000000000E+00 -0.00000000000E+00 -0.40177027867E+03  0.40177027867E+03  0.00000000000E+00 0. -1.
         25    1    1    2    0    0 -0.16350535154E+03 -0.63719578609E+02 -0.11876546945E+03  0.24601711610E+03  0.12500000000E+03 0.  0.
         25    1    1    2    0    0  0.20177886011E+03 -0.19170995757E+02  0.90990211575E+01  0.23830658331E+03  0.12500000000E+03 0.  0.
         25    1    1    2    0    0 -0.38273508561E+02  0.82890574366E+02 -0.47603498920E+02  0.16194691070E+03  0.12500000000E+03 0.  0.
</event>
<event>
 5    0  0.5677492E-005  0.2440757E+03  0.7546771E-02  0.1117107E+00
         21   -1    0    0  502  501  0.00000000000E+00  0.00000000000E+00  0.93192306299E+02  0.93192306299E+02  0.00000000000E+00 0. -1.
         21   -1    0    0  501  502 -0.00000000000E+00 -0.00000000000E+00 -0.63924730988E+03  0.63924730988E+03  0.00000000000E+00 0. -1.
         25    1    1    2    0    0 -0.21277682979E+02 -0.72841091620E+02 -0.16706998322E+03  0.22202689863E+03  0.12500000000E+03 0.  0.
         25    1    1    2    0    0 -0.32513708950E+02  0.62437820904E+02 -0.33914170523E+03  0.36823595557E+03  0.12500000000E+03 0.  0.
         25    1    1    2    0    0  0.53791391929E+02  0.10403270716E+02 -0.39843315136E+02  0.14217676198E+03  0.12500000000E+03 0.  0.
</event>
<event>
 5    0  0.5677492E-005  0.3080308E+03  0.7546771E-02  0.1081294E+00
         21   -1    0    0  502  501  0.00000000000E+00  0.00000000000E+00  0.14580636036E+03  0.14580636036E+03  0.00000000000E+00 0. -1.
         21   -1    0    0  501  502 -0.00000000000E+00 -0.00000000000E+00 -0.65074657681E+03  0.65074657681E+03  0.00000000000E+00 0. -1.
         25    1    1    2    0    0  0.36458474341E+02 -0.42638433611E+02  0.66645423631E+02  0.15236098209E+03  0.12500000000E+03 0.  0.
         25    1    1    2    0    0  0.66014130080E+01 -0.10209632715E+02 -0.41011279085E+03  0.42891178169E+03  0.12500000000E+03 0.  0.
         25    1    1    2    0    0 -0.43059887349E+02  0.52848066326E+02 -0.16147284924E+03  0.21528017339E+03  0.12500000000E+03 0.  0.
</event>
<event>
 5    0  0.5677492E-005  0.3659727E+03  0.7546771E-02  0.1056244E+00
         21   -1    0    0  502  501  0.00000000000E+00  0.00000000000E+00  0.23978549454E+04  0.23978549454E+04  0.00000000000E+00 0. -1.
         21   -1    0    0  501  502 -0.00000000000E+00 -0.00000000000E+00 -0.55856596992E+02  0.55856596992E+02  0.00000000000E+00 0. -1.
         25    1    1    2    0    0 -0.23022014641E+03 -0.72311304744E+02  0.72358573991E+03  0.77293697260E+03  0.12500000000E+03 0.  0.
         25    1    1    2    0    0  0.23475588112E+03 -0.73134323536E+01  0.13313947579E+04  0.13577189737E+04  0.12500000000E+03 0.  0.
         25    1    1    2    0    0 -0.45357347068E+01  0.79624737098E+02  0.28701785061E+03  0.32305559617E+03  0.12500000000E+03 0.  0.
</event>
<event>
 5    0  0.5677492E-005  0.3495289E+03  0.7546771E-02  0.1062809E+00
         21   -1    0    0  502  501  0.00000000000E+00  0.00000000000E+00  0.25423085832E+03  0.25423085832E+03  0.00000000000E+00 0.  1.
         21   -1    0    0  501  502 -0.00000000000E+00 -0.00000000000E+00 -0.48054922833E+03  0.48054922833E+03  0.00000000000E+00 0.  1.
         25    1    1    2    0    0 -0.41767518482E+02 -0.87324563709E+02 -0.16839329050E+03  0.23097923135E+03  0.12500000000E+03 0.  0.
         25    1    1    2    0    0 -0.12441000742E+02  0.42183059704E+02  0.18145428665E+03  0.22468833340E+03  0.12500000000E+03 0.  0.
         25    1    1    2    0    0  0.54208519225E+02  0.45141504005E+02 -0.23937936615E+03  0.27911252190E+03  0.12500000000E+03 0.  0.
</event>
<event>
 5    0  0.5677492E-005  0.3333678E+03  0.7546771E-02  0.1069656E+00
         21   -1    0    0  502  501  0.00000000000E+00  0.00000000000E+00  0.85107763677E+02  0.85107763677E+02  0.00000000000E+00 0. -1.
         21   -1    0    0  501  502 -0.00000000000E+00 -0.00000000000E+00 -0.13058044423E+04  0.13058044423E+04  0.00000000000E+00 0. -1.
         25    1    1    2    0    0 -0.17890893761E+03  0.16472836044E+03 -0.34399872555E+03  0.43943596106E+03  0.12500000000E+03 0.  0.
         25    1    1    2    0    0  0.19555207318E+02 -0.81891279673E+02 -0.37353922891E+03  0.40279665261E+03  0.12500000000E+03 0.  0.
         25    1    1    2    0    0  0.15935373030E+03 -0.82837080771E+02 -0.50315872416E+03  0.54867959230E+03  0.12500000000E+03 0.  0.
</event>
<event>
 5    0  0.5677492E-005  0.3097441E+03  0.7546771E-02  0.1080469E+00
         21   -1    0    0  502  501  0.00000000000E+00  0.00000000000E+00  0.54069885338E+03  0.54069885338E+03  0.00000000000E+00 0.  1.
         21   -1    0    0  501  502 -0.00000000000E+00 -0.00000000000E+00 -0.17743965922E+03  0.17743965922E+03  0.00000000000E+00 0.  1.
         25    1    1    2    0    0 -0.65396064187E+02  0.29696586167E+02 -0.10411574842E+00  0.14416498632E+03  0.12500000000E+03 0.  0.
         25    1    1    2    0    0  0.50363796533E+02 -0.16867751202E+03  0.72215704935E+02  0.22765922582E+03  0.12500000000E+03 0.  0.
         25    1    1    2    0    0  0.15032267654E+02  0.13898092585E+03  0.29114760497E+03  0.34631430046E+03  0.12500000000E+03 0.  0.
</event>
<event>
 5    0  0.5677492E-005  0.3736463E+03  0.7546771E-02  0.1053307E+00
         21   -1    0    0  502  501  0.00000000000E+00  0.00000000000E+00  0.52834794279E+03  0.52834794279E+03  0.00000000000E+00 0.  1.
         21   -1    0    0  501  502 -0.00000000000E+00 -0.00000000000E+00 -0.26424171715E+03  0.26424171715E+03  0.00000000000E+00 0.  1.
         25    1    1    2    0    0 -0.13934252273E+03 -0.20911138928E+03  0.82127749630E+02  0.29242756202E+03  0.12500000000E+03 0.  0.
         25    1    1    2    0    0  0.15632267980E+03  0.10752329122E+03  0.23775249008E+03  0.32886058583E+03  0.12500000000E+03 0.  0.
         25    1    1    2    0    0 -0.16980157067E+02  0.10158809806E+03 -0.55774014072E+02  0.17130151210E+03  0.12500000000E+03 0.  0.
</event>
<event>
 5    0  0.5677492E-005  0.2652997E+03  0.7546771E-02  0.1104000E+00
         21   -1    0    0  502  501  0.00000000000E+00  0.00000000000E+00  0.67413821118E+03  0.67413821118E+03  0.00000000000E+00 0. -1.
         21   -1    0    0  501  502 -0.00000000000E+00 -0.00000000000E+00 -0.10440575123E+03  0.10440575123E+03  0.00000000000E+00 0. -1.
         25    1    1    2    0    0 -0.16090965560E+03 -0.21892577093E+02  0.21732664052E+03  0.29870900702E+03  0.12500000000E+03 0.  0.
         25    1    1    2    0    0  0.77448527636E+02  0.74222658750E+02  0.15411305823E+03  0.22557285347E+03  0.12500000000E+03 0.  0.
         25    1    1    2    0    0  0.83461127960E+02 -0.52330081657E+02  0.19829276119E+03  0.25426210191E+03  0.12500000000E+03 0.  0.
</event>
<event>
 5    0  0.5677492E-005  0.2624438E+03  0.7546771E-02  0.1105684E+00
         21   -1    0    0  502  501  0.00000000000E+00  0.00000000000E+00  0.23733534769E+03  0.23733534769E+03  0.00000000000E+00 0.  1.
         21   -1    0    0  501  502 -0.00000000000E+00 -0.00000000000E+00 -0.29020866127E+03  0.29020866127E+03  0.00000000000E+00 0.  1.
         25    1    1    2    0    0  0.10822295902E+03 -0.24338701695E+02 -0.21959400526E+02  0.16855799159E+03  0.12500000000E+03 0.  0.
         25    1    1    2    0    0  0.56784839666E+02  0.25654583622E+01  0.33031789464E+02  0.14123455210E+03  0.12500000000E+03 0.  0.
         25    1    1    2    0    0 -0.16500779868E+03  0.21773243333E+02 -0.63945702520E+02  0.21775146526E+03  0.12500000000E+03 0.  0.
</event>
<event>
 5    0  0.5677492E-005  0.2843133E+03  0.7546771E-02  0.1093356E+00
         21   -1    0    0  502  501  0.00000000000E+00  0.00000000000E+00  0.65904061232E+03  0.65904061232E+03  0.00000000000E+00 0. -1.
         21   -1    0    0  501  502 -0.00000000000E+00 -0.00000000000E+00 -0.12265415242E+03  0.12265415242E+03  0.00000000000E+00 0. -1.
         25    1    1    2    0    0 -0.17152323887E+03  0.50028750393E+02  0.16799843026E+03  0.27526636175E+03  0.12500000000E+03 0.  0.
         25    1    1    2    0    0  0.15643632622E+03 -0.56231080341E+02  0.29375428845E+03  0.35993171650E+03  0.12500000000E+03 0.  0.
         25    1    1    2    0    0  0.15086912649E+02  0.62023299488E+01  0.74633741179E+02  0.14649668649E+03  0.12500000000E+03 0.  0.
</event>
<event>
 5    0  0.5677492E-005  0.4454784E+03  0.7546771E-02  0.1029079E+00
         21   -1    0    0  502  501  0.00000000000E+00  0.00000000000E+00  0.21945645432E+03  0.21945645432E+03  0.00000000000E+00 0.  1.
         21   -1    0    0  501  502 -0.00000000000E+00 -0.00000000000E+00 -0.90428412784E+03  0.90428412784E+03  0.00000000000E+00 0.  1.
         25    1    1    2    0    0  0.29071869723E+02  0.27622593498E+02 -0.37316861095E+03  0.39558563356E+03  0.12500000000E+03 0.  0.
         25    1    1    2    0    0  0.18860759981E+03 -0.23923833350E+03 -0.14214751731E+03  0.35866240896E+03  0.12500000000E+03 0.  0.
         25    1    1    2    0    0 -0.21767946953E+03  0.21161574000E+03 -0.16951154526E+03  0.36949253964E+03  0.12500000000E+03 0.  0.
</event>
<event>
 5    0  0.5677492E-005  0.2794932E+03  0.7546771E-02  0.1095966E+00
         21   -1    0    0  502  501  0.00000000000E+00  0.00000000000E+00  0.84920677111E+02  0.84920677111E+02  0.00000000000E+00 0. -1.
         21   -1    0    0  501  502 -0.00000000000E+00 -0.00000000000E+00 -0.91987571805E+03  0.91987571805E+03  0.00000000000E+00 0. -1.
         25    1    1    2    0    0  0.74255933120E+02  0.25676299384E+02 -0.62374635127E+02  0.16027729428E+03  0.12500000000E+03 0.  0.
         25    1    1    2    0    0 -0.26191478523E+02 -0.11245500751E+03 -0.50574902243E+03  0.53360959132E+03  0.12500000000E+03 0.  0.
         25    1    1    2    0    0 -0.48064454597E+02  0.86778708122E+02 -0.26683138338E+03  0.31090950956E+03  0.12500000000E+03 0.  0.
</event>
<event>
 5    0  0.5677492E-005  0.2515518E+03  0.7546771E-02  0.1112328E+00
         21   -1    0    0  502  501  0.00000000000E+00  0.00000000000E+00  0.65427175664E+02  0.65427175664E+02  0.00000000000E+00 0.  1.
         21   -1    0    0  501  502 -0.00000000000E+00 -0.00000000000E+00 -0.96715622967E+03  0.96715622967E+03  0.00000000000E+00 0.  1.
         25    1    1    2    0    0 -0.58498248770E+02 -0.48762941180E+02 -0.22634804111E+03  0.26955204554E+03  0.12500000000E+03 0.  0.
         25    1    1    2    0    0  0.13007741548E+03 -0.38882113407E+02 -0.39229957310E+03  0.43353881928E+03  0.12500000000E+03 0.  0.
         25    1    1    2    0    0 -0.71579166714E+02  0.87645054588E+02 -0.28308143980E+03  0.32949254052E+03  0.12500000000E+03 0.  0.
</event>
<event>
 5    0  0.5677492E-005  0.4017133E+03  0.7546771E-02  0.1043188E+00
         21   -1    0    0  502  501  0.00000000000E+00  0.00000000000E+00  0.15535049869E+03  0.15535049869E+03  0.00000000000E+00 0.  1.
         21   -1    0    0  501  502 -0.00000000000E+00 -0.00000000000E+00 -0.10387709689E+04  0.10387709689E+04  0.00000000000E+00 0.  1.
         25    1    1    2    0    0  0.12730119610E+03 -0.18337863573E+03 -0.36260140726E+03  0.44377708269E+03  0.12500000000E+03 0.  0.
         25    1    1    2    0    0  0.60984551775E+02 -0.84412490514E+02 -0.28436166194E+03  0.32761431423E+03  0.12500000000E+03 0.  0.
         25    1    1    2    0    0 -0.18828574788E+03  0.26779112624E+03 -0.23645740096E+03  0.42273007063E+03  0.12500000000E+03 0.  0.
</event>
<event>
 5    0  0.6822767E-005  0.3611138E+03  0.7546771E-02  0.1058144E+00
         21   -1    0    0  502  501  0.00000000000E+00  0.00000000000E+00  0.52841879576E+03  0.52841879576E+03  0.00000000000E+00 0.  1.
         21   -1    0    0  501  502 -0.00000000000E+00 -0.00000000000E+00 -0.24677994129E+03  0.24677994129E+03  0.00000000000E+00 0.  1.
         25    1    1    2    0    0 -0.81836332248E+02 -0.67374784391E+02 -0.94355524010E+02  0.18911507544E+03  0.12500000000E+03 0.  0.
         25    1    1    2    0    0  0.18341449524E+03  0.78124409013E+02  0.79287015072E+02  0.24830572105E+03  0.12500000000E+03 0.  0.
         25    1    1    2    0    0 -0.10157816299E+03 -0.10749624622E+02  0.29670736341E+03  0.33777794056E+03  0.12500000000E+03 0.  0.
</event>
<event>
 5    0  0.5677492E-005  0.2349975E+03  0.7546771E-02  0.1123171E+00
         21   -1    0    0  502  501  0.00000000000E+00  0.00000000000E+00  0.56414656532E+02  0.56414656532E+02  0.00000000000E+00 0.  1.
         21   -1    0    0  501  502 -0.00000000000E+00 -0.00000000000E+00 -0.97889123486E+03  0.97889123486E+03  0.00000000000E+00 0.  1.
         25    1    1    2    0    0 -0.75186662631E+01 -0.77138547876E+02 -0.47603647933E+03  0.49823951626E+03  0.12500000000E+03 0.  0.
         25    1    1    2    0    0 -0.53077009868E+02  0.13245378524E+02 -0.27734492785E+03  0.30909192489E+03  0.12500000000E+03 0.  0.
         25    1    1    2    0    0  0.60595676131E+02  0.63893169352E+02 -0.16909517114E+03  0.22797445023E+03  0.12500000000E+03 0.  0.
</event>
<event>
 5    0  0.5677492E-005  0.3065511E+03  0.7546771E-02  0.1082011E+00
         21   -1    0    0  502  501  0.00000000000E+00  0.00000000000E+00  0.79559623535E+03  0.79559623535E+03  0.00000000000E+00 0.  1.
         21   -1    0    0  501  502 -0.00000000000E+00 -0.00000000000E+00 -0.11811720150E+03  0.11811720150E+03  0.00000000000E+00 0.  1.
         25    1    1    2    0    0 -0.12929699935E+03  0.80102916659E+02  0.42035645520E+03  0.46417533404E+03  0.12500000000E+03 0.  0.
         25    1    1    2    0    0  0.10483265214E+03 -0.11844922444E+03  0.24304244384E+03  0.31577639752E+03  0.12500000000E+03 0.  0.
         25    1    1    2    0    0  0.24464347215E+02  0.38346307781E+02  0.14080134807E+02  0.13376170529E+03  0.12500000000E+03 0.  0.
</event>
<event>
 5    0  0.5677492E-005  0.2660741E+03  0.7546771E-02  0.1103548E+00
         21   -1    0    0  502  501  0.00000000000E+00  0.00000000000E+00  0.45046884276E+03  0.45046884276E+03  0.00000000000E+00 0.  1.
         21   -1    0    0  501  502 -0.00000000000E+00 -0.00000000000E+00 -0.15715945564E+03  0.15715945564E+03  0.00000000000E+00 0.  1.
         25    1    1    2    0    0  0.22017752136E+02 -0.73483223455E+02  0.68347553645E+02  0.16180529543E+03  0.12500000000E+03 0.  0.
         25    1    1    2    0    0 -0.11795577971E+02 -0.31335693403E+02  0.24899416415E+03  0.28061388975E+03  0.12500000000E+03 0.  0.
         25    1    1    2    0    0 -0.10222174165E+02  0.10481891686E+03 -0.24032330664E+02  0.16520911323E+03  0.12500000000E+03 0.  0.
</event>
<event>
 5    0  0.5677492E-005  0.4217634E+03  0.7546771E-02  0.1036494E+00
         21   -1    0    0  502  501  0.00000000000E+00  0.00000000000E+00  0.65598217010E+03  0.65598217010E+03  0.00000000000E+00 0. -1.
         21   -1    0    0  501  502 -0.00000000000E+00 -0.00000000000E+00 -0.27117256423E+03  0.27117256423E+03  0.00000000000E+00 0. -1.
         25    1    1    2    0    0  0.78637317174E+02  0.27388359148E+03  0.30770724020E+03  0.43761260837E+03  0.12500000000E+03 0.  0.
         25    1    1    2    0    0 -0.49654314369E+02 -0.24187820430E+03  0.17282392536E+03  0.32628779601E+03  0.12500000000E+03 0.  0.
         25    1    1    2    0    0 -0.28983002805E+02 -0.32005387182E+02 -0.95721559677E+02  0.16325432995E+03  0.12500000000E+03 0.  0.
</event>
<event>
 5    0  0.5677492E-005  0.4809641E+03  0.7546771E-02  0.1018871E+00
         21   -1    0    0  502  501  0.00000000000E+00  0.00000000000E+00  0.60078206259E+03  0.60078206259E+03  0.00000000000E+00 0.  1.
         21   -1    0    0  501  502 -0.00000000000E+00 -0.00000000000E+00 -0.38504220958E+03  0.38504220958E+03  0.00000000000E+00 0.  1.
         25    1    1    2    0    0  0.65414882629E+00 -0.30906081468E+03  0.21883677771E+03  0.39879010815E+03  0.12500000000E+03 0.  0.
         25    1    1    2    0    0 -0.17174940981E+03  0.30855594051E+03  0.99649936096E+01  0.37473848120E+03  0.12500000000E+03 0.  0.
         25    1    1    2    0    0  0.17109526099E+03  0.50487416595E+00 -0.13061918309E+02  0.21229568281E+03  0.12500000000E+03 0.  0.
</event>
<event>
 5    0  0.5677492E-005  0.2925813E+03  0.7546771E-02  0.1089009E+00
         21   -1    0    0  502  501  0.00000000000E+00  0.00000000000E+00  0.54589407440E+03  0.54589407440E+03  0.00000000000E+00 0. -1.
         21   -1    0    0  501  502 -0.00000000000E+00 -0.00000000000E+00 -0.15681401999E+03  0.15681401999E+03  0.00000000000E+00 0. -1.
         25    1    1    2    0    0 -0.76200459014E+02 -0.10348088386E+03  0.23129477103E+02  0.18076165520E+03  0.12500000000E+03 0.  0.
         25    1    1    2    0    0  0.13523284468E+03  0.11075881988E+03  0.29890095719E+03  0.36813342781E+03  0.12500000000E+03 0.  0.
         25    1    1    2    0    0 -0.59032385664E+02 -0.72779360188E+01  0.67049620120E+02  0.15381301137E+03  0.12500000000E+03 0.  0.
</event>
<event>
 5    0  0.5677492E-005  0.4417610E+03  0.7546771E-02  0.1030208E+00
         21   -1    0    0  502  501  0.00000000000E+00  0.00000000000E+00  0.73278101009E+03  0.73278101009E+03  0.00000000000E+00 0. -1.
         21   -1    0    0  501  502 -0.00000000000E+00 -0.00000000000E+00 -0.26631796612E+03  0.26631796612E+03  0.00000000000E+00 0. -1.
         25    1    1    2    0    0 -0.22691292644E+01  0.50567875884E+02  0.35064576361E+03  0.37568565391E+03  0.12500000000E+03 0.  0.
         25    1    1    2    0    0  0.11944795991E+03  0.17477064377E+03  0.21181084279E+03  0.32450181229E+03  0.12500000000E+03 0.  0.
         25    1    1    2    0    0 -0.11717883065E+03 -0.22533851966E+03 -0.95993562428E+02  0.29891151002E+03  0.12500000000E+03 0.  0.
</event>
<event>
 5    0  0.5677492E-005  0.3202990E+03  0.7546771E-02  0.1075512E+00
         21   -1    0    0  502  501  0.00000000000E+00  0.00000000000E+00  0.65283669230E+03  0.65283669230E+03  0.00000000000E+00 0.  1.
         21   -1    0    0  501  502 -0.00000000000E+00 -0.00000000000E+00 -0.15714714085E+03  0.15714714085E+03  0.00000000000E+00 0.  1.
         25    1    1    2    0    0 -0.91500846905E+02  0.13193203176E+03 -0.27572061228E+02  0.20533797639E+03  0.12500000000E+03 0.  0.
         25    1    1    2    0    0  0.56232142912E+02 -0.92547395499E+02  0.32046570322E+03  0.36062493154E+03  0.12500000000E+03 0.  0.
         25    1    1    2    0    0  0.35268703993E+02 -0.39384636259E+02  0.20279590945E+03  0.24402092522E+03  0.12500000000E+03 0.  0.
</event>
<event>
 5    0  0.5677492E-005  0.5190532E+03  0.7546771E-02  0.1008922E+00
         21   -1    0    0  502  501  0.00000000000E+00  0.00000000000E+00  0.28520791970E+03  0.28520791970E+03  0.00000000000E+00 0. -1.
         21   -1    0    0  501  502 -0.00000000000E+00 -0.00000000000E+00 -0.94463076934E+03  0.94463076934E+03  0.00000000000E+00 0. -1.
         25    1    1    2    0    0 -0.95256468810E+02 -0.31723448395E+03 -0.51961164351E+03  0.62875493854E+03  0.12500000000E+03 0.  0.
         25    1    1    2    0    0 -0.13985517490E+03  0.14755727891E+03 -0.15567681048E+03  0.28494366080E+03  0.12500000000E+03 0.  0.
         25    1    1    2    0    0  0.23511164371E+03  0.16967720503E+03  0.15865604367E+02  0.31614008971E+03  0.12500000000E+03 0.  0.
</event>
<event>
 5    0  0.5677492E-005  0.3818371E+03  0.7546771E-02  0.1050257E+00
         21   -1    0    0  502  501  0.00000000000E+00  0.00000000000E+00  0.43752815091E+03  0.43752815091E+03  0.00000000000E+00 0.  1.
         21   -1    0    0  501  502 -0.00000000000E+00 -0.00000000000E+00 -0.33323471709E+03  0.33323471709E+03  0.00000000000E+00 0.  1.
         25    1    1    2    0    0 -0.88345040496E+02  0.27809453554E+03 -0.84659226803E+02  0.32853249696E+03  0.12500000000E+03 0.  0.
         25    1    1    2    0    0  0.87895794171E+02 -0.12808118272E+03  0.59975797538E+02  0.20821276688E+03  0.12500000000E+03 0.  0.
         25    1    1    2    0    0  0.44924632490E+00 -0.15001335282E+03  0.12897686308E+03  0.23401760416E+03  0.12500000000E+03 0.  0.
</event>
<event>
 5    0  0.5677492E-005  0.3443942E+03  0.7546771E-02  0.1064940E+00
         21   -1    0    0  502  501  0.00000000000E+00  0.00000000000E+00  0.24170119707E+03  0.24170119707E+03  0.00000000000E+00 0. -1.
         21   -1    0    0  501  502 -0.00000000000E+00 -0.00000000000E+00 -0.49071903729E+03  0.49071903729E+03  0.00000000000E+00 0. -1.
         25    1    1    2    0    0 -0.59008531904E+01 -0.27609104274E+02  0.14717567394E+02  0.12899104425E+03  0.12500000000E+03 0.  0.
         25    1    1    2    0    0  0.13953756029E+03  0.14673991724E+03  0.27370064257E+02  0.23953591477E+03  0.12500000000E+03 0.  0.
         25    1    1    2    0    0 -0.13363670710E+03 -0.11913081297E+03 -0.29110547187E+03  0.36389327534E+03  0.12500000000E+03 0.  0.
</event>
<event>
 5    0  0.5677492E-005  0.2520990E+03  0.7546771E-02  0.1111985E+00
         21   -1    0    0  502  501  0.00000000000E+00  0.00000000000E+00  0.29473625172E+03  0.29473625172E+03  0.00000000000E+00 0. -1.
         21   -1    0    0  501  502 -0.00000000000E+00 -0.00000000000E+00 -0.21562980477E+03  0.21562980477E+03  0.00000000000E+00 0. -1.
         25    1    1    2    0    0  0.76038447865E+02 -0.38445299532E+02  0.60107951970E+01  0.15139688329E+03  0.12500000000E+03 0.  0.
         25    1    1    2    0    0 -0.10669561329E+03 -0.81250084846E+01 -0.52997832045E+02  0.17286914086E+03  0.12500000000E+03 0.  0.
         25    1    1    2    0    0  0.30657165429E+02  0.46570308017E+02  0.12609348380E+03  0.18610003234E+03  0.12500000000E+03 0.  0.
</event>
<event>
 5    0  0.5677492E-005  0.2608302E+03  0.7546771E-02  0.1106645E+00
         21   -1    0    0  502  501  0.00000000000E+00  0.00000000000E+00  0.21199211065E+03  0.21199211065E+03  0.00000000000E+00 0.  1.
         21   -1    0    0  501  502 -0.00000000000E+00 -0.00000000000E+00 -0.32091948999E+03  0.32091948999E+03  0.00000000000E+00 0.  1.
         25    1    1    2    0    0 -0.10809127861E+03 -0.40406725789E+02 -0.62517243716E+02  0.18124523101E+03  0.12500000000E+03 0.  0.
         25    1    1    2    0    0  0.21831396242E+02 -0.15711883325E+02 -0.11859446351E+03  0.17439357762E+03  0.12500000000E+03 0.  0.
         25    1    1    2    0    0  0.86259882371E+02  0.56118609114E+02  0.72184327886E+02  0.17727279201E+03  0.12500000000E+03 0.  0.
</event>
<event>
 5    0  0.5677492E-005  0.2973515E+03  0.7546771E-02  0.1086572E+00
         21   -1    0    0  502  501  0.00000000000E+00  0.00000000000E+00  0.78161422297E+03  0.78161422297E+03  0.00000000000E+00 0. -1.
         21   -1    0    0  501  502 -0.00000000000E+00 -0.00000000000E+00 -0.11312216463E+03  0.11312216463E+03  0.00000000000E+00 0. -1.
         25    1    1    2    0    0 -0.10691793653E+03 -0.42515289461E+02  0.12457555629E+02  0.17035018545E+03  0.12500000000E+03 0.  0.
         25    1    1    2    0    0 -0.14630064485E+02  0.41410553932E+02  0.26688830939E+03  0.29796516986E+03  0.12500000000E+03 0.  0.
         25    1    1    2    0    0  0.12154800102E+03  0.11047355288E+01  0.38914619333E+03  0.42642103228E+03  0.12500000000E+03 0.  0.
</event>
<event>
 5    0  0.5677492E-005  0.5205751E+03  0.7546771E-02  0.1008544E+00
         21   -1    0    0  502  501  0.00000000000E+00  0.00000000000E+00  0.26197545125E+03  0.26197545125E+03  0.00000000000E+00 0.  1.
         21   -1    0    0  501  502 -0.00000000000E+00 -0.00000000000E+00 -0.10344420893E+04  0.10344420893E+04  0.00000000000E+00 0.  1.
         25    1    1    2    0    0 -0.74794045648E+02  0.10870882046E+03  0.18981526075E+03  0.26280523230E+03  0.12500000000E+03 0.  0.
         25    1    1    2    0    0 -0.46458290558E+02  0.15886848313E+02 -0.58097808088E+03  0.59629799193E+03  0.12500000000E+03 0.  0.
         25    1    1    2    0    0  0.12125233621E+03 -0.12459566878E+03 -0.38130381793E+03  0.43731431635E+03  0.12500000000E+03 0.  0.
</event>
<event>
 5    0  0.5677492E-005  0.2399421E+03  0.7546771E-02  0.1119831E+00
         21   -1    0    0  502  501  0.00000000000E+00  0.00000000000E+00  0.94452434151E+03  0.94452434151E+03  0.00000000000E+00 0. -1.
         21   -1    0    0  501  502 -0.00000000000E+00 -0.00000000000E+00 -0.60953656574E+02  0.60953656574E+02  0.00000000000E+00 0. -1.
         25    1    1    2    0    0 -0.12066001417E+03  0.46546584398E+02  0.27580486041E+03  0.32927001771E+03  0.12500000000E+03 0.  0.
         25    1    1    2    0    0  0.38024037898E+02 -0.51315527043E+02  0.22582310152E+03  0.26589506192E+03  0.12500000000E+03 0.  0.
         25    1    1    2    0    0  0.82635976276E+02  0.47689426445E+01  0.38194272300E+03  0.41031291844E+03  0.12500000000E+03 0.  0.
</event>
<event>
 5    0  0.5677492E-005  0.3624180E+03  0.7546771E-02  0.1057631E+00
         21   -1    0    0  502  501  0.00000000000E+00  0.00000000000E+00  0.10655748036E+03  0.10655748036E+03  0.00000000000E+00 0. -1.
         21   -1    0    0  501  502 -0.00000000000E+00 -0.00000000000E+00 -0.12326380082E+04  0.12326380082E+04  0.00000000000E+00 0. -1.
         25    1    1    2    0    0  0.33579019250E+02 -0.14265732571E+02 -0.80780989572E+03  0.81823767286E+03  0.12500000000E+03 0.  0.
         25    1    1    2    0    0 -0.21929163550E+02 -0.29227957374E+02  0.42106638260E+02  0.13686902751E+03  0.12500000000E+03 0.  0.
         25    1    1    2    0    0 -0.11649855701E+02  0.43493689944E+02 -0.36037727038E+03  0.38408878819E+03  0.12500000000E+03 0.  0.
</event>
<event>
 5    0  0.5677492E-005  0.2609854E+03  0.7546771E-02  0.1106553E+00
         21   -1    0    0  502  501  0.00000000000E+00  0.00000000000E+00  0.91989376923E+03  0.91989376923E+03  0.00000000000E+00 0. -1.
         21   -1    0    0  501  502 -0.00000000000E+00 -0.00000000000E+00 -0.74044815492E+02  0.74044815492E+02  0.00000000000E+00 0. -1.
         25    1    1    2    0    0 -0.11880880912E+03  0.38150833722E+02  0.27311170222E+03  0.32524763047E+03  0.12500000000E+03 0.  0.
         25    1    1    2    0    0 -0.16840655603E+02 -0.35349882309E+02  0.11182463922E+03  0.17222941618E+03  0.12500000000E+03 0.  0.
         25    1    1    2    0    0  0.13564946472E+03 -0.28009514131E+01  0.46091261230E+03  0.49646153807E+03  0.12500000000E+03 0.  0.
</event>
<event>
 5    0  0.5677492E-005  0.3916955E+03  0.7546771E-02  0.1046694E+00
         21   -1    0    0  502  501  0.00000000000E+00  0.00000000000E+00  0.14668170558E+03  0.14668170558E+03  0.00000000000E+00 0. -1.
         21   -1    0    0  501  502 -0.00000000000E+00 -0.00000000000E+00 -0.10459747484E+04  0.10459747484E+04  0.00000000000E+00 0. -1.
         25    1    1    2    0    0  0.96944243463E+02 -0.10776354550E+03 -0.16444102588E+03  0.25234305830E+03  0.12500000000E+03 0.  0.
         25    1    1    2    0    0 -0.27820522023E+03  0.69893628208E+02 -0.23032653850E+03  0.38853388290E+03  0.12500000000E+03 0.  0.
         25    1    1    2    0    0  0.18126097677E+03  0.37869917292E+02 -0.50452547848E+03  0.55177951282E+03  0.12500000000E+03 0.  0.
</event>
<event>
 5    0  0.5677492E-005  0.3554081E+03  0.7546771E-02  0.1060417E+00
         21   -1    0    0  502  501  0.00000000000E+00  0.00000000000E+00  0.31827325725E+03  0.31827325725E+03  0.00000000000E+00 0. -1.
         21   -1    0    0  501  502 -0.00000000000E+00 -0.00000000000E+00 -0.39687569625E+03  0.39687569625E+03  0.00000000000E+00 0. -1.
         25    1    1    2    0    0  0.49681413011E+02  0.15753325805E+03 -0.65012080821E+02  0.21710951348E+03  0.12500000000E+03 0.  0.
         25    1    1    2    0    0  0.54944736835E+02 -0.24102353173E+03  0.85367913030E+02  0.28986884539E+03  0.12500000000E+03 0.  0.
         25    1    1    2    0    0 -0.10462614985E+03  0.83490273675E+02 -0.98958271201E+02  0.20817059463E+03  0.12500000000E+03 0.  0.
</event>
<event>
 5    0  0.5677492E-005  0.4655560E+03  0.7546771E-02  0.1023182E+00
         21   -1    0    0  502  501  0.00000000000E+00  0.00000000000E+00  0.20255909410E+04  0.20255909410E+04  0.00000000000E+00 0. -1.
         21   -1    0    0  501  502 -0.00000000000E+00 -0.00000000000E+00 -0.10700207346E+03  0.10700207346E+03  0.00000000000E+00 0.  1.
         25    1    1    2    0    0  0.30874159521E+03 -0.35005031511E+02  0.43599102874E+03  0.54978168575E+03  0.12500000000E+03 0.  0.
         25    1    1    2    0    0 -0.19683439593E+01  0.15730786115E+03  0.51744061877E+03  0.55508506692E+03  0.12500000000E+03 0.  0.
         25    1    1    2    0    0 -0.30677325125E+03 -0.12230282964E+03  0.96515722003E+03  0.10277262618E+04  0.12500000000E+03 0.  0.
</event>
<event>
 5    0  0.5677492E-005  0.3198366E+03  0.7546771E-02  0.1075725E+00
         21   -1    0    0  502  501  0.00000000000E+00  0.00000000000E+00  0.40691640774E+03  0.40691640774E+03  0.00000000000E+00 0. -1.
         21   -1    0    0  501  502 -0.00000000000E+00 -0.00000000000E+00 -0.25139183896E+03  0.25139183896E+03  0.00000000000E+00 0. -1.
         25    1    1    2    0    0  0.85648072706E+02  0.11829274631E+03 -0.12172833027E+02  0.19261864928E+03  0.12500000000E+03 0.  0.
         25    1    1    2    0    0  0.11641174097E+02 -0.20016316055E+01 -0.80480382732E+02  0.14913623124E+03  0.12500000000E+03 0.  0.
         25    1    1    2    0    0 -0.97289246803E+02 -0.11629111471E+03  0.24817778454E+03  0.31655336618E+03  0.12500000000E+03 0.  0.
</event>
<event>
 5    0  0.5677492E-005  0.3296589E+03  0.7546771E-02  0.1071288E+00
         21   -1    0    0  502  501  0.00000000000E+00  0.00000000000E+00  0.11741929956E+04  0.11741929956E+04  0.00000000000E+00 0.  1.
         21   -1    0    0  501  502 -0.00000000000E+00 -0.00000000000E+00 -0.92552924829E+02  0.92552924829E+02  0.00000000000E+00 0.  1.
         25    1    1    2    0    0  0.78898386930E+02  0.43909617407E+02  0.65103862668E+03  0.66905104692E+03  0.12500000000E+03 0.  0.
         25    1    1    2    0    0  0.37622350120E+02 -0.15309626431E+03  0.14756154894E+03  0.24950614842E+03  0.12500000000E+03 0.  0.
         25    1    1    2    0    0 -0.11652073705E+03  0.10918664690E+03  0.28303989513E+03  0.34818872506E+03  0.12500000000E+03 0.  0.
</event>
<event>
 5    0  0.5677492E-005  0.4024689E+03  0.7546771E-02  0.1042928E+00
         21   -1    0    0  502  501  0.00000000000E+00  0.00000000000E+00  0.36616896401E+03  0.36616896401E+03  0.00000000000E+00 0. -1.
         21   -1    0    0  501  502 -0.00000000000E+00 -0.00000000000E+00 -0.44236750520E+03  0.44236750520E+03  0.00000000000E+00 0. -1.
         25    1    1    2    0    0 -0.44462347393E+02 -0.82952810314E+02  0.10606225428E+03  0.18902981473E+03  0.12500000000E+03 0.  0.
         25    1    1    2    0    0 -0.22357049976E+03 -0.35667671893E+02 -0.15065014349E+03  0.29929319557E+03  0.12500000000E+03 0.  0.
         25    1    1    2    0    0  0.26803284715E+03  0.11862048221E+03 -0.31610651982E+02  0.32021345891E+03  0.12500000000E+03 0.  0.
</event>
<event>
 5    0  0.5677492E-005  0.2373464E+03  0.7546771E-02  0.1121573E+00
         21   -1    0    0  502  501  0.00000000000E+00  0.00000000000E+00  0.25554837893E+03  0.25554837893E+03  0.00000000000E+00 0. -1.
         21   -1    0    0  501  502 -0.00000000000E+00 -0.00000000000E+00 -0.22044087437E+03  0.22044087437E+03  0.00000000000E+00 0. -1.
         25    1    1    2    0    0  0.30007212866E+02 -0.37795635725E+02  0.77804765070E+02  0.15494361675E+03  0.12500000000E+03 0.  0.
         25    1    1    2    0    0 -0.53351550551E+02 -0.68485496582E+02 -0.27126750390E+02  0.15458820063E+03  0.12500000000E+03 0.  0.
         25    1    1    2    0    0  0.23344337684E+02  0.10628113231E+03 -0.15570510114E+02  0.16645743592E+03  0.12500000000E+03 0.  0.
</event>
<event>
 5    0  0.5677492E-005  0.4126395E+03  0.7546771E-02  0.1039489E+00
         21   -1    0    0  502  501  0.00000000000E+00  0.00000000000E+00  0.15304161253E+04  0.15304161253E+04  0.00000000000E+00 0.  1.
         21   -1    0    0  501  502 -0.00000000000E+00 -0.00000000000E+00 -0.11125819647E+03  0.11125819647E+03  0.00000000000E+00 0.  1.
         25    1    1    2    0    0 -0.12750452148E+03 -0.14924629566E+03  0.91043610856E+03  0.93970780966E+03  0.12500000000E+03 0.  0.
         25    1    1    2    0    0 -0.32216465170E+02 -0.49496264521E+02  0.35076969436E+03  0.37703071402E+03  0.12500000000E+03 0.  0.
         25    1    1    2    0    0  0.15972098665E+03  0.19874256018E+03  0.15795212590E+03  0.32493579809E+03  0.12500000000E+03 0.  0.
</event>
<event>
 5    0  0.5677492E-005  0.3318440E+03  0.7546771E-02  0.1070324E+00
         21   -1    0    0  502  501  0.00000000000E+00  0.00000000000E+00  0.42478856778E+03  0.42478856778E+03  0.00000000000E+00 0. -1.
         21   -1    0    0  501  502 -0.00000000000E+00 -0.00000000000E+00 -0.25923593821E+03  0.25923593821E+03  0.00000000000E+00 0. -1.
         25    1    1    2    0    0  0.36847718508E+02 -0.42417114795E+02  0.12601674166E+02  0.13762546341E+03  0.12500000000E+03 0.  0.
         25    1    1    2    0    0 -0.73467899957E+02 -0.11525391360E+03  0.25711808719E+03  0.31688437589E+03  0.12500000000E+03 0.  0.
         25    1    1    2    0    0  0.36620181449E+02  0.15767102839E+03 -0.10416713179E+03  0.22951466669E+03  0.12500000000E+03 0.  0.
</event>
<event>
 5    0  0.5692611E-005  0.2844049E+03  0.7546771E-02  0.1093307E+00
         21   -1    0    0  502  501  0.00000000000E+00  0.00000000000E+00  0.28548758669E+03  0.28548758669E+03  0.00000000000E+00 0. -1.
         21   -1    0    0  501  502 -0.00000000000E+00 -0.00000000000E+00 -0.28332633348E+03  0.28332633348E+03  0.00000000000E+00 0. -1.
         25    1    1    2    0    0  0.13571343257E+03 -0.61105447167E+02  0.13366748769E+03  0.23588982326E+03  0.12500000000E+03 0.  0.
         25    1    1    2    0    0 -0.91151048411E+02  0.54935729078E+02 -0.32785235418E+02  0.16741063173E+03  0.12500000000E+03 0.  0.
         25    1    1    2    0    0 -0.44562384154E+02  0.61697180894E+01 -0.98720999057E+02  0.16551346519E+03  0.12500000000E+03 0.  0.
</event>
<event>
 5    0  0.5677492E-005  0.3106315E+03  0.7546771E-02  0.1080044E+00
         21   -1    0    0  502  501  0.00000000000E+00  0.00000000000E+00  0.93788085805E+02  0.93788085805E+02  0.00000000000E+00 0.  1.
         21   -1    0    0  501  502 -0.00000000000E+00 -0.00000000000E+00 -0.10288294263E+04  0.10288294263E+04  0.00000000000E+00 0.  1.
         25    1    1    2    0    0 -0.60331086917E+02 -0.18046941302E+02 -0.39139293473E+03  0.41566688765E+03  0.12500000000E+03 0.  0.
         25    1    1    2    0    0 -0.99547020236E+02 -0.12205505231E+03 -0.29269926307E+03  0.35511252250E+03  0.12500000000E+03 0.  0.
         25    1    1    2    0    0  0.15987810715E+03  0.14010199361E+03 -0.25094914268E+03  0.35183810194E+03  0.12500000000E+03 0.  0.
</event>
<event>
 5    0  0.5677492E-005  0.2275165E+03  0.7546771E-02  0.1128400E+00
         21   -1    0    0  502  501  0.00000000000E+00  0.00000000000E+00  0.54849051796E+03  0.54849051796E+03  0.00000000000E+00 0. -1.
         21   -1    0    0  501  502 -0.00000000000E+00 -0.00000000000E+00 -0.94374959746E+02  0.94374959746E+02  0.00000000000E+00 0. -1.
         25    1    1    2    0    0  0.45306389792E+02  0.54792073951E+02  0.23288111117E+03  0.27370321931E+03  0.12500000000E+03 0.  0.
         25    1    1    2    0    0  0.46438785779E+02 -0.15208745117E+02  0.83856985179E+02  0.15825568147E+03  0.12500000000E+03 0.  0.
         25    1    1    2    0    0 -0.91745175571E+02 -0.39583328834E+02  0.13737746187E+03  0.21090657693E+03  0.12500000000E+03 0.  0.
</event>
<event>
 5    0  0.5677492E-005  0.6539817E+03  0.7546771E-02  0.9799336E-01
         21   -1    0    0  502  501  0.00000000000E+00  0.00000000000E+00  0.18485203535E+03  0.18485203535E+03  0.00000000000E+00 0. -1.
         21   -1    0    0  501  502 -0.00000000000E+00 -0.00000000000E+00 -0.23136992344E+04  0.23136992344E+04  0.00000000000E+00 0. -1.
         25    1    1    2    0    0  0.34799400993E+03  0.23477524496E+03 -0.13233986278E+04  0.13939971932E+04  0.12500000000E+03 0.  0.
         25    1    1    2    0    0 -0.26601490494E+02  0.16769058207E+03 -0.33529941869E+03  0.39607886940E+03  0.12500000000E+03 0.  0.
         25    1    1    2    0    0 -0.32139251944E+03 -0.40246582704E+03 -0.47014915255E+03  0.70847520714E+03  0.12500000000E+03 0.  0.
</event>
<event>
 5    0  0.5677492E-005  0.2669391E+03  0.7546771E-02  0.1103044E+00
         21   -1    0    0  502  501  0.00000000000E+00  0.00000000000E+00  0.65342881386E+02  0.65342881386E+02  0.00000000000E+00 0.  1.
         21   -1    0    0  501  502 -0.00000000000E+00 -0.00000000000E+00 -0.10905012875E+04  0.10905012875E+04  0.00000000000E+00 0.  1.
         25    1    1    2    0    0  0.38237983910E+02 -0.36597737928E+02 -0.23579225913E+03  0.27207448851E+03  0.12500000000E+03 0.  0.
         25    1    1    2    0    0 -0.10992327108E+03  0.87142646650E+02 -0.65145159892E+03  0.67800527440E+03  0.12500000000E+03 0.  0.
         25    1    1    2    0    0  0.71685287167E+02 -0.50544908721E+02 -0.13791454806E+03  0.20576440596E+03  0.12500000000E+03 0.  0.
</event>
<event>
 5    0  0.5677492E-005  0.2923745E+03  0.7546771E-02  0.1089116E+00
         21   -1    0    0  502  501  0.00000000000E+00  0.00000000000E+00  0.14230714751E+03  0.14230714751E+03  0.00000000000E+00 0.  1.
         21   -1    0    0  501  502 -0.00000000000E+00 -0.00000000000E+00 -0.60069243224E+03  0.60069243224E+03  0.00000000000E+00 0.  1.
         25    1    1    2    0    0 -0.14637638034E+03 -0.80441656904E+02 -0.25068862097E+03  0.32613906477E+03  0.12500000000E+03 0.  0.
         25    1    1    2    0    0  0.17949143333E+03  0.31048137827E+02 -0.14919947470E+03  0.26658327921E+03  0.12500000000E+03 0.  0.
         25    1    1    2    0    0 -0.33115052986E+02  0.49393519078E+02 -0.58497189055E+02  0.15027723576E+03  0.12500000000E+03 0.  0.
</event>
<event>
 5    0  0.5677492E-005  0.2574275E+03  0.7546771E-02  0.1108699E+00
         21   -1    0    0  502  501  0.00000000000E+00  0.00000000000E+00  0.48716823954E+03  0.48716823954E+03  0.00000000000E+00 0. -1.
         21   -1    0    0  501  502 -0.00000000000E+00 -0.00000000000E+00 -0.13602877597E+03  0.13602877597E+03  0.00000000000E+00 0. -1.
         25    1    1    2    0    0  0.91736092737E+01  0.10725817118E+03  0.21943228570E+03  0.27452504148E+03  0.12500000000E+03 0.  0.
         25    1    1    2    0    0  0.50808026057E+02 -0.79905238483E+02  0.19652980647E+01  0.15682845738E+03  0.12500000000E+03 0.  0.
         25    1    1    2    0    0 -0.59981635331E+02 -0.27352932698E+02  0.12974187980E+03  0.19184351665E+03  0.12500000000E+03 0.  0.
</event>
<event>
 5    0  0.5677492E-005  0.4025668E+03  0.7546771E-02  0.1042894E+00
         21   -1    0    0  502  501  0.00000000000E+00  0.00000000000E+00  0.10955130609E+03  0.10955130609E+03  0.00000000000E+00 0.  1.
         21   -1    0    0  501  502 -0.00000000000E+00 -0.00000000000E+00 -0.14793069959E+04  0.14793069959E+04  0.00000000000E+00 0.  1.
         25    1    1    2    0    0  0.94299095077E+02  0.42206388006E+02 -0.11936479130E+04  0.12046136471E+04  0.12500000000E+03 0.  0.
         25    1    1    2    0    0  0.56300683768E+02  0.12736131452E+02 -0.81805282323E+02  0.16015330235E+03  0.12500000000E+03 0.  0.
         25    1    1    2    0    0 -0.15059977885E+03 -0.54942519458E+02 -0.94302494509E+02  0.22409135259E+03  0.12500000000E+03 0.  0.
</event>
<event>
 5    0  0.5677492E-005  0.2961600E+03  0.7546771E-02  0.1087176E+00
         21   -1    0    0  502  501  0.00000000000E+00  0.00000000000E+00  0.10669437409E+03  0.10669437409E+03  0.00000000000E+00 0. -1.
         21   -1    0    0  501  502 -0.00000000000E+00 -0.00000000000E+00 -0.82207452596E+03  0.82207452596E+03  0.00000000000E+00 0. -1.
         25    1    1    2    0    0  0.20540410382E+02 -0.10096182471E+03 -0.24809369151E+03  0.29629491774E+03  0.12500000000E+03 0.  0.
         25    1    1    2    0    0  0.10820906662E+03 -0.63962020395E+02 -0.14888808031E+03  0.23150162551E+03  0.12500000000E+03 0.  0.
         25    1    1    2    0    0 -0.12874947701E+03  0.16492384511E+03 -0.31839838004E+03  0.40097235681E+03  0.12500000000E+03 0.  0.
</event>
<event>
 5    0  0.5677492E-005  0.3855224E+03  0.7546771E-02  0.1048911E+00
         21   -1    0    0  502  501  0.00000000000E+00  0.00000000000E+00  0.10409426365E+03  0.10409426365E+03  0.00000000000E+00 0. -1.
         21   -1    0    0  501  502 -0.00000000000E+00 -0.00000000000E+00 -0.14278169197E+04  0.14278169197E+04  0.00000000000E+00 0. -1.
         25    1    1    2    0    0 -0.21379311820E+03  0.16189662446E+03 -0.53988633157E+03  0.61564621774E+03  0.12500000000E+03 0.  0.
         25    1    1    2    0    0 -0.42003036969E+02 -0.73658542512E+02 -0.41753295909E+03  0.44401419789E+03  0.12500000000E+03 0.  0.
         25    1    1    2    0    0  0.25579615517E+03 -0.88238081953E+02 -0.36630336536E+03  0.47225076768E+03  0.12500000000E+03 0.  0.
</event>
<event>
 5    0  0.5677492E-005  0.3263012E+03  0.7546771E-02  0.1072785E+00
         21   -1    0    0  502  501  0.00000000000E+00  0.00000000000E+00  0.10996928710E+04  0.10996928710E+04  0.00000000000E+00 0.  1.
         21   -1    0    0  501  502 -0.00000000000E+00 -0.00000000000E+00 -0.96820219689E+02  0.96820219689E+02  0.00000000000E+00 0.  1.
         25    1    1    2    0    0  0.10699937805E+03 -0.15894932354E+03  0.28689883347E+03  0.36694644705E+03  0.12500000000E+03 0.  0.
         25    1    1    2    0    0 -0.11543573974E+03  0.15237682727E+03  0.64757701700E+03  0.68667685300E+03  0.12500000000E+03 0.  0.
         25    1    1    2    0    0  0.84363616899E+01  0.65724962722E+01  0.68396800859E+02  0.14288979066E+03  0.12500000000E+03 0.  0.
</event>
<event>
 5    0  0.5677492E-005  0.4137786E+03  0.7546771E-02  0.1039110E+00
         21   -1    0    0  502  501  0.00000000000E+00  0.00000000000E+00  0.84415593937E+03  0.84415593937E+03  0.00000000000E+00 0. -1.
         21   -1    0    0  501  502 -0.00000000000E+00 -0.00000000000E+00 -0.20282123298E+03  0.20282123298E+03  0.00000000000E+00 0. -1.
         25    1    1    2    0    0  0.30366870229E+02 -0.41854503144E+02  0.29509552817E+03  0.32462334634E+03  0.12500000000E+03 0.  0.
         25    1    1    2    0    0 -0.79727499792E+02  0.14258160061E+03 -0.11206682253E+03  0.23424337721E+03  0.12500000000E+03 0.  0.
         25    1    1    2    0    0  0.49360629563E+02 -0.10072709746E+03  0.45830600074E+03  0.48811044880E+03  0.12500000000E+03 0.  0.
</event>
<event>
 5    0  0.5677492E-005  0.2482787E+03  0.7546771E-02  0.1114398E+00
         21   -1    0    0  502  501  0.00000000000E+00  0.00000000000E+00  0.10963261331E+03  0.10963261331E+03  0.00000000000E+00 0.  1.
         21   -1    0    0  501  502 -0.00000000000E+00 -0.00000000000E+00 -0.56226249208E+03  0.56226249208E+03  0.00000000000E+00 0.  1.
         25    1    1    2    0    0 -0.19832013107E+02 -0.98654388208E+02 -0.17591565172E+03  0.23811197697E+03  0.12500000000E+03 0.  0.
         25    1    1    2    0    0 -0.83027424869E+02  0.12250187586E+02 -0.12359661582E+03  0.19479410622E+03  0.12500000000E+03 0.  0.
         25    1    1    2    0    0  0.10285943798E+03  0.86404200622E+02 -0.15311761122E+03  0.23898902220E+03  0.12500000000E+03 0.  0.
</event>
<event>
 5    0  0.5677492E-005  0.2631355E+03  0.7546771E-02  0.1105274E+00
         21   -1    0    0  502  501  0.00000000000E+00  0.00000000000E+00  0.27365374644E+03  0.27365374644E+03  0.00000000000E+00 0.  1.
         21   -1    0    0  501  502 -0.00000000000E+00 -0.00000000000E+00 -0.25302155164E+03  0.25302155164E+03  0.00000000000E+00 0.  1.
         25    1    1    2    0    0 -0.68587403574E+01 -0.47306822976E+02 -0.13066122542E+03  0.18703564806E+03  0.12500000000E+03 0.  0.
         25    1    1    2    0    0  0.39104287518E+02  0.58364978581E+02  0.39657116159E+01  0.14344456384E+03  0.12500000000E+03 0.  0.
         25    1    1    2    0    0 -0.32245547161E+02 -0.11058155605E+02  0.14732770860E+03  0.19619508618E+03  0.12500000000E+03 0.  0.
</event>
<event>
 5    0  0.5677492E-005  0.3871960E+03  0.7546771E-02  0.1048306E+00
         21   -1    0    0  502  501  0.00000000000E+00  0.00000000000E+00  0.75134347749E+03  0.75134347749E+03  0.00000000000E+00 0.  1.
         21   -1    0    0  501  502 -0.00000000000E+00 -0.00000000000E+00 -0.19953688745E+03  0.19953688745E+03  0.00000000000E+00 0.  1.
         25    1    1    2    0    0  0.10579242365E+02  0.59905566036E+02  0.49128858062E+03  0.51057816900E+03  0.12500000000E+03 0.  0.
         25    1    1    2    0    0 -0.15644094437E+03  0.59051068334E+02  0.46720165885E+02  0.21393590547E+03  0.12500000000E+03 0.  0.
         25    1    1    2    0    0  0.14586170201E+03 -0.11895663437E+03  0.13797843538E+02  0.22636629047E+03  0.12500000000E+03 0.  0.
</event>
<event>
 5    0  0.5677492E-005  0.2412846E+03  0.7546771E-02  0.1118940E+00
         21   -1    0    0  502  501  0.00000000000E+00  0.00000000000E+00  0.58092240058E+02  0.58092240058E+02  0.00000000000E+00 0. -1.
         21   -1    0    0  501  502 -0.00000000000E+00 -0.00000000000E+00 -0.10021693369E+04  0.10021693369E+04  0.00000000000E+00 0. -1.
         25    1    1    2    0    0  0.90937925781E+02 -0.19773971197E+02 -0.34182043616E+03  0.37566863971E+03  0.12500000000E+03 0.  0.
         25    1    1    2    0    0 -0.89084333098E+02  0.78614941094E+02 -0.43314073707E+03  0.46621049482E+03  0.12500000000E+03 0.  0.
         25    1    1    2    0    0 -0.18535926831E+01 -0.58840969897E+02 -0.16911592360E+03  0.21838244242E+03  0.12500000000E+03 0.  0.
</event>
<event>
 5    0  0.5677492E-005  0.5013918E+03  0.7546771E-02  0.1013416E+00
         21   -1    0    0  502  501  0.00000000000E+00  0.00000000000E+00  0.34475244016E+03  0.34475244016E+03  0.00000000000E+00 0. -1.
         21   -1    0    0  501  502 -0.00000000000E+00 -0.00000000000E+00 -0.72920067172E+03  0.72920067172E+03  0.00000000000E+00 0. -1.
         25    1    1    2    0    0 -0.20315241521E+03 -0.25613461344E+03 -0.29203736341E+03  0.45583622677E+03  0.12500000000E+03 0.  0.
         25    1    1    2    0    0 -0.10106015415E+03 -0.27487088454E+02 -0.84686433429E+02  0.18375387560E+03  0.12500000000E+03 0.  0.
         25    1    1    2    0    0  0.30421256936E+03  0.28362170190E+03 -0.77244347215E+01  0.43436300952E+03  0.12500000000E+03 0.  0.
</event>
<event>
 5    0  0.5677492E-005  0.2472349E+03  0.7546771E-02  0.1115065E+00
         21   -1    0    0  502  501  0.00000000000E+00  0.00000000000E+00  0.23723848205E+03  0.23723848205E+03  0.00000000000E+00 0. -1.
         21   -1    0    0  501  502 -0.00000000000E+00 -0.00000000000E+00 -0.25765247268E+03  0.25765247268E+03  0.00000000000E+00 0. -1.
         25    1    1    2    0    0  0.81820814792E+02 -0.23536011124E+02 -0.12445231415E+02  0.15175135366E+03  0.12500000000E+03 0.  0.
         25    1    1    2    0    0 -0.29461743029E+02 -0.50525569449E+02  0.85760715987E+02  0.16248300796E+03  0.12500000000E+03 0.  0.
         25    1    1    2    0    0 -0.52359071763E+02  0.74061580573E+02 -0.93729475205E+02  0.18065659311E+03  0.12500000000E+03 0.  0.
</event>
<event>
 5    0  0.5677492E-005  0.2724115E+03  0.7546771E-02  0.1099907E+00
         21   -1    0    0  502  501  0.00000000000E+00  0.00000000000E+00  0.10430978810E+04  0.10430978810E+04  0.00000000000E+00 0. -1.
         21   -1    0    0  501  502 -0.00000000000E+00 -0.00000000000E+00 -0.71141980409E+02  0.71141980409E+02  0.00000000000E+00 0.  1.
         25    1    1    2    0    0  0.12239631048E+03 -0.44825509796E+02  0.18452752444E+03  0.25819680560E+03  0.12500000000E+03 0.  0.
         25    1    1    2    0    0  0.29622381652E+02 -0.68382834445E+01  0.24530218228E+03  0.27698810128E+03  0.12500000000E+03 0.  0.
         25    1    1    2    0    0 -0.15201869213E+03  0.51663793241E+02  0.54212619386E+03  0.57905495452E+03  0.12500000000E+03 0.  0.
</event>
<event>
 5    0  0.5677492E-005  0.3772715E+03  0.7546771E-02  0.1051947E+00
         21   -1    0    0  502  501  0.00000000000E+00  0.00000000000E+00  0.44310035261E+03  0.44310035261E+03  0.00000000000E+00 0.  1.
         21   -1    0    0  501  502 -0.00000000000E+00 -0.00000000000E+00 -0.32122250121E+03  0.32122250121E+03  0.00000000000E+00 0.  1.
         25    1    1    2    0    0 -0.15902143677E+03 -0.11887746170E+03 -0.16806199836E+03  0.28859920919E+03  0.12500000000E+03 0.  0.
         25    1    1    2    0    0  0.16358549336E+03  0.10714879468E+03  0.11147557508E+03  0.25747404079E+03  0.12500000000E+03 0.  0.
         25    1    1    2    0    0 -0.45640565950E+01  0.11728667016E+02  0.17846427468E+03  0.21824960385E+03  0.12500000000E+03 0.  0.
</event>
<event>
 5    0  0.5677492E-005  0.4255514E+03  0.7546771E-02  0.1035275E+00
         21   -1    0    0  502  501  0.00000000000E+00  0.00000000000E+00  0.74414387002E+03  0.74414387002E+03  0.00000000000E+00 0. -1.
         21   -1    0    0  501  502 -0.00000000000E+00 -0.00000000000E+00 -0.24335885027E+03  0.24335885027E+03  0.00000000000E+00 0. -1.
         25    1    1    2    0    0 -0.13667540511E+02 -0.20454264460E+03 -0.98473605386E+02  0.25951213089E+03  0.12500000000E+03 0.  0.
         25    1    1    2    0    0  0.81660717935E+02 -0.13510023284E+02  0.26273293709E+03  0.30249725588E+03  0.12500000000E+03 0.  0.
         25    1    1    2    0    0 -0.67993177424E+02  0.21805266788E+03  0.33652568805E+03  0.42549333351E+03  0.12500000000E+03 0.  0.
</event>
<event>
 5    0  0.5677492E-005  0.3075475E+03  0.7546771E-02  0.1081527E+00
         21   -1    0    0  502  501  0.00000000000E+00  0.00000000000E+00  0.75407890726E+02  0.75407890726E+02  0.00000000000E+00 0. -1.
         21   -1    0    0  501  502 -0.00000000000E+00 -0.00000000000E+00 -0.12543180123E+04  0.12543180123E+04  0.00000000000E+00 0. -1.
         25    1    1    2    0    0  0.10570844764E+02  0.84402645117E+02 -0.70588173873E+02  0.16686293643E+03  0.12500000000E+03 0.  0.
         25    1    1    2    0    0 -0.10064267992E+03 -0.11086114189E+03 -0.58186709622E+03  0.61368840584E+03  0.12500000000E+03 0.  0.
         25    1    1    2    0    0  0.90071835152E+02  0.26458496772E+02 -0.52645485152E+03  0.54917456080E+03  0.12500000000E+03 0.  0.
</event>
<event>
 5    0  0.5677492E-005  0.2614807E+03  0.7546771E-02  0.1106257E+00
         21   -1    0    0  502  501  0.00000000000E+00  0.00000000000E+00  0.11042624944E+03  0.11042624944E+03  0.00000000000E+00 0.  1.
         21   -1    0    0  501  502 -0.00000000000E+00 -0.00000000000E+00 -0.61916557380E+03  0.61916557380E+03  0.00000000000E+00 0.  1.
         25    1    1    2    0    0  0.13041899939E+03 -0.26717893480E+02 -0.22769189496E+03  0.29187593300E+03  0.12500000000E+03 0.  0.
         25    1    1    2    0    0 -0.66874463756E+02 -0.65748010339E+02 -0.79423273540E+02  0.17529418458E+03  0.12500000000E+03 0.  0.
         25    1    1    2    0    0 -0.63544535639E+02  0.92465903820E+02 -0.20162415585E+03  0.26242170566E+03  0.12500000000E+03 0.  0.
</event>
<event>
 5    0  0.5677492E-005  0.4197005E+03  0.7546771E-02  0.1037164E+00
         21   -1    0    0  502  501  0.00000000000E+00  0.00000000000E+00  0.22529216416E+04  0.22529216416E+04  0.00000000000E+00 0.  1.
         21   -1    0    0  501  502 -0.00000000000E+00 -0.00000000000E+00 -0.78186717438E+02  0.78186717438E+02  0.00000000000E+00 0.  1.
         25    1    1    2    0    0 -0.76573175480E+02  0.95510823281E+02  0.37854949026E+03  0.41702576077E+03  0.12500000000E+03 0.  0.
         25    1    1    2    0    0 -0.42484449556E+02  0.11087150250E+03  0.15154713538E+04  0.15252461580E+04  0.12500000000E+03 0.  0.
         25    1    1    2    0    0  0.11905762504E+03 -0.20638232578E+03  0.28071408016E+03  0.38883644026E+03  0.12500000000E+03 0.  0.
</event>
<event>
 5    0  0.5677492E-005  0.2962657E+03  0.7546771E-02  0.1087122E+00
         21   -1    0    0  502  501  0.00000000000E+00  0.00000000000E+00  0.87992391096E+02  0.87992391096E+02  0.00000000000E+00 0. -1.
         21   -1    0    0  501  502 -0.00000000000E+00 -0.00000000000E+00 -0.99751095784E+03  0.99751095784E+03  0.00000000000E+00 0. -1.
         25    1    1    2    0    0 -0.64516571738E+01 -0.32591084142E+02 -0.49160137847E+03  0.50833130728E+03  0.12500000000E+03 0.  0.
         25    1    1    2    0    0  0.13759376564E+03  0.85725537267E+02 -0.26079952184E+03  0.33154532522E+03  0.12500000000E+03 0.  0.
         25    1    1    2    0    0 -0.13114210847E+03 -0.53134453125E+02 -0.15711766643E+03  0.24562671644E+03  0.12500000000E+03 0.  0.
</event>
<event>
 5    0  0.5677492E-005  0.3373801E+03  0.7546771E-02  0.1067917E+00
         21   -1    0    0  502  501  0.00000000000E+00  0.00000000000E+00  0.15498535113E+03  0.15498535113E+03  0.00000000000E+00 0. -1.
         21   -1    0    0  501  502 -0.00000000000E+00 -0.00000000000E+00 -0.73442631127E+03  0.73442631127E+03  0.00000000000E+00 0. -1.
         25    1    1    2    0    0 -0.53199361913E+01 -0.28414581952E+02 -0.58156928509E+01  0.12843096384E+03  0.12500000000E+03 0.  0.
         25    1    1    2    0    0  0.30090261838E+02  0.88882928760E+02  0.13750701165E+02  0.15690659854E+03  0.12500000000E+03 0.  0.
         25    1    1    2    0    0 -0.24770325647E+02 -0.60468346809E+02 -0.58737596845E+03  0.60407410002E+03  0.12500000000E+03 0.  0.
</event>
<event>
 5    0  0.5677492E-005  0.2893210E+03  0.7546771E-02  0.1090704E+00
         21   -1    0    0  502  501  0.00000000000E+00  0.00000000000E+00  0.61966998023E+02  0.61966998023E+02  0.00000000000E+00 0. -1.
         21   -1    0    0  501  502 -0.00000000000E+00 -0.00000000000E+00 -0.13508260338E+04  0.13508260338E+04  0.00000000000E+00 0. -1.
         25    1    1    2    0    0  0.18593963035E+02  0.17749851140E+03 -0.43237343910E+03  0.48417274588E+03  0.12500000000E+03 0.  0.
         25    1    1    2    0    0 -0.57679092697E+02 -0.62529259469E+02 -0.59839488156E+03  0.61720192831E+03  0.12500000000E+03 0.  0.
         25    1    1    2    0    0  0.39085129661E+02 -0.11496925193E+03 -0.25809071514E+03  0.31141835766E+03  0.12500000000E+03 0.  0.
</event>
<event>
 5    0  0.5677492E-005  0.3383886E+03  0.7546771E-02  0.1067484E+00
         21   -1    0    0  502  501  0.00000000000E+00  0.00000000000E+00  0.62303860689E+03  0.62303860689E+03  0.00000000000E+00 0. -1.
         21   -1    0    0  501  502 -0.00000000000E+00 -0.00000000000E+00 -0.18378773425E+03  0.18378773425E+03  0.00000000000E+00 0. -1.
         25    1    1    2    0    0 -0.11544619289E+03  0.55621241494E+02  0.70843651201E+02  0.19252368393E+03  0.12500000000E+03 0.  0.
         25    1    1    2    0    0  0.26145376276E+03  0.41643438631E+01  0.23034590350E+03  0.37021567644E+03  0.12500000000E+03 0.  0.
         25    1    1    2    0    0 -0.14600756987E+03 -0.59785585357E+02  0.13806131793E+03  0.24408698078E+03  0.12500000000E+03 0.  0.
</event>
<event>
 5    0  0.5677492E-005  0.4763054E+03  0.7546771E-02  0.1020156E+00
         21   -1    0    0  502  501  0.00000000000E+00  0.00000000000E+00  0.88315065023E+02  0.88315065023E+02  0.00000000000E+00 0. -1.
         21   -1    0    0  501  502 -0.00000000000E+00 -0.00000000000E+00 -0.25688353005E+04  0.25688353005E+04  0.00000000000E+00 0. -1.
         25    1    1    2    0    0  0.13763151068E+03 -0.12115398896E+03 -0.23000996740E+03  0.31960961637E+03  0.12500000000E+03 0.  0.
         25    1    1    2    0    0  0.73537584156E+02  0.25742666874E+03 -0.16290909255E+04  0.16556685990E+04  0.12500000000E+03 0.  0.
         25    1    1    2    0    0 -0.21116909483E+03 -0.13627267979E+03 -0.62141934256E+03  0.68187215017E+03  0.12500000000E+03 0.  0.
</event>
<event>
 5    0  0.5677492E-005  0.5541255E+03  0.7546771E-02  0.1000544E+00
         21   -1    0    0  502  501  0.00000000000E+00  0.00000000000E+00  0.10933944859E+03  0.10933944859E+03  0.00000000000E+00 0.  1.
         21   -1    0    0  501  502 -0.00000000000E+00 -0.00000000000E+00 -0.28082735228E+04  0.28082735228E+04  0.00000000000E+00 0.  1.
         25    1    1    2    0    0 -0.15372455145E+03 -0.16361635872E+03 -0.50751728784E+03  0.56885881202E+03  0.12500000000E+03 0.  0.
         25    1    1    2    0    0 -0.71746704165E+01  0.41396173908E+03 -0.70013006329E+03  0.82293553991E+03  0.12500000000E+03 0.  0.
         25    1    1    2    0    0  0.16089922186E+03 -0.25034538036E+03 -0.14912867231E+04  0.15258186195E+04  0.12500000000E+03 0.  0.
</event>
<event>
 5    0  0.5677492E-005  0.2448149E+03  0.7546771E-02  0.1116626E+00
         21   -1    0    0  502  501  0.00000000000E+00  0.00000000000E+00  0.72134758770E+02  0.72134758770E+02  0.00000000000E+00 0. -1.
         21   -1    0    0  501  502 -0.00000000000E+00 -0.00000000000E+00 -0.83086610066E+03  0.83086610066E+03  0.00000000000E+00 0. -1.
         25    1    1    2    0    0 -0.48483434168E+01 -0.11226716121E+03 -0.36921265839E+03  0.40567278568E+03  0.12500000000E+03 0.  0.
         25    1    1    2    0    0 -0.55798851989E+02  0.19754037162E+02 -0.13735108342E+03  0.19492063509E+03  0.12500000000E+03 0.  0.
         25    1    1    2    0    0  0.60647195406E+02  0.92513124044E+02 -0.25216760007E+03  0.30240743866E+03  0.12500000000E+03 0.  0.
</event>
<event>
 5    0  0.5677492E-005  0.3073484E+03  0.7546771E-02  0.1081624E+00
         21   -1    0    0  502  501  0.00000000000E+00  0.00000000000E+00  0.39964470862E+03  0.39964470862E+03  0.00000000000E+00 0.  1.
         21   -1    0    0  501  502 -0.00000000000E+00 -0.00000000000E+00 -0.23636748569E+03  0.23636748569E+03  0.00000000000E+00 0.  1.
         25    1    1    2    0    0  0.90394297988E+02 -0.27227566304E+02 -0.74568226144E+02  0.17348743420E+03  0.12500000000E+03 0.  0.
         25    1    1    2    0    0 -0.18951899229E+03  0.71270678818E+01  0.18599665432E+03  0.29357792654E+03  0.12500000000E+03 0.  0.
         25    1    1    2    0    0  0.99124694299E+02  0.20100498423E+02  0.51848794752E+02  0.16894683357E+03  0.12500000000E+03 0.  0.
</event>
<event>
 5    0  0.6357360E-005  0.2888094E+03  0.7546771E-02  0.1090972E+00
         21   -1    0    0  502  501  0.00000000000E+00  0.00000000000E+00  0.16916361493E+03  0.16916361493E+03  0.00000000000E+00 0.  1.
         21   -1    0    0  501  502 -0.00000000000E+00 -0.00000000000E+00 -0.49307798551E+03  0.49307798551E+03  0.00000000000E+00 0.  1.
         25    1    1    2    0    0  0.12252249604E+03  0.12569622844E+03 -0.12155281314E+03  0.24740935767E+03  0.12500000000E+03 0.  0.
         25    1    1    2    0    0 -0.31034935814E+02 -0.92118294008E+02 -0.71554146594E+00  0.15834916903E+03  0.12500000000E+03 0.  0.
         25    1    1    2    0    0 -0.91487560228E+02 -0.33577934436E+02 -0.20164601597E+03  0.25648307374E+03  0.12500000000E+03 0.  0.
</event>
<event>
 5    0  0.5677492E-005  0.3603471E+03  0.7546771E-02  0.1058447E+00
         21   -1    0    0  502  501  0.00000000000E+00  0.00000000000E+00  0.12978962969E+03  0.12978962969E+03  0.00000000000E+00 0.  1.
         21   -1    0    0  501  502 -0.00000000000E+00 -0.00000000000E+00 -0.10004654791E+04  0.10004654791E+04  0.00000000000E+00 0.  1.
         25    1    1    2    0    0 -0.35118082548E+02 -0.27906492645E+02 -0.53014957273E+03  0.54653053118E+03  0.12500000000E+03 0.  0.
         25    1    1    2    0    0 -0.10120676562E+03 -0.31725034697E+02 -0.35277632575E+03  0.38900568536E+03  0.12500000000E+03 0.  0.
         25    1    1    2    0    0  0.13632484816E+03  0.59631527342E+02  0.12250049099E+02  0.19471889221E+03  0.12500000000E+03 0.  0.
</event>
<event>
 5    0  0.5677492E-005  0.4369875E+03  0.7546771E-02  0.1031675E+00
         21   -1    0    0  502  501  0.00000000000E+00  0.00000000000E+00  0.47022347097E+03  0.47022347097E+03  0.00000000000E+00 0.  1.
         21   -1    0    0  501  502 -0.00000000000E+00 -0.00000000000E+00 -0.40610072159E+03  0.40610072159E+03  0.00000000000E+00 0.  1.
         25    1    1    2    0    0  0.13644799979E+03 -0.14348936221E+03  0.20861534400E+03  0.31361220554E+03  0.12500000000E+03 0.  0.
         25    1    1    2    0    0 -0.45335067068E+02 -0.68886995170E+02  0.11849983770E+03  0.19096569834E+03  0.12500000000E+03 0.  0.
         25    1    1    2    0    0 -0.91112932719E+02  0.21237635738E+03 -0.26299243232E+03  0.37174628867E+03  0.12500000000E+03 0.  0.
</event>
<event>
 5    0  0.5677492E-005  0.2415011E+03  0.7546771E-02  0.1118797E+00
         21   -1    0    0  502  501  0.00000000000E+00  0.00000000000E+00  0.12799441511E+04  0.12799441511E+04  0.00000000000E+00 0. -1.
         21   -1    0    0  501  502 -0.00000000000E+00 -0.00000000000E+00 -0.45566676441E+02  0.45566676441E+02  0.00000000000E+00 0. -1.
         25    1    1    2    0    0 -0.17809983217E+02 -0.16321844716E+02  0.21192372061E+03  0.24722512306E+03  0.12500000000E+03 0.  0.
         25    1    1    2    0    0 -0.69557450536E+02 -0.81539023562E+01  0.23045000246E+03  0.27136125125E+03  0.12500000000E+03 0.  0.
         25    1    1    2    0    0  0.87367433753E+02  0.24475747072E+02  0.79200375160E+03  0.80692445323E+03  0.12500000000E+03 0.  0.
</event>
<event>
 5    0  0.5677492E-005  0.2429614E+03  0.7546771E-02  0.1117836E+00
         21   -1    0    0  502  501  0.00000000000E+00  0.00000000000E+00  0.14705775409E+03  0.14705775409E+03  0.00000000000E+00 0.  1.
         21   -1    0    0  501  502 -0.00000000000E+00 -0.00000000000E+00 -0.40140858920E+03  0.40140858920E+03  0.00000000000E+00 0.  1.
         25    1    1    2    0    0 -0.18840250859E+02 -0.31899951070E+02 -0.85067049544E+02  0.15567262074E+03  0.12500000000E+03 0.  0.
         25    1    1    2    0    0  0.12016785477E+03  0.64330771410E+02 -0.55584245966E+02  0.19311491364E+03  0.12500000000E+03 0.  0.
         25    1    1    2    0    0 -0.10132760391E+03 -0.32430820340E+02 -0.11369953960E+03  0.19967880891E+03  0.12500000000E+03 0.  0.
</event>
<event>
 5    0  0.5677492E-005  0.4172365E+03  0.7546771E-02  0.1037969E+00
         21   -1    0    0  502  501  0.00000000000E+00  0.00000000000E+00  0.39267468117E+03  0.39267468117E+03  0.00000000000E+00 0. -1.
         21   -1    0    0  501  502 -0.00000000000E+00 -0.00000000000E+00 -0.44333476441E+03  0.44333476441E+03  0.00000000000E+00 0. -1.
         25    1    1    2    0    0  0.22643052875E+03  0.19453743012E+03 -0.54226626653E+02  0.32814802012E+03  0.12500000000E+03 0.  0.
         25    1    1    2    0    0  0.28172371545E+02 -0.92551717327E+02 -0.10243428732E+03  0.18835415078E+03  0.12500000000E+03 0.  0.
         25    1    1    2    0    0 -0.25460290030E+03 -0.10198571279E+03  0.10600083073E+03  0.31950727468E+03  0.12500000000E+03 0.  0.
</event>
<event>
 5    0  0.5677492E-005  0.3760273E+03  0.7546771E-02  0.1052412E+00
         21   -1    0    0  502  501  0.00000000000E+00  0.00000000000E+00  0.57783574949E+03  0.57783574949E+03  0.00000000000E+00 0.  1.
         21   -1    0    0  501  502 -0.00000000000E+00 -0.00000000000E+00 -0.24470024382E+03  0.24470024382E+03  0.00000000000E+00 0.  1.
         25    1    1    2    0    0 -0.35757576909E+00  0.64394294501E+02 -0.19359261791E+02  0.14193848682E+03  0.12500000000E+03 0.  0.
         25    1    1    2    0    0 -0.97309238712E+02 -0.23149998457E+03  0.27002262308E+02  0.28180747500E+03  0.12500000000E+03 0.  0.
         25    1    1    2    0    0  0.97666814481E+02  0.16710569007E+03  0.32549250515E+03  0.39879003149E+03  0.12500000000E+03 0.  0.
</event>
<event>
 5    0  0.5677492E-005  0.2494686E+03  0.7546771E-02  0.1113641E+00
         21   -1    0    0  502  501  0.00000000000E+00  0.00000000000E+00  0.40247734072E+03  0.40247734072E+03  0.00000000000E+00 0. -1.
         21   -1    0    0  501  502 -0.00000000000E+00 -0.00000000000E+00 -0.15462875088E+03  0.15462875088E+03  0.00000000000E+00 0. -1.
         25    1    1    2    0    0 -0.12521580806E+03  0.67248919391E+02  0.16148550575E+03  0.24880511312E+03  0.12500000000E+03 0.  0.
         25    1    1    2    0    0  0.50982094444E+02 -0.32660360251E+01  0.57932442149E+02  0.14693879269E+03  0.12500000000E+03 0.  0.
         25    1    1    2    0    0  0.74233713612E+02 -0.63982883366E+02  0.28430641941E+02  0.16136218579E+03  0.12500000000E+03 0.  0.
</event>
<event>
 5    0  0.5677492E-005  0.3114724E+03  0.7546771E-02  0.1079642E+00
         21   -1    0    0  502  501  0.00000000000E+00  0.00000000000E+00  0.82494607748E+02  0.82494607748E+02  0.00000000000E+00 0.  1.
         21   -1    0    0  501  502 -0.00000000000E+00 -0.00000000000E+00 -0.11760172761E+04  0.11760172761E+04  0.00000000000E+00 0.  1.
         25    1    1    2    0    0  0.44352935235E+02 -0.62072848751E+02 -0.22037917183E+03  0.26459818743E+03  0.12500000000E+03 0.  0.
         25    1    1    2    0    0 -0.29399300591E+02 -0.31879155634E+02 -0.81615687672E+03  0.82681173604E+03  0.12500000000E+03 0.  0.
         25    1    1    2    0    0 -0.14953634644E+02  0.93952004385E+02 -0.56986619768E+02  0.16710196034E+03  0.12500000000E+03 0.  0.
</event>
<event>
 5    0  0.5677492E-005  0.2297258E+03  0.7546771E-02  0.1126833E+00
         21   -1    0    0  502  501  0.00000000000E+00  0.00000000000E+00  0.68540113579E+03  0.68540113579E+03  0.00000000000E+00 0. -1.
         21   -1    0    0  501  502 -0.00000000000E+00 -0.00000000000E+00 -0.76997156218E+02  0.76997156218E+02  0.00000000000E+00 0. -1.
         25    1    1    2    0    0 -0.60958220544E+02  0.57150242777E+02  0.29286242715E+03  0.32920427721E+03  0.12500000000E+03 0.  0.
         25    1    1    2    0    0  0.89327550562E+02 -0.46820105446E+02  0.22275136926E+03  0.27461738122E+03  0.12500000000E+03 0.  0.
         25    1    1    2    0    0 -0.28369330018E+02 -0.10330137331E+02  0.92790183167E+02  0.15857663357E+03  0.12500000000E+03 0.  0.
</event>
<event>
 5    0  0.5677492E-005  0.3787920E+03  0.7546771E-02  0.1051381E+00
         21   -1    0    0  502  501  0.00000000000E+00  0.00000000000E+00  0.47902741045E+03  0.47902741045E+03  0.00000000000E+00 0. -1.
         21   -1    0    0  501  502 -0.00000000000E+00 -0.00000000000E+00 -0.29953059038E+03  0.29953059038E+03  0.00000000000E+00 0. -1.
         25    1    1    2    0    0 -0.56508436245E+01  0.20886845805E+02  0.16141697654E+03  0.20530132166E+03  0.12500000000E+03 0.  0.
         25    1    1    2    0    0 -0.17368580569E+03  0.23032112129E+02  0.19360264453E+03  0.28948958747E+03  0.12500000000E+03 0.  0.
         25    1    1    2    0    0  0.17933664932E+03 -0.43918957934E+02 -0.17552280100E+03  0.28376709169E+03  0.12500000000E+03 0.  0.
</event>
<event>
 5    0  0.5677492E-005  0.2827718E+03  0.7546771E-02  0.1094185E+00
         21   -1    0    0  502  501  0.00000000000E+00  0.00000000000E+00  0.21850007696E+03  0.21850007696E+03  0.00000000000E+00 0.  1.
         21   -1    0    0  501  502 -0.00000000000E+00 -0.00000000000E+00 -0.36594900949E+03  0.36594900949E+03  0.00000000000E+00 0.  1.
         25    1    1    2    0    0 -0.22270808162E+02 -0.14327805103E+03 -0.41018223644E+02  0.19578581020E+03  0.12500000000E+03 0.  0.
         25    1    1    2    0    0  0.14137882996E+02  0.18824654975E+03 -0.11755203885E+03  0.25510806547E+03  0.12500000000E+03 0.  0.
         25    1    1    2    0    0  0.81329251658E+01 -0.44968498719E+02  0.11121329967E+02  0.13355521079E+03  0.12500000000E+03 0.  0.
</event>
<event>
 5    0  0.6054261E-005  0.2788408E+03  0.7546771E-02  0.1096324E+00
         21   -1    0    0  502  501  0.00000000000E+00  0.00000000000E+00  0.53088936772E+03  0.53088936772E+03  0.00000000000E+00 0.  1.
         21   -1    0    0  501  502 -0.00000000000E+00 -0.00000000000E+00 -0.14645645240E+03  0.14645645240E+03  0.00000000000E+00 0.  1.
         25    1    1    2    0    0  0.57210813640E+02  0.20898720950E+02  0.26584232040E+03  0.30001162153E+03  0.12500000000E+03 0.  0.
         25    1    1    2    0    0  0.53795313413E+02  0.68368770403E+02  0.10955301659E+03  0.18760353930E+03  0.12500000000E+03 0.  0.
         25    1    1    2    0    0 -0.11100612705E+03 -0.89267491354E+02  0.90375783275E+01  0.18973065930E+03  0.12500000000E+03 0.  0.
</event>
<event>
 5    0  0.5677492E-005  0.3558552E+03  0.7546771E-02  0.1060237E+00
         21   -1    0    0  502  501  0.00000000000E+00  0.00000000000E+00  0.10740055678E+04  0.10740055678E+04  0.00000000000E+00 0. -1.
         21   -1    0    0  501  502 -0.00000000000E+00 -0.00000000000E+00 -0.11790717148E+03  0.11790717148E+03  0.00000000000E+00 0. -1.
         25    1    1    2    0    0  0.10991049602E+03  0.16809635294E+03  0.31196727250E+03  0.39151664092E+03  0.12500000000E+03 0.  0.
         25    1    1    2    0    0 -0.36588568532E+01 -0.19320051457E+03  0.13937340591E+03  0.26905347487E+03  0.12500000000E+03 0.  0.
         25    1    1    2    0    0 -0.10625163917E+03  0.25104161623E+02  0.50475771792E+03  0.53134262351E+03  0.12500000000E+03 0.  0.
</event>
<event>
 5    0  0.5677492E-005  0.5110367E+03  0.7546771E-02  0.1010938E+00
         21   -1    0    0  502  501  0.00000000000E+00  0.00000000000E+00  0.15849782442E+03  0.15849782442E+03  0.00000000000E+00 0.  1.
         21   -1    0    0  501  502 -0.00000000000E+00 -0.00000000000E+00 -0.16477103825E+04  0.16477103825E+04  0.00000000000E+00 0.  1.
         25    1    1    2    0    0  0.73032220248E+02 -0.11887544668E+03 -0.33662771705E+03  0.38523797438E+03  0.12500000000E+03 0.  0.
         25    1    1    2    0    0 -0.16015256763E+03 -0.25949857588E+03 -0.85423640593E+03  0.91560536969E+03  0.12500000000E+03 0.  0.
         25    1    1    2    0    0  0.87120347381E+02  0.37837402256E+03 -0.29834843509E+03  0.50536486285E+03  0.12500000000E+03 0.  0.
</event>
<event>
 5    0  0.5677492E-005  0.3706600E+03  0.7546771E-02  0.1054441E+00
         21   -1    0    0  502  501  0.00000000000E+00  0.00000000000E+00  0.94279437429E+03  0.94279437429E+03  0.00000000000E+00 0.  1.
         21   -1    0    0  501  502 -0.00000000000E+00 -0.00000000000E+00 -0.14572511737E+03  0.14572511737E+03  0.00000000000E+00 0.  1.
         25    1    1    2    0    0 -0.98919729150E+02  0.10468492850E+03  0.59998704085E+02  0.19992221378E+03  0.12500000000E+03 0.  0.
         25    1    1    2    0    0  0.12070171965E+03 -0.21824881522E+03  0.62584724609E+03  0.68520889217E+03  0.12500000000E+03 0.  0.
         25    1    1    2    0    0 -0.21781990499E+02  0.11356388673E+03  0.11122330675E+03  0.20338838571E+03  0.12500000000E+03 0.  0.
</event>
<event>
 5    0  0.5677492E-005  0.3046990E+03  0.7546771E-02  0.1082915E+00
         21   -1    0    0  502  501  0.00000000000E+00  0.00000000000E+00  0.87289171592E+03  0.87289171592E+03  0.00000000000E+00 0. -1.
         21   -1    0    0  501  502 -0.00000000000E+00 -0.00000000000E+00 -0.10636081138E+03  0.10636081138E+03  0.00000000000E+00 0. -1.
         25    1    1    2    0    0  0.49854398703E+02  0.19848934370E+03  0.35924385108E+03  0.43193127367E+03  0.12500000000E+03 0.  0.
         25    1    1    2    0    0 -0.77476058649E+02 -0.65212521700E+02  0.10207945594E+03  0.19052671197E+03  0.12500000000E+03 0.  0.
         25    1    1    2    0    0  0.27621659946E+02 -0.13327682200E+03  0.30520759751E+03  0.35679454166E+03  0.12500000000E+03 0.  0.
</event>
<event>
 5    0  0.5677492E-005  0.2258783E+03  0.7546771E-02  0.1129575E+00
         21   -1    0    0  502  501  0.00000000000E+00  0.00000000000E+00  0.41135485673E+02  0.41135485673E+02  0.00000000000E+00 0.  1.
         21   -1    0    0  501  502 -0.00000000000E+00 -0.00000000000E+00 -0.12403163962E+04  0.12403163962E+04  0.00000000000E+00 0.  1.
         25    1    1    2    0    0  0.74184703442E+02  0.57133480284E+02 -0.43823591160E+03  0.46523469239E+03  0.12500000000E+03 0.  0.
         25    1    1    2    0    0 -0.31735423476E+02 -0.59331240356E+02 -0.54432977576E+03  0.56253643257E+03  0.12500000000E+03 0.  0.
         25    1    1    2    0    0 -0.42449279966E+02  0.21977600725E+01 -0.21661522318E+03  0.25368075692E+03  0.12500000000E+03 0.  0.
</event>
<event>
 5    0  0.5677492E-005  0.3754472E+03  0.7546771E-02  0.1052629E+00
         21   -1    0    0  502  501  0.00000000000E+00  0.00000000000E+00  0.93664338393E+02  0.93664338393E+02  0.00000000000E+00 0. -1.
         21   -1    0    0  501  502 -0.00000000000E+00 -0.00000000000E+00 -0.15049546192E+04  0.15049546192E+04  0.00000000000E+00 0. -1.
         25    1    1    2    0    0  0.18510571650E+03 -0.21878608037E+03 -0.34370150436E+03  0.46463663151E+03  0.12500000000E+03 0.  0.
         25    1    1    2    0    0 -0.73713213972E+02  0.11204697346E+03 -0.48595506534E+03  0.51938953369E+03  0.12500000000E+03 0.  0.
         25    1    1    2    0    0 -0.11139250252E+03  0.10673910691E+03 -0.58163371106E+03  0.61459279234E+03  0.12500000000E+03 0.  0.
</event>
<event>
 5    0  0.5677492E-005  0.3801166E+03  0.7546771E-02  0.1050891E+00
         21   -1    0    0  502  501  0.00000000000E+00  0.00000000000E+00  0.65465635194E+03  0.65465635194E+03  0.00000000000E+00 0. -1.
         21   -1    0    0  501  502 -0.00000000000E+00 -0.00000000000E+00 -0.22070909958E+03  0.22070909958E+03  0.00000000000E+00 0. -1.
         25    1    1    2    0    0 -0.83205841245E+02  0.11200389854E+03  0.87250199575E+02  0.20665353283E+03  0.12500000000E+03 0.  0.
         25    1    1    2    0    0  0.37068733180E+02 -0.26318329410E+03  0.32577221240E+02  0.29550941206E+03  0.12500000000E+03 0.  0.
         25    1    1    2    0    0  0.46137108065E+02  0.15117939556E+03  0.31411983154E+03  0.37320250662E+03  0.12500000000E+03 0.  0.
</event>
<event>
 5    0  0.5677492E-005  0.4123936E+03  0.7546771E-02  0.1039571E+00
         21   -1    0    0  502  501  0.00000000000E+00  0.00000000000E+00  0.21245461476E+03  0.21245461476E+03  0.00000000000E+00 0. -1.
         21   -1    0    0  501  502 -0.00000000000E+00 -0.00000000000E+00 -0.80049322115E+03  0.80049322115E+03  0.00000000000E+00 0. -1.
         25    1    1    2    0    0 -0.93597868401E+02  0.24763381604E+02 -0.46035752416E+01  0.15817704936E+03  0.12500000000E+03 0.  0.
         25    1    1    2    0    0 -0.18793728688E+03  0.75264267978E+02 -0.70516055982E+02  0.24815851383E+03  0.12500000000E+03 0.  0.
         25    1    1    2    0    0  0.28153515528E+03 -0.10002764958E+03 -0.51291897517E+03  0.60661227273E+03  0.12500000000E+03 0.  0.
</event>
<event>
 5    0  0.5995880E-005  0.2542391E+03  0.7546771E-02  0.1110655E+00
         21   -1    0    0  502  501  0.00000000000E+00  0.00000000000E+00  0.42726007058E+03  0.42726007058E+03  0.00000000000E+00 0.  1.
         21   -1    0    0  501  502 -0.00000000000E+00 -0.00000000000E+00 -0.15128379755E+03  0.15128379755E+03  0.00000000000E+00 0.  1.
         25    1    1    2    0    0 -0.10868678934E+02  0.24537519573E+02 -0.97002279367E+01  0.12821588229E+03  0.12500000000E+03 0.  0.
         25    1    1    2    0    0  0.11942033865E+03 -0.50334008407E+02  0.13581204291E+03  0.22553190614E+03  0.12500000000E+03 0.  0.
         25    1    1    2    0    0 -0.10855165972E+03  0.25796488833E+02  0.14986445805E+03  0.22479607970E+03  0.12500000000E+03 0.  0.
</event>
<event>
 5    0  0.5677492E-005  0.4112841E+03  0.7546771E-02  0.1039941E+00
         21   -1    0    0  502  501  0.00000000000E+00  0.00000000000E+00  0.80644717648E+03  0.80644717648E+03  0.00000000000E+00 0.  1.
         21   -1    0    0  501  502 -0.00000000000E+00 -0.00000000000E+00 -0.20975291852E+03  0.20975291852E+03  0.00000000000E+00 0.  1.
         25    1    1    2    0    0  0.30861076374E+03  0.25980814566E+02  0.16884360634E+03  0.37423090416E+03  0.12500000000E+03 0.  0.
         25    1    1    2    0    0 -0.14206758497E+03  0.47240227814E+02  0.45183594670E+02  0.20020338421E+03  0.12500000000E+03 0.  0.
         25    1    1    2    0    0 -0.16654317878E+03 -0.73221042380E+02  0.38266705694E+03  0.44176580663E+03  0.12500000000E+03 0.  0.
</event>
<event>
 5    0  0.5677492E-005  0.3467858E+03  0.7546771E-02  0.1063942E+00
         21   -1    0    0  502  501  0.00000000000E+00  0.00000000000E+00  0.22702227679E+03  0.22702227679E+03  0.00000000000E+00 0. -1.
         21   -1    0    0  501  502 -0.00000000000E+00 -0.00000000000E+00 -0.52972954652E+03  0.52972954652E+03  0.00000000000E+00 0. -1.
         25    1    1    2    0    0 -0.49300488852E+02 -0.11398743409E+03 -0.78630282401E+02  0.19295438488E+03  0.12500000000E+03 0.  0.
         25    1    1    2    0    0  0.22627781742E+03  0.78697967238E+02 -0.21285194214E+03  0.34398542117E+03  0.12500000000E+03 0.  0.
         25    1    1    2    0    0 -0.17697732857E+03  0.35289466856E+02 -0.11225045195E+02  0.21981201727E+03  0.12500000000E+03 0.  0.
</event>
<event>
 5    0  0.5677492E-005  0.3326503E+03  0.7546771E-02  0.1069970E+00
         21   -1    0    0  502  501  0.00000000000E+00  0.00000000000E+00  0.12483123173E+03  0.12483123173E+03  0.00000000000E+00 0.  1.
         21   -1    0    0  501  502 -0.00000000000E+00 -0.00000000000E+00 -0.88644671174E+03  0.88644671174E+03  0.00000000000E+00 0.  1.
         25    1    1    2    0    0 -0.18843316141E+03 -0.65297637686E+02 -0.28942034865E+03  0.37304152051E+03  0.12500000000E+03 0.  0.
         25    1    1    2    0    0 -0.54728509173E+02  0.29614334830E+02 -0.24045288847E+03  0.27805540835E+03  0.12500000000E+03 0.  0.
         25    1    1    2    0    0  0.24316167059E+03  0.35683302856E+02 -0.23174224289E+03  0.36018101461E+03  0.12500000000E+03 0.  0.
</event>
<event>
 5    0  0.5677492E-005  0.3825515E+03  0.7546771E-02  0.1049995E+00
         21   -1    0    0  502  501  0.00000000000E+00  0.00000000000E+00  0.35786856965E+03  0.35786856965E+03  0.00000000000E+00 0.  1.
         21   -1    0    0  501  502 -0.00000000000E+00 -0.00000000000E+00 -0.40893679466E+03  0.40893679466E+03  0.00000000000E+00 0.  1.
         25    1    1    2    0    0  0.13016950151E+03  0.56457211760E+02 -0.14512208174E+03  0.23836303088E+03  0.12500000000E+03 0.  0.
         25    1    1    2    0    0 -0.22952180273E+03 -0.50005699577E+02  0.20329717717E+03  0.33486649603E+03  0.12500000000E+03 0.  0.
         25    1    1    2    0    0  0.99352301223E+02 -0.64515121830E+01 -0.10924332043E+03  0.19357583740E+03  0.12500000000E+03 0.  0.
</event>
<event>
 5    0  0.5785324E-005  0.3366390E+03  0.7546771E-02  0.1068237E+00
         21   -1    0    0  502  501  0.00000000000E+00  0.00000000000E+00  0.18930657133E+03  0.18930657133E+03  0.00000000000E+00 0. -1.
         21   -1    0    0  501  502 -0.00000000000E+00 -0.00000000000E+00 -0.59863648185E+03  0.59863648185E+03  0.00000000000E+00 0. -1.
         25    1    1    2    0    0 -0.14081607897E+03  0.29222385827E+02 -0.28565236695E+03  0.34337354394E+03  0.12500000000E+03 0.  0.
         25    1    1    2    0    0 -0.11756207878E+02 -0.13767402647E+03  0.28661613875E+01  0.18634795644E+03  0.12500000000E+03 0.  0.
         25    1    1    2    0    0  0.15257228685E+03  0.10845164064E+03 -0.12654370495E+03  0.25822155280E+03  0.12500000000E+03 0.  0.
</event>
<event>
 5    0  0.5677492E-005  0.4163375E+03  0.7546771E-02  0.1038265E+00
         21   -1    0    0  502  501  0.00000000000E+00  0.00000000000E+00  0.38247544396E+03  0.38247544396E+03  0.00000000000E+00 0. -1.
         21   -1    0    0  501  502 -0.00000000000E+00 -0.00000000000E+00 -0.45319747768E+03  0.45319747768E+03  0.00000000000E+00 0. -1.
         25    1    1    2    0    0  0.10116309379E+03  0.10874832038E+03 -0.34881135977E+03  0.39919235143E+03  0.12500000000E+03 0.  0.
         25    1    1    2    0    0 -0.23221793829E+02 -0.17797079733E+02  0.26506893009E+02  0.13108624311E+03  0.12500000000E+03 0.  0.
         25    1    1    2    0    0 -0.77941299960E+02 -0.90951240648E+02  0.25158243304E+03  0.30539432711E+03  0.12500000000E+03 0.  0.
</event>
<event>
 5    0  0.5677492E-005  0.2796914E+03  0.7546771E-02  0.1095858E+00
         21   -1    0    0  502  501  0.00000000000E+00  0.00000000000E+00  0.20899003228E+03  0.20899003228E+03  0.00000000000E+00 0. -1.
         21   -1    0    0  501  502 -0.00000000000E+00 -0.00000000000E+00 -0.37431108203E+03  0.37431108203E+03  0.00000000000E+00 0. -1.
         25    1    1    2    0    0  0.29620179742E+02  0.11441225435E+01  0.11105711589E+03  0.16981562665E+03  0.12500000000E+03 0.  0.
         25    1    1    2    0    0  0.65167089808E+02  0.37538225643E+02 -0.12602613876E+03  0.19277825507E+03  0.12500000000E+03 0.  0.
         25    1    1    2    0    0 -0.94787269550E+02 -0.38682348186E+02 -0.15035202688E+03  0.22070723259E+03  0.12500000000E+03 0.  0.
</event>
<event>
 5    0  0.5677492E-005  0.3373480E+03  0.7546771E-02  0.1067931E+00
         21   -1    0    0  502  501  0.00000000000E+00  0.00000000000E+00  0.21870582969E+04  0.21870582969E+04  0.00000000000E+00 0.  1.
         21   -1    0    0  501  502 -0.00000000000E+00 -0.00000000000E+00 -0.52035030397E+02  0.52035030397E+02  0.00000000000E+00 0.  1.
         25    1    1    2    0    0  0.17986610898E+02  0.29763387050E+02  0.83691236076E+03  0.84691007608E+03  0.12500000000E+03 0.  0.
         25    1    1    2    0    0 -0.58677689892E+02 -0.99989072573E+02  0.12946601363E+03  0.21407319919E+03  0.12500000000E+03 0.  0.
         25    1    1    2    0    0  0.40691078994E+02  0.70225685523E+02  0.11686448921E+04  0.11781100520E+04  0.12500000000E+03 0.  0.
</event>
<event>
 5    0  0.5677492E-005  0.3891167E+03  0.7546771E-02  0.1047615E+00
         21   -1    0    0  502  501  0.00000000000E+00  0.00000000000E+00  0.29011965642E+03  0.29011965642E+03  0.00000000000E+00 0. -1.
         21   -1    0    0  501  502 -0.00000000000E+00 -0.00000000000E+00 -0.52189424036E+03  0.52189424036E+03  0.00000000000E+00 0. -1.
         25    1    1    2    0    0  0.97643333483E+00  0.18909267291E+03 -0.54884145442E+01  0.22674239803E+03  0.12500000000E+03 0.  0.
         25    1    1    2    0    0 -0.12524382406E+03  0.86428595733E+02 -0.15476579981E+03  0.25046630595E+03  0.12500000000E+03 0.  0.
         25    1    1    2    0    0  0.12426739072E+03 -0.27552126864E+03 -0.71520369586E+02  0.33480519281E+03  0.12500000000E+03 0.  0.
</event>
<event>
 5    0  0.5677492E-005  0.3012786E+03  0.7546771E-02  0.1084603E+00
         21   -1    0    0  502  501  0.00000000000E+00  0.00000000000E+00  0.28777047171E+03  0.28777047171E+03  0.00000000000E+00 0.  1.
         21   -1    0    0  501  502 -0.00000000000E+00 -0.00000000000E+00 -0.31542087272E+03  0.31542087272E+03  0.00000000000E+00 0.  1.
         25    1    1    2    0    0 -0.72548791026E+02 -0.57725606806E+02 -0.75061669444E+02  0.17278549413E+03  0.12500000000E+03 0.  0.
         25    1    1    2    0    0  0.21993450333E+02 -0.90894202275E+02 -0.96443861095E+02  0.18349900874E+03  0.12500000000E+03 0.  0.
         25    1    1    2    0    0  0.50555340693E+02  0.14861980908E+03  0.14385512952E+03  0.24690684157E+03  0.12500000000E+03 0.  0.
</event>
<event>
 5    0  0.5677492E-005  0.2105529E+03  0.7546771E-02  0.1141129E+00
         21   -1    0    0  502  501  0.00000000000E+00  0.00000000000E+00  0.12180460506E+03  0.12180460506E+03  0.00000000000E+00 0.  1.
         21   -1    0    0  501  502 -0.00000000000E+00 -0.00000000000E+00 -0.36396416977E+03  0.36396416977E+03  0.00000000000E+00 0.  1.
         25    1    1    2    0    0 -0.53425049306E+02 -0.26775705471E+02 -0.17030661471E+02  0.13959304326E+03  0.12500000000E+03 0.  0.
         25    1    1    2    0    0  0.14552460214E+02  0.48019224668E+01 -0.14086553968E+03  0.18895219720E+03  0.12500000000E+03 0.  0.
         25    1    1    2    0    0  0.38872589091E+02  0.21973783004E+02 -0.84263363560E+02  0.15722353437E+03  0.12500000000E+03 0.  0.
</event>
<event>
 5    0  0.5677492E-005  0.4546352E+03  0.7546771E-02  0.1026349E+00
         21   -1    0    0  502  501  0.00000000000E+00  0.00000000000E+00  0.77851812751E+02  0.77851812751E+02  0.00000000000E+00 0.  1.
         21   -1    0    0  501  502 -0.00000000000E+00 -0.00000000000E+00 -0.26549560544E+04  0.26549560544E+04  0.00000000000E+00 0.  1.
         25    1    1    2    0    0  0.16940371142E+02  0.55630932383E+01 -0.59890891963E+02  0.13974921510E+03  0.12500000000E+03 0.  0.
         25    1    1    2    0    0 -0.17157625852E+03  0.57912587296E+02 -0.33447557224E+03  0.40036382040E+03  0.12500000000E+03 0.  0.
         25    1    1    2    0    0  0.15463588738E+03 -0.63475680535E+02 -0.21827377775E+04  0.21926948317E+04  0.12500000000E+03 0.  0.
</event>
<event>
 5    0  0.5677492E-005  0.2424489E+03  0.7546771E-02  0.1118172E+00
         21   -1    0    0  502  501  0.00000000000E+00  0.00000000000E+00  0.10461789742E+04  0.10461789742E+04  0.00000000000E+00 0.  1.
         21   -1    0    0  501  502 -0.00000000000E+00 -0.00000000000E+00 -0.56186800914E+02  0.56186800914E+02  0.00000000000E+00 0.  1.
         25    1    1    2    0    0  0.44903617439E+02 -0.40105446716E+01  0.82579638773E+02  0.15645068254E+03  0.12500000000E+03 0.  0.
         25    1    1    2    0    0  0.47878841681E+01  0.24961423684E+02  0.51488096760E+03  0.53044642266E+03  0.12500000000E+03 0.  0.
         25    1    1    2    0    0 -0.49691501607E+02 -0.20950879012E+02  0.39253156691E+03  0.41546866991E+03  0.12500000000E+03 0.  0.
</event>
<event>
 5    0  0.5677492E-005  0.2150467E+03  0.7546771E-02  0.1137631E+00
         21   -1    0    0  502  501  0.00000000000E+00  0.00000000000E+00  0.45465538322E+03  0.45465538322E+03  0.00000000000E+00 0. -1.
         21   -1    0    0  501  502 -0.00000000000E+00 -0.00000000000E+00 -0.10171459957E+03  0.10171459957E+03  0.00000000000E+00 0. -1.
         25    1    1    2    0    0 -0.23071101658E+02 -0.57905776228E+02  0.91529233239E+02  0.16699687180E+03  0.12500000000E+03 0.  0.
         25    1    1    2    0    0 -0.18345096026E+02  0.81878000370E+02  0.10521196893E+03  0.18367119507E+03  0.12500000000E+03 0.  0.
         25    1    1    2    0    0  0.41416197684E+02 -0.23972224142E+02  0.15619958148E+03  0.20570191593E+03  0.12500000000E+03 0.  0.
</event>
<event>
 5    0  0.5677492E-005  0.2924211E+03  0.7546771E-02  0.1089092E+00
         21   -1    0    0  502  501  0.00000000000E+00  0.00000000000E+00  0.19446927449E+04  0.19446927449E+04  0.00000000000E+00 0. -1.
         21   -1    0    0  501  502 -0.00000000000E+00 -0.00000000000E+00 -0.43970997226E+02  0.43970997226E+02  0.00000000000E+00 0. -1.
         25    1    1    2    0    0  0.12604277260E+02 -0.16616238161E+03  0.40764241019E+03  0.45778394407E+03  0.12500000000E+03 0.  0.
         25    1    1    2    0    0 -0.34275929629E+02  0.10756870704E+03  0.49063727287E+03  0.51874444538E+03  0.12500000000E+03 0.  0.
         25    1    1    2    0    0  0.21671652369E+02  0.58593674566E+02  0.10024420647E+04  0.10121353527E+04  0.12500000000E+03 0.  0.
</event>
<event>
 5    0  0.5677492E-005  0.2692826E+03  0.7546771E-02  0.1101691E+00
         21   -1    0    0  502  501  0.00000000000E+00  0.00000000000E+00  0.45872792014E+03  0.45872792014E+03  0.00000000000E+00 0. -1.
         21   -1    0    0  501  502 -0.00000000000E+00 -0.00000000000E+00 -0.15807440265E+03  0.15807440265E+03  0.00000000000E+00 0. -1.
         25    1    1    2    0    0 -0.28690736873E+02 -0.16036370045E+02  0.61730688723E+02  0.14323407931E+03  0.12500000000E+03 0.  0.
         25    1    1    2    0    0  0.95170324878E+02  0.34370107661E+02  0.28184019804E+03  0.32449590486E+03  0.12500000000E+03 0.  0.
         25    1    1    2    0    0 -0.66479588005E+02 -0.18333737616E+02 -0.42917369276E+02  0.14907233862E+03  0.12500000000E+03 0.  0.
</event>
<event>
 5    0  0.5677492E-005  0.3420794E+03  0.7546771E-02  0.1065914E+00
         21   -1    0    0  502  501  0.00000000000E+00  0.00000000000E+00  0.64283168065E+02  0.64283168065E+02  0.00000000000E+00 0. -1.
         21   -1    0    0  501  502 -0.00000000000E+00 -0.00000000000E+00 -0.18203572652E+04  0.18203572652E+04  0.00000000000E+00 0. -1.
         25    1    1    2    0    0 -0.22429999341E+03 -0.17584122163E+02 -0.60242981950E+03  0.65510791159E+03  0.12500000000E+03 0.  0.
         25    1    1    2    0    0  0.22872549107E+03  0.12210476691E+02 -0.98813031798E+03  0.10220034106E+04  0.12500000000E+03 0.  0.
         25    1    1    2    0    0 -0.44254976586E+01  0.53736454717E+01 -0.16551395962E+03  0.20752911103E+03  0.12500000000E+03 0.  0.
</event>
<event>
 5    0  0.5677492E-005  0.3800798E+03  0.7546771E-02  0.1050904E+00
         21   -1    0    0  502  501  0.00000000000E+00  0.00000000000E+00  0.27088292300E+03  0.27088292300E+03  0.00000000000E+00 0. -1.
         21   -1    0    0  501  502 -0.00000000000E+00 -0.00000000000E+00 -0.53329567136E+03  0.53329567136E+03  0.00000000000E+00 0. -1.
         25    1    1    2    0    0  0.13938335672E+03  0.47345450315E+02  0.70614435247E+02  0.20562273771E+03  0.12500000000E+03 0.  0.
         25    1    1    2    0    0 -0.14121794028E+03  0.42734688331E+01  0.47649012980E+02  0.19456669199E+03  0.12500000000E+03 0.  0.
         25    1    1    2    0    0  0.18345835612E+01 -0.51618919148E+02 -0.38067619659E+03  0.40398916466E+03  0.12500000000E+03 0.  0.
</event>
<event>
 5    0  0.5677492E-005  0.2455452E+03  0.7546771E-02  0.1116153E+00
         21   -1    0    0  502  501  0.00000000000E+00  0.00000000000E+00  0.10803044991E+04  0.10803044991E+04  0.00000000000E+00 0.  1.
         21   -1    0    0  501  502 -0.00000000000E+00 -0.00000000000E+00 -0.55810603375E+02  0.55810603375E+02  0.00000000000E+00 0.  1.
         25    1    1    2    0    0  0.93241742840E+02 -0.20530674908E+02  0.40008111424E+03  0.42989001988E+03  0.12500000000E+03 0.  0.
         25    1    1    2    0    0 -0.36109985151E+02 -0.83212814068E+02  0.24582279886E+03  0.29031388512E+03  0.12500000000E+03 0.  0.
         25    1    1    2    0    0 -0.57131757689E+02  0.10374348898E+03  0.37858998260E+03  0.41591119745E+03  0.12500000000E+03 0.  0.
</event>
<event>
 5    0  0.5677492E-005  0.3115271E+03  0.7546771E-02  0.1079616E+00
         21   -1    0    0  502  501  0.00000000000E+00  0.00000000000E+00  0.11852558025E+03  0.11852558025E+03  0.00000000000E+00 0. -1.
         21   -1    0    0  501  502 -0.00000000000E+00 -0.00000000000E+00 -0.81880348361E+03  0.81880348361E+03  0.00000000000E+00 0. -1.
         25    1    1    2    0    0  0.89587718667E+02 -0.33096234848E+02 -0.11682168950E+03  0.19594291830E+03  0.12500000000E+03 0.  0.
         25    1    1    2    0    0  0.77526541816E+02  0.15655982575E+03 -0.28272186425E+03  0.35507463476E+03  0.12500000000E+03 0.  0.
         25    1    1    2    0    0 -0.16711426048E+03 -0.12346359090E+03 -0.30073434962E+03  0.38631151080E+03  0.12500000000E+03 0.  0.
</event>
<event>
 5    0  0.5677492E-005  0.3066759E+03  0.7546771E-02  0.1081950E+00
         21   -1    0    0  502  501  0.00000000000E+00  0.00000000000E+00  0.88989011103E+03  0.88989011103E+03  0.00000000000E+00 0.  1.
         21   -1    0    0  501  502 -0.00000000000E+00 -0.00000000000E+00 -0.10568731657E+03  0.10568731657E+03  0.00000000000E+00 0.  1.
         25    1    1    2    0    0  0.14765453488E+03  0.16450814583E+03  0.23545506115E+03  0.34630748986E+03  0.12500000000E+03 0.  0.
         25    1    1    2    0    0 -0.26962940012E+02 -0.72075931382E+02  0.28023655791E+03  0.31635339165E+03  0.12500000000E+03 0.  0.
         25    1    1    2    0    0 -0.12069159486E+03 -0.92432214449E+02  0.26851117541E+03  0.33291654609E+03  0.12500000000E+03 0.  0.
</event>
<event>
 5    0  0.6014547E-005  0.3025386E+03  0.7546771E-02  0.1083978E+00
         21   -1    0    0  502  501  0.00000000000E+00  0.00000000000E+00  0.13134787834E+03  0.13134787834E+03  0.00000000000E+00 0.  1.
         21   -1    0    0  501  502 -0.00000000000E+00 -0.00000000000E+00 -0.69684890678E+03  0.69684890678E+03  0.00000000000E+00 0.  1.
         25    1    1    2    0    0 -0.18280897767E+02 -0.15298878864E+02 -0.34420135056E+03  0.36697113871E+03  0.12500000000E+03 0.  0.
         25    1    1    2    0    0  0.69303878216E+02 -0.13475294682E+03 -0.68400918621E+02  0.20800257181E+03  0.12500000000E+03 0.  0.
         25    1    1    2    0    0 -0.51022980449E+02  0.15005182568E+03 -0.15289875927E+03  0.25322307460E+03  0.12500000000E+03 0.  0.
</event>
<event>
 5    0  0.5677492E-005  0.4274114E+03  0.7546771E-02  0.1034681E+00
         21   -1    0    0  502  501  0.00000000000E+00  0.00000000000E+00  0.22106840136E+04  0.22106840136E+04  0.00000000000E+00 0. -1.
         21   -1    0    0  501  502 -0.00000000000E+00 -0.00000000000E+00 -0.82635291411E+02  0.82635291411E+02  0.00000000000E+00 0. -1.
         25    1    1    2    0    0  0.33278330946E+03 -0.79663839251E+02  0.70446842622E+03  0.79309004651E+03  0.12500000000E+03 0.  0.
         25    1    1    2    0    0 -0.26696943756E+03 -0.27340748482E+02  0.90751877465E+03  0.95458657201E+03  0.12500000000E+03 0.  0.
         25    1    1    2    0    0 -0.65813871894E+02  0.10700458773E+03  0.51606152132E+03  0.54564268649E+03  0.12500000000E+03 0.  0.
</event>
<event>
 5    0  0.5677492E-005  0.5083640E+03  0.7546771E-02  0.1011619E+00
         21   -1    0    0  502  501  0.00000000000E+00  0.00000000000E+00  0.65250536230E+03  0.65250536230E+03  0.00000000000E+00 0.  1.
         21   -1    0    0  501  502 -0.00000000000E+00 -0.00000000000E+00 -0.39606408411E+03  0.39606408411E+03  0.00000000000E+00 0.  1.
         25    1    1    2    0    0  0.14216927109E+03  0.31776817399E+03  0.13732547348E+03  0.39455291116E+03  0.12500000000E+03 0.  0.
         25    1    1    2    0    0  0.17434709371E+03 -0.15098846898E+03  0.24962749547E+02  0.26351957369E+03  0.12500000000E+03 0.  0.
         25    1    1    2    0    0 -0.31651636480E+03 -0.16677970501E+03  0.94153055170E+02  0.39049696156E+03  0.12500000000E+03 0.  0.
</event>
<event>
 5    0  0.5677492E-005  0.6800009E+03  0.7546771E-02  0.9752058E-01
         21   -1    0    0  502  501  0.00000000000E+00  0.00000000000E+00  0.45390916771E+03  0.45390916771E+03  0.00000000000E+00 0.  1.
         21   -1    0    0  501  502 -0.00000000000E+00 -0.00000000000E+00 -0.10187088282E+04  0.10187088282E+04  0.00000000000E+00 0.  1.
         25    1    1    2    0    0  0.38685131607E+03  0.35493955057E+03  0.40328607431E+02  0.54119074445E+03  0.12500000000E+03 0.  0.
         25    1    1    2    0    0 -0.45937123985E+02  0.64609059532E+02 -0.83880300768E+02  0.17013363803E+03  0.12500000000E+03 0.  0.
         25    1    1    2    0    0 -0.34091419208E+03 -0.41954861010E+03 -0.52124796717E+03  0.76129361345E+03  0.12500000000E+03 0.  0.
</event>
<event>
 5    0  0.5677492E-005  0.2826829E+03  0.7546771E-02  0.1094233E+00
         21   -1    0    0  502  501  0.00000000000E+00  0.00000000000E+00  0.24059213051E+03  0.24059213051E+03  0.00000000000E+00 0. -1.
         21   -1    0    0  501  502 -0.00000000000E+00 -0.00000000000E+00 -0.33213726029E+03  0.33213726029E+03  0.00000000000E+00 0. -1.
         25    1    1    2    0    0  0.92367903802E+02 -0.37873270802E+02 -0.13041053648E+03  0.20639312566E+03  0.12500000000E+03 0.  0.
         25    1    1    2    0    0  0.42369966844E+02 -0.70403170102E+02  0.44564647809E+00  0.14958950181E+03  0.12500000000E+03 0.  0.
         25    1    1    2    0    0 -0.13473787065E+03  0.10827644090E+03  0.38419760223E+02  0.21674676334E+03  0.12500000000E+03 0.  0.
</event>
<event>
 5    0  0.5677492E-005  0.2842575E+03  0.7546771E-02  0.1093386E+00
         21   -1    0    0  502  501  0.00000000000E+00  0.00000000000E+00  0.80612810394E+02  0.80612810394E+02  0.00000000000E+00 0.  1.
         21   -1    0    0  501  502 -0.00000000000E+00 -0.00000000000E+00 -0.10023508678E+04  0.10023508678E+04  0.00000000000E+00 0.  1.
         25    1    1    2    0    0  0.23893851337E+02  0.72068960748E+02 -0.18647341681E+03  0.23698562491E+03  0.12500000000E+03 0.  0.
         25    1    1    2    0    0 -0.15411627801E+03 -0.11926404161E+03 -0.42338208954E+03  0.48254858047E+03  0.12500000000E+03 0.  0.
         25    1    1    2    0    0  0.13022242667E+03  0.47195080865E+02 -0.31188255110E+03  0.36342947287E+03  0.12500000000E+03 0.  0.
</event>
<event>
 5    0  0.5677492E-005  0.3248120E+03  0.7546771E-02  0.1073456E+00
         21   -1    0    0  502  501  0.00000000000E+00  0.00000000000E+00  0.10797274046E+03  0.10797274046E+03  0.00000000000E+00 0. -1.
         21   -1    0    0  501  502 -0.00000000000E+00 -0.00000000000E+00 -0.97712457957E+03  0.97712457957E+03  0.00000000000E+00 0. -1.
         25    1    1    2    0    0  0.54097345619E+02  0.15302459898E+03 -0.17029941862E+03  0.26640184436E+03  0.12500000000E+03 0.  0.
         25    1    1    2    0    0 -0.12440718015E+03  0.22560811393E+02 -0.18262422985E+03  0.25487790413E+03  0.12500000000E+03 0.  0.
         25    1    1    2    0    0  0.70309834534E+02 -0.17558541037E+03 -0.51622819064E+03  0.56381757155E+03  0.12500000000E+03 0.  0.
</event>
<event>
 5    0  0.6057821E-005  0.2656697E+03  0.7546771E-02  0.1103784E+00
         21   -1    0    0  502  501  0.00000000000E+00  0.00000000000E+00  0.47074936187E+03  0.47074936187E+03  0.00000000000E+00 0. -1.
         21   -1    0    0  501  502 -0.00000000000E+00 -0.00000000000E+00 -0.14993199198E+03  0.14993199198E+03  0.00000000000E+00 0. -1.
         25    1    1    2    0    0 -0.31280364119E+02  0.15719318374E+03  0.21035729020E+03  0.29251213263E+03  0.12500000000E+03 0.  0.
         25    1    1    2    0    0 -0.19899689065E+02 -0.70340075170E+02  0.27404055502E+02  0.14737607017E+03  0.12500000000E+03 0.  0.
         25    1    1    2    0    0  0.51180053184E+02 -0.86853108571E+02  0.83056024184E+02  0.18079315105E+03  0.12500000000E+03 0.  0.
</event>
<event>
 5    0  0.5677492E-005  0.3746668E+03  0.7546771E-02  0.1052923E+00
         21   -1    0    0  502  501  0.00000000000E+00  0.00000000000E+00  0.16493081592E+03  0.16493081592E+03  0.00000000000E+00 0.  1.
         21   -1    0    0  501  502 -0.00000000000E+00 -0.00000000000E+00 -0.85111587323E+03  0.85111587323E+03  0.00000000000E+00 0.  1.
         25    1    1    2    0    0  0.23659741614E+03 -0.24344729222E+02 -0.18238805841E+03  0.32474822096E+03  0.12500000000E+03 0.  0.
         25    1    1    2    0    0 -0.80618605358E+02 -0.13942425015E+03 -0.29745552301E+03  0.36061512618E+03  0.12500000000E+03 0.  0.
         25    1    1    2    0    0 -0.15597881078E+03  0.16376897937E+03 -0.20634147588E+03  0.33068334202E+03  0.12500000000E+03 0.  0.
</event>
<event>
 5    0  0.5677492E-005  0.3243248E+03  0.7546771E-02  0.1073676E+00
         21   -1    0    0  502  501  0.00000000000E+00  0.00000000000E+00  0.23128232069E+03  0.23128232069E+03  0.00000000000E+00 0.  1.
         21   -1    0    0  501  502 -0.00000000000E+00 -0.00000000000E+00 -0.45479740586E+03  0.45479740586E+03  0.00000000000E+00 0.  1.
         25    1    1    2    0    0  0.98753581485E+02  0.56334606866E+02 -0.27432778271E+03  0.32219030115E+03  0.12500000000E+03 0.  0.
         25    1    1    2    0    0 -0.69798407606E+02  0.69596818965E+02 -0.37562736759E+02  0.16355883989E+03  0.12500000000E+03 0.  0.
         25    1    1    2    0    0 -0.28955173879E+02 -0.12593142583E+03  0.88375434299E+02  0.20033058552E+03  0.12500000000E+03 0.  0.
</event>
<event>
 5    0  0.5677492E-005  0.2617973E+03  0.7546771E-02  0.1106068E+00
         21   -1    0    0  502  501  0.00000000000E+00  0.00000000000E+00  0.14621683262E+04  0.14621683262E+04  0.00000000000E+00 0.  1.
         21   -1    0    0  501  502 -0.00000000000E+00 -0.00000000000E+00 -0.46874091150E+02  0.46874091150E+02  0.00000000000E+00 0.  1.
         25    1    1    2    0    0 -0.18594035206E-01  0.29291203169E+02  0.24450027372E+03  0.27615821331E+03  0.12500000000E+03 0.  0.
         25    1    1    2    0    0 -0.11825903654E+03 -0.20228658912E+02  0.31114571412E+03  0.35613347747E+03  0.12500000000E+03 0.  0.
         25    1    1    2    0    0  0.11827763057E+03 -0.90625442571E+01  0.85964824724E+03  0.87675072659E+03  0.12500000000E+03 0.  0.
</event>
<event>
 5    0  0.5677492E-005  0.2796865E+03  0.7546771E-02  0.1095860E+00
         21   -1    0    0  502  501  0.00000000000E+00  0.00000000000E+00  0.37848994071E+03  0.37848994071E+03  0.00000000000E+00 0.  1.
         21   -1    0    0  501  502 -0.00000000000E+00 -0.00000000000E+00 -0.20667535901E+03  0.20667535901E+03  0.00000000000E+00 0.  1.
         25    1    1    2    0    0 -0.99547942106E+02  0.15290608425E+02  0.22551912305E+02  0.16210238811E+03  0.12500000000E+03 0.  0.
         25    1    1    2    0    0  0.17546922597E+03  0.40704599263E+02  0.15139945209E+03  0.26644531851E+03  0.12500000000E+03 0.  0.
         25    1    1    2    0    0 -0.75921283864E+02 -0.55995207688E+02 -0.21367826969E+01  0.15661759310E+03  0.12500000000E+03 0.  0.
</event>
<event>
 5    0  0.5677492E-005  0.5138190E+03  0.7546771E-02  0.1010234E+00
         21   -1    0    0  502  501  0.00000000000E+00  0.00000000000E+00  0.81547714546E+03  0.81547714546E+03  0.00000000000E+00 0.  1.
         21   -1    0    0  501  502 -0.00000000000E+00 -0.00000000000E+00 -0.32374912493E+03  0.32374912493E+03  0.00000000000E+00 0.  1.
         25    1    1    2    0    0  0.37752344794E+03 -0.12086894445E+03  0.29060269693E+03  0.50715696085E+03  0.12500000000E+03 0.  0.
         25    1    1    2    0    0 -0.10518944063E+03  0.20729773927E+03  0.18003300828E+03  0.31949030533E+03  0.12500000000E+03 0.  0.
         25    1    1    2    0    0 -0.27233400731E+03 -0.86428794820E+02  0.21092315306E+02  0.31257900421E+03  0.12500000000E+03 0.  0.
</event>
<event>
 5    0  0.5677492E-005  0.2092701E+03  0.7546771E-02  0.1142145E+00
         21   -1    0    0  502  501  0.00000000000E+00  0.00000000000E+00  0.21032351388E+02  0.21032351388E+02  0.00000000000E+00 0. -1.
         21   -1    0    0  501  502 -0.00000000000E+00 -0.00000000000E+00 -0.20822189207E+04  0.20822189207E+04  0.00000000000E+00 0. -1.
         25    1    1    2    0    0  0.10850211142E+02 -0.19146487158E+02 -0.75086588113E+03  0.76151748929E+03  0.12500000000E+03 0.  0.
         25    1    1    2    0    0 -0.76547029076E+02  0.13049542245E+02 -0.68874143875E+03  0.70428652384E+03  0.12500000000E+03 0.  0.
         25    1    1    2    0    0  0.65696817934E+02  0.60969449134E+01 -0.62157924944E+03  0.63744725896E+03  0.12500000000E+03 0.  0.
</event>
<event>
 5    0  0.5677492E-005  0.2568857E+03  0.7546771E-02  0.1109029E+00
         21   -1    0    0  502  501  0.00000000000E+00  0.00000000000E+00  0.15211779545E+04  0.15211779545E+04  0.00000000000E+00 0. -1.
         21   -1    0    0  501  502 -0.00000000000E+00 -0.00000000000E+00 -0.43381017167E+02  0.43381017167E+02  0.00000000000E+00 0. -1.
         25    1    1    2    0    0 -0.80822978450E+02 -0.29520991441E+01  0.26354610671E+03  0.30269228450E+03  0.12500000000E+03 0.  0.
         25    1    1    2    0    0  0.14564357395E+03 -0.12517255356E+02  0.54945398793E+03  0.58214552920E+03  0.12500000000E+03 0.  0.
         25    1    1    2    0    0 -0.64820595502E+02  0.15469354500E+02  0.66479684266E+03  0.67972115793E+03  0.12500000000E+03 0.  0.
</event>
<event>
 5    0  0.5677492E-005  0.3472092E+03  0.7546771E-02  0.1063766E+00
         21   -1    0    0  502  501  0.00000000000E+00  0.00000000000E+00  0.38803176624E+03  0.38803176624E+03  0.00000000000E+00 0. -1.
         21   -1    0    0  501  502 -0.00000000000E+00 -0.00000000000E+00 -0.31068141964E+03  0.31068141964E+03  0.00000000000E+00 0. -1.
         25    1    1    2    0    0  0.50268952067E+02  0.78735242887E+02  0.12379586185E+03  0.19918991296E+03  0.12500000000E+03 0.  0.
         25    1    1    2    0    0 -0.79356716300E+02 -0.23278133860E+03 -0.97535756069E+02  0.29261384748E+03  0.12500000000E+03 0.  0.
         25    1    1    2    0    0  0.29087764233E+02  0.15404609572E+03  0.51090240822E+02  0.20690942545E+03  0.12500000000E+03 0.  0.
</event>
<event>
 5    0  0.5677492E-005  0.2622334E+03  0.7546771E-02  0.1105809E+00
         21   -1    0    0  502  501  0.00000000000E+00  0.00000000000E+00  0.13433602429E+04  0.13433602429E+04  0.00000000000E+00 0.  1.
         21   -1    0    0  501  502 -0.00000000000E+00 -0.00000000000E+00 -0.51189826686E+02  0.51189826686E+02  0.00000000000E+00 0.  1.
         25    1    1    2    0    0 -0.24885221070E+02 -0.30420959758E+02  0.15260552443E+03  0.20114212664E+03  0.12500000000E+03 0.  0.
         25    1    1    2    0    0  0.53210330667E+02  0.13447224542E+02  0.18388036304E+03  0.22901780509E+03  0.12500000000E+03 0.  0.
         25    1    1    2    0    0 -0.28325109596E+02  0.16973735216E+02  0.95568452871E+03  0.96439013782E+03  0.12500000000E+03 0.  0.
</event>
<event>
 5    0  0.6405482E-005  0.2795050E+03  0.7546771E-02  0.1095960E+00
         21   -1    0    0  502  501  0.00000000000E+00  0.00000000000E+00  0.29269144584E+03  0.29269144584E+03  0.00000000000E+00 0.  1.
         21   -1    0    0  501  502 -0.00000000000E+00 -0.00000000000E+00 -0.26691258349E+03  0.26691258349E+03  0.00000000000E+00 0.  1.
         25    1    1    2    0    0 -0.90859693652E+02 -0.17326520948E+02 -0.37293631758E+02  0.15991093530E+03  0.12500000000E+03 0.  0.
         25    1    1    2    0    0 -0.88208932850E+02  0.57885363498E+02  0.68918236695E+02  0.17750001265E+03  0.12500000000E+03 0.  0.
         25    1    1    2    0    0  0.17906862650E+03 -0.40558842550E+02 -0.58457425957E+01  0.22219308138E+03  0.12500000000E+03 0.  0.
</event>
<event>
 5    0  0.5677492E-005  0.2612023E+03  0.7546771E-02  0.1106423E+00
         21   -1    0    0  502  501  0.00000000000E+00  0.00000000000E+00  0.57960398688E+02  0.57960398688E+02  0.00000000000E+00 0. -1.
         21   -1    0    0  501  502 -0.00000000000E+00 -0.00000000000E+00 -0.11771254271E+04  0.11771254271E+04  0.00000000000E+00 0. -1.
         25    1    1    2    0    0 -0.10059192234E+03  0.10306636714E+02 -0.12947391588E+03  0.20643027030E+03  0.12500000000E+03 0.  0.
         25    1    1    2    0    0  0.93692589230E+01 -0.89980069953E+01 -0.43934226043E+03  0.45696320305E+03  0.12500000000E+03 0.  0.
         25    1    1    2    0    0  0.91222663418E+02 -0.13086297190E+01 -0.55034885209E+03  0.57169235243E+03  0.12500000000E+03 0.  0.
</event>
<event>
 5    0  0.5677492E-005  0.3309297E+03  0.7546771E-02  0.1070726E+00
         21   -1    0    0  502  501  0.00000000000E+00  0.00000000000E+00  0.98168276434E+02  0.98168276434E+02  0.00000000000E+00 0. -1.
         21   -1    0    0  501  502 -0.00000000000E+00 -0.00000000000E+00 -0.11155786878E+04  0.11155786878E+04  0.00000000000E+00 0. -1.
         25    1    1    2    0    0 -0.12340607420E+03 -0.37828295226E+02 -0.63950242525E+03  0.66426530164E+03  0.12500000000E+03 0.  0.
         25    1    1    2    0    0 -0.17947204299E+02 -0.11242001206E+01 -0.11234559776E+01  0.12629183711E+03  0.12500000000E+03 0.  0.
         25    1    1    2    0    0  0.14135327850E+03  0.38952495346E+02 -0.37678453017E+03  0.42318982550E+03  0.12500000000E+03 0.  0.
</event>
<event>
 5    0  0.5677492E-005  0.2827278E+03  0.7546771E-02  0.1094208E+00
         21   -1    0    0  502  501  0.00000000000E+00  0.00000000000E+00  0.98010329240E+02  0.98010329240E+02  0.00000000000E+00 0.  1.
         21   -1    0    0  501  502 -0.00000000000E+00 -0.00000000000E+00 -0.81557740962E+03  0.81557740962E+03  0.00000000000E+00 0.  1.
         25    1    1    2    0    0  0.45457705886E+02  0.12741956563E+03 -0.13267276457E+03  0.22700046517E+03  0.12500000000E+03 0.  0.
         25    1    1    2    0    0 -0.71354683310E+02 -0.15547429416E+03 -0.25368404441E+03  0.33052131756E+03  0.12500000000E+03 0.  0.
         25    1    1    2    0    0  0.25896977423E+02  0.28054728527E+02 -0.33121027140E+03  0.35606595613E+03  0.12500000000E+03 0.  0.
</event>
<event>
 5    0  0.5677492E-005  0.3921382E+03  0.7546771E-02  0.1046536E+00
         21   -1    0    0  502  501  0.00000000000E+00  0.00000000000E+00  0.27665199087E+03  0.27665199087E+03  0.00000000000E+00 0. -1.
         21   -1    0    0  501  502 -0.00000000000E+00 -0.00000000000E+00 -0.55583333721E+03  0.55583333721E+03  0.00000000000E+00 0. -1.
         25    1    1    2    0    0 -0.15718965263E+03 -0.12613142514E+03 -0.33770341535E+03  0.41265763053E+03  0.12500000000E+03 0.  0.
         25    1    1    2    0    0  0.14054018932E+03 -0.48247313198E+02 -0.87117819272E+01  0.19437140527E+03  0.12500000000E+03 0.  0.
         25    1    1    2    0    0  0.16649463311E+02  0.17437873834E+03  0.67233850932E+02  0.22545629227E+03  0.12500000000E+03 0.  0.
</event>
<event>
 5    0  0.5677492E-005  0.2227896E+03  0.7546771E-02  0.1131820E+00
         21   -1    0    0  502  501  0.00000000000E+00  0.00000000000E+00  0.44463341815E+02  0.44463341815E+02  0.00000000000E+00 0. -1.
         21   -1    0    0  501  502 -0.00000000000E+00 -0.00000000000E+00 -0.11163174575E+04  0.11163174575E+04  0.00000000000E+00 0. -1.
         25    1    1    2    0    0 -0.53016510435E+02 -0.37507765872E+02 -0.31946944005E+03  0.34914653945E+03  0.12500000000E+03 0.  0.
         25    1    1    2    0    0 -0.31862459591E+02  0.65204632720E+02 -0.44706134892E+03  0.46984647510E+03  0.12500000000E+03 0.  0.
         25    1    1    2    0    0  0.84878970026E+02 -0.27696866848E+02 -0.30532332668E+03  0.34178778475E+03  0.12500000000E+03 0.  0.
</event>
<event>
 5    0  0.7211675E-005  0.4333649E+03  0.7546771E-02  0.1032802E+00
         21   -1    0    0  502  501  0.00000000000E+00  0.00000000000E+00  0.70508265558E+03  0.70508265558E+03  0.00000000000E+00 0.  1.
         21   -1    0    0  501  502 -0.00000000000E+00 -0.00000000000E+00 -0.26635901890E+03  0.26635901890E+03  0.00000000000E+00 0.  1.
         25    1    1    2    0    0 -0.14268613551E+03 -0.76885861627E+02  0.37443622266E+03  0.42672971988E+03  0.12500000000E+03 0.  0.
         25    1    1    2    0    0  0.19154264464E+03  0.16807071431E+03  0.18819444470E+03  0.34055616092E+03  0.12500000000E+03 0.  0.
         25    1    1    2    0    0 -0.48856509125E+02 -0.91184852680E+02 -0.12390703068E+03  0.20415579368E+03  0.12500000000E+03 0.  0.
</event>
<event>
 5    0  0.5677492E-005  0.2892631E+03  0.7546771E-02  0.1090735E+00
         21   -1    0    0  502  501  0.00000000000E+00  0.00000000000E+00  0.15917500445E+03  0.15917500445E+03  0.00000000000E+00 0.  1.
         21   -1    0    0  501  502 -0.00000000000E+00 -0.00000000000E+00 -0.52566751526E+03  0.52566751526E+03  0.00000000000E+00 0.  1.
         25    1    1    2    0    0  0.13706779766E+03 -0.96610218980E+02 -0.78964217515E+02  0.22356534439E+03  0.12500000000E+03 0.  0.
         25    1    1    2    0    0 -0.58747104101E+01  0.12413704860E+03 -0.12260418175E+03  0.21471214321E+03  0.12500000000E+03 0.  0.
         25    1    1    2    0    0 -0.13119308725E+03 -0.27526829623E+02 -0.16492411154E+03  0.24656503211E+03  0.12500000000E+03 0.  0.
</event>
<event>
 5    0  0.6197465E-005  0.2897723E+03  0.7546771E-02  0.1090468E+00
         21   -1    0    0  502  501  0.00000000000E+00  0.00000000000E+00  0.20122613884E+03  0.20122613884E+03  0.00000000000E+00 0.  1.
         21   -1    0    0  501  502 -0.00000000000E+00 -0.00000000000E+00 -0.41728164513E+03  0.41728164513E+03  0.00000000000E+00 0.  1.
         25    1    1    2    0    0  0.80173864841E+02  0.26825049378E+02 -0.19267940180E+01  0.15091767429E+03  0.12500000000E+03 0.  0.
         25    1    1    2    0    0 -0.10500794777E+03 -0.59232846137E+02 -0.27296585597E+03  0.32352829502E+03  0.12500000000E+03 0.  0.
         25    1    1    2    0    0  0.24834082924E+02  0.32407796760E+02  0.58837143699E+02  0.14406181466E+03  0.12500000000E+03 0.  0.
</event>
<event>
 5    0  0.5677492E-005  0.2746827E+03  0.7546771E-02  0.1098629E+00
         21   -1    0    0  502  501  0.00000000000E+00  0.00000000000E+00  0.10675540206E+03  0.10675540206E+03  0.00000000000E+00 0. -1.
         21   -1    0    0  501  502 -0.00000000000E+00 -0.00000000000E+00 -0.70676113374E+03  0.70676113374E+03  0.00000000000E+00 0. -1.
         25    1    1    2    0    0  0.11867577775E+03  0.42505927326E+02 -0.91516245062E+02  0.19972710681E+03  0.12500000000E+03 0.  0.
         25    1    1    2    0    0 -0.15968027162E+03  0.68377680938E+01 -0.28651560341E+03  0.35108508258E+03  0.12500000000E+03 0.  0.
         25    1    1    2    0    0  0.41004493871E+02 -0.49343695420E+02 -0.22197388322E+03  0.26270434641E+03  0.12500000000E+03 0.  0.
</event>
<event>
 5    0  0.5677492E-005  0.3107484E+03  0.7546771E-02  0.1079988E+00
         21   -1    0    0  502  501  0.00000000000E+00  0.00000000000E+00  0.12701447115E+03  0.12701447115E+03  0.00000000000E+00 0.  1.
         21   -1    0    0  501  502 -0.00000000000E+00 -0.00000000000E+00 -0.76026448132E+03  0.76026448132E+03  0.00000000000E+00 0.  1.
         25    1    1    2    0    0  0.78350373334E+02  0.13510928337E+03 -0.11783913790E+03  0.23217312910E+03  0.12500000000E+03 0.  0.
         25    1    1    2    0    0 -0.13510071163E+03 -0.78911023681E+01 -0.38554993101E+03  0.42730342975E+03  0.12500000000E+03 0.  0.
         25    1    1    2    0    0  0.56750338295E+02 -0.12721818100E+03 -0.12986094127E+03  0.22780239362E+03  0.12500000000E+03 0.  0.
</event>
<event>
 5    0  0.5677492E-005  0.3459267E+03  0.7546771E-02  0.1064299E+00
         21   -1    0    0  502  501  0.00000000000E+00  0.00000000000E+00  0.14439975053E+03  0.14439975053E+03  0.00000000000E+00 0.  1.
         21   -1    0    0  501  502 -0.00000000000E+00 -0.00000000000E+00 -0.82870818186E+03  0.82870818186E+03  0.00000000000E+00 0.  1.
         25    1    1    2    0    0  0.20680215109E+02  0.18677964823E+03 -0.13963339167E+03  0.26539930738E+03  0.12500000000E+03 0.  0.
         25    1    1    2    0    0  0.84073067771E+02 -0.12906688917E+03 -0.83640537553E+02  0.21528418922E+03  0.12500000000E+03 0.  0.
         25    1    1    2    0    0 -0.10475328288E+03 -0.57712759058E+02 -0.46103450210E+03  0.49242443579E+03  0.12500000000E+03 0.  0.
</event>
<event>
 5    0  0.5677492E-005  0.2869251E+03  0.7546771E-02  0.1091966E+00
         21   -1    0    0  502  501  0.00000000000E+00  0.00000000000E+00  0.67754026533E+02  0.67754026533E+02  0.00000000000E+00 0. -1.
         21   -1    0    0  501  502 -0.00000000000E+00 -0.00000000000E+00 -0.12150717081E+04  0.12150717081E+04  0.00000000000E+00 0. -1.
         25    1    1    2    0    0  0.33243014680E+02  0.18591732141E+03 -0.29893224377E+03  0.37504111080E+03  0.12500000000E+03 0.  0.
         25    1    1    2    0    0 -0.53566024172E+02 -0.98973860919E+02 -0.40475049670E+03  0.43830709402E+03  0.12500000000E+03 0.  0.
         25    1    1    2    0    0  0.20323009492E+02 -0.86943460491E+02 -0.44363494110E+03  0.46947752982E+03  0.12500000000E+03 0.  0.
</event>
<event>
 5    0  0.6238689E-005  0.3147186E+03  0.7546771E-02  0.1078106E+00
         21   -1    0    0  502  501  0.00000000000E+00  0.00000000000E+00  0.52849785999E+03  0.52849785999E+03  0.00000000000E+00 0. -1.
         21   -1    0    0  501  502 -0.00000000000E+00 -0.00000000000E+00 -0.18741375933E+03  0.18741375933E+03  0.00000000000E+00 0. -1.
         25    1    1    2    0    0 -0.81272126051E+02  0.83506520648E+02  0.43775984049E+02  0.17640814676E+03  0.12500000000E+03 0.  0.
         25    1    1    2    0    0  0.70212592351E+02  0.59770952609E+02 -0.32459653196E+02  0.15868523556E+03  0.12500000000E+03 0.  0.
         25    1    1    2    0    0  0.11059533700E+02 -0.14327747326E+03  0.32976776981E+03  0.38081823700E+03  0.12500000000E+03 0.  0.
</event>
<event>
 5    0  0.5677492E-005  0.4439021E+03  0.7546771E-02  0.1029556E+00
         21   -1    0    0  502  501  0.00000000000E+00  0.00000000000E+00  0.32306246093E+03  0.32306246093E+03  0.00000000000E+00 0. -1.
         21   -1    0    0  501  502 -0.00000000000E+00 -0.00000000000E+00 -0.60994107207E+03  0.60994107207E+03  0.00000000000E+00 0. -1.
         25    1    1    2    0    0 -0.73980714267E+02  0.68315095243E+01  0.52734169808E+02  0.15467937248E+03  0.12500000000E+03 0.  0.
         25    1    1    2    0    0 -0.25530060355E+03  0.35902767074E+02 -0.31026086155E+03  0.42232003157E+03  0.12500000000E+03 0.  0.
         25    1    1    2    0    0  0.32928131782E+03 -0.42734276599E+02 -0.29351919405E+02  0.35600412896E+03  0.12500000000E+03 0.  0.
</event>
<event>
 5    0  0.5677492E-005  0.2818823E+03  0.7546771E-02  0.1094665E+00
         21   -1    0    0  502  501  0.00000000000E+00  0.00000000000E+00  0.10377244632E+04  0.10377244632E+04  0.00000000000E+00 0. -1.
         21   -1    0    0  501  502 -0.00000000000E+00 -0.00000000000E+00 -0.76569106788E+02  0.76569106788E+02  0.00000000000E+00 0. -1.
         25    1    1    2    0    0  0.32790518341E+02  0.86722362162E+02  0.16673027468E+03  0.22807886944E+03  0.12500000000E+03 0.  0.
         25    1    1    2    0    0  0.80991569112E+02 -0.14934092260E+03  0.46779855517E+03  0.51314991343E+03  0.12500000000E+03 0.  0.
         25    1    1    2    0    0 -0.11378208745E+03  0.62618560439E+02  0.32662652660E+03  0.37306478716E+03  0.12500000000E+03 0.  0.
</event>
<event>
 5    0  0.5677492E-005  0.4790613E+03  0.7546771E-02  0.1019393E+00
         21   -1    0    0  502  501  0.00000000000E+00  0.00000000000E+00  0.16200782265E+04  0.16200782265E+04  0.00000000000E+00 0. -1.
         21   -1    0    0  501  502 -0.00000000000E+00 -0.00000000000E+00 -0.14165967501E+03  0.14165967501E+03  0.00000000000E+00 0. -1.
         25    1    1    2    0    0  0.68968683902E+02 -0.36977944231E+03  0.43166589117E+03  0.58604944920E+03  0.12500000000E+03 0.  0.
         25    1    1    2    0    0 -0.16694236861E+02  0.10696612406E+02  0.43914795882E+03  0.45702193032E+03  0.12500000000E+03 0.  0.
         25    1    1    2    0    0 -0.52274447040E+02  0.35908282990E+03  0.60760470151E+03  0.71866652200E+03  0.12500000000E+03 0.  0.
</event>
<event>
 5    0  0.5677492E-005  0.3507393E+03  0.7546771E-02  0.1062312E+00
         21   -1    0    0  502  501  0.00000000000E+00  0.00000000000E+00  0.14605386888E+04  0.14605386888E+04  0.00000000000E+00 0.  1.
         21   -1    0    0  501  502 -0.00000000000E+00 -0.00000000000E+00 -0.84227878180E+02  0.84227878180E+02  0.00000000000E+00 0.  1.
         25    1    1    2    0    0 -0.21615996169E+03 -0.75740842709E+01  0.73179246083E+03  0.77325784931E+03  0.12500000000E+03 0.  0.
         25    1    1    2    0    0  0.31968234296E+02  0.16990912284E+02  0.47231763295E+03  0.48991795793E+03  0.12500000000E+03 0.  0.
         25    1    1    2    0    0  0.18419172739E+03 -0.94168280134E+01  0.17220071682E+03  0.28159075973E+03  0.12500000000E+03 0.  0.
</event>
<event>
 5    0  0.5677492E-005  0.2706423E+03  0.7546771E-02  0.1100913E+00
         21   -1    0    0  502  501  0.00000000000E+00  0.00000000000E+00  0.98089158041E+03  0.98089158041E+03  0.00000000000E+00 0. -1.
         21   -1    0    0  501  502 -0.00000000000E+00 -0.00000000000E+00 -0.74674182570E+02  0.74674182570E+02  0.00000000000E+00 0.  1.
         25    1    1    2    0    0 -0.38201072207E+02  0.46428259083E+02  0.16523013265E+03  0.21573340468E+03  0.12500000000E+03 0.  0.
         25    1    1    2    0    0 -0.85618654072E+01 -0.14796235093E+03  0.56226963632E+03  0.59475903252E+03  0.12500000000E+03 0.  0.
         25    1    1    2    0    0  0.46762937614E+02  0.10153409185E+03  0.17871762887E+03  0.24507332579E+03  0.12500000000E+03 0.  0.
</event>
<event>
 5    0  0.5677492E-005  0.2315713E+03  0.7546771E-02  0.1125539E+00
         21   -1    0    0  502  501  0.00000000000E+00  0.00000000000E+00  0.16216460828E+04  0.16216460828E+04  0.00000000000E+00 0.  1.
         21   -1    0    0  501  502 -0.00000000000E+00 -0.00000000000E+00 -0.33068423166E+02  0.33068423166E+02  0.00000000000E+00 0.  1.
         25    1    1    2    0    0  0.76870310537E+02  0.62032864457E+02  0.56506553794E+03  0.58709554852E+03  0.12500000000E+03 0.  0.
         25    1    1    2    0    0  0.17698590272E+02 -0.73342079472E+02  0.52493865167E+03  0.54486501882E+03  0.12500000000E+03 0.  0.
         25    1    1    2    0    0 -0.94568900809E+02  0.11309215015E+02  0.49857347006E+03  0.52275393866E+03  0.12500000000E+03 0.  0.
</event>
<event>
 5    0  0.5677492E-005  0.3728337E+03  0.7546771E-02  0.1053615E+00
         21   -1    0    0  502  501  0.00000000000E+00  0.00000000000E+00  0.93306024840E+02  0.93306024840E+02  0.00000000000E+00 0.  1.
         21   -1    0    0  501  502 -0.00000000000E+00 -0.00000000000E+00 -0.14897750808E+04  0.14897750808E+04  0.00000000000E+00 0.  1.
         25    1    1    2    0    0  0.27208510009E+03 -0.35558433455E+02 -0.39961278042E+03  0.50060970642E+03  0.12500000000E+03 0.  0.
         25    1    1    2    0    0 -0.90429293240E+02 -0.52075293856E+02 -0.58409251320E+03  0.60636487141E+03  0.12500000000E+03 0.  0.
         25    1    1    2    0    0 -0.18165580685E+03  0.87633727310E+02 -0.41276376234E+03  0.47610652781E+03  0.12500000000E+03 0.  0.
</event>
<event>
 5    0  0.5677492E-005  0.3689726E+03  0.7546771E-02  0.1055086E+00
         21   -1    0    0  502  501  0.00000000000E+00  0.00000000000E+00  0.15513984461E+03  0.15513984461E+03  0.00000000000E+00 0. -1.
         21   -1    0    0  501  502 -0.00000000000E+00 -0.00000000000E+00 -0.87753603919E+03  0.87753603919E+03  0.00000000000E+00 0. -1.
         25    1    1    2    0    0  0.16730462340E+03  0.90133848687E+02 -0.46504784613E+03  0.51769628827E+03  0.12500000000E+03 0.  0.
         25    1    1    2    0    0 -0.74733809030E+02 -0.11602604321E+03 -0.29867861697E+03  0.35196747173E+03  0.12500000000E+03 0.  0.
         25    1    1    2    0    0 -0.92570814370E+02  0.25892194527E+02  0.41330268524E+02  0.16301212380E+03  0.12500000000E+03 0.  0.
</event>
<event>
 5    0  0.5677492E-005  0.5442854E+03  0.7546771E-02  0.1002825E+00
         21   -1    0    0  502  501  0.00000000000E+00  0.00000000000E+00  0.76299311523E+03  0.76299311523E+03  0.00000000000E+00 0.  1.
         21   -1    0    0  501  502 -0.00000000000E+00 -0.00000000000E+00 -0.38826904283E+03  0.38826904283E+03  0.00000000000E+00 0.  1.
         25    1    1    2    0    0 -0.24368321131E+03  0.15988601070E+03 -0.10612914616E+03  0.33441507077E+03  0.12500000000E+03 0.  0.
         25    1    1    2    0    0  0.34960197647E+03 -0.26201005039E+03  0.40733558828E+03  0.61026067376E+03  0.12500000000E+03 0.  0.
         25    1    1    2    0    0 -0.10591876515E+03  0.10212403969E+03  0.73517630286E+02  0.20658641353E+03  0.12500000000E+03 0.  0.
</event>
<event>
 5    0  0.5677492E-005  0.3170749E+03  0.7546771E-02  0.1077003E+00
         21   -1    0    0  502  501  0.00000000000E+00  0.00000000000E+00  0.32788961205E+03  0.32788961205E+03  0.00000000000E+00 0. -1.
         21   -1    0    0  501  502 -0.00000000000E+00 -0.00000000000E+00 -0.30661696968E+03  0.30661696968E+03  0.00000000000E+00 0. -1.
         25    1    1    2    0    0 -0.47483347601E+02 -0.66618631827E+02 -0.76937581536E+02  0.16803898910E+03  0.12500000000E+03 0.  0.
         25    1    1    2    0    0  0.75179558186E+02 -0.14642780158E+03  0.31106119667E+02  0.20901114258E+03  0.12500000000E+03 0.  0.
         25    1    1    2    0    0 -0.27696210585E+02  0.21304643340E+03  0.67104104241E+02  0.25745645005E+03  0.12500000000E+03 0.  0.
</event>
<event>
 5    0  0.5677492E-005  0.2206125E+03  0.7546771E-02  0.1133427E+00
         21   -1    0    0  502  501  0.00000000000E+00  0.00000000000E+00  0.87096517151E+03  0.87096517151E+03  0.00000000000E+00 0. -1.
         21   -1    0    0  501  502 -0.00000000000E+00 -0.00000000000E+00 -0.55880396610E+02  0.55880396610E+02  0.00000000000E+00 0. -1.
         25    1    1    2    0    0  0.92666182357E+02  0.37364473048E+02  0.27947385445E+03  0.32204620867E+03  0.12500000000E+03 0.  0.
         25    1    1    2    0    0 -0.69613217212E+02  0.52352488412E+01  0.32506635324E+03  0.35519929877E+03  0.12500000000E+03 0.  0.
         25    1    1    2    0    0 -0.23052965145E+02 -0.42599721889E+02  0.21054456721E+03  0.24960006068E+03  0.12500000000E+03 0.  0.
</event>
<event>
 5    0  0.5677492E-005  0.2428099E+03  0.7546771E-02  0.1117935E+00
         21   -1    0    0  502  501  0.00000000000E+00  0.00000000000E+00  0.40276735576E+02  0.40276735576E+02  0.00000000000E+00 0. -1.
         21   -1    0    0  501  502 -0.00000000000E+00 -0.00000000000E+00 -0.14637889117E+04  0.14637889117E+04  0.00000000000E+00 0. -1.
         25    1    1    2    0    0 -0.69583465772E+02  0.11520689019E+02 -0.89761989421E+03  0.90902203464E+03  0.12500000000E+03 0.  0.
         25    1    1    2    0    0  0.77580079060E+02  0.20480780095E+02 -0.30054089169E+03  0.33524313356E+03  0.12500000000E+03 0.  0.
         25    1    1    2    0    0 -0.79966132880E+01 -0.32001469115E+02 -0.22535139020E+03  0.25980047905E+03  0.12500000000E+03 0.  0.
</event>
<event>
 5    0  0.5677492E-005  0.4309877E+03  0.7546771E-02  0.1033548E+00
         21   -1    0    0  502  501  0.00000000000E+00  0.00000000000E+00  0.94848783303E+03  0.94848783303E+03  0.00000000000E+00 0. -1.
         21   -1    0    0  501  502 -0.00000000000E+00 -0.00000000000E+00 -0.19583845311E+03  0.19583845311E+03  0.00000000000E+00 0. -1.
         25    1    1    2    0    0 -0.40501949344E+02 -0.14535329492E+02  0.26967862800E+03  0.30033855248E+03  0.12500000000E+03 0.  0.
         25    1    1    2    0    0  0.20636253953E+03  0.22265701209E+03  0.43670124516E+03  0.54634661184E+03  0.12500000000E+03 0.  0.
         25    1    1    2    0    0 -0.16586059018E+03 -0.20812168260E+03  0.46269506758E+02  0.29764112182E+03  0.12500000000E+03 0.  0.
</event>
<event>
 5    0  0.5677492E-005  0.2839407E+03  0.7546771E-02  0.1093556E+00
         21   -1    0    0  502  501  0.00000000000E+00  0.00000000000E+00  0.39550677028E+03  0.39550677028E+03  0.00000000000E+00 0.  1.
         21   -1    0    0  501  502 -0.00000000000E+00 -0.00000000000E+00 -0.20384568576E+03  0.20384568576E+03  0.00000000000E+00 0.  1.
         25    1    1    2    0    0 -0.13809047643E+02  0.34222632530E+02  0.13281446694E+03  0.18608213510E+03  0.12500000000E+03 0.  0.
         25    1    1    2    0    0 -0.61173405888E+02  0.11794280547E+03 -0.29482794359E+02  0.18478886902E+03  0.12500000000E+03 0.  0.
         25    1    1    2    0    0  0.74982453532E+02 -0.15216543800E+03  0.88329411941E+02  0.22848145193E+03  0.12500000000E+03 0.  0.
</event>
<event>
 5    0  0.5677492E-005  0.4493248E+03  0.7546771E-02  0.1027924E+00
         21   -1    0    0  502  501  0.00000000000E+00  0.00000000000E+00  0.20434426940E+03  0.20434426940E+03  0.00000000000E+00 0.  1.
         21   -1    0    0  501  502 -0.00000000000E+00 -0.00000000000E+00 -0.98800311344E+03  0.98800311344E+03  0.00000000000E+00 0.  1.
         25    1    1    2    0    0  0.74002671969E+02 -0.37027671973E+03 -0.26604957505E+03  0.47852755513E+03  0.12500000000E+03 0.  0.
         25    1    1    2    0    0 -0.99354266447E+02  0.18102694177E+03 -0.37084263037E+03  0.44248308488E+03  0.12500000000E+03 0.  0.
         25    1    1    2    0    0  0.25351594478E+02  0.18924977795E+03 -0.14676663861E+03  0.27133674283E+03  0.12500000000E+03 0.  0.
</event>
<event>
 5    0  0.5677492E-005  0.3159832E+03  0.7546771E-02  0.1077513E+00
         21   -1    0    0  502  501  0.00000000000E+00  0.00000000000E+00  0.22872094290E+03  0.22872094290E+03  0.00000000000E+00 0.  1.
         21   -1    0    0  501  502 -0.00000000000E+00 -0.00000000000E+00 -0.43653792240E+03  0.43653792240E+03  0.00000000000E+00 0.  1.
         25    1    1    2    0    0  0.85612183624E+02  0.49838244362E+02 -0.15673151168E+02  0.16026211110E+03  0.12500000000E+03 0.  0.
         25    1    1    2    0    0 -0.17731465670E+02 -0.21085607294E+03 -0.14392231161E+03  0.28480400304E+03  0.12500000000E+03 0.  0.
         25    1    1    2    0    0 -0.67880717954E+02  0.16101782857E+03 -0.48221516723E+02  0.22019275116E+03  0.12500000000E+03 0.  0.
</event>
<event>
 5    0  0.5677492E-005  0.5390095E+03  0.7546771E-02  0.1004070E+00
         21   -1    0    0  502  501  0.00000000000E+00  0.00000000000E+00  0.12393602326E+04  0.12393602326E+04  0.00000000000E+00 0.  1.
         21   -1    0    0  501  502 -0.00000000000E+00 -0.00000000000E+00 -0.23442032660E+03  0.23442032660E+03  0.00000000000E+00 0.  1.
         25    1    1    2    0    0 -0.57401835330E+02  0.15780054823E+03  0.20625128686E+03  0.29387170169E+03  0.12500000000E+03 0.  0.
         25    1    1    2    0    0  0.10927241813E+03  0.14838807840E+03  0.81487671468E+03  0.84475353998E+03  0.12500000000E+03 0.  0.
         25    1    1    2    0    0 -0.51870582799E+02 -0.30618862663E+03 -0.16188095545E+02  0.33515531754E+03  0.12500000000E+03 0.  0.
</event>
<event>
 5    0  0.5677492E-005  0.3100502E+03  0.7546771E-02  0.1080322E+00
         21   -1    0    0  502  501  0.00000000000E+00  0.00000000000E+00  0.21376595549E+04  0.21376595549E+04  0.00000000000E+00 0. -1.
         21   -1    0    0  501  502 -0.00000000000E+00 -0.00000000000E+00 -0.44970278698E+02  0.44970278698E+02  0.00000000000E+00 0. -1.
         25    1    1    2    0    0 -0.13459136264E+03  0.12508602247E+03  0.76384072587E+03  0.79551178647E+03  0.12500000000E+03 0.  0.
         25    1    1    2    0    0  0.43521893181E+02 -0.11391993367E+03  0.30386594147E+03  0.35047313286E+03  0.12500000000E+03 0.  0.
         25    1    1    2    0    0  0.91069469455E+02 -0.11166088800E+02  0.10249826089E+04  0.10366449143E+04  0.12500000000E+03 0.  0.
</event>
<event>
 5    0  0.5677492E-005  0.2914197E+03  0.7546771E-02  0.1089610E+00
         21   -1    0    0  502  501  0.00000000000E+00  0.00000000000E+00  0.56121717187E+02  0.56121717187E+02  0.00000000000E+00 0.  1.
         21   -1    0    0  501  502 -0.00000000000E+00 -0.00000000000E+00 -0.15132363250E+04  0.15132363250E+04  0.00000000000E+00 0.  1.
         25    1    1    2    0    0  0.11464597162E+03  0.10410323539E+03 -0.35454151182E+03  0.40657824097E+03  0.12500000000E+03 0.  0.
         25    1    1    2    0    0 -0.35820160379E+02 -0.15559146885E+03 -0.48487816648E+03  0.52556981020E+03  0.12500000000E+03 0.  0.
         25    1    1    2    0    0 -0.78825811242E+02  0.51488233461E+02 -0.61769492951E+03  0.63720999101E+03  0.12500000000E+03 0.  0.
</event>
<event>
 5    0  0.5677492E-005  0.3040383E+03  0.7546771E-02  0.1083239E+00
         21   -1    0    0  502  501  0.00000000000E+00  0.00000000000E+00  0.47025501074E+03  0.47025501074E+03  0.00000000000E+00 0. -1.
         21   -1    0    0  501  502 -0.00000000000E+00 -0.00000000000E+00 -0.19657271637E+03  0.19657271637E+03  0.00000000000E+00 0. -1.
         25    1    1    2    0    0 -0.43990582540E+02  0.11156087640E+03  0.11880835755E+03  0.21005100885E+03  0.12500000000E+03 0.  0.
         25    1    1    2    0    0  0.57129390720E+02 -0.12827070220E+03  0.23939900943E+03  0.30439123845E+03  0.12500000000E+03 0.  0.
         25    1    1    2    0    0 -0.13138808180E+02  0.16709825803E+02 -0.84525072611E+02  0.15238547982E+03  0.12500000000E+03 0.  0.
</event>
<event>
 5    0  0.5677492E-005  0.3556019E+03  0.7546771E-02  0.1060339E+00
         21   -1    0    0  502  501  0.00000000000E+00  0.00000000000E+00  0.61609300597E+03  0.61609300597E+03  0.00000000000E+00 0. -1.
         21   -1    0    0  501  502 -0.00000000000E+00 -0.00000000000E+00 -0.20524939646E+03  0.20524939646E+03  0.00000000000E+00 0. -1.
         25    1    1    2    0    0  0.19830523656E+03 -0.14237294523E+03  0.52684378930E+02  0.27927704196E+03  0.12500000000E+03 0.  0.
         25    1    1    2    0    0 -0.16775995585E+02  0.13528366526E+03  0.14098771954E+03  0.23256319824E+03  0.12500000000E+03 0.  0.
         25    1    1    2    0    0 -0.18152924098E+03  0.70892799708E+01  0.21717151104E+03  0.30950216223E+03  0.12500000000E+03 0.  0.
</event>
<event>
 5    0  0.6143001E-005  0.2798188E+03  0.7546771E-02  0.1095788E+00
         21   -1    0    0  502  501  0.00000000000E+00  0.00000000000E+00  0.46262392675E+03  0.46262392675E+03  0.00000000000E+00 0. -1.
         21   -1    0    0  501  502 -0.00000000000E+00 -0.00000000000E+00 -0.16924887991E+03  0.16924887991E+03  0.00000000000E+00 0. -1.
         25    1    1    2    0    0  0.10202806969E+03  0.14059953599E+03  0.21248690312E+03  0.30158521270E+03  0.12500000000E+03 0.  0.
         25    1    1    2    0    0 -0.68111275758E+02 -0.45687007650E+02 -0.21385863439E+01  0.14951930345E+03  0.12500000000E+03 0.  0.
         25    1    1    2    0    0 -0.33916793933E+02 -0.94912528340E+02  0.83026730063E+02  0.18076829050E+03  0.12500000000E+03 0.  0.
</event>
<event>
 5    0  0.5677492E-005  0.3370713E+03  0.7546771E-02  0.1068050E+00
         21   -1    0    0  502  501  0.00000000000E+00  0.00000000000E+00  0.90839525559E+03  0.90839525559E+03  0.00000000000E+00 0.  1.
         21   -1    0    0  501  502 -0.00000000000E+00 -0.00000000000E+00 -0.12507444238E+03  0.12507444238E+03  0.00000000000E+00 0.  1.
         25    1    1    2    0    0  0.37740155925E+01 -0.64618115603E+02  0.28253179393E+03  0.31565639331E+03  0.12500000000E+03 0.  0.
         25    1    1    2    0    0 -0.76355924564E+01  0.21335837270E+03  0.89787258933E+02  0.26318595962E+03  0.12500000000E+03 0.  0.
         25    1    1    2    0    0  0.38615768639E+01 -0.14874025710E+03  0.41100176035E+03  0.45462734505E+03  0.12500000000E+03 0.  0.
</event>
<event>
 5    0  0.5677492E-005  0.2767487E+03  0.7546771E-02  0.1097478E+00
         21   -1    0    0  502  501  0.00000000000E+00  0.00000000000E+00  0.37686598415E+03  0.37686598415E+03  0.00000000000E+00 0.  1.
         21   -1    0    0  501  502 -0.00000000000E+00 -0.00000000000E+00 -0.20322838315E+03  0.20322838315E+03  0.00000000000E+00 0.  1.
         25    1    1    2    0    0 -0.71392531318E+02  0.43218676955E+02 -0.92234932093E+02  0.17634350077E+03  0.12500000000E+03 0.  0.
         25    1    1    2    0    0  0.56068018542E+02  0.51367906701E+02  0.12477284459E+03  0.19229026832E+03  0.12500000000E+03 0.  0.
         25    1    1    2    0    0  0.15324512776E+02 -0.94586583656E+02  0.14109968850E+03  0.21146059821E+03  0.12500000000E+03 0.  0.
</event>
<event>
 5    0  0.5677492E-005  0.2354026E+03  0.7546771E-02  0.1122894E+00
         21   -1    0    0  502  501  0.00000000000E+00  0.00000000000E+00  0.39256324491E+03  0.39256324491E+03  0.00000000000E+00 0.  1.
         21   -1    0    0  501  502 -0.00000000000E+00 -0.00000000000E+00 -0.14116038232E+03  0.14116038232E+03  0.00000000000E+00 0.  1.
         25    1    1    2    0    0 -0.62784181713E+02  0.59463622038E+02  0.85725739813E+02  0.17450409246E+03  0.12500000000E+03 0.  0.
         25    1    1    2    0    0  0.63527765994E+02 -0.90740055404E+02  0.15835833492E+03  0.23015624464E+03  0.12500000000E+03 0.  0.
         25    1    1    2    0    0 -0.74358428089E+00  0.31276433366E+02  0.73187878548E+01  0.12906329012E+03  0.12500000000E+03 0.  0.
</event>
<event>
 5    0  0.5677492E-005  0.2348415E+03  0.7546771E-02  0.1123278E+00
         21   -1    0    0  502  501  0.00000000000E+00  0.00000000000E+00  0.95492426086E+02  0.95492426086E+02  0.00000000000E+00 0. -1.
         21   -1    0    0  501  502 -0.00000000000E+00 -0.00000000000E+00 -0.57753832129E+03  0.57753832129E+03  0.00000000000E+00 0. -1.
         25    1    1    2    0    0 -0.32961554056E+02  0.96143955878E+02 -0.21610257497E+03  0.26954674401E+03  0.12500000000E+03 0.  0.
         25    1    1    2    0    0  0.12563242512E+02 -0.79885943570E+02 -0.22422448936E+03  0.26914906775E+03  0.12500000000E+03 0.  0.
         25    1    1    2    0    0  0.20398311543E+02 -0.16258012309E+02 -0.41718830879E+02  0.13433493562E+03  0.12500000000E+03 0.  0.
</event>
<event>
 5    0  0.5677492E-005  0.3074506E+03  0.7546771E-02  0.1081574E+00
         21   -1    0    0  502  501  0.00000000000E+00  0.00000000000E+00  0.91501238038E+03  0.91501238038E+03  0.00000000000E+00 0.  1.
         21   -1    0    0  501  502 -0.00000000000E+00 -0.00000000000E+00 -0.10330556442E+03  0.10330556442E+03  0.00000000000E+00 0.  1.
         25    1    1    2    0    0  0.14689199558E+03  0.61092796030E+02  0.52941682523E+03  0.56675988119E+03  0.12500000000E+03 0.  0.
         25    1    1    2    0    0 -0.96021471209E+02  0.29626296914E+01  0.33202978458E+02  0.16110970761E+03  0.12500000000E+03 0.  0.
         25    1    1    2    0    0 -0.50870524370E+02 -0.64055425722E+02  0.24908701227E+03  0.29044835599E+03  0.12500000000E+03 0.  0.
</event>
<event>
 5    0  0.5677492E-005  0.2671131E+03  0.7546771E-02  0.1102943E+00
         21   -1    0    0  502  501  0.00000000000E+00  0.00000000000E+00  0.32450448574E+03  0.32450448574E+03  0.00000000000E+00 0. -1.
         21   -1    0    0  501  502 -0.00000000000E+00 -0.00000000000E+00 -0.21987192902E+03  0.21987192902E+03  0.00000000000E+00 0. -1.
         25    1    1    2    0    0  0.29558002583E+02  0.10473695247E+03  0.54148385066E+02  0.17435754166E+03  0.12500000000E+03 0.  0.
         25    1    1    2    0    0 -0.27433070412E+02  0.45400420767E+02 -0.56727255316E+02  0.14716233572E+03  0.12500000000E+03 0.  0.
         25    1    1    2    0    0 -0.21249321707E+01 -0.15013737324E+03  0.10721142698E+03  0.22285653738E+03  0.12500000000E+03 0.  0.
</event>
<event>
 5    0  0.5677492E-005  0.2944343E+03  0.7546771E-02  0.1088056E+00
         21   -1    0    0  502  501  0.00000000000E+00  0.00000000000E+00  0.71589935210E+02  0.71589935210E+02  0.00000000000E+00 0.  1.
         21   -1    0    0  501  502 -0.00000000000E+00 -0.00000000000E+00 -0.12109458494E+04  0.12109458494E+04  0.00000000000E+00 0.  1.
         25    1    1    2    0    0 -0.59307221281E+02  0.70705293685E+02 -0.55870522891E+03  0.57990785291E+03  0.12500000000E+03 0.  0.
         25    1    1    2    0    0  0.12842277101E+03 -0.13672551627E+03 -0.42619830934E+03  0.48213719396E+03  0.12500000000E+03 0.  0.
         25    1    1    2    0    0 -0.69115549725E+02  0.66020222587E+02 -0.15445237598E+03  0.22049073779E+03  0.12500000000E+03 0.  0.
</event>
<event>
 5    0  0.6589689E-005  0.2544096E+03  0.7546771E-02  0.1110549E+00
         21   -1    0    0  502  501  0.00000000000E+00  0.00000000000E+00  0.13774039696E+03  0.13774039696E+03  0.00000000000E+00 0. -1.
         21   -1    0    0  501  502 -0.00000000000E+00 -0.00000000000E+00 -0.46990016523E+03  0.46990016523E+03  0.00000000000E+00 0. -1.
         25    1    1    2    0    0  0.55084889671E+01  0.34109628923E+02 -0.22701940406E+01  0.12970722423E+03  0.12500000000E+03 0.  0.
         25    1    1    2    0    0 -0.73778849055E+02  0.32374442206E+02 -0.49941784602E+02  0.15687767504E+03  0.12500000000E+03 0.  0.
         25    1    1    2    0    0  0.68270360088E+02 -0.66484071129E+02 -0.27994778962E+03  0.32105566292E+03  0.12500000000E+03 0.  0.
</event>
<event>
 5    0  0.5677492E-005  0.4125938E+03  0.7546771E-02  0.1039504E+00
         21   -1    0    0  502  501  0.00000000000E+00  0.00000000000E+00  0.46476941327E+03  0.46476941327E+03  0.00000000000E+00 0.  1.
         21   -1    0    0  501  502 -0.00000000000E+00 -0.00000000000E+00 -0.36627543747E+03  0.36627543747E+03  0.00000000000E+00 0.  1.
         25    1    1    2    0    0  0.13513505052E+03 -0.12618170271E+03  0.15648184425E+03  0.27257085603E+03  0.12500000000E+03 0.  0.
         25    1    1    2    0    0 -0.71016735201E+02  0.21300755701E+03 -0.21162856437E+03  0.33290726228E+03  0.12500000000E+03 0.  0.
         25    1    1    2    0    0 -0.64118315323E+02 -0.86825854301E+02  0.15364069592E+03  0.22556673242E+03  0.12500000000E+03 0.  0.
</event>
<event>
 5    0  0.5677492E-005  0.2885002E+03  0.7546771E-02  0.1091135E+00
         21   -1    0    0  502  501  0.00000000000E+00  0.00000000000E+00  0.81704462460E+03  0.81704462460E+03  0.00000000000E+00 0.  1.
         21   -1    0    0  501  502 -0.00000000000E+00 -0.00000000000E+00 -0.10187001827E+03  0.10187001827E+03  0.00000000000E+00 0.  1.
         25    1    1    2    0    0 -0.71258365513E+02  0.58226093280E+02  0.25239743931E+03  0.29630642917E+03  0.12500000000E+03 0.  0.
         25    1    1    2    0    0  0.17995230989E+03 -0.46214075722E+02  0.36968087132E+03  0.43221235666E+03  0.12500000000E+03 0.  0.
         25    1    1    2    0    0 -0.10869394437E+03 -0.12012017557E+02  0.93096295688E+02  0.19039585704E+03  0.12500000000E+03 0.  0.
</event>
<event>
 5    0  0.5677492E-005  0.3265004E+03  0.7546771E-02  0.1072696E+00
         21   -1    0    0  502  501  0.00000000000E+00  0.00000000000E+00  0.22918204549E+03  0.22918204549E+03  0.00000000000E+00 0.  1.
         21   -1    0    0  501  502 -0.00000000000E+00 -0.00000000000E+00 -0.46514328337E+03  0.46514328337E+03  0.00000000000E+00 0.  1.
         25    1    1    2    0    0  0.19192108175E+03  0.57954998157E+02 -0.15347885444E+03  0.28173257212E+03  0.12500000000E+03 0.  0.
         25    1    1    2    0    0 -0.12969329565E+03  0.84066733728E+02 -0.77535799899E+02  0.21336439938E+03  0.12500000000E+03 0.  0.
         25    1    1    2    0    0 -0.62227786101E+02 -0.14202173189E+03 -0.49465835289E+01  0.19922835737E+03  0.12500000000E+03 0.  0.
</event>
<event>
 5    0  0.5677492E-005  0.4214322E+03  0.7546771E-02  0.1036601E+00
         21   -1    0    0  502  501  0.00000000000E+00  0.00000000000E+00  0.60900231081E+03  0.60900231081E+03  0.00000000000E+00 0.  1.
         21   -1    0    0  501  502 -0.00000000000E+00 -0.00000000000E+00 -0.29163288674E+03  0.29163288674E+03  0.00000000000E+00 0.  1.
         25    1    1    2    0    0 -0.12381284604E+02  0.26814714170E+03  0.38868958591E+02  0.29865026662E+03  0.12500000000E+03 0.  0.
         25    1    1    2    0    0  0.17815540939E+03 -0.14947045941E+03  0.24559570403E+03  0.36058704631E+03  0.12500000000E+03 0.  0.
         25    1    1    2    0    0 -0.16577412479E+03 -0.11867668229E+03  0.32904761448E+02  0.24139788461E+03  0.12500000000E+03 0.  0.
</event>
<event>
 5    0  0.5677492E-005  0.2400604E+03  0.7546771E-02  0.1119753E+00
         21   -1    0    0  502  501  0.00000000000E+00  0.00000000000E+00  0.10807757882E+03  0.10807757882E+03  0.00000000000E+00 0. -1.
         21   -1    0    0  501  502 -0.00000000000E+00 -0.00000000000E+00 -0.53321876215E+03  0.53321876215E+03  0.00000000000E+00 0. -1.
         25    1    1    2    0    0  0.10616634180E+01 -0.19260977298E+02 -0.21737579347E+03  0.25149423047E+03  0.12500000000E+03 0.  0.
         25    1    1    2    0    0  0.46491864632E+02 -0.30716929526E+02  0.10282976087E+01  0.13686153818E+03  0.12500000000E+03 0.  0.
         25    1    1    2    0    0 -0.47553528050E+02  0.49977906824E+02 -0.20879368747E+03  0.25294057232E+03  0.12500000000E+03 0.  0.
</event>
<event>
 5    0  0.5677492E-005  0.5675767E+03  0.7546771E-02  0.9975056E-01
         21   -1    0    0  502  501  0.00000000000E+00  0.00000000000E+00  0.15706040751E+04  0.15706040751E+04  0.00000000000E+00 0.  1.
         21   -1    0    0  501  502 -0.00000000000E+00 -0.00000000000E+00 -0.20510787042E+03  0.20510787042E+03  0.00000000000E+00 0.  1.
         25    1    1    2    0    0  0.24504648543E+02  0.18675605737E+03  0.43517894617E+03  0.49039169850E+03  0.12500000000E+03 0.  0.
         25    1    1    2    0    0 -0.15952817172E+03 -0.43997851574E+03  0.27001762742E+03  0.55458529642E+03  0.12500000000E+03 0.  0.
         25    1    1    2    0    0  0.13502352317E+03  0.25322245837E+03  0.66029963110E+03  0.73073495062E+03  0.12500000000E+03 0.  0.
</event>
<event>
 5    0  0.5677492E-005  0.3376375E+03  0.7546771E-02  0.1067807E+00
         21   -1    0    0  502  501  0.00000000000E+00  0.00000000000E+00  0.15168808356E+03  0.15168808356E+03  0.00000000000E+00 0. -1.
         21   -1    0    0  501  502 -0.00000000000E+00 -0.00000000000E+00 -0.75153637645E+03  0.75153637645E+03  0.00000000000E+00 0. -1.
         25    1    1    2    0    0  0.17339774722E+03 -0.91911726798E+02 -0.30369195030E+03  0.38258116125E+03  0.12500000000E+03 0.  0.
         25    1    1    2    0    0 -0.18065530241E+03  0.13239409529E+03 -0.29245649291E+03  0.38899914525E+03  0.12500000000E+03 0.  0.
         25    1    1    2    0    0  0.72575551950E+01 -0.40482368490E+02 -0.36998496773E+01  0.13164415351E+03  0.12500000000E+03 0.  0.
</event>
<event>
 5    0  0.5677492E-005  0.2712135E+03  0.7546771E-02  0.1100587E+00
         21   -1    0    0  502  501  0.00000000000E+00  0.00000000000E+00  0.40941677597E+03  0.40941677597E+03  0.00000000000E+00 0. -1.
         21   -1    0    0  501  502 -0.00000000000E+00 -0.00000000000E+00 -0.17966236976E+03  0.17966236976E+03  0.00000000000E+00 0. -1.
         25    1    1    2    0    0  0.58313093438E+02 -0.39583611565E+01  0.13177082458E+03  0.19079998873E+03  0.12500000000E+03 0.  0.
         25    1    1    2    0    0 -0.13196802558E+03 -0.37182311412E+02  0.15017613597E+03  0.23869636753E+03  0.12500000000E+03 0.  0.
         25    1    1    2    0    0  0.73654932141E+02  0.41140672569E+02 -0.52192554330E+02  0.15958278947E+03  0.12500000000E+03 0.  0.
</event>
<event>
 5    0  0.5677492E-005  0.2700244E+03  0.7546771E-02  0.1101266E+00
         21   -1    0    0  502  501  0.00000000000E+00  0.00000000000E+00  0.55857432221E+02  0.55857432221E+02  0.00000000000E+00 0.  1.
         21   -1    0    0  501  502 -0.00000000000E+00 -0.00000000000E+00 -0.13053438532E+04  0.13053438532E+04  0.00000000000E+00 0.  1.
         25    1    1    2    0    0  0.10549274618E+03 -0.12961733883E+03 -0.39924144743E+03  0.45049762193E+03  0.12500000000E+03 0.  0.
         25    1    1    2    0    0 -0.32167142603E+02  0.11963986193E+03 -0.38521952917E+03  0.42351801294E+03  0.12500000000E+03 0.  0.
         25    1    1    2    0    0 -0.73325603575E+02  0.99774768997E+01 -0.46502544438E+03  0.48718565056E+03  0.12500000000E+03 0.  0.
</event>
<event>
 5    0  0.5677492E-005  0.3061523E+03  0.7546771E-02  0.1082205E+00
         21   -1    0    0  502  501  0.00000000000E+00  0.00000000000E+00  0.55802565235E+03  0.55802565235E+03  0.00000000000E+00 0.  1.
         21   -1    0    0  501  502 -0.00000000000E+00 -0.00000000000E+00 -0.16796577908E+03  0.16796577908E+03  0.00000000000E+00 0.  1.
         25    1    1    2    0    0 -0.76226632698E+02 -0.87612403642E+02  0.30844071769E+02  0.17338624388E+03  0.12500000000E+03 0.  0.
         25    1    1    2    0    0  0.64855140017E+02  0.22421368109E+02  0.38345159655E+03  0.40910760666E+03  0.12500000000E+03 0.  0.
         25    1    1    2    0    0  0.11371492681E+02  0.65191035533E+02 -0.24235795042E+02  0.14349758089E+03  0.12500000000E+03 0.  0.
</event>
<event>
 5    0  0.5677492E-005  0.2383076E+03  0.7546771E-02  0.1120925E+00
         21   -1    0    0  502  501  0.00000000000E+00  0.00000000000E+00  0.55555313154E+02  0.55555313154E+02  0.00000000000E+00 0.  1.
         21   -1    0    0  501  502 -0.00000000000E+00 -0.00000000000E+00 -0.10222334088E+04  0.10222334088E+04  0.00000000000E+00 0.  1.
         25    1    1    2    0    0 -0.61655952792E+02 -0.77821665027E+01 -0.52623222475E+03  0.54443307485E+03  0.12500000000E+03 0.  0.
         25    1    1    2    0    0  0.32302988434E+02  0.81328913408E+02 -0.21311821753E+03  0.26211114028E+03  0.12500000000E+03 0.  0.
         25    1    1    2    0    0  0.29352964358E+02 -0.73546746905E+02 -0.22732765341E+03  0.27124450686E+03  0.12500000000E+03 0.  0.
</event>
<event>
 5    0  0.5677492E-005  0.3164960E+03  0.7546771E-02  0.1077273E+00
         21   -1    0    0  502  501  0.00000000000E+00  0.00000000000E+00  0.10943096592E+03  0.10943096592E+03  0.00000000000E+00 0.  1.
         21   -1    0    0  501  502 -0.00000000000E+00 -0.00000000000E+00 -0.91536888586E+03  0.91536888586E+03  0.00000000000E+00 0.  1.
         25    1    1    2    0    0 -0.51735393546E+02 -0.30760098651E+02 -0.11054176851E+03  0.17739001437E+03  0.12500000000E+03 0.  0.
         25    1    1    2    0    0 -0.12508622748E+03 -0.12068205359E+03 -0.24631585735E+03  0.32635444527E+03  0.12500000000E+03 0.  0.
         25    1    1    2    0    0  0.17682162103E+03  0.15144215224E+03 -0.44908029409E+03  0.52105539214E+03  0.12500000000E+03 0.  0.
</event>
<event>
 5    0  0.5677492E-005  0.3490190E+03  0.7546771E-02  0.1063018E+00
         21   -1    0    0  502  501  0.00000000000E+00  0.00000000000E+00  0.20989012780E+03  0.20989012780E+03  0.00000000000E+00 0. -1.
         21   -1    0    0  501  502 -0.00000000000E+00 -0.00000000000E+00 -0.58037142507E+03  0.58037142507E+03  0.00000000000E+00 0. -1.
         25    1    1    2    0    0  0.13180327137E+03  0.17811883293E+03 -0.30641165254E+02  0.25624656485E+03  0.12500000000E+03 0.  0.
         25    1    1    2    0    0 -0.12331117976E+03 -0.13600002336E+03 -0.33476528027E+03  0.40173927650E+03  0.12500000000E+03 0.  0.
         25    1    1    2    0    0 -0.84920916087E+01 -0.42118809572E+02 -0.50748517464E+01  0.13227571153E+03  0.12500000000E+03 0.  0.
</event>
<event>
 5    0  0.5677492E-005  0.2846626E+03  0.7546771E-02  0.1093169E+00
         21   -1    0    0  502  501  0.00000000000E+00  0.00000000000E+00  0.42275163711E+03  0.42275163711E+03  0.00000000000E+00 0. -1.
         21   -1    0    0  501  502 -0.00000000000E+00 -0.00000000000E+00 -0.19167942440E+03  0.19167942440E+03  0.00000000000E+00 0. -1.
         25    1    1    2    0    0  0.11610136216E+03  0.13700196693E+03  0.49051033866E+02  0.22423217691E+03  0.12500000000E+03 0.  0.
         25    1    1    2    0    0 -0.14128893877E+03 -0.76400958925E+02  0.97835698683E+02  0.22582403477E+03  0.12500000000E+03 0.  0.
         25    1    1    2    0    0  0.25187576609E+02 -0.60601008007E+02  0.84185480163E+02  0.16437484983E+03  0.12500000000E+03 0.  0.
</event>
<event>
 5    0  0.5677492E-005  0.3923525E+03  0.7546771E-02  0.1046460E+00
         21   -1    0    0  502  501  0.00000000000E+00  0.00000000000E+00  0.15051803067E+03  0.15051803067E+03  0.00000000000E+00 0.  1.
         21   -1    0    0  501  502 -0.00000000000E+00 -0.00000000000E+00 -0.10227379278E+04  0.10227379278E+04  0.00000000000E+00 0.  1.
         25    1    1    2    0    0  0.19733491452E+03  0.52756498535E+02 -0.28641251124E+03  0.37333824237E+03  0.12500000000E+03 0.  0.
         25    1    1    2    0    0 -0.16221490552E+03  0.15343434389E+02 -0.98579293021E+01  0.20559979407E+03  0.12500000000E+03 0.  0.
         25    1    1    2    0    0 -0.35120008998E+02 -0.68099932924E+02 -0.57594945663E+03  0.59431792206E+03  0.12500000000E+03 0.  0.
</event>
<event>
 5    0  0.5677492E-005  0.2640549E+03  0.7546771E-02  0.1104731E+00
         21   -1    0    0  502  501  0.00000000000E+00  0.00000000000E+00  0.18581403150E+03  0.18581403150E+03  0.00000000000E+00 0.  1.
         21   -1    0    0  501  502 -0.00000000000E+00 -0.00000000000E+00 -0.37524075857E+03  0.37524075857E+03  0.00000000000E+00 0.  1.
         25    1    1    2    0    0  0.95173527721E+02 -0.44422335650E+02 -0.32498860445E+02  0.16647077886E+03  0.12500000000E+03 0.  0.
         25    1    1    2    0    0 -0.15102286529E+03 -0.12355770387E+02 -0.28541423545E+02  0.19849479530E+03  0.12500000000E+03 0.  0.
         25    1    1    2    0    0  0.55849337567E+02  0.56778106038E+02 -0.12838644308E+03  0.19608921591E+03  0.12500000000E+03 0.  0.
</event>
<event>
 5    0  0.5677492E-005  0.2800341E+03  0.7546771E-02  0.1095670E+00
         21   -1    0    0  502  501  0.00000000000E+00  0.00000000000E+00  0.18707724656E+03  0.18707724656E+03  0.00000000000E+00 0. -1.
         21   -1    0    0  501  502 -0.00000000000E+00 -0.00000000000E+00 -0.41918037029E+03  0.41918037029E+03  0.00000000000E+00 0. -1.
         25    1    1    2    0    0  0.10925631046E+03  0.56960532177E+02 -0.14098007882E+03  0.22512624508E+03  0.12500000000E+03 0.  0.
         25    1    1    2    0    0 -0.11099139933E+03 -0.13184667157E+03 -0.73224307337E+01  0.21302876220E+03  0.12500000000E+03 0.  0.
         25    1    1    2    0    0  0.17350888755E+01  0.74886139396E+02 -0.83800614177E+02  0.16810260957E+03  0.12500000000E+03 0.  0.
</event>
<event>
 5    0  0.5677492E-005  0.3379242E+03  0.7546771E-02  0.1067683E+00
         21   -1    0    0  502  501  0.00000000000E+00  0.00000000000E+00  0.37911876857E+03  0.37911876857E+03  0.00000000000E+00 0.  1.
         21   -1    0    0  501  502 -0.00000000000E+00 -0.00000000000E+00 -0.30120582445E+03  0.30120582445E+03  0.00000000000E+00 0.  1.
         25    1    1    2    0    0  0.24720837392E+02  0.11630426114E+03 -0.16176396350E+03  0.23649604827E+03  0.12500000000E+03 0.  0.
         25    1    1    2    0    0 -0.25455145766E+01 -0.18340336661E+03  0.18908219533E+03  0.29158249453E+03  0.12500000000E+03 0.  0.
         25    1    1    2    0    0 -0.22175322816E+02  0.67099105472E+02  0.50594712284E+02  0.15224605022E+03  0.12500000000E+03 0.  0.
</event>
<event>
 5    0  0.5677492E-005  0.3108392E+03  0.7546771E-02  0.1079944E+00
         21   -1    0    0  502  501  0.00000000000E+00  0.00000000000E+00  0.50519655618E+03  0.50519655618E+03  0.00000000000E+00 0. -1.
         21   -1    0    0  501  502 -0.00000000000E+00 -0.00000000000E+00 -0.19125430833E+03  0.19125430833E+03  0.00000000000E+00 0. -1.
         25    1    1    2    0    0  0.49752419674E+01  0.12014671403E+03  0.33482079954E+03  0.37708083182E+03  0.12500000000E+03 0.  0.
         25    1    1    2    0    0  0.19429410164E+02 -0.10329559098E+03  0.52341249506E+02  0.17149952623E+03  0.12500000000E+03 0.  0.
         25    1    1    2    0    0 -0.24404652132E+02 -0.16851123044E+02 -0.73219801199E+02  0.14787050646E+03  0.12500000000E+03 0.  0.
</event>
<event>
 5    0  0.5677492E-005  0.4219270E+03  0.7546771E-02  0.1036441E+00
         21   -1    0    0  502  501  0.00000000000E+00  0.00000000000E+00  0.32219248055E+03  0.32219248055E+03  0.00000000000E+00 0.  1.
         21   -1    0    0  501  502 -0.00000000000E+00 -0.00000000000E+00 -0.55253419861E+03  0.55253419861E+03  0.00000000000E+00 0.  1.
         25    1    1    2    0    0 -0.17087420626E+03  0.24788568019E+02 -0.15122112775E+03  0.26135282081E+03  0.12500000000E+03 0.  0.
         25    1    1    2    0    0 -0.17098495663E+03  0.84409245645E+02 -0.37724452695E+02  0.23110367906E+03  0.12500000000E+03 0.  0.
         25    1    1    2    0    0  0.34185916289E+03 -0.10919781366E+03 -0.41396137623E+02  0.38227017928E+03  0.12500000000E+03 0.  0.
</event>
<event>
 5    0  0.5677492E-005  0.2816083E+03  0.7546771E-02  0.1094814E+00
         21   -1    0    0  502  501  0.00000000000E+00  0.00000000000E+00  0.38920407273E+02  0.38920407273E+02  0.00000000000E+00 0. -1.
         21   -1    0    0  501  502 -0.00000000000E+00 -0.00000000000E+00 -0.20375745843E+04  0.20375745843E+04  0.00000000000E+00 0. -1.
         25    1    1    2    0    0  0.18477788156E+03  0.17915249389E+02 -0.69307923805E+03  0.72831837261E+03  0.12500000000E+03 0.  0.
         25    1    1    2    0    0 -0.21681250137E+02 -0.75117466905E+01 -0.40870699772E+03  0.42801041218E+03  0.12500000000E+03 0.  0.
         25    1    1    2    0    0 -0.16309663142E+03 -0.10403502699E+02 -0.89686794124E+03  0.92016620677E+03  0.12500000000E+03 0.  0.
</event>
<event>
 5    0  0.5677492E-005  0.3061863E+03  0.7546771E-02  0.1082188E+00
         21   -1    0    0  502  501  0.00000000000E+00  0.00000000000E+00  0.64953386224E+02  0.64953386224E+02  0.00000000000E+00 0.  1.
         21   -1    0    0  501  502 -0.00000000000E+00 -0.00000000000E+00 -0.14433439377E+04  0.14433439377E+04  0.00000000000E+00 0.  1.
         25    1    1    2    0    0  0.11313655675E+03  0.14754272973E+02 -0.22661561980E+03  0.28283777715E+03  0.12500000000E+03 0.  0.
         25    1    1    2    0    0  0.86765200772E+02  0.63356474861E+02 -0.36684473246E+03  0.40217197902E+03  0.12500000000E+03 0.  0.
         25    1    1    2    0    0 -0.19990175753E+03 -0.78110747834E+02 -0.78493019926E+03  0.82328756780E+03  0.12500000000E+03 0.  0.
</event>
<event>
 5    0  0.5677492E-005  0.4192541E+03  0.7546771E-02  0.1037309E+00
         21   -1    0    0  502  501  0.00000000000E+00  0.00000000000E+00  0.18830555281E+03  0.18830555281E+03  0.00000000000E+00 0.  1.
         21   -1    0    0  501  502 -0.00000000000E+00 -0.00000000000E+00 -0.93345103457E+03  0.93345103457E+03  0.00000000000E+00 0.  1.
         25    1    1    2    0    0  0.21654315980E+03  0.11799707715E+03 -0.49970954347E+03  0.57109445638E+03  0.12500000000E+03 0.  0.
         25    1    1    2    0    0 -0.14563803199E+03  0.73101040916E+02 -0.23391470497E+03  0.31128007926E+03  0.12500000000E+03 0.  0.
         25    1    1    2    0    0 -0.70905127808E+02 -0.19109811807E+03 -0.11521233315E+02  0.23938205174E+03  0.12500000000E+03 0.  0.
</event>
<event>
 5    0  0.5677492E-005  0.2656245E+03  0.7546771E-02  0.1103810E+00
         21   -1    0    0  502  501  0.00000000000E+00  0.00000000000E+00  0.10565149862E+04  0.10565149862E+04  0.00000000000E+00 0.  1.
         21   -1    0    0  501  502 -0.00000000000E+00 -0.00000000000E+00 -0.66782198351E+02  0.66782198351E+02  0.00000000000E+00 0.  1.
         25    1    1    2    0    0 -0.11516042207E+02 -0.53622631407E+02  0.30135585433E+03  0.33082980030E+03  0.12500000000E+03 0.  0.
         25    1    1    2    0    0  0.86842627424E+02 -0.94135726556E+02  0.25078243159E+03  0.30809090370E+03  0.12500000000E+03 0.  0.
         25    1    1    2    0    0 -0.75326585217E+02  0.14775835796E+03  0.43759450196E+03  0.48437648057E+03  0.12500000000E+03 0.  0.
</event>
<event>
 5    0  0.5677492E-005  0.2989663E+03  0.7546771E-02  0.1085758E+00
         21   -1    0    0  502  501  0.00000000000E+00  0.00000000000E+00  0.77809003338E+02  0.77809003338E+02  0.00000000000E+00 0.  1.
         21   -1    0    0  501  502 -0.00000000000E+00 -0.00000000000E+00 -0.11487213781E+04  0.11487213781E+04  0.00000000000E+00 0.  1.
         25    1    1    2    0    0 -0.56619361338E+02 -0.53050998108E+02 -0.39043953876E+03  0.41723877325E+03  0.12500000000E+03 0.  0.
         25    1    1    2    0    0 -0.58551246933E+01  0.98410579337E+02 -0.57555357516E+02  0.16928243792E+03  0.12500000000E+03 0.  0.
         25    1    1    2    0    0  0.62474486031E+02 -0.45359581229E+02 -0.62291747845E+03  0.64000917023E+03  0.12500000000E+03 0.  0.
</event>
<event>
 5    0  0.6098461E-005  0.2814334E+03  0.7546771E-02  0.1094909E+00
         21   -1    0    0  502  501  0.00000000000E+00  0.00000000000E+00  0.39301118912E+03  0.39301118912E+03  0.00000000000E+00 0.  1.
         21   -1    0    0  501  502 -0.00000000000E+00 -0.00000000000E+00 -0.20153304857E+03  0.20153304857E+03  0.00000000000E+00 0.  1.
         25    1    1    2    0    0 -0.43227335628E+02  0.79407578380E+02  0.99518182353E+02  0.18358386277E+03  0.12500000000E+03 0.  0.
         25    1    1    2    0    0  0.86148515108E+02 -0.99854078549E+02 -0.75400303951E+02  0.19672978802E+03  0.12500000000E+03 0.  0.
         25    1    1    2    0    0 -0.42921179480E+02  0.20446500168E+02  0.16736026215E+03  0.21423058690E+03  0.12500000000E+03 0.  0.
</event>
<event>
 5    0  0.5677492E-005  0.3056715E+03  0.7546771E-02  0.1082439E+00
         21   -1    0    0  502  501  0.00000000000E+00  0.00000000000E+00  0.41462522009E+03  0.41462522009E+03  0.00000000000E+00 0.  1.
         21   -1    0    0  501  502 -0.00000000000E+00 -0.00000000000E+00 -0.22534828881E+03  0.22534828881E+03  0.00000000000E+00 0.  1.
         25    1    1    2    0    0  0.10853415438E+03  0.82768890334E+02  0.15150932583E+03  0.23918701404E+03  0.12500000000E+03 0.  0.
         25    1    1    2    0    0  0.35025147221E+02  0.67178956062E+02 -0.29905762959E+02  0.14919493200E+03  0.12500000000E+03 0.  0.
         25    1    1    2    0    0 -0.14355930160E+03 -0.14994784640E+03  0.67673368408E+02  0.25159156287E+03  0.12500000000E+03 0.  0.
</event>
<event>
 5    0  0.5677492E-005  0.2969765E+03  0.7546771E-02  0.1086762E+00
         21   -1    0    0  502  501  0.00000000000E+00  0.00000000000E+00  0.52695778732E+02  0.52695778732E+02  0.00000000000E+00 0.  1.
         21   -1    0    0  501  502 -0.00000000000E+00 -0.00000000000E+00 -0.16736638704E+04  0.16736638704E+04  0.00000000000E+00 0.  1.
         25    1    1    2    0    0  0.58938281130E+02  0.38256492325E+02 -0.11324570402E+03  0.18272074230E+03  0.12500000000E+03 0.  0.
         25    1    1    2    0    0 -0.77740569062E+02  0.63266981933E+02 -0.92540805735E+03  0.93917590455E+03  0.12500000000E+03 0.  0.
         25    1    1    2    0    0  0.18802287932E+02 -0.10152347426E+03 -0.58231433032E+03  0.60446300230E+03  0.12500000000E+03 0.  0.
</event>
<event>
 5    0  0.5677492E-005  0.2577614E+03  0.7546771E-02  0.1108496E+00
         21   -1    0    0  502  501  0.00000000000E+00  0.00000000000E+00  0.22794956956E+03  0.22794956956E+03  0.00000000000E+00 0.  1.
         21   -1    0    0  501  502 -0.00000000000E+00 -0.00000000000E+00 -0.29147202556E+03  0.29147202556E+03  0.00000000000E+00 0.  1.
         25    1    1    2    0    0 -0.63586697820E+00 -0.69201963824E+02  0.11047729771E+03  0.18060882989E+03  0.12500000000E+03 0.  0.
         25    1    1    2    0    0  0.23201052983E+02  0.77469068048E+02 -0.40356689671E+02  0.15425111917E+03  0.12500000000E+03 0.  0.
         25    1    1    2    0    0 -0.22565186005E+02 -0.82671042248E+01 -0.13364306404E+03  0.18456164606E+03  0.12500000000E+03 0.  0.
</event>
<event>
 5    0  0.5677492E-005  0.4721331E+03  0.7546771E-02  0.1021320E+00
         21   -1    0    0  502  501  0.00000000000E+00  0.00000000000E+00  0.15811143873E+04  0.15811143873E+04  0.00000000000E+00 0. -1.
         21   -1    0    0  501  502 -0.00000000000E+00 -0.00000000000E+00 -0.14098262890E+03  0.14098262890E+03  0.00000000000E+00 0. -1.
         25    1    1    2    0    0 -0.13694664075E+03  0.38438208437E+03  0.77882312695E+03  0.88808469882E+03  0.12500000000E+03 0.  0.
         25    1    1    2    0    0  0.21461775621E+02 -0.14486181195E+03  0.38604059365E+03  0.43139064932E+03  0.12500000000E+03 0.  0.
         25    1    1    2    0    0  0.11548486513E+03 -0.23952027242E+03  0.27526803783E+03  0.40262166810E+03  0.12500000000E+03 0.  0.
</event>
<event>
 5    0  0.5677492E-005  0.2076003E+03  0.7546771E-02  0.1143481E+00
         21   -1    0    0  502  501  0.00000000000E+00  0.00000000000E+00  0.13649870912E+04  0.13649870912E+04  0.00000000000E+00 0. -1.
         21   -1    0    0  501  502 -0.00000000000E+00 -0.00000000000E+00 -0.31573827130E+02  0.31573827130E+02  0.00000000000E+00 0. -1.
         25    1    1    2    0    0 -0.68554490610E+01  0.37330683854E+02  0.46823965914E+03  0.48612133827E+03  0.12500000000E+03 0.  0.
         25    1    1    2    0    0  0.26956919937E+02 -0.23625887013E+02  0.24546685547E+03  0.27778379219E+03  0.12500000000E+03 0.  0.
         25    1    1    2    0    0 -0.20101470876E+02 -0.13704796842E+02  0.61970674947E+03  0.63265578787E+03  0.12500000000E+03 0.  0.
</event>
<event>
 5    0  0.5677492E-005  0.4598063E+03  0.7546771E-02  0.1024837E+00
         21   -1    0    0  502  501  0.00000000000E+00  0.00000000000E+00  0.14924021967E+04  0.14924021967E+04  0.00000000000E+00 0.  1.
         21   -1    0    0  501  502 -0.00000000000E+00 -0.00000000000E+00 -0.14166542611E+03  0.14166542611E+03  0.00000000000E+00 0.  1.
         25    1    1    2    0    0 -0.14643124220E+03 -0.86232038083E+01  0.14772439947E+03  0.24282497098E+03  0.12500000000E+03 0.  0.
         25    1    1    2    0    0  0.21741400998E+03 -0.22808099371E+03  0.32130480657E+03  0.46706698680E+03  0.12500000000E+03 0.  0.
         25    1    1    2    0    0 -0.70982767784E+02  0.23670419752E+03  0.88170756455E+03  0.92417566503E+03  0.12500000000E+03 0.  0.
</event>
<event>
 5    0  0.5677492E-005  0.4083440E+03  0.7546771E-02  0.1040928E+00
         21   -1    0    0  502  501  0.00000000000E+00  0.00000000000E+00  0.36794338718E+03  0.36794338718E+03  0.00000000000E+00 0. -1.
         21   -1    0    0  501  502 -0.00000000000E+00 -0.00000000000E+00 -0.45318066959E+03  0.45318066959E+03  0.00000000000E+00 0. -1.
         25    1    1    2    0    0 -0.25630939076E+03  0.32098011862E+02 -0.64718648272E+02  0.29417391045E+03  0.12500000000E+03 0.  0.
         25    1    1    2    0    0  0.54120102536E+02  0.13861378512E+03 -0.10691425722E+03  0.22180718050E+03  0.12500000000E+03 0.  0.
         25    1    1    2    0    0  0.20218928822E+03 -0.17071179699E+03  0.86395623072E+02  0.30514296582E+03  0.12500000000E+03 0.  0.
</event>
<event>
 5    0  0.5677492E-005  0.4622689E+03  0.7546771E-02  0.1024125E+00
         21   -1    0    0  502  501  0.00000000000E+00  0.00000000000E+00  0.45129607176E+03  0.45129607176E+03  0.00000000000E+00 0.  1.
         21   -1    0    0  501  502 -0.00000000000E+00 -0.00000000000E+00 -0.47350852970E+03  0.47350852970E+03  0.00000000000E+00 0.  1.
         25    1    1    2    0    0 -0.25816967684E+03 -0.37916924616E+02 -0.30772276791E+02  0.29096599154E+03  0.12500000000E+03 0.  0.
         25    1    1    2    0    0  0.34994889812E+03  0.17721792409E+03 -0.56293086883E+02  0.41552898280E+03  0.12500000000E+03 0.  0.
         25    1    1    2    0    0 -0.91779221277E+02 -0.13930099947E+03  0.64852905739E+02  0.21830962712E+03  0.12500000000E+03 0.  0.
</event>
<event>
 5    0  0.5677492E-005  0.5415697E+03  0.7546771E-02  0.1003464E+00
         21   -1    0    0  502  501  0.00000000000E+00  0.00000000000E+00  0.70550882065E+03  0.70550882065E+03  0.00000000000E+00 0. -1.
         21   -1    0    0  501  502 -0.00000000000E+00 -0.00000000000E+00 -0.41572506383E+03  0.41572506383E+03  0.00000000000E+00 0. -1.
         25    1    1    2    0    0 -0.40840753588E+03  0.11977061548E+02  0.29719008328E+03  0.52046816518E+03  0.12500000000E+03 0.  0.
         25    1    1    2    0    0  0.29154904004E+03 -0.15998415859E+03 -0.78049515194E+02  0.36374785301E+03  0.12500000000E+03 0.  0.
         25    1    1    2    0    0  0.11685849584E+03  0.14800709704E+03  0.70643188737E+02  0.23701786629E+03  0.12500000000E+03 0.  0.
</event>
<event>
 5    0  0.5677492E-005  0.3272241E+03  0.7546771E-02  0.1072372E+00
         21   -1    0    0  502  501  0.00000000000E+00  0.00000000000E+00  0.70221451091E+03  0.70221451091E+03  0.00000000000E+00 0.  1.
         21   -1    0    0  501  502 -0.00000000000E+00 -0.00000000000E+00 -0.15248280892E+03  0.15248280892E+03  0.00000000000E+00 0.  1.
         25    1    1    2    0    0  0.11091119048E+03  0.10846205990E+03  0.26131709495E+03  0.32859843993E+03  0.12500000000E+03 0.  0.
         25    1    1    2    0    0 -0.70660528613E+02  0.11255193343E+03  0.10781276397E+03  0.21191847512E+03  0.12500000000E+03 0.  0.
         25    1    1    2    0    0 -0.40250661864E+02 -0.22101399333E+03  0.18060184307E+03  0.31418040478E+03  0.12500000000E+03 0.  0.
</event>
<event>
 5    0  0.5677492E-005  0.4050341E+03  0.7546771E-02  0.1042050E+00
         21   -1    0    0  502  501  0.00000000000E+00  0.00000000000E+00  0.38304549306E+03  0.38304549306E+03  0.00000000000E+00 0. -1.
         21   -1    0    0  501  502 -0.00000000000E+00 -0.00000000000E+00 -0.42828492271E+03  0.42828492271E+03  0.00000000000E+00 0. -1.
         25    1    1    2    0    0  0.31659444308E+03  0.45697886398E+02 -0.83529120655E+02  0.35344370444E+03  0.12500000000E+03 0.  0.
         25    1    1    2    0    0 -0.67615823498E+02 -0.53729416073E+02 -0.58559514318E+02  0.16282802724E+03  0.12500000000E+03 0.  0.
         25    1    1    2    0    0 -0.24897861958E+03  0.80315296745E+01  0.96849205328E+02  0.29505868408E+03  0.12500000000E+03 0.  0.
</event>
<event>
 5    0  0.5677492E-005  0.3614915E+03  0.7546771E-02  0.1057995E+00
         21   -1    0    0  502  501  0.00000000000E+00  0.00000000000E+00  0.71233062431E+02  0.71233062431E+02  0.00000000000E+00 0.  1.
         21   -1    0    0  501  502 -0.00000000000E+00 -0.00000000000E+00 -0.18344867467E+04  0.18344867467E+04  0.00000000000E+00 0.  1.
         25    1    1    2    0    0  0.16683874709E+03  0.19980620732E+03 -0.95507346702E+03  0.99777152466E+03  0.12500000000E+03 0.  0.
         25    1    1    2    0    0 -0.11861862611E+03 -0.44799936005E+02 -0.20820842652E+03  0.27395832092E+03  0.12500000000E+03 0.  0.
         25    1    1    2    0    0 -0.48220120984E+02 -0.15500627132E+03 -0.59997179070E+03  0.63398996353E+03  0.12500000000E+03 0.  0.
</event>
<event>
 5    0  0.6293528E-005  0.3115060E+03  0.7546771E-02  0.1079626E+00
         21   -1    0    0  502  501  0.00000000000E+00  0.00000000000E+00  0.17791382255E+03  0.17791382255E+03  0.00000000000E+00 0.  1.
         21   -1    0    0  501  502 -0.00000000000E+00 -0.00000000000E+00 -0.54541013454E+03  0.54541013454E+03  0.00000000000E+00 0.  1.
         25    1    1    2    0    0  0.32716301516E+02  0.40309528503E+02 -0.30638136396E+03  0.33494739088E+03  0.12500000000E+03 0.  0.
         25    1    1    2    0    0  0.20263401957E+01 -0.14271255140E+03  0.40983655289E+02  0.19410213389E+03  0.12500000000E+03 0.  0.
         25    1    1    2    0    0 -0.34742641712E+02  0.10240302290E+03 -0.10209860333E+03  0.19427443232E+03  0.12500000000E+03 0.  0.
</event>
<event>
 5    0  0.5677492E-005  0.2207639E+03  0.7546771E-02  0.1133315E+00
         21   -1    0    0  502  501  0.00000000000E+00  0.00000000000E+00  0.71882582051E+02  0.71882582051E+02  0.00000000000E+00 0. -1.
         21   -1    0    0  501  502 -0.00000000000E+00 -0.00000000000E+00 -0.67800444585E+03  0.67800444585E+03  0.00000000000E+00 0. -1.
         25    1    1    2    0    0 -0.24679600810E+02  0.16990953616E+02 -0.16192772116E+03  0.20674467848E+03  0.12500000000E+03 0.  0.
         25    1    1    2    0    0 -0.43821372532E+02  0.62097397512E+02 -0.17127819186E+03  0.22525012425E+03  0.12500000000E+03 0.  0.
         25    1    1    2    0    0  0.68500973342E+02 -0.79088351128E+02 -0.27291595078E+03  0.31789222517E+03  0.12500000000E+03 0.  0.
</event>
<event>
 5    0  0.5677492E-005  0.3968601E+03  0.7546771E-02  0.1044872E+00
         21   -1    0    0  502  501  0.00000000000E+00  0.00000000000E+00  0.24156163869E+04  0.24156163869E+04  0.00000000000E+00 0. -1.
         21   -1    0    0  501  502 -0.00000000000E+00 -0.00000000000E+00 -0.65199881906E+02  0.65199881906E+02  0.00000000000E+00 0. -1.
         25    1    1    2    0    0  0.78268098802E+02  0.28580259182E+03  0.97562462795E+03  0.10272669718E+04  0.12500000000E+03 0.  0.
         25    1    1    2    0    0  0.71985227547E+02 -0.16681745386E+03  0.89814092703E+03  0.92482001531E+03  0.12500000000E+03 0.  0.
         25    1    1    2    0    0 -0.15025332635E+03 -0.11898513796E+03  0.47665094999E+03  0.52872928163E+03  0.12500000000E+03 0.  0.
</event>
<event>
 5    0  0.6563510E-005  0.4514866E+03  0.7546771E-02  0.1027280E+00
         21   -1    0    0  502  501  0.00000000000E+00  0.00000000000E+00  0.88075167783E+03  0.88075167783E+03  0.00000000000E+00 0.  1.
         21   -1    0    0  501  502 -0.00000000000E+00 -0.00000000000E+00 -0.23143882432E+03  0.23143882432E+03  0.00000000000E+00 0.  1.
         25    1    1    2    0    0  0.53422924429E+02  0.15721233253E+03  0.48167546439E+03  0.52460078093E+03  0.12500000000E+03 0.  0.
         25    1    1    2    0    0 -0.26458731890E+03 -0.58278865505E+02  0.80792423913E+02  0.30912018901E+03  0.12500000000E+03 0.  0.
         25    1    1    2    0    0  0.21116439447E+03 -0.98933467025E+02  0.86844965209E+02  0.27846953222E+03  0.12500000000E+03 0.  0.
</event>
<event>
 5    0  0.5677492E-005  0.4078299E+03  0.7546771E-02  0.1041102E+00
         21   -1    0    0  502  501  0.00000000000E+00  0.00000000000E+00  0.60589404483E+03  0.60589404483E+03  0.00000000000E+00 0.  1.
         21   -1    0    0  501  502 -0.00000000000E+00 -0.00000000000E+00 -0.27451212192E+03  0.27451212192E+03  0.00000000000E+00 0.  1.
         25    1    1    2    0    0 -0.64908535437E+02  0.38094679988E+02 -0.15091766577E+03  0.20991775641E+03  0.12500000000E+03 0.  0.
         25    1    1    2    0    0 -0.15759403162E+03 -0.39999415809E+02  0.16459193146E+03  0.26296641605E+03  0.12500000000E+03 0.  0.
         25    1    1    2    0    0  0.22250256706E+03  0.19047358213E+01  0.31770765722E+03  0.40752199428E+03  0.12500000000E+03 0.  0.
</event>
<event>
 5    0  0.5677492E-005  0.5354674E+03  0.7546771E-02  0.1004915E+00
         21   -1    0    0  502  501  0.00000000000E+00  0.00000000000E+00  0.13309200620E+04  0.13309200620E+04  0.00000000000E+00 0.  1.
         21   -1    0    0  501  502 -0.00000000000E+00 -0.00000000000E+00 -0.21543394195E+03  0.21543394195E+03  0.00000000000E+00 0.  1.
         25    1    1    2    0    0  0.17748065056E+03  0.28062529086E+03  0.88680884475E+03  0.95514651353E+03  0.12500000000E+03 0.  0.
         25    1    1    2    0    0 -0.13749562012E+03  0.39056149292E+02  0.13556973922E+03  0.23331219973E+03  0.12500000000E+03 0.  0.
         25    1    1    2    0    0 -0.39985030436E+02 -0.31968144015E+03  0.93107536106E+02  0.35789529072E+03  0.12500000000E+03 0.  0.
</event>
<event>
 5    0  0.5677492E-005  0.2374944E+03  0.7546771E-02  0.1121473E+00
         21   -1    0    0  502  501  0.00000000000E+00  0.00000000000E+00  0.10642814419E+04  0.10642814419E+04  0.00000000000E+00 0.  1.
         21   -1    0    0  501  502 -0.00000000000E+00 -0.00000000000E+00 -0.52996854619E+02  0.52996854619E+02  0.00000000000E+00 0.  1.
         25    1    1    2    0    0  0.21119607548E+02 -0.87825589356E+02  0.58230153957E+03  0.60237816607E+03  0.12500000000E+03 0.  0.
         25    1    1    2    0    0  0.19570992755E+00  0.93220498491E+02  0.20649982673E+03  0.25876104436E+03  0.12500000000E+03 0.  0.
         25    1    1    2    0    0 -0.21315317475E+02 -0.53949091353E+01  0.22248322099E+03  0.25613908609E+03  0.12500000000E+03 0.  0.
</event>
<event>
 5    0  0.5677492E-005  0.2693843E+03  0.7546771E-02  0.1101633E+00
         21   -1    0    0  502  501  0.00000000000E+00  0.00000000000E+00  0.37756565412E+03  0.37756565412E+03  0.00000000000E+00 0.  1.
         21   -1    0    0  501  502 -0.00000000000E+00 -0.00000000000E+00 -0.19219935594E+03  0.19219935594E+03  0.00000000000E+00 0.  1.
         25    1    1    2    0    0  0.93173471616E+02 -0.94304688038E+02  0.60319169110E+02  0.19193246771E+03  0.12500000000E+03 0.  0.
         25    1    1    2    0    0 -0.72810089720E+02 -0.58613620544E+02  0.35761809785E+02  0.16012736405E+03  0.12500000000E+03 0.  0.
         25    1    1    2    0    0 -0.20363381896E+02  0.15291830858E+03  0.89285319284E+02  0.21770517831E+03  0.12500000000E+03 0.  0.
</event>
<event>
 5    0  0.5677492E-005  0.4805068E+03  0.7546771E-02  0.1018996E+00
         21   -1    0    0  502  501  0.00000000000E+00  0.00000000000E+00  0.26303558846E+03  0.26303558846E+03  0.00000000000E+00 0. -1.
         21   -1    0    0  501  502 -0.00000000000E+00 -0.00000000000E+00 -0.87777768561E+03  0.87777768561E+03  0.00000000000E+00 0. -1.
         25    1    1    2    0    0  0.23182726741E+03 -0.35404905237E+02 -0.34767751066E+03  0.43760946133E+03  0.12500000000E+03 0.  0.
         25    1    1    2    0    0  0.12158803203E+03 -0.97737908604E+02 -0.22838699789E+03  0.30351601130E+03  0.12500000000E+03 0.  0.
         25    1    1    2    0    0 -0.35341529944E+03  0.13314281384E+03 -0.38677588607E+02  0.39968780144E+03  0.12500000000E+03 0.  0.
</event>
<event>
 5    0  0.5677492E-005  0.4693414E+03  0.7546771E-02  0.1022106E+00
         21   -1    0    0  502  501  0.00000000000E+00  0.00000000000E+00  0.12884286785E+03  0.12884286785E+03  0.00000000000E+00 0. -1.
         21   -1    0    0  501  502 -0.00000000000E+00 -0.00000000000E+00 -0.17096897977E+04  0.17096897977E+04  0.00000000000E+00 0. -1.
         25    1    1    2    0    0  0.27225917239E+03 -0.23653657404E+03 -0.82458128765E+03  0.90864399395E+03  0.12500000000E+03 0.  0.
         25    1    1    2    0    0 -0.25908119092E+03  0.18243281885E+03 -0.30121942191E+03  0.45471192750E+03  0.12500000000E+03 0.  0.
         25    1    1    2    0    0 -0.13177981471E+02  0.54103755197E+02 -0.45504622028E+03  0.47517674407E+03  0.12500000000E+03 0.  0.
</event>
<event>
 5    0  0.5677492E-005  0.4805040E+03  0.7546771E-02  0.1018997E+00
         21   -1    0    0  502  501  0.00000000000E+00  0.00000000000E+00  0.14032556610E+03  0.14032556610E+03  0.00000000000E+00 0.  1.
         21   -1    0    0  501  502 -0.00000000000E+00 -0.00000000000E+00 -0.16453455702E+04  0.16453455702E+04  0.00000000000E+00 0.  1.
         25    1    1    2    0    0 -0.95278020892E+02  0.85777840553E+02 -0.31911402767E+03  0.36591597649E+03  0.12500000000E+03 0.  0.
         25    1    1    2    0    0 -0.28014832948E+03 -0.14754846216E+03 -0.32678433360E+03  0.47187565722E+03  0.12500000000E+03 0.  0.
         25    1    1    2    0    0  0.37542635037E+03  0.61770621605E+02 -0.85912164280E+03  0.94787950256E+03  0.12500000000E+03 0.  0.
</event>
<event>
 5    0  0.5677492E-005  0.2863344E+03  0.7546771E-02  0.1092279E+00
         21   -1    0    0  502  501  0.00000000000E+00  0.00000000000E+00  0.60263363432E+02  0.60263363432E+02  0.00000000000E+00 0.  1.
         21   -1    0    0  501  502 -0.00000000000E+00 -0.00000000000E+00 -0.13604846941E+04  0.13604846941E+04  0.00000000000E+00 0.  1.
         25    1    1    2    0    0  0.10835415588E+03 -0.69021708364E+02 -0.30054431814E+03  0.34993786090E+03  0.12500000000E+03 0.  0.
         25    1    1    2    0    0  0.35617605459E+02 -0.15694282734E+02 -0.16595403196E+03  0.21137801460E+03  0.12500000000E+03 0.  0.
         25    1    1    2    0    0 -0.14397176134E+03  0.84715991098E+02 -0.83372298056E+03  0.85943218204E+03  0.12500000000E+03 0.  0.
</event>
<event>
 5    0  0.5677492E-005  0.2630708E+03  0.7546771E-02  0.1105312E+00
         21   -1    0    0  502  501  0.00000000000E+00  0.00000000000E+00  0.10267199572E+04  0.10267199572E+04  0.00000000000E+00 0.  1.
         21   -1    0    0  501  502 -0.00000000000E+00 -0.00000000000E+00 -0.67405174947E+02  0.67405174947E+02  0.00000000000E+00 0.  1.
         25    1    1    2    0    0 -0.86645939187E+02 -0.13846721103E+03  0.26972828268E+03  0.33920352856E+03  0.12500000000E+03 0.  0.
         25    1    1    2    0    0  0.60149773122E+02  0.96065615086E+02  0.32343365263E+03  0.36480258396E+03  0.12500000000E+03 0.  0.
         25    1    1    2    0    0  0.26496166064E+02  0.42401595949E+02  0.36615284698E+03  0.39011901967E+03  0.12500000000E+03 0.  0.
</event>
<event>
 5    0  0.5677492E-005  0.2061505E+03  0.7546771E-02  0.1144651E+00
         21   -1    0    0  502  501  0.00000000000E+00  0.00000000000E+00  0.24169197607E+03  0.24169197607E+03  0.00000000000E+00 0.  1.
         21   -1    0    0  501  502 -0.00000000000E+00 -0.00000000000E+00 -0.17583548420E+03  0.17583548420E+03  0.00000000000E+00 0.  1.
         25    1    1    2    0    0  0.18378715973E+02 -0.16701974155E+01  0.59685336179E+02  0.13974228463E+03  0.12500000000E+03 0.  0.
         25    1    1    2    0    0  0.80797400748E+01 -0.51955105915E+02 -0.19056480556E+02  0.13694073419E+03  0.12500000000E+03 0.  0.
         25    1    1    2    0    0 -0.26458456048E+02  0.53625303331E+02  0.25227636253E+02  0.14084444144E+03  0.12500000000E+03 0.  0.
</event>
<event>
 5    0  0.5677492E-005  0.3408749E+03  0.7546771E-02  0.1066424E+00
         21   -1    0    0  502  501  0.00000000000E+00  0.00000000000E+00  0.53480843874E+03  0.53480843874E+03  0.00000000000E+00 0.  1.
         21   -1    0    0  501  502 -0.00000000000E+00 -0.00000000000E+00 -0.21726596369E+03  0.21726596369E+03  0.00000000000E+00 0.  1.
         25    1    1    2    0    0  0.10650878355E+03 -0.24543550363E+03  0.83721544071E+02  0.30694788541E+03  0.12500000000E+03 0.  0.
         25    1    1    2    0    0 -0.10369181199E+03  0.15228504655E+03  0.13013513600E+03  0.25788152493E+03  0.12500000000E+03 0.  0.
         25    1    1    2    0    0 -0.28169715543E+01  0.93150457079E+02  0.10368579498E+03  0.18724499209E+03  0.12500000000E+03 0.  0.
</event>
<event>
 5    0  0.5677492E-005  0.2251043E+03  0.7546771E-02  0.1130134E+00
         21   -1    0    0  502  501  0.00000000000E+00  0.00000000000E+00  0.85362945461E+03  0.85362945461E+03  0.00000000000E+00 0.  1.
         21   -1    0    0  501  502 -0.00000000000E+00 -0.00000000000E+00 -0.59360585894E+02  0.59360585894E+02  0.00000000000E+00 0.  1.
         25    1    1    2    0    0  0.62157285054E+02  0.20713887731E+02  0.17840073670E+03  0.22747398991E+03  0.12500000000E+03 0.  0.
         25    1    1    2    0    0  0.94124068875E+01  0.32281403240E+02  0.16802616606E+03  0.21210486764E+03  0.12500000000E+03 0.  0.
         25    1    1    2    0    0 -0.71569691941E+02 -0.52995290971E+02  0.44784196595E+03  0.47341118294E+03  0.12500000000E+03 0.  0.
</event>
<event>
 5    0  0.5677492E-005  0.4033632E+03  0.7546771E-02  0.1042621E+00
         21   -1    0    0  502  501  0.00000000000E+00  0.00000000000E+00  0.82169614954E+03  0.82169614954E+03  0.00000000000E+00 0.  1.
         21   -1    0    0  501  502 -0.00000000000E+00 -0.00000000000E+00 -0.19800736747E+03  0.19800736747E+03  0.00000000000E+00 0.  1.
         25    1    1    2    0    0 -0.26976444739E+03  0.38685991880E+02  0.72538642210E+02  0.30847417664E+03  0.12500000000E+03 0.  0.
         25    1    1    2    0    0  0.23684779238E+02  0.69302962229E+02  0.24836242586E+03  0.28752871842E+03  0.12500000000E+03 0.  0.
         25    1    1    2    0    0  0.24607966815E+03 -0.10798895411E+03  0.30278771400E+03  0.42370062195E+03  0.12500000000E+03 0.  0.
</event>
<event>
 5    0  0.5677492E-005  0.4064313E+03  0.7546771E-02  0.1041575E+00
         21   -1    0    0  502  501  0.00000000000E+00  0.00000000000E+00  0.69080070788E+03  0.69080070788E+03  0.00000000000E+00 0.  1.
         21   -1    0    0  501  502 -0.00000000000E+00 -0.00000000000E+00 -0.23912311261E+03  0.23912311261E+03  0.00000000000E+00 0.  1.
         25    1    1    2    0    0  0.98838637448E+01 -0.76921399816E+02 -0.83052719574E+02  0.16893000545E+03  0.12500000000E+03 0.  0.
         25    1    1    2    0    0 -0.12522789723E+01 -0.19959857629E+03  0.26910901122E+03  0.35761126909E+03  0.12500000000E+03 0.  0.
         25    1    1    2    0    0 -0.86315847725E+01  0.27651997611E+03  0.26562130362E+03  0.40338254595E+03  0.12500000000E+03 0.  0.
</event>
<event>
 5    0  0.5677492E-005  0.3413357E+03  0.7546771E-02  0.1066228E+00
         21   -1    0    0  502  501  0.00000000000E+00  0.00000000000E+00  0.17294909789E+04  0.17294909789E+04  0.00000000000E+00 0.  1.
         21   -1    0    0  501  502 -0.00000000000E+00 -0.00000000000E+00 -0.67366670048E+02  0.67366670048E+02  0.00000000000E+00 0.  1.
         25    1    1    2    0    0 -0.16437232242E+02  0.17094024576E+03  0.83221498138E+03  0.85889319794E+03  0.12500000000E+03 0.  0.
         25    1    1    2    0    0  0.13162446274E+03 -0.16407114794E+03  0.33652353813E+03  0.41607383058E+03  0.12500000000E+03 0.  0.
         25    1    1    2    0    0 -0.11518723050E+03 -0.68690978191E+01  0.49338578937E+03  0.52189062046E+03  0.12500000000E+03 0.  0.
</event>
<event>
 5    0  0.5677492E-005  0.3159447E+03  0.7546771E-02  0.1077531E+00
         21   -1    0    0  502  501  0.00000000000E+00  0.00000000000E+00  0.15216028494E+04  0.15216028494E+04  0.00000000000E+00 0.  1.
         21   -1    0    0  501  502 -0.00000000000E+00 -0.00000000000E+00 -0.65602555446E+02  0.65602555446E+02  0.00000000000E+00 0.  1.
         25    1    1    2    0    0 -0.15871523806E+02 -0.18761383343E+03  0.72307955041E+03  0.75757500749E+03  0.12500000000E+03 0.  0.
         25    1    1    2    0    0  0.19762151161E+02  0.11189640997E+03  0.62630850018E+03  0.64868997724E+03  0.12500000000E+03 0.  0.
         25    1    1    2    0    0 -0.38906273545E+01  0.75717423457E+02  0.10661224340E+03  0.18094042014E+03  0.12500000000E+03 0.  0.
</event>
<event>
 5    0  0.5677492E-005  0.3915591E+03  0.7546771E-02  0.1046742E+00
         21   -1    0    0  502  501  0.00000000000E+00  0.00000000000E+00  0.52953366382E+03  0.52953366382E+03  0.00000000000E+00 0.  1.
         21   -1    0    0  501  502 -0.00000000000E+00 -0.00000000000E+00 -0.28953493359E+03  0.28953493359E+03  0.00000000000E+00 0.  1.
         25    1    1    2    0    0  0.24719885439E+02 -0.16416282716E+03  0.94876029424E+02  0.22844467058E+03  0.12500000000E+03 0.  0.
         25    1    1    2    0    0 -0.21250760552E+03  0.22654363000E+03  0.52515912941E+02  0.33891653811E+03  0.12500000000E+03 0.  0.
         25    1    1    2    0    0  0.18778772008E+03 -0.62380802839E+02  0.92606787868E+02  0.25170738872E+03  0.12500000000E+03 0.  0.
</event>
<event>
 5    0  0.5677492E-005  0.2775650E+03  0.7546771E-02  0.1097026E+00
         21   -1    0    0  502  501  0.00000000000E+00  0.00000000000E+00  0.74982896390E+02  0.74982896390E+02  0.00000000000E+00 0. -1.
         21   -1    0    0  501  502 -0.00000000000E+00 -0.00000000000E+00 -0.10274656278E+04  0.10274656278E+04  0.00000000000E+00 0. -1.
         25    1    1    2    0    0 -0.94906827167E+02  0.95626246928E+02 -0.35185938480E+03  0.39696563027E+03  0.12500000000E+03 0.  0.
         25    1    1    2    0    0 -0.57067694385E+02 -0.10210278656E+03 -0.31613112128E+03  0.35950742219E+03  0.12500000000E+03 0.  0.
         25    1    1    2    0    0  0.15197452155E+03  0.64765396291E+01 -0.28449222532E+03  0.34597547173E+03  0.12500000000E+03 0.  0.
</event>
<event>
 5    0  0.5677492E-005  0.2875358E+03  0.7546771E-02  0.1091643E+00
         21   -1    0    0  502  501  0.00000000000E+00  0.00000000000E+00  0.10144151831E+03  0.10144151831E+03  0.00000000000E+00 0.  1.
         21   -1    0    0  501  502 -0.00000000000E+00 -0.00000000000E+00 -0.81501963477E+03  0.81501963477E+03  0.00000000000E+00 0.  1.
         25    1    1    2    0    0  0.13588987174E+03  0.24981333751E+02 -0.38116840165E+03  0.42426934215E+03  0.12500000000E+03 0.  0.
         25    1    1    2    0    0 -0.35595363971E+02  0.80652657484E+02 -0.72990059460E+02  0.16948283062E+03  0.12500000000E+03 0.  0.
         25    1    1    2    0    0 -0.10029450776E+03 -0.10563399123E+03 -0.25941965534E+03  0.32270898031E+03  0.12500000000E+03 0.  0.
</event>
<event>
 5    0  0.5677492E-005  0.2611820E+03  0.7546771E-02  0.1106435E+00
         21   -1    0    0  502  501  0.00000000000E+00  0.00000000000E+00  0.64755933629E+03  0.64755933629E+03  0.00000000000E+00 0.  1.
         21   -1    0    0  501  502 -0.00000000000E+00 -0.00000000000E+00 -0.10534333675E+03  0.10534333675E+03  0.00000000000E+00 0.  1.
         25    1    1    2    0    0 -0.20862184718E+02  0.97808882016E+02  0.12224664078E+03  0.20142256411E+03  0.12500000000E+03 0.  0.
         25    1    1    2    0    0 -0.41739055464E+02 -0.23255991592E+02  0.39794259314E+02  0.13961222357E+03  0.12500000000E+03 0.  0.
         25    1    1    2    0    0  0.62601240183E+02 -0.74552890425E+02  0.38017509946E+03  0.41186788536E+03  0.12500000000E+03 0.  0.
</event>
<event>
 5    0  0.5677492E-005  0.3117971E+03  0.7546771E-02  0.1079488E+00
         21   -1    0    0  502  501  0.00000000000E+00  0.00000000000E+00  0.47303083625E+03  0.47303083625E+03  0.00000000000E+00 0.  1.
         21   -1    0    0  501  502 -0.00000000000E+00 -0.00000000000E+00 -0.20552024861E+03  0.20552024861E+03  0.00000000000E+00 0.  1.
         25    1    1    2    0    0  0.36057363669E+02 -0.14448871576E+03  0.22827708387E+03  0.29985421371E+03  0.12500000000E+03 0.  0.
         25    1    1    2    0    0 -0.37215330001E+02 -0.46659871833E+02  0.56617032942E+02  0.14964161469E+03  0.12500000000E+03 0.  0.
         25    1    1    2    0    0  0.11579663313E+01  0.19114858760E+03 -0.17383529180E+02  0.22905525646E+03  0.12500000000E+03 0.  0.
</event>
<event>
 5    0  0.5677492E-005  0.3229673E+03  0.7546771E-02  0.1074292E+00
         21   -1    0    0  502  501  0.00000000000E+00  0.00000000000E+00  0.67230966392E+02  0.67230966392E+02  0.00000000000E+00 0.  1.
         21   -1    0    0  501  502 -0.00000000000E+00 -0.00000000000E+00 -0.15514851442E+04  0.15514851442E+04  0.00000000000E+00 0.  1.
         25    1    1    2    0    0  0.78112396019E+02 -0.29453930544E+01 -0.20380382364E+03  0.25153771145E+03  0.12500000000E+03 0.  0.
         25    1    1    2    0    0  0.12486548974E+03  0.10400157918E+03 -0.74053937704E+03  0.76839526804E+03  0.12500000000E+03 0.  0.
         25    1    1    2    0    0 -0.20297788576E+03 -0.10105618612E+03 -0.53991097708E+03  0.59878313105E+03  0.12500000000E+03 0.  0.
</event>
<event>
 5    0  0.5677492E-005  0.2548364E+03  0.7546771E-02  0.1110286E+00
         21   -1    0    0  502  501  0.00000000000E+00  0.00000000000E+00  0.29813400609E+03  0.29813400609E+03  0.00000000000E+00 0.  1.
         21   -1    0    0  501  502 -0.00000000000E+00 -0.00000000000E+00 -0.21782686571E+03  0.21782686571E+03  0.00000000000E+00 0.  1.
         25    1    1    2    0    0  0.71123226942E+02  0.31412970492E+02 -0.28752646826E+02  0.14999000908E+03  0.12500000000E+03 0.  0.
         25    1    1    2    0    0 -0.85433661784E+02 -0.87677510198E+02 -0.21312698146E+02  0.17625404240E+03  0.12500000000E+03 0.  0.
         25    1    1    2    0    0  0.14310434842E+02  0.56264539706E+02  0.13037248535E+03  0.18971682031E+03  0.12500000000E+03 0.  0.
</event>
<event>
 5    0  0.5677492E-005  0.4677622E+03  0.7546771E-02  0.1022554E+00
         21   -1    0    0  502  501  0.00000000000E+00  0.00000000000E+00  0.12874374697E+03  0.12874374697E+03  0.00000000000E+00 0.  1.
         21   -1    0    0  501  502 -0.00000000000E+00 -0.00000000000E+00 -0.16995111878E+04  0.16995111878E+04  0.00000000000E+00 0.  1.
         25    1    1    2    0    0 -0.19157662469E+03 -0.19377777092E+03 -0.57061001315E+03  0.64457134185E+03  0.12500000000E+03 0.  0.
         25    1    1    2    0    0  0.26682390014E+03  0.27870278024E+03 -0.43896867475E+03  0.59765268410E+03  0.12500000000E+03 0.  0.
         25    1    1    2    0    0 -0.75247275446E+02 -0.84925009315E+02 -0.56118875289E+03  0.58603090878E+03  0.12500000000E+03 0.  0.
</event>
<event>
 5    0  0.5677492E-005  0.2892516E+03  0.7546771E-02  0.1090741E+00
         21   -1    0    0  502  501  0.00000000000E+00  0.00000000000E+00  0.93418745000E+03  0.93418745000E+03  0.00000000000E+00 0. -1.
         21   -1    0    0  501  502 -0.00000000000E+00 -0.00000000000E+00 -0.89560681391E+02  0.89560681391E+02  0.00000000000E+00 0. -1.
         25    1    1    2    0    0 -0.84435971991E+02  0.99217364724E+02  0.90816076396E+02  0.20210412802E+03  0.12500000000E+03 0.  0.
         25    1    1    2    0    0 -0.28282129201E+02 -0.86027301750E+02  0.42213966176E+03  0.44947465947E+03  0.12500000000E+03 0.  0.
         25    1    1    2    0    0  0.11271810119E+03 -0.13190062975E+02  0.33167103046E+03  0.37216934390E+03  0.12500000000E+03 0.  0.
</event>
<event>
 5    0  0.5677492E-005  0.2243821E+03  0.7546771E-02  0.1130658E+00
         21   -1    0    0  502  501  0.00000000000E+00  0.00000000000E+00  0.16559157611E+04  0.16559157611E+04  0.00000000000E+00 0. -1.
         21   -1    0    0  501  502 -0.00000000000E+00 -0.00000000000E+00 -0.30404527585E+02  0.30404527585E+02  0.00000000000E+00 0. -1.
         25    1    1    2    0    0 -0.84935278624E+01 -0.42913831814E+00  0.52391980836E+03  0.53869220318E+03  0.12500000000E+03 0.  0.
         25    1    1    2    0    0  0.70819537178E+02 -0.23988177041E+02  0.81459123920E+03  0.82751116395E+03  0.12500000000E+03 0.  0.
         25    1    1    2    0    0 -0.62326009316E+02  0.24417315359E+02  0.28700018596E+03  0.32011692155E+03  0.12500000000E+03 0.  0.
</event>
<event>
 5    0  0.5677492E-005  0.2857229E+03  0.7546771E-02  0.1092604E+00
         21   -1    0    0  502  501  0.00000000000E+00  0.00000000000E+00  0.23730202861E+03  0.23730202861E+03  0.00000000000E+00 0. -1.
         21   -1    0    0  501  502 -0.00000000000E+00 -0.00000000000E+00 -0.34402394949E+03  0.34402394949E+03  0.00000000000E+00 0. -1.
         25    1    1    2    0    0 -0.92938453262E+02 -0.17701099341E+02 -0.11745375493E+03  0.19588585850E+03  0.12500000000E+03 0.  0.
         25    1    1    2    0    0 -0.40709456216E+02 -0.88903550087E+02 -0.47755968586E+02  0.16573090713E+03  0.12500000000E+03 0.  0.
         25    1    1    2    0    0  0.13364790948E+03  0.10660464943E+03  0.58487802632E+02  0.21970921247E+03  0.12500000000E+03 0.  0.
</event>
<event>
 5    0  0.7225766E-005  0.4607763E+03  0.7546771E-02  0.1024556E+00
         21   -1    0    0  502  501  0.00000000000E+00  0.00000000000E+00  0.58787761547E+03  0.58787761547E+03  0.00000000000E+00 0.  1.
         21   -1    0    0  501  502 -0.00000000000E+00 -0.00000000000E+00 -0.36115472052E+03  0.36115472052E+03  0.00000000000E+00 0.  1.
         25    1    1    2    0    0 -0.78401383583E+02 -0.22842296351E+03  0.24793935503E+03  0.36799830296E+03  0.12500000000E+03 0.  0.
         25    1    1    2    0    0 -0.89890220441E+02  0.10676117359E+02 -0.18203545727E+03  0.23865485311E+03  0.12500000000E+03 0.  0.
         25    1    1    2    0    0  0.16829160402E+03  0.21774684615E+03  0.16081899718E+03  0.34237917992E+03  0.12500000000E+03 0.  0.
</event>
<event>
 5    0  0.5677492E-005  0.2324737E+03  0.7546771E-02  0.1124911E+00
         21   -1    0    0  502  501  0.00000000000E+00  0.00000000000E+00  0.38365569888E+03  0.38365569888E+03  0.00000000000E+00 0.  1.
         21   -1    0    0  501  502 -0.00000000000E+00 -0.00000000000E+00 -0.14086588543E+03  0.14086588543E+03  0.00000000000E+00 0.  1.
         25    1    1    2    0    0  0.62116683687E+02 -0.10529103489E+03  0.90519246913E+02  0.19688427688E+03  0.12500000000E+03 0.  0.
         25    1    1    2    0    0 -0.63947387845E+02  0.29225600873E+02  0.83415057919E+02  0.16591104860E+03  0.12500000000E+03 0.  0.
         25    1    1    2    0    0  0.18307041577E+01  0.76065434013E+02  0.68855508615E+02  0.16172625883E+03  0.12500000000E+03 0.  0.
</event>
<event>
 5    0  0.5677492E-005  0.3021230E+03  0.7546771E-02  0.1084184E+00
         21   -1    0    0  502  501  0.00000000000E+00  0.00000000000E+00  0.70661448357E+03  0.70661448357E+03  0.00000000000E+00 0.  1.
         21   -1    0    0  501  502 -0.00000000000E+00 -0.00000000000E+00 -0.12917696874E+03  0.12917696874E+03  0.00000000000E+00 0.  1.
         25    1    1    2    0    0  0.62969975784E+02  0.42296543698E+02  0.94968339201E+02  0.17435079842E+03  0.12500000000E+03 0.  0.
         25    1    1    2    0    0  0.73865699707E+02  0.11313431117E+03  0.10157485006E+03  0.21023311852E+03  0.12500000000E+03 0.  0.
         25    1    1    2    0    0 -0.13683567549E+03 -0.15543085487E+03  0.38089432556E+03  0.45120753537E+03  0.12500000000E+03 0.  0.
</event>
<event>
 5    0  0.5922526E-005  0.4076172E+03  0.7546771E-02  0.1041174E+00
         21   -1    0    0  502  501  0.00000000000E+00  0.00000000000E+00  0.24303650136E+03  0.24303650136E+03  0.00000000000E+00 0.  1.
         21   -1    0    0  501  502 -0.00000000000E+00 -0.00000000000E+00 -0.68364955580E+03  0.68364955580E+03  0.00000000000E+00 0.  1.
         25    1    1    2    0    0  0.18515652119E+03 -0.21589918562E+02 -0.20751019969E+03  0.30567064775E+03  0.12500000000E+03 0.  0.
         25    1    1    2    0    0 -0.20466333963E+03 -0.10588724450E+03 -0.32638941246E+03  0.41863377755E+03  0.12500000000E+03 0.  0.
         25    1    1    2    0    0  0.19506818439E+02  0.12747716306E+03  0.93286557708E+02  0.20238163187E+03  0.12500000000E+03 0.  0.
</event>
<event>
 5    0  0.5677492E-005  0.3299264E+03  0.7546771E-02  0.1071169E+00
         21   -1    0    0  502  501  0.00000000000E+00  0.00000000000E+00  0.22277634086E+03  0.22277634086E+03  0.00000000000E+00 0.  1.
         21   -1    0    0  501  502 -0.00000000000E+00 -0.00000000000E+00 -0.48861292172E+03  0.48861292172E+03  0.00000000000E+00 0.  1.
         25    1    1    2    0    0  0.56103613024E+02 -0.21726758835E+02 -0.32640937815E+03  0.35466568707E+03  0.12500000000E+03 0.  0.
         25    1    1    2    0    0 -0.90420705727E+02  0.93155228304E+02 -0.30736560757E+02  0.18282105117E+03  0.12500000000E+03 0.  0.
         25    1    1    2    0    0  0.34317092703E+02 -0.71428469469E+02  0.91309358046E+02  0.17390252433E+03  0.12500000000E+03 0.  0.
</event>
<event>
 5    0  0.5677492E-005  0.2522875E+03  0.7546771E-02  0.1111868E+00
         21   -1    0    0  502  501  0.00000000000E+00  0.00000000000E+00  0.47739360318E+03  0.47739360318E+03  0.00000000000E+00 0.  1.
         21   -1    0    0  501  502 -0.00000000000E+00 -0.00000000000E+00 -0.13332598303E+03  0.13332598303E+03  0.00000000000E+00 0.  1.
         25    1    1    2    0    0  0.54938106707E+02  0.51159921927E+02  0.36067329609E+02  0.15020447878E+03  0.12500000000E+03 0.  0.
         25    1    1    2    0    0 -0.51556321242E+02 -0.33637207980E+02  0.30374159228E+03  0.33417580837E+03  0.12500000000E+03 0.  0.
         25    1    1    2    0    0 -0.33817854648E+01 -0.17522713946E+02  0.42586982687E+01  0.12633929906E+03  0.12500000000E+03 0.  0.
</event>
<event>
 5    0  0.5677492E-005  0.3276700E+03  0.7546771E-02  0.1072172E+00
         21   -1    0    0  502  501  0.00000000000E+00  0.00000000000E+00  0.90931430436E+03  0.90931430436E+03  0.00000000000E+00 0. -1.
         21   -1    0    0  501  502 -0.00000000000E+00 -0.00000000000E+00 -0.11807537447E+03  0.11807537447E+03  0.00000000000E+00 0. -1.
         25    1    1    2    0    0 -0.20284529816E+03 -0.83987292147E+02  0.46838113492E+03  0.53217099486E+03  0.12500000000E+03 0.  0.
         25    1    1    2    0    0  0.91719915484E+02 -0.51986717236E+01  0.50003152365E+02  0.16298737476E+03  0.12500000000E+03 0.  0.
         25    1    1    2    0    0  0.11112538268E+03  0.89185963870E+02  0.27285464261E+03  0.33223130921E+03  0.12500000000E+03 0.  0.
</event>
<event>
 5    0  0.5677492E-005  0.5566674E+03  0.7546771E-02  0.9999624E-01
         21   -1    0    0  502  501  0.00000000000E+00  0.00000000000E+00  0.19349108406E+03  0.19349108406E+03  0.00000000000E+00 0. -1.
         21   -1    0    0  501  502 -0.00000000000E+00 -0.00000000000E+00 -0.16015135538E+04  0.16015135538E+04  0.00000000000E+00 0.  1.
         25    1    1    2    0    0  0.37024825791E+03  0.22689339245E+03 -0.46613842177E+03  0.64921060702E+03  0.12500000000E+03 0.  0.
         25    1    1    2    0    0 -0.48566620190E+02 -0.14090340558E+03 -0.67126037262E+03  0.69887622234E+03  0.12500000000E+03 0.  0.
         25    1    1    2    0    0 -0.32168163772E+03 -0.85989986869E+02 -0.27062367533E+03  0.44691780848E+03  0.12500000000E+03 0.  0.
</event>
<event>
 5    0  0.5677492E-005  0.2348700E+03  0.7546771E-02  0.1123258E+00
         21   -1    0    0  502  501  0.00000000000E+00  0.00000000000E+00  0.72031771548E+02  0.72031771548E+02  0.00000000000E+00 0. -1.
         21   -1    0    0  501  502 -0.00000000000E+00 -0.00000000000E+00 -0.76582762665E+03  0.76582762665E+03  0.00000000000E+00 0. -1.
         25    1    1    2    0    0  0.90593607036E+01 -0.90295734075E+02 -0.13259895465E+03  0.20357523028E+03  0.12500000000E+03 0.  0.
         25    1    1    2    0    0  0.13321751238E+02  0.20073646912E+02 -0.14212947575E+03  0.19080410958E+03  0.12500000000E+03 0.  0.
         25    1    1    2    0    0 -0.22381111941E+02  0.70222087164E+02 -0.41906742470E+03  0.44348005833E+03  0.12500000000E+03 0.  0.
</event>
<event>
 5    0  0.5677492E-005  0.3066102E+03  0.7546771E-02  0.1081982E+00
         21   -1    0    0  502  501  0.00000000000E+00  0.00000000000E+00  0.13621190440E+04  0.13621190440E+04  0.00000000000E+00 0. -1.
         21   -1    0    0  501  502 -0.00000000000E+00 -0.00000000000E+00 -0.69017314866E+02  0.69017314866E+02  0.00000000000E+00 0. -1.
         25    1    1    2    0    0  0.88750914785E+02 -0.12824546753E+03  0.59254412113E+03  0.62534563267E+03  0.12500000000E+03 0.  0.
         25    1    1    2    0    0  0.98322267641E+01 -0.70123222964E+02  0.26284061300E+03  0.29953985865E+03  0.12500000000E+03 0.  0.
         25    1    1    2    0    0 -0.98583141549E+02  0.19836869049E+03  0.43771699502E+03  0.50625086755E+03  0.12500000000E+03 0.  0.
</event>
<event>
 5    0  0.5677492E-005  0.3621392E+03  0.7546771E-02  0.1057740E+00
         21   -1    0    0  502  501  0.00000000000E+00  0.00000000000E+00  0.11184744329E+03  0.11184744329E+03  0.00000000000E+00 0.  1.
         21   -1    0    0  501  502 -0.00000000000E+00 -0.00000000000E+00 -0.11725326072E+04  0.11725326072E+04  0.00000000000E+00 0.  1.
         25    1    1    2    0    0  0.11077572192E+03 -0.73011770184E+01 -0.19041194410E+02  0.16826210161E+03  0.12500000000E+03 0.  0.
         25    1    1    2    0    0 -0.15901108331E+03  0.33182715694E+02 -0.88475492200E+03  0.90818604330E+03  0.12500000000E+03 0.  0.
         25    1    1    2    0    0  0.48235361391E+02 -0.25881538676E+02 -0.15688904747E+03  0.20793190556E+03  0.12500000000E+03 0.  0.
</event>
<event>
 5    0  0.7324174E-005  0.5578782E+03  0.7546771E-02  0.9996867E-01
         21   -1    0    0  502  501  0.00000000000E+00  0.00000000000E+00  0.67058966202E+03  0.67058966202E+03  0.00000000000E+00 0. -1.
         21   -1    0    0  501  502 -0.00000000000E+00 -0.00000000000E+00 -0.46411107753E+03  0.46411107753E+03  0.00000000000E+00 0. -1.
         25    1    1    2    0    0  0.27467016608E+03 -0.28395732431E+03 -0.49836867690E+01  0.41439751362E+03  0.12500000000E+03 0.  0.
         25    1    1    2    0    0 -0.49956254579E+02  0.59636679475E+02  0.32815239750E+03  0.35966812048E+03  0.12500000000E+03 0.  0.
         25    1    1    2    0    0 -0.22471391150E+03  0.22432064484E+03 -0.11669012623E+03  0.36063510545E+03  0.12500000000E+03 0.  0.
</event>
<event>
 5    0  0.5808744E-005  0.3107344E+03  0.7546771E-02  0.1079994E+00
         21   -1    0    0  502  501  0.00000000000E+00  0.00000000000E+00  0.76711930262E+03  0.76711930262E+03  0.00000000000E+00 0.  1.
         21   -1    0    0  501  502 -0.00000000000E+00 -0.00000000000E+00 -0.12586813511E+03  0.12586813511E+03  0.00000000000E+00 0.  1.
         25    1    1    2    0    0 -0.54953310028E+02 -0.18146675368E+02  0.25950837384E+03  0.29380055174E+03  0.12500000000E+03 0.  0.
         25    1    1    2    0    0  0.19116626664E+03 -0.56150251414E+02  0.10352518593E+03  0.25698221019E+03  0.12500000000E+03 0.  0.
         25    1    1    2    0    0 -0.13621295661E+03  0.74296926782E+02  0.27821760773E+03  0.34220467579E+03  0.12500000000E+03 0.  0.
</event>
<event>
 5    0  0.5677492E-005  0.3077647E+03  0.7546771E-02  0.1081422E+00
         21   -1    0    0  502  501  0.00000000000E+00  0.00000000000E+00  0.14971683267E+03  0.14971683267E+03  0.00000000000E+00 0.  1.
         21   -1    0    0  501  502 -0.00000000000E+00 -0.00000000000E+00 -0.63265519480E+03  0.63265519480E+03  0.00000000000E+00 0.  1.
         25    1    1    2    0    0 -0.14028193222E+03  0.14326844479E+03 -0.11794107932E+03  0.26408325576E+03  0.12500000000E+03 0.  0.
         25    1    1    2    0    0  0.13828715396E+03 -0.12350735279E+02 -0.19224477902E+03  0.26806516498E+03  0.12500000000E+03 0.  0.
         25    1    1    2    0    0  0.19947782573E+01 -0.13091770951E+03 -0.17275250379E+03  0.25022360674E+03  0.12500000000E+03 0.  0.
</event>
<event>
 5    0  0.5677492E-005  0.2891942E+03  0.7546771E-02  0.1090771E+00
         21   -1    0    0  502  501  0.00000000000E+00  0.00000000000E+00  0.77685371591E+03  0.77685371591E+03  0.00000000000E+00 0. -1.
         21   -1    0    0  501  502 -0.00000000000E+00 -0.00000000000E+00 -0.10765639279E+03  0.10765639279E+03  0.00000000000E+00 0. -1.
         25    1    1    2    0    0  0.11335483618E+03  0.12288497185E+03  0.26534668578E+03  0.33761501573E+03  0.12500000000E+03 0.  0.
         25    1    1    2    0    0  0.77259795512E+01 -0.77791066157E+02  0.60569178886E+02  0.15938872659E+03  0.12500000000E+03 0.  0.
         25    1    1    2    0    0 -0.12108081573E+03 -0.45093905691E+02  0.34328145846E+03  0.38750636638E+03  0.12500000000E+03 0.  0.
</event>
<event>
 5    0  0.5677492E-005  0.2819978E+03  0.7546771E-02  0.1094603E+00
         21   -1    0    0  502  501  0.00000000000E+00  0.00000000000E+00  0.71032628857E+02  0.71032628857E+02  0.00000000000E+00 0.  1.
         21   -1    0    0  501  502 -0.00000000000E+00 -0.00000000000E+00 -0.11195246282E+04  0.11195246282E+04  0.00000000000E+00 0.  1.
         25    1    1    2    0    0 -0.16289894198E+03  0.91159526770E+02 -0.45929095278E+03  0.51129179919E+03  0.12500000000E+03 0.  0.
         25    1    1    2    0    0  0.13734658476E+03 -0.15043491081E+02 -0.28149799140E+03  0.33757445124E+03  0.12500000000E+03 0.  0.
         25    1    1    2    0    0  0.25552357211E+02 -0.76116035689E+02 -0.30770305517E+03  0.34169100663E+03  0.12500000000E+03 0.  0.
</event>
<event>
 5    0  0.5677492E-005  0.2586086E+03  0.7546771E-02  0.1107982E+00
         21   -1    0    0  502  501  0.00000000000E+00  0.00000000000E+00  0.68787684724E+02  0.68787684724E+02  0.00000000000E+00 0.  1.
         21   -1    0    0  501  502 -0.00000000000E+00 -0.00000000000E+00 -0.97224420750E+03  0.97224420750E+03  0.00000000000E+00 0.  1.
         25    1    1    2    0    0 -0.28060329927E+01  0.15971611651E+03 -0.32279475973E+03  0.38123295845E+03  0.12500000000E+03 0.  0.
         25    1    1    2    0    0 -0.39890223540E+02 -0.54526596239E+02 -0.22537275582E+03  0.26642495885E+03  0.12500000000E+03 0.  0.
         25    1    1    2    0    0  0.42696256532E+02 -0.10518952027E+03 -0.35528900723E+03  0.39337397494E+03  0.12500000000E+03 0.  0.
</event>
<event>
 5    0  0.5677492E-005  0.2875934E+03  0.7546771E-02  0.1091612E+00
         21   -1    0    0  502  501  0.00000000000E+00  0.00000000000E+00  0.51257942819E+02  0.51257942819E+02  0.00000000000E+00 0. -1.
         21   -1    0    0  501  502 -0.00000000000E+00 -0.00000000000E+00 -0.16136023280E+04  0.16136023280E+04  0.00000000000E+00 0. -1.
         25    1    1    2    0    0  0.10614625284E+03  0.23726694225E+00 -0.53556585040E+03  0.56010968873E+03  0.12500000000E+03 0.  0.
         25    1    1    2    0    0 -0.11982027752E+02  0.12123072904E+03 -0.26263910839E+03  0.31534863232E+03  0.12500000000E+03 0.  0.
         25    1    1    2    0    0 -0.94164225089E+02 -0.12146799599E+03 -0.76413942640E+03  0.78940194977E+03  0.12500000000E+03 0.  0.
</event>
<event>
 5    0  0.5677492E-005  0.5803245E+03  0.7546771E-02  0.9947089E-01
         21   -1    0    0  502  501  0.00000000000E+00  0.00000000000E+00  0.23095734474E+03  0.23095734474E+03  0.00000000000E+00 0.  1.
         21   -1    0    0  501  502 -0.00000000000E+00 -0.00000000000E+00 -0.14581761754E+04  0.14581761754E+04  0.00000000000E+00 0.  1.
         25    1    1    2    0    0 -0.12850397531E+03  0.28799455009E+03 -0.50821709709E+03  0.61103498290E+03  0.12500000000E+03 0.  0.
         25    1    1    2    0    0 -0.16741290761E+03 -0.14694653027E+02  0.36728865748E+02  0.21264294966E+03  0.12500000000E+03 0.  0.
         25    1    1    2    0    0  0.29591688292E+03 -0.27329989707E+03 -0.75573059936E+03  0.86545558762E+03  0.12500000000E+03 0.  0.
</event>
<event>
 5    0  0.5677492E-005  0.2249823E+03  0.7546771E-02  0.1130222E+00
         21   -1    0    0  502  501  0.00000000000E+00  0.00000000000E+00  0.75023161802E+02  0.75023161802E+02  0.00000000000E+00 0. -1.
         21   -1    0    0  501  502 -0.00000000000E+00 -0.00000000000E+00 -0.67468526723E+03  0.67468526723E+03  0.00000000000E+00 0. -1.
         25    1    1    2    0    0  0.21910646047E+00 -0.18679938218E+01 -0.21605836340E+03  0.24961921762E+03  0.12500000000E+03 0.  0.
         25    1    1    2    0    0  0.83882652324E+02 -0.35067611618E+02 -0.12613401270E+03  0.19950144337E+03  0.12500000000E+03 0.  0.
         25    1    1    2    0    0 -0.84101758785E+02  0.36935605440E+02 -0.25746972933E+03  0.30058776805E+03  0.12500000000E+03 0.  0.
</event>
<event>
 5    0  0.5677492E-005  0.3328064E+03  0.7546771E-02  0.1069902E+00
         21   -1    0    0  502  501  0.00000000000E+00  0.00000000000E+00  0.30986527410E+03  0.30986527410E+03  0.00000000000E+00 0. -1.
         21   -1    0    0  501  502 -0.00000000000E+00 -0.00000000000E+00 -0.35744593003E+03  0.35744593003E+03  0.00000000000E+00 0. -1.
         25    1    1    2    0    0 -0.48597528944E+02  0.51284466705E+02  0.16771391619E+03  0.22078218685E+03  0.12500000000E+03 0.  0.
         25    1    1    2    0    0 -0.97601298659E+02  0.53063303953E+01 -0.18503308991E+03  0.24375482560E+03  0.12500000000E+03 0.  0.
         25    1    1    2    0    0  0.14619882760E+03 -0.56590797100E+02 -0.30261482216E+02  0.20277419169E+03  0.12500000000E+03 0.  0.
</event>
<event>
 5    0  0.5677492E-005  0.2504147E+03  0.7546771E-02  0.1113043E+00
         21   -1    0    0  502  501  0.00000000000E+00  0.00000000000E+00  0.22212000589E+03  0.22212000589E+03  0.00000000000E+00 0. -1.
         21   -1    0    0  501  502 -0.00000000000E+00 -0.00000000000E+00 -0.28231374697E+03  0.28231374697E+03  0.00000000000E+00 0. -1.
         25    1    1    2    0    0 -0.40200138132E+02  0.92032733975E+02  0.60544914046E+02  0.17139650476E+03  0.12500000000E+03 0.  0.
         25    1    1    2    0    0 -0.44496743323E+02 -0.85823228049E+02 -0.76572424827E+02  0.17559590793E+03  0.12500000000E+03 0.  0.
         25    1    1    2    0    0  0.84696881455E+02 -0.62095059263E+01 -0.44166230307E+02  0.15744134016E+03  0.12500000000E+03 0.  0.
</event>
<event>
 5    0  0.5677492E-005  0.2853098E+03  0.7546771E-02  0.1092824E+00
         21   -1    0    0  502  501  0.00000000000E+00  0.00000000000E+00  0.10617945395E+04  0.10617945395E+04  0.00000000000E+00 0. -1.
         21   -1    0    0  501  502 -0.00000000000E+00 -0.00000000000E+00 -0.76664261293E+02  0.76664261293E+02  0.00000000000E+00 0. -1.
         25    1    1    2    0    0 -0.19190754392E+02 -0.70512259388E+02  0.53606543373E+03  0.55527597914E+03  0.12500000000E+03 0.  0.
         25    1    1    2    0    0 -0.79205907788E+02  0.11366121974E+03  0.14129887316E+03  0.23405730122E+03  0.12500000000E+03 0.  0.
         25    1    1    2    0    0  0.98396662181E+02 -0.43148960348E+02  0.30776597131E+03  0.34912552042E+03  0.12500000000E+03 0.  0.
</event>
<event>
 5    0  0.5677492E-005  0.2245340E+03  0.7546771E-02  0.1130547E+00
         21   -1    0    0  502  501  0.00000000000E+00  0.00000000000E+00  0.75168785138E+03  0.75168785138E+03  0.00000000000E+00 0. -1.
         21   -1    0    0  501  502 -0.00000000000E+00 -0.00000000000E+00 -0.67069763651E+02  0.67069763651E+02  0.00000000000E+00 0. -1.
         25    1    1    2    0    0  0.60265313289E+02  0.85789771114E+01  0.43500507930E+03  0.45668361680E+03  0.12500000000E+03 0.  0.
         25    1    1    2    0    0 -0.70068588826E+01  0.70547126731E+01  0.12477452982E+03  0.17689699922E+03  0.12500000000E+03 0.  0.
         25    1    1    2    0    0 -0.53258454407E+02 -0.15633689785E+02  0.12483847862E+03  0.18517699902E+03  0.12500000000E+03 0.  0.
</event>
<event>
 5    0  0.5677492E-005  0.2918655E+03  0.7546771E-02  0.1089379E+00
         21   -1    0    0  502  501  0.00000000000E+00  0.00000000000E+00  0.47523136254E+02  0.47523136254E+02  0.00000000000E+00 0.  1.
         21   -1    0    0  501  502 -0.00000000000E+00 -0.00000000000E+00 -0.17925052143E+04  0.17925052143E+04  0.00000000000E+00 0.  1.
         25    1    1    2    0    0 -0.68629730785E+02  0.15812040420E+03 -0.93250340811E+03  0.95650389874E+03  0.12500000000E+03 0.  0.
         25    1    1    2    0    0  0.52852333781E+02 -0.17337378728E+03 -0.52149821257E+03  0.56607174900E+03  0.12500000000E+03 0.  0.
         25    1    1    2    0    0  0.15777397004E+02  0.15253383078E+02 -0.29098045732E+03  0.31745270277E+03  0.12500000000E+03 0.  0.
</event>
<event>
 5    0  0.6352142E-005  0.3485520E+03  0.7546771E-02  0.1063211E+00
         21   -1    0    0  502  501  0.00000000000E+00  0.00000000000E+00  0.11451318558E+04  0.11451318558E+04  0.00000000000E+00 0.  1.
         21   -1    0    0  501  502 -0.00000000000E+00 -0.00000000000E+00 -0.10609124615E+03  0.10609124615E+03  0.00000000000E+00 0.  1.
         25    1    1    2    0    0  0.77427849176E+02  0.21156274852E+03  0.22829371088E+03  0.34423376769E+03  0.12500000000E+03 0.  0.
         25    1    1    2    0    0  0.70548542347E+01 -0.16356471319E+03  0.24794764305E+03  0.32234487752E+03  0.12500000000E+03 0.  0.
         25    1    1    2    0    0 -0.84482703411E+02 -0.47998035324E+02  0.56279925570E+03  0.58464445673E+03  0.12500000000E+03 0.  0.
</event>
<event>
 5    0  0.5677492E-005  0.3925082E+03  0.7546771E-02  0.1046405E+00
         21   -1    0    0  502  501  0.00000000000E+00  0.00000000000E+00  0.27428187254E+04  0.27428187254E+04  0.00000000000E+00 0. -1.
         21   -1    0    0  501  502 -0.00000000000E+00 -0.00000000000E+00 -0.56169487093E+02  0.56169487093E+02  0.00000000000E+00 0. -1.
         25    1    1    2    0    0 -0.83330992460E+02  0.20853029320E+03  0.38248593782E+03  0.46081387796E+03  0.12500000000E+03 0.  0.
         25    1    1    2    0    0  0.85345783336E+02  0.37141409464E+00  0.75826366336E+03  0.77322236379E+03  0.12500000000E+03 0.  0.
         25    1    1    2    0    0 -0.20147908756E+01 -0.20890170730E+03  0.15458996372E+04  0.15649519708E+04  0.12500000000E+03 0.  0.
</event>
<event>
 5    0  0.5677492E-005  0.2237080E+03  0.7546771E-02  0.1131148E+00
         21   -1    0    0  502  501  0.00000000000E+00  0.00000000000E+00  0.90503380869E+03  0.90503380869E+03  0.00000000000E+00 0.  1.
         21   -1    0    0  501  502 -0.00000000000E+00 -0.00000000000E+00 -0.55296550914E+02  0.55296550914E+02  0.00000000000E+00 0.  1.
         25    1    1    2    0    0 -0.95800553504E+02 -0.43927331886E+02  0.26987006235E+03  0.31553479537E+03  0.12500000000E+03 0.  0.
         25    1    1    2    0    0  0.18628566923E+02  0.45557425068E+02  0.25385682867E+03  0.28721210272E+03  0.12500000000E+03 0.  0.
         25    1    1    2    0    0  0.77171986581E+02 -0.16300931827E+01  0.32601036675E+03  0.35758346151E+03  0.12500000000E+03 0.  0.
</event>
<event>
 5    0  0.6121653E-005  0.3366618E+03  0.7546771E-02  0.1068227E+00
         21   -1    0    0  502  501  0.00000000000E+00  0.00000000000E+00  0.28375425320E+03  0.28375425320E+03  0.00000000000E+00 0.  1.
         21   -1    0    0  501  502 -0.00000000000E+00 -0.00000000000E+00 -0.39943417953E+03  0.39943417953E+03  0.00000000000E+00 0.  1.
         25    1    1    2    0    0  0.10820031690E+03  0.21991603971E+03 -0.95526675360E+02  0.29123996773E+03  0.12500000000E+03 0.  0.
         25    1    1    2    0    0 -0.41495542330E+02 -0.16444634384E+03 -0.84163527107E+02  0.22687657290E+03  0.12500000000E+03 0.  0.
         25    1    1    2    0    0 -0.66704774570E+02 -0.55469695875E+02  0.64010276137E+02  0.16507189210E+03  0.12500000000E+03 0.  0.
</event>
<event>
 5    0  0.5677492E-005  0.2497525E+03  0.7546771E-02  0.1113461E+00
         21   -1    0    0  502  501  0.00000000000E+00  0.00000000000E+00  0.10077965371E+04  0.10077965371E+04  0.00000000000E+00 0. -1.
         21   -1    0    0  501  502 -0.00000000000E+00 -0.00000000000E+00 -0.61893752180E+02  0.61893752180E+02  0.00000000000E+00 0. -1.
         25    1    1    2    0    0  0.58925589712E+02 -0.36964402695E+02  0.42407945471E+03  0.44755667361E+03  0.12500000000E+03 0.  0.
         25    1    1    2    0    0 -0.11713612494E+03 -0.43324714742E+02  0.31159390412E+03  0.35820896661E+03  0.12500000000E+03 0.  0.
         25    1    1    2    0    0  0.58210535230E+02  0.80289117437E+02  0.21022942614E+03  0.26392464910E+03  0.12500000000E+03 0.  0.
</event>
<event>
 5    0  0.5677492E-005  0.3265843E+03  0.7546771E-02  0.1072658E+00
         21   -1    0    0  502  501  0.00000000000E+00  0.00000000000E+00  0.55501267214E+03  0.55501267214E+03  0.00000000000E+00 0. -1.
         21   -1    0    0  501  502 -0.00000000000E+00 -0.00000000000E+00 -0.19217094258E+03  0.19217094258E+03  0.00000000000E+00 0. -1.
         25    1    1    2    0    0  0.93574623307E+02 -0.10368779681E+03 -0.30894879630E+02  0.18996542559E+03  0.12500000000E+03 0.  0.
         25    1    1    2    0    0 -0.24199153657E+02  0.16867808057E+03  0.12380805062E+03  0.24493127056E+03  0.12500000000E+03 0.  0.
         25    1    1    2    0    0 -0.69375469650E+02 -0.64990283761E+02  0.26992855857E+03  0.31228691856E+03  0.12500000000E+03 0.  0.
</event>
<event>
 5    0  0.5677492E-005  0.3892588E+03  0.7546771E-02  0.1047564E+00
         21   -1    0    0  502  501  0.00000000000E+00  0.00000000000E+00  0.23441679644E+03  0.23441679644E+03  0.00000000000E+00 0. -1.
         21   -1    0    0  501  502 -0.00000000000E+00 -0.00000000000E+00 -0.64638030710E+03  0.64638030710E+03  0.00000000000E+00 0. -1.
         25    1    1    2    0    0 -0.27792789355E+03 -0.69892031111E+02 -0.14476504222E+03  0.34454423153E+03  0.12500000000E+03 0.  0.
         25    1    1    2    0    0  0.16020423362E+03 -0.57885501827E+02 -0.24118633203E+03  0.32064306409E+03  0.12500000000E+03 0.  0.
         25    1    1    2    0    0  0.11772365994E+03  0.12777753294E+03 -0.26012136403E+02  0.21560980792E+03  0.12500000000E+03 0.  0.
</event>
<event>
 5    0  0.5677492E-005  0.5175627E+03  0.7546771E-02  0.1009294E+00
         21   -1    0    0  502  501  0.00000000000E+00  0.00000000000E+00  0.10229845701E+04  0.10229845701E+04  0.00000000000E+00 0.  1.
         21   -1    0    0  501  502 -0.00000000000E+00 -0.00000000000E+00 -0.26185258668E+03  0.26185258668E+03  0.00000000000E+00 0.  1.
         25    1    1    2    0    0  0.44860961079E+02 -0.28610560410E+03  0.66303642363E+03  0.73424193669E+03  0.12500000000E+03 0.  0.
         25    1    1    2    0    0  0.89369860770E+02  0.24523058031E+03 -0.70800028358E+02  0.29793061869E+03  0.12500000000E+03 0.  0.
         25    1    1    2    0    0 -0.13423082185E+03  0.40875023783E+02  0.16889558810E+03  0.25266460136E+03  0.12500000000E+03 0.  0.
</event>
<event>
 5    0  0.5677492E-005  0.2869662E+03  0.7546771E-02  0.1091944E+00
         21   -1    0    0  502  501  0.00000000000E+00  0.00000000000E+00  0.57805587900E+03  0.57805587900E+03  0.00000000000E+00 0.  1.
         21   -1    0    0  501  502 -0.00000000000E+00 -0.00000000000E+00 -0.14245954783E+03  0.14245954783E+03  0.00000000000E+00 0.  1.
         25    1    1    2    0    0 -0.95610928253E+01  0.13495394102E+02  0.53847882242E+02  0.13710628935E+03  0.12500000000E+03 0.  0.
         25    1    1    2    0    0  0.12549851272E+02  0.15903992720E+03  0.89066122770E+02  0.22137969969E+03  0.12500000000E+03 0.  0.
         25    1    1    2    0    0 -0.29887584469E+01 -0.17253532130E+03  0.29268232616E+03  0.36202943778E+03  0.12500000000E+03 0.  0.
</event>
<event>
 5    0  0.5677492E-005  0.2108936E+03  0.7546771E-02  0.1140860E+00
         21   -1    0    0  502  501  0.00000000000E+00  0.00000000000E+00  0.29165301323E+03  0.29165301323E+03  0.00000000000E+00 0.  1.
         21   -1    0    0  501  502 -0.00000000000E+00 -0.00000000000E+00 -0.15249658981E+03  0.15249658981E+03  0.00000000000E+00 0.  1.
         25    1    1    2    0    0  0.12038307652E+02  0.16038694774E+02  0.10000485662E+02  0.12699279623E+03  0.12500000000E+03 0.  0.
         25    1    1    2    0    0  0.46368868951E+02 -0.52263887129E+02  0.90359584316E+02  0.16932643144E+03  0.12500000000E+03 0.  0.
         25    1    1    2    0    0 -0.58407176603E+02  0.36225192355E+02  0.38796353446E+02  0.14783037537E+03  0.12500000000E+03 0.  0.
</event>
<event>
 5    0  0.5677492E-005  0.2891166E+03  0.7546771E-02  0.1090811E+00
         21   -1    0    0  502  501  0.00000000000E+00  0.00000000000E+00  0.73986298625E+03  0.73986298625E+03  0.00000000000E+00 0. -1.
         21   -1    0    0  501  502 -0.00000000000E+00 -0.00000000000E+00 -0.11297822549E+03  0.11297822549E+03  0.00000000000E+00 0. -1.
         25    1    1    2    0    0  0.19374947362E+03 -0.30818877716E+01  0.31854186035E+03  0.39324581797E+03  0.12500000000E+03 0.  0.
         25    1    1    2    0    0 -0.94532402781E+02  0.23592231974E+02  0.72962264363E+02  0.17447481367E+03  0.12500000000E+03 0.  0.
         25    1    1    2    0    0 -0.99217070837E+02 -0.20510344203E+02  0.23538063605E+03  0.28512058009E+03  0.12500000000E+03 0.  0.
</event>
<event>
 5    0  0.5677492E-005  0.3292274E+03  0.7546771E-02  0.1071479E+00
         21   -1    0    0  502  501  0.00000000000E+00  0.00000000000E+00  0.84722314646E+03  0.84722314646E+03  0.00000000000E+00 0. -1.
         21   -1    0    0  501  502 -0.00000000000E+00 -0.00000000000E+00 -0.12793643124E+03  0.12793643124E+03  0.00000000000E+00 0. -1.
         25    1    1    2    0    0  0.62050367283E+02  0.95462322723E+02  0.11807629861E+03  0.20622879390E+03  0.12500000000E+03 0.  0.
         25    1    1    2    0    0 -0.15683195139E+03 -0.20149064199E+03  0.41759629598E+03  0.50517957817E+03  0.12500000000E+03 0.  0.
         25    1    1    2    0    0  0.94781584108E+02  0.10602831927E+03  0.18361412063E+03  0.26375120562E+03  0.12500000000E+03 0.  0.
</event>
<event>
 5    0  0.5677492E-005  0.2380288E+03  0.7546771E-02  0.1121113E+00
         21   -1    0    0  502  501  0.00000000000E+00  0.00000000000E+00  0.57425044844E+03  0.57425044844E+03  0.00000000000E+00 0. -1.
         21   -1    0    0  501  502 -0.00000000000E+00 -0.00000000000E+00 -0.98663783723E+02  0.98663783723E+02  0.00000000000E+00 0. -1.
         25    1    1    2    0    0 -0.79976970083E+02 -0.72320770939E+02  0.19682104754E+03  0.25688544997E+03  0.12500000000E+03 0.  0.
         25    1    1    2    0    0  0.74446053218E+02  0.18276259231E+02  0.60329221352E+02  0.15855866876E+03  0.12500000000E+03 0.  0.
         25    1    1    2    0    0  0.55309168652E+01  0.54044511708E+02  0.21843639582E+03  0.25747011342E+03  0.12500000000E+03 0.  0.
</event>
<event>
 5    0  0.5677492E-005  0.2605254E+03  0.7546771E-02  0.1106828E+00
         21   -1    0    0  502  501  0.00000000000E+00  0.00000000000E+00  0.11756681006E+03  0.11756681006E+03  0.00000000000E+00 0.  1.
         21   -1    0    0  501  502 -0.00000000000E+00 -0.00000000000E+00 -0.57731850113E+03  0.57731850113E+03  0.00000000000E+00 0.  1.
         25    1    1    2    0    0  0.20851480373E+02  0.59114979896E+02 -0.48079968156E+02  0.14787172962E+03  0.12500000000E+03 0.  0.
         25    1    1    2    0    0 -0.12816198913E+03 -0.90049473737E+01 -0.26970862820E+03  0.32384306178E+03  0.12500000000E+03 0.  0.
         25    1    1    2    0    0  0.10731050876E+03 -0.50110032522E+02 -0.14196309472E+03  0.22317051981E+03  0.12500000000E+03 0.  0.
</event>
<event>
 5    0  0.5677492E-005  0.5034608E+03  0.7546771E-02  0.1012880E+00
         21   -1    0    0  502  501  0.00000000000E+00  0.00000000000E+00  0.13510120467E+04  0.13510120467E+04  0.00000000000E+00 0.  1.
         21   -1    0    0  501  502 -0.00000000000E+00 -0.00000000000E+00 -0.18761698837E+03  0.18761698837E+03  0.00000000000E+00 0.  1.
         25    1    1    2    0    0 -0.12039796270E+03 -0.65094771513E+02  0.21683601459E+01  0.18537178989E+03  0.12500000000E+03 0.  0.
         25    1    1    2    0    0  0.15052776183E+03 -0.23951581421E+03  0.82780756391E+03  0.88369496728E+03  0.12500000000E+03 0.  0.
         25    1    1    2    0    0 -0.30129799132E+02  0.30461058572E+03  0.33341913429E+03  0.46956227792E+03  0.12500000000E+03 0.  0.
</event>
<event>
 5    0  0.5677492E-005  0.2771662E+03  0.7546771E-02  0.1097247E+00
         21   -1    0    0  502  501  0.00000000000E+00  0.00000000000E+00  0.12498200888E+03  0.12498200888E+03  0.00000000000E+00 0. -1.
         21   -1    0    0  501  502 -0.00000000000E+00 -0.00000000000E+00 -0.61465709031E+03  0.61465709031E+03  0.00000000000E+00 0. -1.
         25    1    1    2    0    0  0.62293024879E+02 -0.67259581448E+02 -0.13980869161E+03  0.20874803590E+03  0.12500000000E+03 0.  0.
         25    1    1    2    0    0  0.35246397886E+02  0.10162251952E+03 -0.23695522056E+02  0.16660108884E+03  0.12500000000E+03 0.  0.
         25    1    1    2    0    0 -0.97539422765E+02 -0.34362938070E+02 -0.32617086777E+03  0.36428997445E+03  0.12500000000E+03 0.  0.
</event>
<event>
 5    0  0.5677492E-005  0.3139758E+03  0.7546771E-02  0.1078456E+00
         21   -1    0    0  502  501  0.00000000000E+00  0.00000000000E+00  0.25769388163E+03  0.25769388163E+03  0.00000000000E+00 0. -1.
         21   -1    0    0  501  502 -0.00000000000E+00 -0.00000000000E+00 -0.38254991234E+03  0.38254991234E+03  0.00000000000E+00 0. -1.
         25    1    1    2    0    0  0.10871394809E+03  0.43784362599E+02  0.23859780375E+01  0.17136652476E+03  0.12500000000E+03 0.  0.
         25    1    1    2    0    0 -0.57240848819E+02  0.15185196194E+03 -0.10459929831E+03  0.23000336155E+03  0.12500000000E+03 0.  0.
         25    1    1    2    0    0 -0.51473099266E+02 -0.19563632454E+03 -0.22642710438E+02  0.23887390767E+03  0.12500000000E+03 0.  0.
</event>
<event>
 5    0  0.6153044E-005  0.2856976E+03  0.7546771E-02  0.1092617E+00
         21   -1    0    0  502  501  0.00000000000E+00  0.00000000000E+00  0.89548215542E+03  0.89548215542E+03  0.00000000000E+00 0. -1.
         21   -1    0    0  501  502 -0.00000000000E+00 -0.00000000000E+00 -0.91149928423E+02  0.91149928423E+02  0.00000000000E+00 0. -1.
         25    1    1    2    0    0 -0.10985846088E+03  0.65100732330E+02  0.24060967365E+03  0.29970819447E+03  0.12500000000E+03 0.  0.
         25    1    1    2    0    0  0.95935986211E+02 -0.90400607340E+02  0.10333509355E+03  0.20899551387E+03  0.12500000000E+03 0.  0.
         25    1    1    2    0    0  0.13922474673E+02  0.25299875010E+02  0.46038745980E+03  0.47792837551E+03  0.12500000000E+03 0.  0.
</event>
<event>
 5    0  0.5677492E-005  0.2238319E+03  0.7546771E-02  0.1131058E+00
         21   -1    0    0  502  501  0.00000000000E+00  0.00000000000E+00  0.18147007741E+04  0.18147007741E+04  0.00000000000E+00 0.  1.
         21   -1    0    0  501  502 -0.00000000000E+00 -0.00000000000E+00 -0.27608245369E+02  0.27608245369E+02  0.00000000000E+00 0.  1.
         25    1    1    2    0    0  0.87276983703E+02 -0.99685802982E+01  0.75253227852E+03  0.76788441493E+03  0.12500000000E+03 0.  0.
         25    1    1    2    0    0 -0.92220891703E+02  0.41275192273E+02  0.55083244024E+03  0.57380285080E+03  0.12500000000E+03 0.  0.
         25    1    1    2    0    0  0.49439080006E+01 -0.31306611975E+02  0.48372780998E+03  0.50062175375E+03  0.12500000000E+03 0.  0.
</event>
<event>
 5    0  0.5677492E-005  0.2115886E+03  0.7546771E-02  0.1140314E+00
         21   -1    0    0  502  501  0.00000000000E+00  0.00000000000E+00  0.32349269280E+03  0.32349269280E+03  0.00000000000E+00 0. -1.
         21   -1    0    0  501  502 -0.00000000000E+00 -0.00000000000E+00 -0.13839486459E+03  0.13839486459E+03  0.00000000000E+00 0. -1.
         25    1    1    2    0    0 -0.34088958734E+02 -0.30874954080E+02  0.72042176163E+02  0.15142785425E+03  0.12500000000E+03 0.  0.
         25    1    1    2    0    0  0.17058617763E+02  0.75075687496E+02  0.21347116312E+02  0.14835111954E+03  0.12500000000E+03 0.  0.
         25    1    1    2    0    0  0.17030340970E+02 -0.44200733416E+02  0.91708535740E+02  0.16210858360E+03  0.12500000000E+03 0.  0.
</event>
<event>
 5    0  0.5677492E-005  0.2871041E+03  0.7546771E-02  0.1091871E+00
         21   -1    0    0  502  501  0.00000000000E+00  0.00000000000E+00  0.13653444845E+03  0.13653444845E+03  0.00000000000E+00 0.  1.
         21   -1    0    0  501  502 -0.00000000000E+00 -0.00000000000E+00 -0.60372120395E+03  0.60372120395E+03  0.00000000000E+00 0.  1.
         25    1    1    2    0    0 -0.62901542479E+02  0.12036792541E+03 -0.20441777421E+03  0.27542089232E+03  0.12500000000E+03 0.  0.
         25    1    1    2    0    0  0.40379041033E+02  0.63599283905E+02 -0.44951787111E+02  0.15271214435E+03  0.12500000000E+03 0.  0.
         25    1    1    2    0    0  0.22522501445E+02 -0.18396720931E+03 -0.21781719417E+03  0.31212261573E+03  0.12500000000E+03 0.  0.
</event>
<event>
 5    0  0.5677492E-005  0.2476356E+03  0.7546771E-02  0.1114808E+00
         21   -1    0    0  502  501  0.00000000000E+00  0.00000000000E+00  0.18331741961E+03  0.18331741961E+03  0.00000000000E+00 0. -1.
         21   -1    0    0  501  502 -0.00000000000E+00 -0.00000000000E+00 -0.33452036700E+03  0.33452036700E+03  0.00000000000E+00 0. -1.
         25    1    1    2    0    0  0.20660584914E+01  0.13930730084E+02 -0.66508893206E+02  0.14229113364E+03  0.12500000000E+03 0.  0.
         25    1    1    2    0    0 -0.96671996407E+02 -0.21294181958E+02  0.51700563547E+02  0.16762119599E+03  0.12500000000E+03 0.  0.
         25    1    1    2    0    0  0.94605937915E+02  0.73634518741E+01 -0.13639461773E+03  0.20792545698E+03  0.12500000000E+03 0.  0.
</event>
<event>
 5    0  0.5795038E-005  0.2898114E+03  0.7546771E-02  0.1090448E+00
         21   -1    0    0  502  501  0.00000000000E+00  0.00000000000E+00  0.26104608083E+03  0.26104608083E+03  0.00000000000E+00 0.  1.
         21   -1    0    0  501  502 -0.00000000000E+00 -0.00000000000E+00 -0.32174651219E+03  0.32174651219E+03  0.00000000000E+00 0.  1.
         25    1    1    2    0    0 -0.81141725143E+02  0.90268247578E+02  0.13368367125E+02  0.17474567039E+03  0.12500000000E+03 0.  0.
         25    1    1    2    0    0  0.11298495967E+03 -0.12916726750E+03 -0.14371911196E+03  0.25637856238E+03  0.12500000000E+03 0.  0.
         25    1    1    2    0    0 -0.31843234525E+02  0.38899019918E+02  0.69650313477E+02  0.15166836026E+03  0.12500000000E+03 0.  0.
</event>
<event>
 5    0  0.5677492E-005  0.2650824E+03  0.7546771E-02  0.1104127E+00
         21   -1    0    0  502  501  0.00000000000E+00  0.00000000000E+00  0.42379332720E+03  0.42379332720E+03  0.00000000000E+00 0.  1.
         21   -1    0    0  501  502 -0.00000000000E+00 -0.00000000000E+00 -0.16580887876E+03  0.16580887876E+03  0.00000000000E+00 0.  1.
         25    1    1    2    0    0  0.10185226180E+03 -0.43271531791E+02 -0.52475110599E+01  0.16702947366E+03  0.12500000000E+03 0.  0.
         25    1    1    2    0    0  0.24626451226E+02  0.32904823739E+02  0.41123728046E+02  0.13785989458E+03  0.12500000000E+03 0.  0.
         25    1    1    2    0    0 -0.12647871303E+03  0.10366708052E+02  0.22210823146E+03  0.28471283772E+03  0.12500000000E+03 0.  0.
</event>
<event>
 5    0  0.5677492E-005  0.2419191E+03  0.7546771E-02  0.1118521E+00
         21   -1    0    0  502  501  0.00000000000E+00  0.00000000000E+00  0.15254049120E+03  0.15254049120E+03  0.00000000000E+00 0. -1.
         21   -1    0    0  501  502 -0.00000000000E+00 -0.00000000000E+00 -0.38366775923E+03  0.38366775923E+03  0.00000000000E+00 0. -1.
         25    1    1    2    0    0  0.52146126320E+02  0.34942411184E+02 -0.22460347466E+03  0.26459764062E+03  0.12500000000E+03 0.  0.
         25    1    1    2    0    0 -0.50145249325E+02 -0.53917550352E+02 -0.23364075628E+01  0.14509344253E+03  0.12500000000E+03 0.  0.
         25    1    1    2    0    0 -0.20008769954E+01  0.18975139167E+02 -0.41873858084E+01  0.12651716727E+03  0.12500000000E+03 0.  0.
</event>
<event>
 5    0  0.5677492E-005  0.3983151E+03  0.7546771E-02  0.1044365E+00
         21   -1    0    0  502  501  0.00000000000E+00  0.00000000000E+00  0.23436637035E+04  0.23436637035E+04  0.00000000000E+00 0.  1.
         21   -1    0    0  501  502 -0.00000000000E+00 -0.00000000000E+00 -0.67695267373E+02  0.67695267373E+02  0.00000000000E+00 0.  1.
         25    1    1    2    0    0 -0.12249303064E+03  0.22237543083E+01  0.28182668852E+03  0.33175408061E+03  0.12500000000E+03 0.  0.
         25    1    1    2    0    0  0.38280935132E+02 -0.26024160007E+03  0.98282127785E+03  0.10250628198E+04  0.12500000000E+03 0.  0.
         25    1    1    2    0    0  0.84212095511E+02  0.25801784576E+03  0.10113204698E+04  0.10545420704E+04  0.12500000000E+03 0.  0.
</event>
<event>
 5    0  0.5677492E-005  0.3995807E+03  0.7546771E-02  0.1043925E+00
         21   -1    0    0  502  501  0.00000000000E+00  0.00000000000E+00  0.15381249391E+03  0.15381249391E+03  0.00000000000E+00 0. -1.
         21   -1    0    0  501  502 -0.00000000000E+00 -0.00000000000E+00 -0.10380480777E+04  0.10380480777E+04  0.00000000000E+00 0. -1.
         25    1    1    2    0    0  0.20845581208E+03 -0.15110120639E+03 -0.38878789906E+03  0.48276954193E+03  0.12500000000E+03 0.  0.
         25    1    1    2    0    0 -0.20240182345E+03  0.18426524413E+03 -0.14210133148E+03  0.33277314606E+03  0.12500000000E+03 0.  0.
         25    1    1    2    0    0 -0.60539886286E+01 -0.33164037743E+02 -0.35334635324E+03  0.37631788361E+03  0.12500000000E+03 0.  0.
</event>
<event>
 5    0  0.5677492E-005  0.7595864E+03  0.7546771E-02  0.9620430E-01
         21   -1    0    0  502  501  0.00000000000E+00  0.00000000000E+00  0.15633523634E+04  0.15633523634E+04  0.00000000000E+00 0. -1.
         21   -1    0    0  501  502 -0.00000000000E+00 -0.00000000000E+00 -0.36906044706E+03  0.36906044706E+03  0.00000000000E+00 0. -1.
         25    1    1    2    0    0 -0.28773588836E+03  0.58024085468E+03  0.64150600957E+03  0.92012300873E+03  0.12500000000E+03 0.  0.
         25    1    1    2    0    0  0.19298361997E+02 -0.37120618563E+03  0.54222589217E+02  0.39589335459E+03  0.12500000000E+03 0.  0.
         25    1    1    2    0    0  0.26843752636E+03 -0.20903466905E+03  0.49856331752E+03  0.61639644711E+03  0.12500000000E+03 0.  0.
</event>
<event>
 5    0  0.5677492E-005  0.3637872E+03  0.7546771E-02  0.1057094E+00
         21   -1    0    0  502  501  0.00000000000E+00  0.00000000000E+00  0.86889358623E+02  0.86889358623E+02  0.00000000000E+00 0.  1.
         21   -1    0    0  501  502 -0.00000000000E+00 -0.00000000000E+00 -0.15230994962E+04  0.15230994962E+04  0.00000000000E+00 0. -1.
         25    1    1    2    0    0 -0.55919566131E+02  0.63850535536E+02 -0.42315823384E+03  0.44932369137E+03  0.12500000000E+03 0.  0.
         25    1    1    2    0    0  0.18143250315E+03  0.14005451292E+03 -0.70053093375E+03  0.74759722373E+03  0.12500000000E+03 0.  0.
         25    1    1    2    0    0 -0.12551293702E+03 -0.20390504846E+03 -0.31252097001E+03  0.41306793974E+03  0.12500000000E+03 0.  0.
</event>
<event>
 5    0  0.5677492E-005  0.3039016E+03  0.7546771E-02  0.1083306E+00
         21   -1    0    0  502  501  0.00000000000E+00  0.00000000000E+00  0.25438047879E+03  0.25438047879E+03  0.00000000000E+00 0. -1.
         21   -1    0    0  501  502 -0.00000000000E+00 -0.00000000000E+00 -0.36306315448E+03  0.36306315448E+03  0.00000000000E+00 0. -1.
         25    1    1    2    0    0 -0.35402821068E+01  0.20816953294E+02 -0.78314225348E+02  0.14901005682E+03  0.12500000000E+03 0.  0.
         25    1    1    2    0    0  0.42620361115E+02 -0.18117741880E+03  0.74615611951E+02  0.23629270368E+03  0.12500000000E+03 0.  0.
         25    1    1    2    0    0 -0.39080079009E+02  0.16036046551E+03 -0.10498406230E+03  0.23214087277E+03  0.12500000000E+03 0.  0.
</event>
<event>
 5    0  0.5677492E-005  0.2862213E+03  0.7546771E-02  0.1092339E+00
         21   -1    0    0  502  501  0.00000000000E+00  0.00000000000E+00  0.41263451007E+03  0.41263451007E+03  0.00000000000E+00 0.  1.
         21   -1    0    0  501  502 -0.00000000000E+00 -0.00000000000E+00 -0.19853556265E+03  0.19853556265E+03  0.00000000000E+00 0.  1.
         25    1    1    2    0    0  0.44789218974E+02 -0.14916397704E+03  0.78243203366E+02  0.21448301810E+03  0.12500000000E+03 0.  0.
         25    1    1    2    0    0  0.77390166841E+02  0.22053252431E+02  0.15916428833E+02  0.14951226228E+03  0.12500000000E+03 0.  0.
         25    1    1    2    0    0 -0.12217938582E+03  0.12711072460E+03  0.11993931523E+03  0.24717479233E+03  0.12500000000E+03 0.  0.
</event>
<event>
 5    0  0.5812429E-005  0.2820672E+03  0.7546771E-02  0.1094565E+00
         21   -1    0    0  502  501  0.00000000000E+00  0.00000000000E+00  0.25279213277E+03  0.25279213277E+03  0.00000000000E+00 0. -1.
         21   -1    0    0  501  502 -0.00000000000E+00 -0.00000000000E+00 -0.31473255071E+03  0.31473255071E+03  0.00000000000E+00 0. -1.
         25    1    1    2    0    0 -0.13075910438E+03  0.79249700613E+02 -0.13466398975E+03  0.23903524543E+03  0.12500000000E+03 0.  0.
         25    1    1    2    0    0  0.55507778825E+02  0.26783536774E+02  0.41741568253E+02  0.14548480977E+03  0.12500000000E+03 0.  0.
         25    1    1    2    0    0  0.75251325551E+02 -0.10603323739E+03  0.30982003551E+02  0.18300462828E+03  0.12500000000E+03 0.  0.
</event>
<event>
 5    0  0.5677492E-005  0.2744357E+03  0.7546771E-02  0.1098767E+00
         21   -1    0    0  502  501  0.00000000000E+00  0.00000000000E+00  0.35788919236E+03  0.35788919236E+03  0.00000000000E+00 0.  1.
         21   -1    0    0  501  502 -0.00000000000E+00 -0.00000000000E+00 -0.21044204983E+03  0.21044204983E+03  0.00000000000E+00 0.  1.
         25    1    1    2    0    0  0.97558146035E+02  0.40269758768E+02 -0.91524259063E+02  0.18745915642E+03  0.12500000000E+03 0.  0.
         25    1    1    2    0    0 -0.69746888003E+01  0.27121178230E+02  0.10029088003E+03  0.16268824546E+03  0.12500000000E+03 0.  0.
         25    1    1    2    0    0 -0.90583457235E+02 -0.67390936998E+02  0.13868052156E+03  0.21818384031E+03  0.12500000000E+03 0.  0.
</event>
<event>
 5    0  0.5677492E-005  0.3485946E+03  0.7546771E-02  0.1063193E+00
         21   -1    0    0  502  501  0.00000000000E+00  0.00000000000E+00  0.55739098237E+03  0.55739098237E+03  0.00000000000E+00 0. -1.
         21   -1    0    0  501  502 -0.00000000000E+00 -0.00000000000E+00 -0.21801245548E+03  0.21801245548E+03  0.00000000000E+00 0. -1.
         25    1    1    2    0    0 -0.16400424357E+03  0.99605171319E+02  0.25132812854E+03  0.34001383834E+03  0.12500000000E+03 0.  0.
         25    1    1    2    0    0 -0.41465081986E+02  0.52383541300E+02  0.34812016173E+02  0.14594610270E+03  0.12500000000E+03 0.  0.
         25    1    1    2    0    0  0.20546932556E+03 -0.15198871262E+03  0.53238382184E+02  0.28944349681E+03  0.12500000000E+03 0.  0.
</event>
<event>
 5    0  0.5677492E-005  0.2394090E+03  0.7546771E-02  0.1120187E+00
         21   -1    0    0  502  501  0.00000000000E+00  0.00000000000E+00  0.11280582322E+03  0.11280582322E+03  0.00000000000E+00 0.  1.
         21   -1    0    0  501  502 -0.00000000000E+00 -0.00000000000E+00 -0.50810012981E+03  0.50810012981E+03  0.00000000000E+00 0.  1.
         25    1    1    2    0    0 -0.35579552274E+02 -0.66617388591E+02 -0.16858834272E+03  0.22304889666E+03  0.12500000000E+03 0.  0.
         25    1    1    2    0    0 -0.75677786791E+02  0.53944240358E+02 -0.80773051827E+02  0.17546052087E+03  0.12500000000E+03 0.  0.
         25    1    1    2    0    0  0.11125733907E+03  0.12673148233E+02 -0.14593291204E+03  0.22239653549E+03  0.12500000000E+03 0.  0.
</event>
<event>
 5    0  0.5677492E-005  0.3163628E+03  0.7546771E-02  0.1077336E+00
         21   -1    0    0  502  501  0.00000000000E+00  0.00000000000E+00  0.52681584303E+03  0.52681584303E+03  0.00000000000E+00 0. -1.
         21   -1    0    0  501  502 -0.00000000000E+00 -0.00000000000E+00 -0.18998181905E+03  0.18998181905E+03  0.00000000000E+00 0. -1.
         25    1    1    2    0    0 -0.21911430393E+02  0.40485199004E+02  0.34166787807E+03  0.36671664951E+03  0.12500000000E+03 0.  0.
         25    1    1    2    0    0 -0.40383564526E+01 -0.13190591416E+03 -0.46500650199E+02  0.18762406291E+03  0.12500000000E+03 0.  0.
         25    1    1    2    0    0  0.25949786845E+02  0.91420715157E+02  0.41666796109E+02  0.16245694967E+03  0.12500000000E+03 0.  0.
</event>
<event>
 5    0  0.5677492E-005  0.2213335E+03  0.7546771E-02  0.1132893E+00
         21   -1    0    0  502  501  0.00000000000E+00  0.00000000000E+00  0.62541091284E+03  0.62541091284E+03  0.00000000000E+00 0.  1.
         21   -1    0    0  501  502 -0.00000000000E+00 -0.00000000000E+00 -0.78330112600E+02  0.78330112600E+02  0.00000000000E+00 0.  1.
         25    1    1    2    0    0  0.54860406123E+02  0.48349059986E+02  0.15236084137E+03  0.21020495176E+03  0.12500000000E+03 0.  0.
         25    1    1    2    0    0 -0.78786541333E+02  0.21372111664E+02  0.17255113154E+03  0.22817313437E+03  0.12500000000E+03 0.  0.
         25    1    1    2    0    0  0.23926135210E+02 -0.69721171650E+02  0.22216882733E+03  0.26536293931E+03  0.12500000000E+03 0.  0.
</event>
<event>
 5    0  0.5677492E-005  0.5073513E+03  0.7546771E-02  0.1011878E+00
         21   -1    0    0  502  501  0.00000000000E+00  0.00000000000E+00  0.25977833465E+03  0.25977833465E+03  0.00000000000E+00 0. -1.
         21   -1    0    0  501  502 -0.00000000000E+00 -0.00000000000E+00 -0.99086540477E+03  0.99086540477E+03  0.00000000000E+00 0. -1.
         25    1    1    2    0    0 -0.17343764992E+03  0.16321193276E+02 -0.11331259147E+03  0.24251132581E+03  0.12500000000E+03 0.  0.
         25    1    1    2    0    0  0.34740810108E+03 -0.27358422082E+03 -0.39546810689E+03  0.60626787655E+03  0.12500000000E+03 0.  0.
         25    1    1    2    0    0 -0.17397045115E+03  0.25726302754E+03 -0.22230637176E+03  0.40186453705E+03  0.12500000000E+03 0.  0.
</event>
<event>
 5    0  0.5677492E-005  0.4004260E+03  0.7546771E-02  0.1043632E+00
         21   -1    0    0  502  501  0.00000000000E+00  0.00000000000E+00  0.90544400190E+02  0.90544400190E+02  0.00000000000E+00 0.  1.
         21   -1    0    0  501  502 -0.00000000000E+00 -0.00000000000E+00 -0.17708545695E+04  0.17708545695E+04  0.00000000000E+00 0.  1.
         25    1    1    2    0    0 -0.63534880768E+02  0.20345102983E+03 -0.22168220889E+03  0.33195934141E+03  0.12500000000E+03 0.  0.
         25    1    1    2    0    0  0.10330598927E+03 -0.96315034970E+02 -0.12328692904E+04  0.12472130534E+04  0.12500000000E+03 0.  0.
         25    1    1    2    0    0 -0.39771108501E+02 -0.10713599486E+03 -0.22575866996E+03  0.28222657481E+03  0.12500000000E+03 0.  0.
</event>
<event>
 5    0  0.5677492E-005  0.3123242E+03  0.7546771E-02  0.1079237E+00
         21   -1    0    0  502  501  0.00000000000E+00  0.00000000000E+00  0.43648143438E+03  0.43648143438E+03  0.00000000000E+00 0. -1.
         21   -1    0    0  501  502 -0.00000000000E+00 -0.00000000000E+00 -0.22348345428E+03  0.22348345428E+03  0.00000000000E+00 0. -1.
         25    1    1    2    0    0 -0.12611950484E+03 -0.11105007160E+03 -0.51725712460E+02  0.21572852670E+03  0.12500000000E+03 0.  0.
         25    1    1    2    0    0  0.26132009293E+02  0.14235857257E+03  0.11709547437E+03  0.22424360685E+03  0.12500000000E+03 0.  0.
         25    1    1    2    0    0  0.99987495543E+02 -0.31308500968E+02  0.14762821819E+03  0.21999275512E+03  0.12500000000E+03 0.  0.
</event>
<event>
 5    0  0.5677492E-005  0.4713339E+03  0.7546771E-02  0.1021544E+00
         21   -1    0    0  502  501  0.00000000000E+00  0.00000000000E+00  0.66755006187E+03  0.66755006187E+03  0.00000000000E+00 0.  1.
         21   -1    0    0  501  502 -0.00000000000E+00 -0.00000000000E+00 -0.33279242171E+03  0.33279242171E+03  0.00000000000E+00 0.  1.
         25    1    1    2    0    0 -0.71038437389E+02  0.18708484070E+03  0.28723775266E+02  0.23769150694E+03  0.12500000000E+03 0.  0.
         25    1    1    2    0    0 -0.20057770862E+03 -0.41770126486E+02 -0.80201897771E+02  0.25304842435E+03  0.12500000000E+03 0.  0.
         25    1    1    2    0    0  0.27161614601E+03 -0.14531471421E+03  0.38623576266E+03  0.50960255229E+03  0.12500000000E+03 0.  0.
</event>
<event>
 5    0  0.5677492E-005  0.7324199E+03  0.7546771E-02  0.9663342E-01
         21   -1    0    0  502  501  0.00000000000E+00  0.00000000000E+00  0.19626154958E+04  0.19626154958E+04  0.00000000000E+00 0. -1.
         21   -1    0    0  501  502 -0.00000000000E+00 -0.00000000000E+00 -0.27332861408E+03  0.27332861408E+03  0.00000000000E+00 0. -1.
         25    1    1    2    0    0  0.50362968218E+02 -0.34504523209E+02  0.16710268589E+03  0.21742883508E+03  0.12500000000E+03 0.  0.
         25    1    1    2    0    0 -0.39046307331E+02 -0.29561852385E+03 -0.11538164426E+03  0.34329702823E+03  0.12500000000E+03 0.  0.
         25    1    1    2    0    0 -0.11316660887E+02  0.33012304706E+03  0.16375658401E+04  0.16752182465E+04  0.12500000000E+03 0.  0.
</event>
<event>
 5    0  0.5677492E-005  0.3284260E+03  0.7546771E-02  0.1071835E+00
         21   -1    0    0  502  501  0.00000000000E+00  0.00000000000E+00  0.47165692960E+03  0.47165692960E+03  0.00000000000E+00 0.  1.
         21   -1    0    0  501  502 -0.00000000000E+00 -0.00000000000E+00 -0.22869094113E+03  0.22869094113E+03  0.00000000000E+00 0.  1.
         25    1    1    2    0    0  0.22731305069E+02 -0.77354676792E+02  0.10971991089E+03  0.18483483735E+03  0.12500000000E+03 0.  0.
         25    1    1    2    0    0  0.50743027948E+02 -0.14033136663E+02 -0.13874312156E+03  0.19402689914E+03  0.12500000000E+03 0.  0.
         25    1    1    2    0    0 -0.73474333017E+02  0.91387813455E+02  0.27198919915E+03  0.32148613425E+03  0.12500000000E+03 0.  0.
</event>
<event>
 5    0  0.5677492E-005  0.2654320E+03  0.7546771E-02  0.1103923E+00
         21   -1    0    0  502  501  0.00000000000E+00  0.00000000000E+00  0.19240707215E+03  0.19240707215E+03  0.00000000000E+00 0.  1.
         21   -1    0    0  501  502 -0.00000000000E+00 -0.00000000000E+00 -0.36617241463E+03  0.36617241463E+03  0.00000000000E+00 0.  1.
         25    1    1    2    0    0 -0.10897410872E+02 -0.41427341500E+02  0.48619479974E+02  0.14079713073E+03  0.12500000000E+03 0.  0.
         25    1    1    2    0    0  0.31617851582E+01 -0.69786658375E+02 -0.20406157664E+03  0.24929159960E+03  0.12500000000E+03 0.  0.
         25    1    1    2    0    0  0.77356257133E+01  0.11121399988E+03 -0.18323245825E+02  0.16849075646E+03  0.12500000000E+03 0.  0.
</event>
<event>
 5    0  0.5677492E-005  0.3467547E+03  0.7546771E-02  0.1063955E+00
         21   -1    0    0  502  501  0.00000000000E+00  0.00000000000E+00  0.52561376314E+03  0.52561376314E+03  0.00000000000E+00 0. -1.
         21   -1    0    0  501  502 -0.00000000000E+00 -0.00000000000E+00 -0.22875887215E+03  0.22875887215E+03  0.00000000000E+00 0. -1.
         25    1    1    2    0    0  0.14525430709E+03  0.68372659489E+02  0.12381265933E+03  0.23817684376E+03  0.12500000000E+03 0.  0.
         25    1    1    2    0    0  0.11399704380E+03 -0.10033782524E+03  0.66279599950E+02  0.20755960719E+03  0.12500000000E+03 0.  0.
         25    1    1    2    0    0 -0.25925135088E+03  0.31965165749E+02  0.10676263171E+03  0.30863618434E+03  0.12500000000E+03 0.  0.
</event>
<event>
 5    0  0.5677492E-005  0.3096998E+03  0.7546771E-02  0.1080490E+00
         21   -1    0    0  502  501  0.00000000000E+00  0.00000000000E+00  0.11561363603E+03  0.11561363603E+03  0.00000000000E+00 0. -1.
         21   -1    0    0  501  502 -0.00000000000E+00 -0.00000000000E+00 -0.82960780664E+03  0.82960780664E+03  0.00000000000E+00 0. -1.
         25    1    1    2    0    0  0.87028971502E+01  0.13255963761E+03 -0.47446251871E+03  0.50831828573E+03  0.12500000000E+03 0.  0.
         25    1    1    2    0    0  0.65281256908E+01  0.10659078403E+02 -0.20888592848E+03  0.24375102768E+03  0.12500000000E+03 0.  0.
         25    1    1    2    0    0 -0.15231022841E+02 -0.14321871601E+03 -0.30645723413E+02  0.19315212926E+03  0.12500000000E+03 0.  0.
</event>
<event>
 5    0  0.5677492E-005  0.3084023E+03  0.7546771E-02  0.1081114E+00
         21   -1    0    0  502  501  0.00000000000E+00  0.00000000000E+00  0.92626791485E+03  0.92626791485E+03  0.00000000000E+00 0.  1.
         21   -1    0    0  501  502 -0.00000000000E+00 -0.00000000000E+00 -0.10268299301E+03  0.10268299301E+03  0.00000000000E+00 0.  1.
         25    1    1    2    0    0 -0.16025460063E+03  0.50408417593E+02  0.22783324352E+03  0.30944390839E+03  0.12500000000E+03 0.  0.
         25    1    1    2    0    0  0.71802532026E+01  0.52789805193E+02  0.80125918011E+02  0.15774499138E+03  0.12500000000E+03 0.  0.
         25    1    1    2    0    0  0.15307434743E+03 -0.10319822279E+03  0.51562576031E+03  0.56176200808E+03  0.12500000000E+03 0.  0.
</event>
<event>
 5    0  0.5677492E-005  0.4977656E+03  0.7546771E-02  0.1014364E+00
         21   -1    0    0  502  501  0.00000000000E+00  0.00000000000E+00  0.20128683105E+04  0.20128683105E+04  0.00000000000E+00 0. -1.
         21   -1    0    0  501  502 -0.00000000000E+00 -0.00000000000E+00 -0.12309329802E+03  0.12309329802E+03  0.00000000000E+00 0. -1.
         25    1    1    2    0    0 -0.33460257361E+02 -0.21461172430E+03  0.40048669872E+02  0.25378470598E+03  0.12500000000E+03 0.  0.
         25    1    1    2    0    0  0.33162646263E+02  0.99465693662E+02  0.63523240135E+03  0.65584936461E+03  0.12500000000E+03 0.  0.
         25    1    1    2    0    0  0.29761109766E+00  0.11514603064E+03  0.12144939412E+04  0.12263275379E+04  0.12500000000E+03 0.  0.
</event>
<event>
 5    0  0.5677492E-005  0.2929323E+03  0.7546771E-02  0.1088828E+00
         21   -1    0    0  502  501  0.00000000000E+00  0.00000000000E+00  0.46217254496E+03  0.46217254496E+03  0.00000000000E+00 0.  1.
         21   -1    0    0  501  502 -0.00000000000E+00 -0.00000000000E+00 -0.18566512006E+03  0.18566512006E+03  0.00000000000E+00 0.  1.
         25    1    1    2    0    0  0.19252557221E+03 -0.70811714738E+01  0.78444655156E+02  0.24268251454E+03  0.12500000000E+03 0.  0.
         25    1    1    2    0    0 -0.36614374285E+02  0.29857695987E+02  0.14491823382E+03  0.19712531270E+03  0.12500000000E+03 0.  0.
         25    1    1    2    0    0 -0.15591119792E+03 -0.22776524513E+02  0.53144535931E+02  0.20802983778E+03  0.12500000000E+03 0.  0.
</event>
<event>
 5    0  0.5677492E-005  0.2860417E+03  0.7546771E-02  0.1092434E+00
         21   -1    0    0  502  501  0.00000000000E+00  0.00000000000E+00  0.46901366393E+03  0.46901366393E+03  0.00000000000E+00 0.  1.
         21   -1    0    0  501  502 -0.00000000000E+00 -0.00000000000E+00 -0.17445089934E+03  0.17445089934E+03  0.00000000000E+00 0.  1.
         25    1    1    2    0    0 -0.25116046944E+02 -0.20583382619E+02  0.95160953651E+02  0.16042162745E+03  0.12500000000E+03 0.  0.
         25    1    1    2    0    0 -0.55955821565E+02  0.13662778498E+03 -0.18923061442E+02  0.19437409253E+03  0.12500000000E+03 0.  0.
         25    1    1    2    0    0  0.81071868509E+02 -0.11604440236E+03  0.21832487238E+03  0.28866884328E+03  0.12500000000E+03 0.  0.
</event>
<event>
 5    0  0.5677492E-005  0.2899426E+03  0.7546771E-02  0.1090379E+00
         21   -1    0    0  502  501  0.00000000000E+00  0.00000000000E+00  0.93217869253E+03  0.93217869253E+03  0.00000000000E+00 0.  1.
         21   -1    0    0  501  502 -0.00000000000E+00 -0.00000000000E+00 -0.90183073233E+02  0.90183073233E+02  0.00000000000E+00 0.  1.
         25    1    1    2    0    0 -0.45438867560E+02 -0.74312907282E+02  0.64780185932E+02  0.16555534230E+03  0.12500000000E+03 0.  0.
         25    1    1    2    0    0  0.47336817147E+02 -0.48951641386E+02  0.15565798414E+03  0.21092995396E+03  0.12500000000E+03 0.  0.
         25    1    1    2    0    0 -0.18979495872E+01  0.12326454867E+03  0.62155744923E+03  0.64587646951E+03  0.12500000000E+03 0.  0.
</event>
<event>
 5    0  0.5677492E-005  0.4013152E+03  0.7546771E-02  0.1043325E+00
         21   -1    0    0  502  501  0.00000000000E+00  0.00000000000E+00  0.13360183072E+04  0.13360183072E+04  0.00000000000E+00 0.  1.
         21   -1    0    0  501  502 -0.00000000000E+00 -0.00000000000E+00 -0.12054763807E+03  0.12054763807E+03  0.00000000000E+00 0.  1.
         25    1    1    2    0    0 -0.28452022590E+02 -0.99169490077E+02  0.43824470157E+03  0.46725530902E+03  0.12500000000E+03 0.  0.
         25    1    1    2    0    0  0.95427594291E+01 -0.17400326461E+03  0.78273630892E+02  0.22829796680E+03  0.12500000000E+03 0.  0.
         25    1    1    2    0    0  0.18909263161E+02  0.27317275469E+03  0.69895233668E+03  0.76101266947E+03  0.12500000000E+03 0.  0.
</event>
<event>
 5    0  0.5677492E-005  0.4827556E+03  0.7546771E-02  0.1018381E+00
         21   -1    0    0  502  501  0.00000000000E+00  0.00000000000E+00  0.38820807756E+03  0.38820807756E+03  0.00000000000E+00 0. -1.
         21   -1    0    0  501  502 -0.00000000000E+00 -0.00000000000E+00 -0.60033003525E+03  0.60033003525E+03  0.00000000000E+00 0. -1.
         25    1    1    2    0    0  0.12448961460E+03 -0.10007527885E+03 -0.20011955961E+03  0.28493080514E+03  0.12500000000E+03 0.  0.
         25    1    1    2    0    0 -0.29155483590E+03  0.23183109069E+03 -0.15036422614E+03  0.42069499337E+03  0.12500000000E+03 0.  0.
         25    1    1    2    0    0  0.16706522130E+03 -0.13175581183E+03  0.13836182806E+03  0.28291231430E+03  0.12500000000E+03 0.  0.
</event>
<event>
 5    0  0.5677492E-005  0.3903638E+03  0.7546771E-02  0.1047168E+00
         21   -1    0    0  502  501  0.00000000000E+00  0.00000000000E+00  0.19103732958E+03  0.19103732958E+03  0.00000000000E+00 0. -1.
         21   -1    0    0  501  502 -0.00000000000E+00 -0.00000000000E+00 -0.79766545571E+03  0.79766545571E+03  0.00000000000E+00 0. -1.
         25    1    1    2    0    0  0.25077286668E+03  0.15136102206E+00 -0.36502794642E+03  0.46017111518E+03  0.12500000000E+03 0.  0.
         25    1    1    2    0    0 -0.94495719321E+02 -0.70837634478E+01  0.58794697418E+02  0.16751548322E+03  0.12500000000E+03 0.  0.
         25    1    1    2    0    0 -0.15627714736E+03  0.69324024257E+01 -0.30039487713E+03  0.36101618689E+03  0.12500000000E+03 0.  0.
</event>
<event>
 5    0  0.5677492E-005  0.3704089E+03  0.7546771E-02  0.1054537E+00
         21   -1    0    0  502  501  0.00000000000E+00  0.00000000000E+00  0.14218788185E+03  0.14218788185E+03  0.00000000000E+00 0. -1.
         21   -1    0    0  501  502 -0.00000000000E+00 -0.00000000000E+00 -0.96493978275E+03  0.96493978275E+03  0.00000000000E+00 0. -1.
         25    1    1    2    0    0  0.15636904130E+03  0.11089407384E+03 -0.65667928452E+03  0.69541459246E+03  0.12500000000E+03 0.  0.
         25    1    1    2    0    0 -0.82611655966E+02 -0.28937590298E+02  0.28785394256E+02  0.15529220443E+03  0.12500000000E+03 0.  0.
         25    1    1    2    0    0 -0.73757385338E+02 -0.81956483539E+02 -0.19485801064E+03  0.25642086771E+03  0.12500000000E+03 0.  0.
</event>
<event>
 5    0  0.5677492E-005  0.2153423E+03  0.7546771E-02  0.1137404E+00
         21   -1    0    0  502  501  0.00000000000E+00  0.00000000000E+00  0.80345300692E+03  0.80345300692E+03  0.00000000000E+00 0.  1.
         21   -1    0    0  501  502 -0.00000000000E+00 -0.00000000000E+00 -0.57716255105E+02  0.57716255105E+02  0.00000000000E+00 0.  1.
         25    1    1    2    0    0 -0.54743496754E+02  0.46074077710E+02  0.26582873527E+03  0.30234018517E+03  0.12500000000E+03 0.  0.
         25    1    1    2    0    0  0.85428041301E+02 -0.63273942981E+01  0.24768432079E+03  0.29036271958E+03  0.12500000000E+03 0.  0.
         25    1    1    2    0    0 -0.30684544548E+02 -0.39746683412E+02  0.23222369576E+03  0.26846635728E+03  0.12500000000E+03 0.  0.
</event>
<event>
 5    0  0.5677492E-005  0.3554590E+03  0.7546771E-02  0.1060397E+00
         21   -1    0    0  502  501  0.00000000000E+00  0.00000000000E+00  0.25608790337E+04  0.25608790337E+04  0.00000000000E+00 0. -1.
         21   -1    0    0  501  502 -0.00000000000E+00 -0.00000000000E+00 -0.49338949223E+02  0.49338949223E+02  0.00000000000E+00 0. -1.
         25    1    1    2    0    0  0.38288360142E+02  0.19677132265E+03  0.10847786080E+04  0.11102047470E+04  0.12500000000E+03 0.  0.
         25    1    1    2    0    0  0.39917207415E+02 -0.25389942829E+03  0.69709033523E+03  0.75340443230E+03  0.12500000000E+03 0.  0.
         25    1    1    2    0    0 -0.78205567557E+02  0.57128105639E+02  0.72967114124E+03  0.74660880359E+03  0.12500000000E+03 0.  0.
</event>
<event>
 5    0  0.5677492E-005  0.2676515E+03  0.7546771E-02  0.1102631E+00
         21   -1    0    0  502  501  0.00000000000E+00  0.00000000000E+00  0.82667735226E+03  0.82667735226E+03  0.00000000000E+00 0.  1.
         21   -1    0    0  501  502 -0.00000000000E+00 -0.00000000000E+00 -0.86656951290E+02  0.86656951290E+02  0.00000000000E+00 0.  1.
         25    1    1    2    0    0 -0.20727050550E+02  0.70767521427E+01  0.69558906748E+02  0.14471742312E+03  0.12500000000E+03 0.  0.
         25    1    1    2    0    0  0.99156041100E+02 -0.81191914874E+02  0.50090250511E+03  0.53193267163E+03  0.12500000000E+03 0.  0.
         25    1    1    2    0    0 -0.78428990550E+02  0.74115162732E+02  0.16955898911E+03  0.23668420880E+03  0.12500000000E+03 0.  0.
</event>
<event>
 5    0  0.5677492E-005  0.2632213E+03  0.7546771E-02  0.1105223E+00
         21   -1    0    0  502  501  0.00000000000E+00  0.00000000000E+00  0.81323906960E+02  0.81323906960E+02  0.00000000000E+00 0.  1.
         21   -1    0    0  501  502 -0.00000000000E+00 -0.00000000000E+00 -0.85196910668E+03  0.85196910668E+03  0.00000000000E+00 0.  1.
         25    1    1    2    0    0 -0.64788407353E+02 -0.26205001671E+02 -0.49796996319E+03  0.51815376490E+03  0.12500000000E+03 0.  0.
         25    1    1    2    0    0  0.52759457372E+02 -0.39663522562E+02 -0.22465107145E+03  0.26542392369E+03  0.12500000000E+03 0.  0.
         25    1    1    2    0    0  0.12028949981E+02  0.65868524233E+02 -0.48024165076E+02  0.14971532505E+03  0.12500000000E+03 0.  0.
</event>
<event>
 5    0  0.5677492E-005  0.2396921E+03  0.7546771E-02  0.1119998E+00
         21   -1    0    0  502  501  0.00000000000E+00  0.00000000000E+00  0.59290215487E+03  0.59290215487E+03  0.00000000000E+00 0.  1.
         21   -1    0    0  501  502 -0.00000000000E+00 -0.00000000000E+00 -0.96900105151E+02  0.96900105151E+02  0.00000000000E+00 0.  1.
         25    1    1    2    0    0 -0.17167390441E+02  0.56734895110E+02  0.35809742652E+03  0.38389104509E+03  0.12500000000E+03 0.  0.
         25    1    1    2    0    0  0.46767230225E+02 -0.65335484035E+01  0.51737354463E+02  0.14328857220E+03  0.12500000000E+03 0.  0.
         25    1    1    2    0    0 -0.29599839784E+02 -0.50201346706E+02  0.86167268733E+02  0.16262264273E+03  0.12500000000E+03 0.  0.
</event>
<event>
 5    0  0.5677492E-005  0.3568884E+03  0.7546771E-02  0.1059823E+00
         21   -1    0    0  502  501  0.00000000000E+00  0.00000000000E+00  0.44205939797E+03  0.44205939797E+03  0.00000000000E+00 0. -1.
         21   -1    0    0  501  502 -0.00000000000E+00 -0.00000000000E+00 -0.28812716001E+03  0.28812716001E+03  0.00000000000E+00 0. -1.
         25    1    1    2    0    0  0.89733488189E+02 -0.96796819279E+02  0.30498043983E+03  0.35504899916E+03  0.12500000000E+03 0.  0.
         25    1    1    2    0    0  0.56343750740E+02  0.37713294317E+02 -0.65637473815E+02  0.15662116327E+03  0.12500000000E+03 0.  0.
         25    1    1    2    0    0 -0.14607723893E+03  0.59083524962E+02 -0.85410728052E+02  0.21851639554E+03  0.12500000000E+03 0.  0.
</event>
<event>
 5    0  0.5991894E-005  0.3515095E+03  0.7546771E-02  0.1061997E+00
         21   -1    0    0  502  501  0.00000000000E+00  0.00000000000E+00  0.72027097637E+03  0.72027097637E+03  0.00000000000E+00 0.  1.
         21   -1    0    0  501  502 -0.00000000000E+00 -0.00000000000E+00 -0.17154503268E+03  0.17154503268E+03  0.00000000000E+00 0.  1.
         25    1    1    2    0    0  0.14005678166E+03  0.11103790930E+03  0.40210417409E+03  0.45744735895E+03  0.12500000000E+03 0.  0.
         25    1    1    2    0    0 -0.16248386155E+02 -0.15175276903E+03  0.15897715761E+03  0.25336071046E+03  0.12500000000E+03 0.  0.
         25    1    1    2    0    0 -0.12380839550E+03  0.40714859734E+02 -0.12355388010E+02  0.18100793964E+03  0.12500000000E+03 0.  0.
</event>
<event>
 5    0  0.5677492E-005  0.2372432E+03  0.7546771E-02  0.1121643E+00
         21   -1    0    0  502  501  0.00000000000E+00  0.00000000000E+00  0.22003787522E+03  0.22003787522E+03  0.00000000000E+00 0.  1.
         21   -1    0    0  501  502 -0.00000000000E+00 -0.00000000000E+00 -0.25579380323E+03  0.25579380323E+03  0.00000000000E+00 0.  1.
         25    1    1    2    0    0 -0.89780133883E+02 -0.76634715819E+01 -0.88618820033E+02  0.17775684657E+03  0.12500000000E+03 0.  0.
         25    1    1    2    0    0  0.69373803949E+02  0.29044587434E+02  0.80601485053E+02  0.16666706971E+03  0.12500000000E+03 0.  0.
         25    1    1    2    0    0  0.20406329935E+02 -0.21381115852E+02 -0.27738593030E+02  0.13140776217E+03  0.12500000000E+03 0.  0.
</event>
<event>
 5    0  0.5677492E-005  0.3913031E+03  0.7546771E-02  0.1046833E+00
         21   -1    0    0  502  501  0.00000000000E+00  0.00000000000E+00  0.25555996883E+04  0.25555996883E+04  0.00000000000E+00 0.  1.
         21   -1    0    0  501  502 -0.00000000000E+00 -0.00000000000E+00 -0.59914753421E+02  0.59914753421E+02  0.00000000000E+00 0.  1.
         25    1    1    2    0    0 -0.11195019780E+02  0.57452323058E+02  0.75115501087E+03  0.76373093970E+03  0.12500000000E+03 0.  0.
         25    1    1    2    0    0  0.24683962654E+03  0.11573954702E+03  0.93937303407E+03  0.98608931700E+03  0.12500000000E+03 0.  0.
         25    1    1    2    0    0 -0.23564460676E+03 -0.17319187008E+03  0.80515688994E+03  0.86569418502E+03  0.12500000000E+03 0.  0.
</event>
<event>
 5    0  0.5677492E-005  0.2497905E+03  0.7546771E-02  0.1113437E+00
         21   -1    0    0  502  501  0.00000000000E+00  0.00000000000E+00  0.51013786274E+02  0.51013786274E+02  0.00000000000E+00 0.  1.
         21   -1    0    0  501  502 -0.00000000000E+00 -0.00000000000E+00 -0.12231066860E+04  0.12231066860E+04  0.00000000000E+00 0.  1.
         25    1    1    2    0    0 -0.11634170505E+02 -0.48566167184E+02 -0.53990861116E+03  0.55643538252E+03  0.12500000000E+03 0.  0.
         25    1    1    2    0    0 -0.32189738166E+02 -0.74651537389E+02 -0.37214759176E+03  0.40090879428E+03  0.12500000000E+03 0.  0.
         25    1    1    2    0    0  0.43823908671E+02  0.12321770457E+03 -0.26003669684E+03  0.31677629551E+03  0.12500000000E+03 0.  0.
</event>
<event>
 5    0  0.5677492E-005  0.4584819E+03  0.7546771E-02  0.1025222E+00
         21   -1    0    0  502  501  0.00000000000E+00  0.00000000000E+00  0.80369958959E+03  0.80369958959E+03  0.00000000000E+00 0. -1.
         21   -1    0    0  501  502 -0.00000000000E+00 -0.00000000000E+00 -0.26154756820E+03  0.26154756820E+03  0.00000000000E+00 0. -1.
         25    1    1    2    0    0 -0.29977899059E+02  0.36808779994E+03  0.38984104793E+03  0.55135138120E+03  0.12500000000E+03 0.  0.
         25    1    1    2    0    0 -0.44577034979E+02 -0.64568368614E+02  0.84359161916E+01  0.14782540700E+03  0.12500000000E+03 0.  0.
         25    1    1    2    0    0  0.74554934038E+02 -0.30351943133E+03  0.14387505726E+03  0.36607036958E+03  0.12500000000E+03 0.  0.
</event>
<event>
 5    0  0.5677492E-005  0.4605500E+03  0.7546771E-02  0.1024622E+00
         21   -1    0    0  502  501  0.00000000000E+00  0.00000000000E+00  0.41109347573E+03  0.41109347573E+03  0.00000000000E+00 0.  1.
         21   -1    0    0  501  502 -0.00000000000E+00 -0.00000000000E+00 -0.51595639968E+03  0.51595639968E+03  0.00000000000E+00 0.  1.
         25    1    1    2    0    0  0.29167552450E+03  0.13878318908E+03  0.44402687685E+02  0.34918760550E+03  0.12500000000E+03 0.  0.
         25    1    1    2    0    0 -0.16492883901E+03 -0.19167587497E+01 -0.25603901708E+03  0.32922055550E+03  0.12500000000E+03 0.  0.
         25    1    1    2    0    0 -0.12674668549E+03 -0.13686643033E+03  0.10677340544E+03  0.24864171440E+03  0.12500000000E+03 0.  0.
</event>
<event>
 5    0  0.5677492E-005  0.2270043E+03  0.7546771E-02  0.1128766E+00
         21   -1    0    0  502  501  0.00000000000E+00  0.00000000000E+00  0.20272106928E+03  0.20272106928E+03  0.00000000000E+00 0.  1.
         21   -1    0    0  501  502 -0.00000000000E+00 -0.00000000000E+00 -0.25419627674E+03  0.25419627674E+03  0.00000000000E+00 0.  1.
         25    1    1    2    0    0  0.41223806772E+02 -0.28037162613E+02 -0.10923398253E+02  0.13501779646E+03  0.12500000000E+03 0.  0.
         25    1    1    2    0    0  0.28670515209E+02  0.19379215503E+02 -0.10280210465E+03  0.16550173763E+03  0.12500000000E+03 0.  0.
         25    1    1    2    0    0 -0.69894321981E+02  0.86579471099E+01  0.62250295450E+02  0.15639781193E+03  0.12500000000E+03 0.  0.
</event>
<event>
 5    0  0.5677492E-005  0.3469328E+03  0.7546771E-02  0.1063881E+00
         21   -1    0    0  502  501  0.00000000000E+00  0.00000000000E+00  0.74206980232E+03  0.74206980232E+03  0.00000000000E+00 0.  1.
         21   -1    0    0  501  502 -0.00000000000E+00 -0.00000000000E+00 -0.16219822001E+03  0.16219822001E+03  0.00000000000E+00 0.  1.
         25    1    1    2    0    0 -0.26447617237E+00 -0.11063349224E+03  0.18201704476E+03  0.24697174764E+03  0.12500000000E+03 0.  0.
         25    1    1    2    0    0 -0.64555723204E+01  0.12869575688E+03 -0.54482278220E+02  0.18761020999E+03  0.12500000000E+03 0.  0.
         25    1    1    2    0    0  0.67200484928E+01 -0.18062264647E+02  0.45233681577E+03  0.46968606468E+03  0.12500000000E+03 0.  0.
</event>
<event>
 5    0  0.5677492E-005  0.3581978E+03  0.7546771E-02  0.1059300E+00
         21   -1    0    0  502  501  0.00000000000E+00  0.00000000000E+00  0.64544427563E+03  0.64544427563E+03  0.00000000000E+00 0. -1.
         21   -1    0    0  501  502 -0.00000000000E+00 -0.00000000000E+00 -0.19878663977E+03  0.19878663977E+03  0.00000000000E+00 0. -1.
         25    1    1    2    0    0  0.15859500020E+02  0.18704592776E+02 -0.14635090446E+03  0.19402312431E+03  0.12500000000E+03 0.  0.
         25    1    1    2    0    0 -0.14317953945E+02 -0.21111433230E+02  0.19502626482E+03  0.23304707762E+03  0.12500000000E+03 0.  0.
         25    1    1    2    0    0 -0.15415460750E+01  0.24068404536E+01  0.39798227550E+03  0.41716071346E+03  0.12500000000E+03 0.  0.
</event>
<event>
 5    0  0.5677492E-005  0.2408430E+03  0.7546771E-02  0.1119233E+00
         21   -1    0    0  502  501  0.00000000000E+00  0.00000000000E+00  0.20126251787E+04  0.20126251787E+04  0.00000000000E+00 0.  1.
         21   -1    0    0  501  502 -0.00000000000E+00 -0.00000000000E+00 -0.28820741823E+02  0.28820741823E+02  0.00000000000E+00 0.  1.
         25    1    1    2    0    0  0.76378130592E+02  0.86886377951E+02  0.10075705158E+04  0.10218640839E+04  0.12500000000E+03 0.  0.
         25    1    1    2    0    0 -0.76485274347E+02 -0.78131472658E+02  0.48617717800E+03  0.51375847693E+03  0.12500000000E+03 0.  0.
         25    1    1    2    0    0  0.10714375474E+00 -0.87549052926E+01  0.49005674305E+03  0.50582335974E+03  0.12500000000E+03 0.  0.
</event>
<event>
 5    0  0.5677492E-005  0.3103901E+03  0.7546771E-02  0.1080159E+00
         21   -1    0    0  502  501  0.00000000000E+00  0.00000000000E+00  0.71431927200E+02  0.71431927200E+02  0.00000000000E+00 0. -1.
         21   -1    0    0  501  502 -0.00000000000E+00 -0.00000000000E+00 -0.13487248162E+04  0.13487248162E+04  0.00000000000E+00 0. -1.
         25    1    1    2    0    0 -0.12266973254E+03 -0.72917976069E+02 -0.34351417734E+03  0.39241799723E+03  0.12500000000E+03 0.  0.
         25    1    1    2    0    0  0.19374107930E+03  0.88050129707E+01 -0.32268942357E+03  0.39669459051E+03  0.12500000000E+03 0.  0.
         25    1    1    2    0    0 -0.71071346763E+02  0.64112963099E+02 -0.61108928808E+03  0.63104415565E+03  0.12500000000E+03 0.  0.
</event>
<event>
 5    0  0.5677492E-005  0.2903573E+03  0.7546771E-02  0.1090163E+00
         21   -1    0    0  502  501  0.00000000000E+00  0.00000000000E+00  0.73367599237E+03  0.73367599237E+03  0.00000000000E+00 0. -1.
         21   -1    0    0  501  502 -0.00000000000E+00 -0.00000000000E+00 -0.11491091994E+03  0.11491091994E+03  0.00000000000E+00 0. -1.
         25    1    1    2    0    0  0.65465913584E+02 -0.29823015353E+02  0.45698221264E+03  0.47920031381E+03  0.12500000000E+03 0.  0.
         25    1    1    2    0    0 -0.73113528616E+02  0.75987078687E+02  0.16970719215E+03  0.23568019701E+03  0.12500000000E+03 0.  0.
         25    1    1    2    0    0  0.76476150312E+01 -0.46164063333E+02 -0.79243323611E+01  0.13370640150E+03  0.12500000000E+03 0.  0.
</event>
<event>
 5    0  0.5677492E-005  0.3822158E+03  0.7546771E-02  0.1050118E+00
         21   -1    0    0  502  501  0.00000000000E+00  0.00000000000E+00  0.40499018870E+03  0.40499018870E+03  0.00000000000E+00 0. -1.
         21   -1    0    0  501  502 -0.00000000000E+00 -0.00000000000E+00 -0.36072219164E+03  0.36072219164E+03  0.00000000000E+00 0. -1.
         25    1    1    2    0    0 -0.64590952067E+02 -0.11557286089E+02  0.25157239016E+03  0.28847743316E+03  0.12500000000E+03 0.  0.
         25    1    1    2    0    0  0.80821050431E+02 -0.68475127575E+02 -0.26957276732E+03  0.31546055565E+03  0.12500000000E+03 0.  0.
         25    1    1    2    0    0 -0.16230098363E+02  0.80032413664E+02  0.62268374218E+02  0.16177439154E+03  0.12500000000E+03 0.  0.
</event>
<event>
 5    0  0.5677492E-005  0.1973158E+03  0.7546771E-02  0.1152024E+00
         21   -1    0    0  502  501  0.00000000000E+00  0.00000000000E+00  0.17569895053E+03  0.17569895053E+03  0.00000000000E+00 0. -1.
         21   -1    0    0  501  502 -0.00000000000E+00 -0.00000000000E+00 -0.22159229091E+03  0.22159229091E+03  0.00000000000E+00 0. -1.
         25    1    1    2    0    0  0.11131293673E+02 -0.75963675171E+01 -0.17021029065E+02  0.12687129671E+03  0.12500000000E+03 0.  0.
         25    1    1    2    0    0 -0.30826549738E+02 -0.36851924315E+02 -0.25087845642E+02  0.13624514851E+03  0.12500000000E+03 0.  0.
         25    1    1    2    0    0  0.19695256065E+02  0.44448291832E+02 -0.37844656685E+01  0.13417479621E+03  0.12500000000E+03 0.  0.
</event>
<event>
 5    0  0.5677492E-005  0.3473841E+03  0.7546771E-02  0.1063694E+00
         21   -1    0    0  502  501  0.00000000000E+00  0.00000000000E+00  0.22366329216E+04  0.22366329216E+04  0.00000000000E+00 0.  1.
         21   -1    0    0  501  502 -0.00000000000E+00 -0.00000000000E+00 -0.53954198383E+02  0.53954198383E+02  0.00000000000E+00 0.  1.
         25    1    1    2    0    0 -0.10209208361E+03 -0.16264225517E+03  0.84847417864E+03  0.87886786750E+03  0.12500000000E+03 0.  0.
         25    1    1    2    0    0  0.14884629648E+03  0.23036877409E+03  0.10215976957E+04  0.10651346600E+04  0.12500000000E+03 0.  0.
         25    1    1    2    0    0 -0.46754212873E+02 -0.67726518926E+02  0.31260684882E+03  0.34658459244E+03  0.12500000000E+03 0.  0.
</event>
<event>
 5    0  0.5677492E-005  0.5227803E+03  0.7546771E-02  0.1007998E+00
         21   -1    0    0  502  501  0.00000000000E+00  0.00000000000E+00  0.14993313183E+04  0.14993313183E+04  0.00000000000E+00 0. -1.
         21   -1    0    0  501  502 -0.00000000000E+00 -0.00000000000E+00 -0.18228074949E+03  0.18228074949E+03  0.00000000000E+00 0. -1.
         25    1    1    2    0    0 -0.34213752931E+03  0.36446318532E+02  0.59710774495E+03  0.70039209175E+03  0.12500000000E+03 0.  0.
         25    1    1    2    0    0  0.22822779397E+03 -0.12730485479E+03  0.73363057080E+03  0.78875424969E+03  0.12500000000E+03 0.  0.
         25    1    1    2    0    0  0.11390973534E+03  0.90858536263E+02 -0.13687746914E+02  0.19246572639E+03  0.12500000000E+03 0.  0.
</event>
<event>
 5    0  0.5677492E-005  0.4803158E+03  0.7546771E-02  0.1019048E+00
         21   -1    0    0  502  501  0.00000000000E+00  0.00000000000E+00  0.67875070327E+02  0.67875070327E+02  0.00000000000E+00 0. -1.
         21   -1    0    0  501  502 -0.00000000000E+00 -0.00000000000E+00 -0.33989398391E+04  0.33989398391E+04  0.00000000000E+00 0.  1.
         25    1    1    2    0    0  0.26264318075E+03 -0.82369422575E+02 -0.16559209187E+04  0.16832900080E+04  0.12500000000E+03 0.  0.
         25    1    1    2    0    0 -0.27653317838E+03  0.10341487504E+03 -0.16075311426E+04  0.16391908399E+04  0.12500000000E+03 0.  0.
         25    1    1    2    0    0  0.13889997627E+02 -0.21045452462E+02 -0.67612707497E+02  0.14433406153E+03  0.12500000000E+03 0.  0.
</event>
<event>
 5    0  0.5677492E-005  0.2445573E+03  0.7546771E-02  0.1116794E+00
         21   -1    0    0  502  501  0.00000000000E+00  0.00000000000E+00  0.14197916945E+04  0.14197916945E+04  0.00000000000E+00 0. -1.
         21   -1    0    0  501  502 -0.00000000000E+00 -0.00000000000E+00 -0.42124667638E+02  0.42124667638E+02  0.00000000000E+00 0. -1.
         25    1    1    2    0    0 -0.20086890550E+02 -0.89961562761E+02  0.34890511903E+03  0.38191144004E+03  0.12500000000E+03 0.  0.
         25    1    1    2    0    0 -0.13185725429E+02 -0.34322313575E+02  0.26291477341E+03  0.29342982575E+03  0.12500000000E+03 0.  0.
         25    1    1    2    0    0  0.33272615978E+02  0.12428387634E+03  0.76584713443E+03  0.78657509635E+03  0.12500000000E+03 0.  0.
</event>
<event>
 5    0  0.5677492E-005  0.3590880E+03  0.7546771E-02  0.1058946E+00
         21   -1    0    0  502  501  0.00000000000E+00  0.00000000000E+00  0.71374276867E+03  0.71374276867E+03  0.00000000000E+00 0. -1.
         21   -1    0    0  501  502 -0.00000000000E+00 -0.00000000000E+00 -0.18065923525E+03  0.18065923525E+03  0.00000000000E+00 0. -1.
         25    1    1    2    0    0 -0.21272462792E+03 -0.10453042268E+03  0.19451125096E+03  0.33111629882E+03  0.12500000000E+03 0.  0.
         25    1    1    2    0    0  0.16772480926E+03  0.18709600476E+03  0.27950116069E+03  0.39608386166E+03  0.12500000000E+03 0.  0.
         25    1    1    2    0    0  0.44999818664E+02 -0.82565582078E+02  0.59071121783E+02  0.16720184345E+03  0.12500000000E+03 0.  0.
</event>
<event>
 5    0  0.5677492E-005  0.3080944E+03  0.7546771E-02  0.1081263E+00
         21   -1    0    0  502  501  0.00000000000E+00  0.00000000000E+00  0.15627922248E+04  0.15627922248E+04  0.00000000000E+00 0. -1.
         21   -1    0    0  501  502 -0.00000000000E+00 -0.00000000000E+00 -0.60738831738E+02  0.60738831738E+02  0.00000000000E+00 0. -1.
         25    1    1    2    0    0  0.90114161049E+02 -0.72866675823E+02  0.92019784862E+03  0.93585212244E+03  0.12500000000E+03 0.  0.
         25    1    1    2    0    0  0.57455950278E+02  0.87699419434E+02  0.34427849956E+03  0.38097908033E+03  0.12500000000E+03 0.  0.
         25    1    1    2    0    0 -0.14757011133E+03 -0.14832743611E+02  0.23757704483E+03  0.30669985372E+03  0.12500000000E+03 0.  0.
</event>
<event>
 5    0  0.5677492E-005  0.3678141E+03  0.7546771E-02  0.1055532E+00
         21   -1    0    0  502  501  0.00000000000E+00  0.00000000000E+00  0.40274199754E+03  0.40274199754E+03  0.00000000000E+00 0. -1.
         21   -1    0    0  501  502 -0.00000000000E+00 -0.00000000000E+00 -0.33591532650E+03  0.33591532650E+03  0.00000000000E+00 0. -1.
         25    1    1    2    0    0 -0.15847451614E+03  0.21240765256E+03  0.10920884247E+02  0.29321570361E+03  0.12500000000E+03 0.  0.
         25    1    1    2    0    0  0.15078124080E+03 -0.24286049203E+03  0.53393394341E+02  0.31653128712E+03  0.12500000000E+03 0.  0.
         25    1    1    2    0    0  0.76932753412E+01  0.30452839479E+02  0.25123924586E+01  0.12891033331E+03  0.12500000000E+03 0.  0.
</event>
<event>
 5    0  0.5677492E-005  0.2690134E+03  0.7546771E-02  0.1101846E+00
         21   -1    0    0  502  501  0.00000000000E+00  0.00000000000E+00  0.57545603733E+03  0.57545603733E+03  0.00000000000E+00 0.  1.
         21   -1    0    0  501  502 -0.00000000000E+00 -0.00000000000E+00 -0.12575803336E+03  0.12575803336E+03  0.00000000000E+00 0.  1.
         25    1    1    2    0    0  0.43972211590E+02 -0.11440798707E+03  0.10953826938E+03  0.20650998851E+03  0.12500000000E+03 0.  0.
         25    1    1    2    0    0  0.77084011161E+02  0.29356527216E+02  0.78291488661E+02  0.16899203432E+03  0.12500000000E+03 0.  0.
         25    1    1    2    0    0 -0.12105622275E+03  0.85051459852E+02  0.26186824593E+03  0.32571204785E+03  0.12500000000E+03 0.  0.
</event>
<event>
 5    0  0.5690255E-005  0.4780570E+03  0.7546771E-02  0.1019671E+00
         21   -1    0    0  502  501  0.00000000000E+00  0.00000000000E+00  0.30702189338E+03  0.30702189338E+03  0.00000000000E+00 0. -1.
         21   -1    0    0  501  502 -0.00000000000E+00 -0.00000000000E+00 -0.74437190546E+03  0.74437190546E+03  0.00000000000E+00 0. -1.
         25    1    1    2    0    0  0.43733593956E+02 -0.17290934181E+03 -0.31002716840E+03  0.37888271652E+03  0.12500000000E+03 0.  0.
         25    1    1    2    0    0 -0.12134136087E+03 -0.18997944849E+03  0.88901729044E+01  0.25791462130E+03  0.12500000000E+03 0.  0.
         25    1    1    2    0    0  0.77607766917E+02  0.36288879030E+03 -0.13621301658E+03  0.41459646103E+03  0.12500000000E+03 0.  0.
</event>
<event>
 5    0  0.5677492E-005  0.3945514E+03  0.7546771E-02  0.1045683E+00
         21   -1    0    0  502  501  0.00000000000E+00  0.00000000000E+00  0.38672045751E+03  0.38672045751E+03  0.00000000000E+00 0. -1.
         21   -1    0    0  501  502 -0.00000000000E+00 -0.00000000000E+00 -0.40254083249E+03  0.40254083249E+03  0.00000000000E+00 0. -1.
         25    1    1    2    0    0 -0.17760492032E+03  0.25042202285E+03  0.17084690576E+02  0.33192105071E+03  0.12500000000E+03 0.  0.
         25    1    1    2    0    0  0.79581584693E+02 -0.15576089383E+03  0.92362102231E+02  0.23398812491E+03  0.12500000000E+03 0.  0.
         25    1    1    2    0    0  0.98023335625E+02 -0.94661129021E+02 -0.12526716779E+03  0.22335211439E+03  0.12500000000E+03 0.  0.
</event>
<event>
 5    0  0.5677492E-005  0.3152627E+03  0.7546771E-02  0.1077850E+00
         21   -1    0    0  502  501  0.00000000000E+00  0.00000000000E+00  0.93046635664E+03  0.93046635664E+03  0.00000000000E+00 0.  1.
         21   -1    0    0  501  502 -0.00000000000E+00 -0.00000000000E+00 -0.10681802702E+03  0.10681802702E+03  0.00000000000E+00 0.  1.
         25    1    1    2    0    0 -0.48238708438E+02 -0.12645454382E+03  0.58813344723E+03  0.61631459207E+03  0.12500000000E+03 0.  0.
         25    1    1    2    0    0  0.76293805990E+01  0.15188292640E+03  0.20389815288E+03  0.28341857301E+03  0.12500000000E+03 0.  0.
         25    1    1    2    0    0  0.40609327839E+02 -0.25428382584E+02  0.31616729502E+02  0.13755121858E+03  0.12500000000E+03 0.  0.
</event>
<event>
 5    0  0.5677492E-005  0.5400251E+03  0.7546771E-02  0.1003829E+00
         21   -1    0    0  502  501  0.00000000000E+00  0.00000000000E+00  0.11594134515E+04  0.11594134515E+04  0.00000000000E+00 0. -1.
         21   -1    0    0  501  502 -0.00000000000E+00 -0.00000000000E+00 -0.25152991050E+03  0.25152991050E+03  0.00000000000E+00 0. -1.
         25    1    1    2    0    0  0.26107029189E+03 -0.65458239795E+02  0.77736730523E+03  0.83208617685E+03  0.12500000000E+03 0.  0.
         25    1    1    2    0    0 -0.24764286504E+03  0.11146422446E+03  0.25733096044E+03  0.39445593561E+03  0.12500000000E+03 0.  0.
         25    1    1    2    0    0 -0.13427426853E+02 -0.46005984662E+02 -0.12681472470E+03  0.18440124950E+03  0.12500000000E+03 0.  0.
</event>
<event>
 5    0  0.5677492E-005  0.2993719E+03  0.7546771E-02  0.1085555E+00
         21   -1    0    0  502  501  0.00000000000E+00  0.00000000000E+00  0.23532493947E+03  0.23532493947E+03  0.00000000000E+00 0.  1.
         21   -1    0    0  501  502 -0.00000000000E+00 -0.00000000000E+00 -0.38085019781E+03  0.38085019781E+03  0.00000000000E+00 0.  1.
         25    1    1    2    0    0 -0.14337909591E+03 -0.14251503129E+02 -0.84982380005E+02  0.20882450861E+03  0.12500000000E+03 0.  0.
         25    1    1    2    0    0  0.24577035445E+02  0.90109314077E+02 -0.13346540315E+03  0.20533322428E+03  0.12500000000E+03 0.  0.
         25    1    1    2    0    0  0.11880206046E+03 -0.75857810948E+02  0.72922524812E+02  0.20201740439E+03  0.12500000000E+03 0.  0.
</event>
<event>
 5    0  0.5677492E-005  0.3139005E+03  0.7546771E-02  0.1078491E+00
         21   -1    0    0  502  501  0.00000000000E+00  0.00000000000E+00  0.22833752725E+03  0.22833752725E+03  0.00000000000E+00 0. -1.
         21   -1    0    0  501  502 -0.00000000000E+00 -0.00000000000E+00 -0.43152588979E+03  0.43152588979E+03  0.00000000000E+00 0. -1.
         25    1    1    2    0    0  0.14376375515E+02 -0.13947658124E+03  0.54342602514E+02  0.19554670884E+03  0.12500000000E+03 0.  0.
         25    1    1    2    0    0 -0.67010990373E+02  0.78895115042E+01 -0.23419769074E+03  0.27390924696E+03  0.12500000000E+03 0.  0.
         25    1    1    2    0    0  0.52634614857E+02  0.13158706974E+03 -0.23333274311E+02  0.19040746124E+03  0.12500000000E+03 0.  0.
</event>
<event>
 5    0  0.5677492E-005  0.2265306E+03  0.7546771E-02  0.1129106E+00
         21   -1    0    0  502  501  0.00000000000E+00  0.00000000000E+00  0.59698533479E+03  0.59698533479E+03  0.00000000000E+00 0. -1.
         21   -1    0    0  501  502 -0.00000000000E+00 -0.00000000000E+00 -0.85958778329E+02  0.85958778329E+02  0.00000000000E+00 0. -1.
         25    1    1    2    0    0  0.34687898937E+02 -0.68228218668E+00  0.61572479970E+02  0.14359626085E+03  0.12500000000E+03 0.  0.
         25    1    1    2    0    0 -0.58076508328E+02 -0.28533696347E+02  0.34365212508E+03  0.37136078915E+03  0.12500000000E+03 0.  0.
         25    1    1    2    0    0  0.23388609391E+02  0.29215978533E+02  0.10580195141E+03  0.16798706311E+03  0.12500000000E+03 0.  0.
</event>
<event>
 5    0  0.5677492E-005  0.2901164E+03  0.7546771E-02  0.1090288E+00
         21   -1    0    0  502  501  0.00000000000E+00  0.00000000000E+00  0.93869248665E+02  0.93869248665E+02  0.00000000000E+00 0. -1.
         21   -1    0    0  501  502 -0.00000000000E+00 -0.00000000000E+00 -0.89664650182E+03  0.89664650182E+03  0.00000000000E+00 0. -1.
         25    1    1    2    0    0  0.92636936853E+02 -0.96456767642E+02 -0.42219735447E+03  0.46017509300E+03  0.12500000000E+03 0.  0.
         25    1    1    2    0    0 -0.83773621133E+01  0.14404732434E+03 -0.11977794926E+03  0.22536984930E+03  0.12500000000E+03 0.  0.
         25    1    1    2    0    0 -0.84259574740E+02 -0.47590556698E+02 -0.26080194943E+03  0.30497080819E+03  0.12500000000E+03 0.  0.
</event>
<event>
 5    0  0.5677492E-005  0.3706578E+03  0.7546771E-02  0.1054442E+00
         21   -1    0    0  502  501  0.00000000000E+00  0.00000000000E+00  0.76020244466E+03  0.76020244466E+03  0.00000000000E+00 0. -1.
         21   -1    0    0  501  502 -0.00000000000E+00 -0.00000000000E+00 -0.18072450170E+03  0.18072450170E+03  0.00000000000E+00 0. -1.
         25    1    1    2    0    0 -0.10721710738E+03 -0.52326439921E+02  0.23001845606E+03  0.28769263904E+03  0.12500000000E+03 0.  0.
         25    1    1    2    0    0  0.16432548802E+03 -0.15729035224E+03  0.52812210992E+02  0.26487214001E+03  0.12500000000E+03 0.  0.
         25    1    1    2    0    0 -0.57108380634E+02  0.20961679216E+03  0.29664727591E+03  0.38836216731E+03  0.12500000000E+03 0.  0.
</event>
<event>
 5    0  0.5677492E-005  0.4380488E+03  0.7546771E-02  0.1031347E+00
         21   -1    0    0  502  501  0.00000000000E+00  0.00000000000E+00  0.40194649609E+03  0.40194649609E+03  0.00000000000E+00 0.  1.
         21   -1    0    0  501  502 -0.00000000000E+00 -0.00000000000E+00 -0.47739380738E+03  0.47739380738E+03  0.00000000000E+00 0.  1.
         25    1    1    2    0    0  0.23863323228E+03 -0.16197676813E+03  0.10033243435E+02  0.31449635759E+03  0.12500000000E+03 0.  0.
         25    1    1    2    0    0 -0.21305869903E+03  0.28351500623E+03 -0.96729131176E+02  0.38827347683E+03  0.12500000000E+03 0.  0.
         25    1    1    2    0    0 -0.25574533251E+02 -0.12153823810E+03  0.11248576449E+02  0.17657046906E+03  0.12500000000E+03 0.  0.
</event>
<event>
 5    0  0.5677492E-005  0.3841753E+03  0.7546771E-02  0.1049401E+00
         21   -1    0    0  502  501  0.00000000000E+00  0.00000000000E+00  0.12214165870E+04  0.12214165870E+04  0.00000000000E+00 0. -1.
         21   -1    0    0  501  502 -0.00000000000E+00 -0.00000000000E+00 -0.12083566930E+03  0.12083566930E+03  0.00000000000E+00 0. -1.
         25    1    1    2    0    0 -0.94379681495E+01  0.33737096388E+01  0.61585537933E+03  0.62849288413E+03  0.12500000000E+03 0.  0.
         25    1    1    2    0    0 -0.48971838451E+02 -0.52810973755E+02  0.53861685450E+03  0.55760232770E+03  0.12500000000E+03 0.  0.
         25    1    1    2    0    0  0.58409806601E+02  0.49437264116E+02 -0.53891316108E+02  0.15615704449E+03  0.12500000000E+03 0.  0.
</event>
<event>
 5    0  0.5677492E-005  0.4192455E+03  0.7546771E-02  0.1037312E+00
         21   -1    0    0  502  501  0.00000000000E+00  0.00000000000E+00  0.12949870208E+03  0.12949870208E+03  0.00000000000E+00 0. -1.
         21   -1    0    0  501  502 -0.00000000000E+00 -0.00000000000E+00 -0.13572859740E+04  0.13572859740E+04  0.00000000000E+00 0. -1.
         25    1    1    2    0    0  0.11989786025E+03  0.29056163136E+03 -0.42570992887E+03  0.54374212826E+03  0.12500000000E+03 0.  0.
         25    1    1    2    0    0  0.60298776540E+02 -0.14952608071E+03 -0.19444890421E+03  0.28183216213E+03  0.12500000000E+03 0.  0.
         25    1    1    2    0    0 -0.18019663678E+03 -0.14103555065E+03 -0.60762843890E+03  0.66121038574E+03  0.12500000000E+03 0.  0.
</event>
<event>
 5    0  0.5677492E-005  0.3246457E+03  0.7546771E-02  0.1073531E+00
         21   -1    0    0  502  501  0.00000000000E+00  0.00000000000E+00  0.22075747458E+03  0.22075747458E+03  0.00000000000E+00 0.  1.
         21   -1    0    0  501  502 -0.00000000000E+00 -0.00000000000E+00 -0.47742356789E+03  0.47742356789E+03  0.00000000000E+00 0.  1.
         25    1    1    2    0    0 -0.18027716196E+03 -0.16750778105E+03 -0.12724243248E+03  0.30393148645E+03  0.12500000000E+03 0.  0.
         25    1    1    2    0    0  0.10009001609E+03  0.15492364747E+03 -0.67022787592E+02  0.23267230588E+03  0.12500000000E+03 0.  0.
         25    1    1    2    0    0  0.80187145868E+02  0.12584133583E+02 -0.62400873235E+02  0.16157725013E+03  0.12500000000E+03 0.  0.
</event>
<event>
 5    0  0.5677492E-005  0.5199959E+03  0.7546771E-02  0.1008688E+00
         21   -1    0    0  502  501  0.00000000000E+00  0.00000000000E+00  0.10045902325E+04  0.10045902325E+04  0.00000000000E+00 0.  1.
         21   -1    0    0  501  502 -0.00000000000E+00 -0.00000000000E+00 -0.26916024284E+03  0.26916024284E+03  0.00000000000E+00 0.  1.
         25    1    1    2    0    0  0.26127511870E+03  0.29625827949E+03  0.15261513108E+03  0.44153146440E+03  0.12500000000E+03 0.  0.
         25    1    1    2    0    0  0.28998410197E+01  0.52938348868E+02  0.17020664823E+03  0.21772960516E+03  0.12500000000E+03 0.  0.
         25    1    1    2    0    0 -0.26417495972E+03 -0.34919662835E+03  0.41260821038E+03  0.61448940583E+03  0.12500000000E+03 0.  0.
</event>
<event>
 5    0  0.5677492E-005  0.2556627E+03  0.7546771E-02  0.1109778E+00
         21   -1    0    0  502  501  0.00000000000E+00  0.00000000000E+00  0.83204504116E+02  0.83204504116E+02  0.00000000000E+00 0.  1.
         21   -1    0    0  501  502 -0.00000000000E+00 -0.00000000000E+00 -0.78557567698E+03  0.78557567698E+03  0.00000000000E+00 0.  1.
         25    1    1    2    0    0  0.78946384058E+02  0.97715471746E+02 -0.15913424939E+03  0.23817966812E+03  0.12500000000E+03 0.  0.
         25    1    1    2    0    0 -0.43635461579E+02 -0.70721026337E+02 -0.43244812132E+03  0.45775746276E+03  0.12500000000E+03 0.  0.
         25    1    1    2    0    0 -0.35310922479E+02 -0.26994445409E+02 -0.11078880215E+03  0.17284305022E+03  0.12500000000E+03 0.  0.
</event>
<event>
 5    0  0.5677492E-005  0.5579454E+03  0.7546771E-02  0.9996714E-01
         21   -1    0    0  502  501  0.00000000000E+00  0.00000000000E+00  0.25750121669E+03  0.25750121669E+03  0.00000000000E+00 0. -1.
         21   -1    0    0  501  502 -0.00000000000E+00 -0.00000000000E+00 -0.12089382660E+04  0.12089382660E+04  0.00000000000E+00 0. -1.
         25    1    1    2    0    0 -0.11464982622E+03 -0.19264897874E+03 -0.31824232424E+03  0.40885374965E+03  0.12500000000E+03 0.  0.
         25    1    1    2    0    0 -0.31528650324E+03 -0.40860271925E+02 -0.27337302081E+03  0.43753051260E+03  0.12500000000E+03 0.  0.
         25    1    1    2    0    0  0.42993632946E+03  0.23350925067E+03 -0.35982170422E+03  0.62005522041E+03  0.12500000000E+03 0.  0.
</event>
<event>
 5    0  0.5677492E-005  0.3314431E+03  0.7546771E-02  0.1070500E+00
         21   -1    0    0  502  501  0.00000000000E+00  0.00000000000E+00  0.16412375118E+03  0.16412375118E+03  0.00000000000E+00 0.  1.
         21   -1    0    0  501  502 -0.00000000000E+00 -0.00000000000E+00 -0.66933965124E+03  0.66933965124E+03  0.00000000000E+00 0.  1.
         25    1    1    2    0    0  0.14220638439E+03  0.61705693246E+02 -0.23875840582E+03  0.31090324007E+03  0.12500000000E+03 0.  0.
         25    1    1    2    0    0 -0.50564244050E+02 -0.19345217797E+03 -0.19805175787E+03  0.30794477871E+03  0.12500000000E+03 0.  0.
         25    1    1    2    0    0 -0.91642140336E+02  0.13174648473E+03 -0.68405736369E+02  0.21461538363E+03  0.12500000000E+03 0.  0.
</event>
<event>
 5    0  0.6457091E-005  0.4673845E+03  0.7546771E-02  0.1022661E+00
         21   -1    0    0  502  501  0.00000000000E+00  0.00000000000E+00  0.31549366110E+03  0.31549366110E+03  0.00000000000E+00 0. -1.
         21   -1    0    0  501  502 -0.00000000000E+00 -0.00000000000E+00 -0.69240159239E+03  0.69240159239E+03  0.00000000000E+00 0. -1.
         25    1    1    2    0    0  0.26966520814E+03 -0.46195813966E+02 -0.33021177617E+03  0.44667459614E+03  0.12500000000E+03 0.  0.
         25    1    1    2    0    0  0.21227598101E+02 -0.10091983433E+03  0.91083701282E+02  0.18589422940E+03  0.12500000000E+03 0.  0.
         25    1    1    2    0    0 -0.29089280624E+03  0.14711564830E+03 -0.13777985639E+03  0.37532642796E+03  0.12500000000E+03 0.  0.
</event>
<event>
 5    0  0.5677492E-005  0.3310128E+03  0.7546771E-02  0.1070690E+00
         21   -1    0    0  502  501  0.00000000000E+00  0.00000000000E+00  0.58316472577E+03  0.58316472577E+03  0.00000000000E+00 0.  1.
         21   -1    0    0  501  502 -0.00000000000E+00 -0.00000000000E+00 -0.18788767851E+03  0.18788767851E+03  0.00000000000E+00 0.  1.
         25    1    1    2    0    0  0.14931767362E+03  0.13161098445E+03  0.20234819627E+03  0.31014030925E+03  0.12500000000E+03 0.  0.
         25    1    1    2    0    0  0.17376466799E+02  0.23501564678E+02  0.15034051493E+03  0.19769050451E+03  0.12500000000E+03 0.  0.
         25    1    1    2    0    0 -0.16669414042E+03 -0.15511254913E+03  0.42588336055E+02  0.26322159052E+03  0.12500000000E+03 0.  0.
</event>
<event>
 5    0  0.5677492E-005  0.3239474E+03  0.7546771E-02  0.1073847E+00
         21   -1    0    0  502  501  0.00000000000E+00  0.00000000000E+00  0.19604102628E+03  0.19604102628E+03  0.00000000000E+00 0.  1.
         21   -1    0    0  501  502 -0.00000000000E+00 -0.00000000000E+00 -0.53530598129E+03  0.53530598129E+03  0.00000000000E+00 0.  1.
         25    1    1    2    0    0  0.47326930704E+00 -0.16730771661E+03  0.12662320733E+02  0.20923056753E+03  0.12500000000E+03 0.  0.
         25    1    1    2    0    0 -0.48780838266E+02  0.20607590306E+03 -0.21509263932E+03  0.32670581796E+03  0.12500000000E+03 0.  0.
         25    1    1    2    0    0  0.48307568959E+02 -0.38768186449E+02 -0.13683463642E+03  0.19541062208E+03  0.12500000000E+03 0.  0.
</event>
<event>
 5    0  0.5677492E-005  0.2369254E+03  0.7546771E-02  0.1121858E+00
         21   -1    0    0  502  501  0.00000000000E+00  0.00000000000E+00  0.34826392044E+03  0.34826392044E+03  0.00000000000E+00 0.  1.
         21   -1    0    0  501  502 -0.00000000000E+00 -0.00000000000E+00 -0.16118131070E+03  0.16118131070E+03  0.00000000000E+00 0.  1.
         25    1    1    2    0    0 -0.71256714579E+02 -0.54643753603E+02  0.27678638394E+02  0.15637955814E+03  0.12500000000E+03 0.  0.
         25    1    1    2    0    0  0.48339086216E+02 -0.47776606650E+02  0.31563123279E+02  0.14574121637E+03  0.12500000000E+03 0.  0.
         25    1    1    2    0    0  0.22917628363E+02  0.10242036025E+03  0.12784084806E+03  0.20732445663E+03  0.12500000000E+03 0.  0.
</event>
<event>
 5    0  0.5677492E-005  0.3934540E+03  0.7546771E-02  0.1046070E+00
         21   -1    0    0  502  501  0.00000000000E+00  0.00000000000E+00  0.44752271973E+03  0.44752271973E+03  0.00000000000E+00 0.  1.
         21   -1    0    0  501  502 -0.00000000000E+00 -0.00000000000E+00 -0.34591774768E+03  0.34591774768E+03  0.00000000000E+00 0.  1.
         25    1    1    2    0    0  0.19002794178E+03 -0.85389098408E+02  0.18832307593E+03  0.30739632026E+03  0.12500000000E+03 0.  0.
         25    1    1    2    0    0 -0.10646719990E+03  0.17692028048E+03 -0.16604271762E+03  0.29296968167E+03  0.12500000000E+03 0.  0.
         25    1    1    2    0    0 -0.83560741874E+02 -0.91531182074E+02  0.79324613740E+02  0.19307446548E+03  0.12500000000E+03 0.  0.
</event>
<event>
 5    0  0.5677492E-005  0.3523701E+03  0.7546771E-02  0.1061646E+00
         21   -1    0    0  502  501  0.00000000000E+00  0.00000000000E+00  0.13690999402E+04  0.13690999402E+04  0.00000000000E+00 0. -1.
         21   -1    0    0  501  502 -0.00000000000E+00 -0.00000000000E+00 -0.90690714841E+02  0.90690714841E+02  0.00000000000E+00 0. -1.
         25    1    1    2    0    0  0.96352617439E+02  0.29316939235E+02  0.29168639295E+03  0.33294032745E+03  0.12500000000E+03 0.  0.
         25    1    1    2    0    0 -0.24907764114E+03  0.83131886603E+02  0.71999212401E+03  0.77650772084E+03  0.12500000000E+03 0.  0.
         25    1    1    2    0    0  0.15272502370E+03 -0.11244882584E+03  0.26673070838E+03  0.35034260673E+03  0.12500000000E+03 0.  0.
</event>
<event>
 5    0  0.5821285E-005  0.3606704E+03  0.7546771E-02  0.1058319E+00
         21   -1    0    0  502  501  0.00000000000E+00  0.00000000000E+00  0.39009369737E+03  0.39009369737E+03  0.00000000000E+00 0.  1.
         21   -1    0    0  501  502 -0.00000000000E+00 -0.00000000000E+00 -0.33346630232E+03  0.33346630232E+03  0.00000000000E+00 0.  1.
         25    1    1    2    0    0  0.15061039385E+03 -0.12390854951E+03 -0.46342828194E+02  0.23624029526E+03  0.12500000000E+03 0.  0.
         25    1    1    2    0    0 -0.57750378386E+02  0.28951501505E+02  0.22677660841E+03  0.26688185731E+03  0.12500000000E+03 0.  0.
         25    1    1    2    0    0 -0.92860015464E+02  0.94957048005E+02 -0.12380638517E+03  0.22043784713E+03  0.12500000000E+03 0.  0.
</event>
<event>
 5    0  0.5677492E-005  0.3771097E+03  0.7546771E-02  0.1052007E+00
         21   -1    0    0  502  501  0.00000000000E+00  0.00000000000E+00  0.33971037299E+03  0.33971037299E+03  0.00000000000E+00 0. -1.
         21   -1    0    0  501  502 -0.00000000000E+00 -0.00000000000E+00 -0.41862629432E+03  0.41862629432E+03  0.00000000000E+00 0. -1.
         25    1    1    2    0    0 -0.12410615114E+02  0.10593741939E+02 -0.18556985611E+03  0.22433774143E+03  0.12500000000E+03 0.  0.
         25    1    1    2    0    0 -0.11076078443E+03  0.85806380403E+02  0.23147563939E+03  0.29805479012E+03  0.12500000000E+03 0.  0.
         25    1    1    2    0    0  0.12317139954E+03 -0.96400122342E+02 -0.12482170461E+03  0.23594413575E+03  0.12500000000E+03 0.  0.
</event>
<event>
 5    0  0.5677492E-005  0.3775557E+03  0.7546771E-02  0.1051841E+00
         21   -1    0    0  502  501  0.00000000000E+00  0.00000000000E+00  0.96138199504E+03  0.96138199504E+03  0.00000000000E+00 0.  1.
         21   -1    0    0  501  502 -0.00000000000E+00 -0.00000000000E+00 -0.14827438499E+03  0.14827438499E+03  0.00000000000E+00 0.  1.
         25    1    1    2    0    0 -0.18977958831E+02  0.89401013351E+02  0.61240471323E+02  0.16651756495E+03  0.12500000000E+03 0.  0.
         25    1    1    2    0    0 -0.30309766263E+02 -0.26499226649E+02 -0.40167156782E+02  0.13732913539E+03  0.12500000000E+03 0.  0.
         25    1    1    2    0    0  0.49287725095E+02 -0.62901786702E+02  0.79203429551E+03  0.80580967968E+03  0.12500000000E+03 0.  0.
</event>
<event>
 5    0  0.5677492E-005  0.2842690E+03  0.7546771E-02  0.1093380E+00
         21   -1    0    0  502  501  0.00000000000E+00  0.00000000000E+00  0.21208263829E+03  0.21208263829E+03  0.00000000000E+00 0. -1.
         21   -1    0    0  501  502 -0.00000000000E+00 -0.00000000000E+00 -0.38102541602E+03  0.38102541602E+03  0.00000000000E+00 0. -1.
         25    1    1    2    0    0  0.64738213563E+02  0.56017361424E+02 -0.44636958985E+02  0.15794441802E+03  0.12500000000E+03 0.  0.
         25    1    1    2    0    0 -0.15569273097E+03 -0.12398922686E+03 -0.18219578927E+02  0.23573397700E+03  0.12500000000E+03 0.  0.
         25    1    1    2    0    0  0.90954517402E+02  0.67971865441E+02 -0.10608623982E+03  0.19942965929E+03  0.12500000000E+03 0.  0.
</event>
<event>
 5    0  0.5677492E-005  0.5140096E+03  0.7546771E-02  0.1010186E+00
         21   -1    0    0  502  501  0.00000000000E+00  0.00000000000E+00  0.95005700807E+03  0.95005700807E+03  0.00000000000E+00 0.  1.
         21   -1    0    0  501  502 -0.00000000000E+00 -0.00000000000E+00 -0.27809471194E+03  0.27809471194E+03  0.00000000000E+00 0.  1.
         25    1    1    2    0    0 -0.11935983239E+03  0.44716013824E+03  0.35513525090E+03  0.59661126812E+03  0.12500000000E+03 0.  0.
         25    1    1    2    0    0 -0.46386322223E+01 -0.15661482021E+03  0.72787796575E+02  0.21324348090E+03  0.12500000000E+03 0.  0.
         25    1    1    2    0    0  0.12399846462E+03 -0.29054531803E+03  0.24403924865E+03  0.41829697099E+03  0.12500000000E+03 0.  0.
</event>
<event>
 5    0  0.5677492E-005  0.3357017E+03  0.7546771E-02  0.1068642E+00
         21   -1    0    0  502  501  0.00000000000E+00  0.00000000000E+00  0.33617661361E+03  0.33617661361E+03  0.00000000000E+00 0. -1.
         21   -1    0    0  501  502 -0.00000000000E+00 -0.00000000000E+00 -0.33522747772E+03  0.33522747772E+03  0.00000000000E+00 0. -1.
         25    1    1    2    0    0  0.36296832000E+02 -0.47532582117E+02 -0.12309724792E+03  0.18535031379E+03  0.12500000000E+03 0.  0.
         25    1    1    2    0    0  0.90258334965E+02  0.57084944149E+02  0.22701705357E+03  0.28029805652E+03  0.12500000000E+03 0.  0.
         25    1    1    2    0    0 -0.12655516697E+03 -0.95523620326E+01 -0.10297066975E+03  0.20575572103E+03  0.12500000000E+03 0.  0.
</event>
<event>
 5    0  0.5677492E-005  0.3340848E+03  0.7546771E-02  0.1069344E+00
         21   -1    0    0  502  501  0.00000000000E+00  0.00000000000E+00  0.20293328907E+03  0.20293328907E+03  0.00000000000E+00 0. -1.
         21   -1    0    0  501  502 -0.00000000000E+00 -0.00000000000E+00 -0.54999676898E+03  0.54999676898E+03  0.00000000000E+00 0. -1.
         25    1    1    2    0    0 -0.18970829322E+03  0.50689283810E+01 -0.16413267671E+03  0.28032029202E+03  0.12500000000E+03 0.  0.
         25    1    1    2    0    0  0.22209785276E+03 -0.87487754361E+02 -0.59660166692E+02  0.27598170021E+03  0.12500000000E+03 0.  0.
         25    1    1    2    0    0 -0.32389559535E+02  0.82418825980E+02 -0.12327063650E+03  0.19662806582E+03  0.12500000000E+03 0.  0.
</event>
<event>
 5    0  0.5677492E-005  0.3358121E+03  0.7546771E-02  0.1068594E+00
         21   -1    0    0  502  501  0.00000000000E+00  0.00000000000E+00  0.92044878344E+02  0.92044878344E+02  0.00000000000E+00 0. -1.
         21   -1    0    0  501  502 -0.00000000000E+00 -0.00000000000E+00 -0.12251607930E+04  0.12251607930E+04  0.00000000000E+00 0. -1.
         25    1    1    2    0    0 -0.21115311042E+03 -0.20739476921E+01 -0.58573916488E+03  0.63506323038E+03  0.12500000000E+03 0.  0.
         25    1    1    2    0    0  0.15588033344E+03 -0.88754801497E+02 -0.42324293045E+03  0.47637765620E+03  0.12500000000E+03 0.  0.
         25    1    1    2    0    0  0.55272776986E+02  0.90828749189E+02 -0.12413381933E+03  0.20576478478E+03  0.12500000000E+03 0.  0.
</event>
<event>
 5    0  0.5677492E-005  0.2553733E+03  0.7546771E-02  0.1109955E+00
         21   -1    0    0  502  501  0.00000000000E+00  0.00000000000E+00  0.19511567993E+03  0.19511567993E+03  0.00000000000E+00 0.  1.
         21   -1    0    0  501  502 -0.00000000000E+00 -0.00000000000E+00 -0.33424033155E+03  0.33424033155E+03  0.00000000000E+00 0.  1.
         25    1    1    2    0    0 -0.66136402921E+02  0.21097095932E+02 -0.50820544262E+02  0.15174596854E+03  0.12500000000E+03 0.  0.
         25    1    1    2    0    0  0.11167849048E+03  0.41235361732E+02  0.45907632321E+02  0.17861957059E+03  0.12500000000E+03 0.  0.
         25    1    1    2    0    0 -0.45542087561E+02 -0.62332457664E+02 -0.13421173968E+03  0.19899047235E+03  0.12500000000E+03 0.  0.
</event>
<event>
 5    0  0.5677492E-005  0.3458207E+03  0.7546771E-02  0.1064344E+00
         21   -1    0    0  502  501  0.00000000000E+00  0.00000000000E+00  0.44665325244E+03  0.44665325244E+03  0.00000000000E+00 0. -1.
         21   -1    0    0  501  502 -0.00000000000E+00 -0.00000000000E+00 -0.26775123888E+03  0.26775123888E+03  0.00000000000E+00 0. -1.
         25    1    1    2    0    0 -0.15694577474E+02 -0.12281054672E+03 -0.12306097055E+03  0.21470387193E+03  0.12500000000E+03 0.  0.
         25    1    1    2    0    0 -0.33929754224E+02  0.20216778644E+03  0.20641332073E+03  0.31662991184E+03  0.12500000000E+03 0.  0.
         25    1    1    2    0    0  0.49624331698E+02 -0.79357239718E+02  0.95549663389E+02  0.18307070756E+03  0.12500000000E+03 0.  0.
</event>
<event>
 5    0  0.5677492E-005  0.2303716E+03  0.7546771E-02  0.1126378E+00
         21   -1    0    0  502  501  0.00000000000E+00  0.00000000000E+00  0.90399642835E+03  0.90399642835E+03  0.00000000000E+00 0.  1.
         21   -1    0    0  501  502 -0.00000000000E+00 -0.00000000000E+00 -0.58707188447E+02  0.58707188447E+02  0.00000000000E+00 0.  1.
         25    1    1    2    0    0  0.91373126318E+02 -0.65461408079E+02  0.26737629527E+03  0.31583116920E+03  0.12500000000E+03 0.  0.
         25    1    1    2    0    0 -0.72786901942E+02  0.76699979418E+02  0.32153756231E+03  0.36082159569E+03  0.12500000000E+03 0.  0.
         25    1    1    2    0    0 -0.18586224377E+02 -0.11238571339E+02  0.25637538232E+03  0.28605085192E+03  0.12500000000E+03 0.  0.
</event>
<event>
 5    0  0.5677492E-005  0.4723862E+03  0.7546771E-02  0.1021249E+00
         21   -1    0    0  502  501  0.00000000000E+00  0.00000000000E+00  0.21673819214E+04  0.21673819214E+04  0.00000000000E+00 0. -1.
         21   -1    0    0  501  502 -0.00000000000E+00 -0.00000000000E+00 -0.10295772566E+03  0.10295772566E+03  0.00000000000E+00 0. -1.
         25    1    1    2    0    0 -0.40013776427E+02  0.19490606817E+03  0.74350235200E+02  0.24645980441E+03  0.12500000000E+03 0.  0.
         25    1    1    2    0    0 -0.66674152942E+02 -0.54265872022E+02  0.77682947720E+03  0.79150443093E+03  0.12500000000E+03 0.  0.
         25    1    1    2    0    0  0.10668792937E+03 -0.14064019615E+03  0.12132444834E+04  0.12323754117E+04  0.12500000000E+03 0.  0.
</event>
<event>
 5    0  0.5677492E-005  0.4396405E+03  0.7546771E-02  0.1030857E+00
         21   -1    0    0  502  501  0.00000000000E+00  0.00000000000E+00  0.42288202602E+03  0.42288202602E+03  0.00000000000E+00 0.  1.
         21   -1    0    0  501  502 -0.00000000000E+00 -0.00000000000E+00 -0.45706316530E+03  0.45706316530E+03  0.00000000000E+00 0.  1.
         25    1    1    2    0    0  0.37101812916E+02  0.19586636703E+02 -0.23063442822E+03  0.26566411188E+03  0.12500000000E+03 0.  0.
         25    1    1    2    0    0 -0.97522220774E+02 -0.22767747171E+03  0.23194269579E+03  0.36162138875E+03  0.12500000000E+03 0.  0.
         25    1    1    2    0    0  0.60420407859E+02  0.20809083501E+03 -0.35489406851E+02  0.25265969069E+03  0.12500000000E+03 0.  0.
</event>
<event>
 5    0  0.5677492E-005  0.6111874E+03  0.7546771E-02  0.9882464E-01
         21   -1    0    0  502  501  0.00000000000E+00  0.00000000000E+00  0.32980588061E+03  0.32980588061E+03  0.00000000000E+00 0.  1.
         21   -1    0    0  501  502 -0.00000000000E+00 -0.00000000000E+00 -0.11326360608E+04  0.11326360608E+04  0.00000000000E+00 0.  1.
         25    1    1    2    0    0  0.33333792626E+02  0.77657679413E+02 -0.62257002013E+02  0.16322619643E+03  0.12500000000E+03 0.  0.
         25    1    1    2    0    0  0.43245992797E+03 -0.24987723874E+03 -0.54847414454E+03  0.75226930748E+03  0.12500000000E+03 0.  0.
         25    1    1    2    0    0 -0.46579372059E+03  0.17221955933E+03 -0.19209903362E+03  0.54694643748E+03  0.12500000000E+03 0.  0.
</event>
<event>
 5    0  0.5677492E-005  0.3772265E+03  0.7546771E-02  0.1051964E+00
         21   -1    0    0  502  501  0.00000000000E+00  0.00000000000E+00  0.63106175594E+03  0.63106175594E+03  0.00000000000E+00 0. -1.
         21   -1    0    0  501  502 -0.00000000000E+00 -0.00000000000E+00 -0.22549274851E+03  0.22549274851E+03  0.00000000000E+00 0. -1.
         25    1    1    2    0    0 -0.86146593798E+02 -0.30353336762E+02 -0.11595962976E+03  0.19342749652E+03  0.12500000000E+03 0.  0.
         25    1    1    2    0    0  0.17146136956E+03  0.10483456199E+03  0.25680037228E+03  0.34922874716E+03  0.12500000000E+03 0.  0.
         25    1    1    2    0    0 -0.85314775763E+02 -0.74481225231E+02  0.26472826491E+03  0.31389826078E+03  0.12500000000E+03 0.  0.
</event>
<event>
 5    0  0.5677492E-005  0.3145200E+03  0.7546771E-02  0.1078199E+00
         21   -1    0    0  502  501  0.00000000000E+00  0.00000000000E+00  0.55510206192E+02  0.55510206192E+02  0.00000000000E+00 0. -1.
         21   -1    0    0  501  502 -0.00000000000E+00 -0.00000000000E+00 -0.17820656638E+04  0.17820656638E+04  0.00000000000E+00 0. -1.
         25    1    1    2    0    0  0.19338961942E+03  0.86085345670E+02 -0.45561322898E+03  0.51770517291E+03  0.12500000000E+03 0.  0.
         25    1    1    2    0    0 -0.33352715661E+02 -0.75996519158E+02 -0.62098011416E+03  0.63884988593E+03  0.12500000000E+03 0.  0.
         25    1    1    2    0    0 -0.16003690376E+03 -0.10088826511E+02 -0.64996211450E+03  0.68102081119E+03  0.12500000000E+03 0.  0.
</event>
<event>
 5    0  0.5677492E-005  0.3277204E+03  0.7546771E-02  0.1072150E+00
         21   -1    0    0  502  501  0.00000000000E+00  0.00000000000E+00  0.76816824903E+03  0.76816824903E+03  0.00000000000E+00 0. -1.
         21   -1    0    0  501  502 -0.00000000000E+00 -0.00000000000E+00 -0.13981396552E+03  0.13981396552E+03  0.00000000000E+00 0. -1.
         25    1    1    2    0    0  0.76091787798E+02  0.98005661254E+02  0.23914054007E+03  0.29699876719E+03  0.12500000000E+03 0.  0.
         25    1    1    2    0    0 -0.16327935744E+03 -0.12839622161E+03  0.64286398004E+02  0.25080566034E+03  0.12500000000E+03 0.  0.
         25    1    1    2    0    0  0.87187569639E+02  0.30390560355E+02  0.32492734543E+03  0.36017778702E+03  0.12500000000E+03 0.  0.
</event>
<event>
 5    0  0.5677492E-005  0.5081296E+03  0.7546771E-02  0.1011678E+00
         21   -1    0    0  502  501  0.00000000000E+00  0.00000000000E+00  0.10774474599E+03  0.10774474599E+03  0.00000000000E+00 0.  1.
         21   -1    0    0  501  502 -0.00000000000E+00 -0.00000000000E+00 -0.23963643742E+04  0.23963643742E+04  0.00000000000E+00 0.  1.
         25    1    1    2    0    0 -0.16843945934E+03  0.28655674927E+03 -0.98078945291E+03  0.10431009409E+04  0.12500000000E+03 0.  0.
         25    1    1    2    0    0  0.16865180125E+03 -0.34628118482E+03 -0.50987080067E+03  0.65111237310E+03  0.12500000000E+03 0.  0.
         25    1    1    2    0    0 -0.21234190947E+00  0.59724435548E+02 -0.79795937465E+03  0.80989580619E+03  0.12500000000E+03 0.  0.
</event>
<event>
 5    0  0.5677492E-005  0.2651981E+03  0.7546771E-02  0.1104060E+00
         21   -1    0    0  502  501  0.00000000000E+00  0.00000000000E+00  0.43629312523E+03  0.43629312523E+03  0.00000000000E+00 0. -1.
         21   -1    0    0  501  502 -0.00000000000E+00 -0.00000000000E+00 -0.16119909675E+03  0.16119909675E+03  0.00000000000E+00 0. -1.
         25    1    1    2    0    0 -0.37327401128E+02 -0.83108594469E+02  0.89886750695E+02  0.17889941671E+03  0.12500000000E+03 0.  0.
         25    1    1    2    0    0 -0.66076783143E+01  0.13534047314E+03 -0.76180486830E+00  0.18435369654E+03  0.12500000000E+03 0.  0.
         25    1    1    2    0    0  0.43935079442E+02 -0.52231878669E+02  0.18596908265E+03  0.23423910873E+03  0.12500000000E+03 0.  0.
</event>
<event>
 5    0  0.6904999E-005  0.2498859E+03  0.7546771E-02  0.1113377E+00
         21   -1    0    0  502  501  0.00000000000E+00  0.00000000000E+00  0.13510684306E+03  0.13510684306E+03  0.00000000000E+00 0.  1.
         21   -1    0    0  501  502 -0.00000000000E+00 -0.00000000000E+00 -0.46217481506E+03  0.46217481506E+03  0.00000000000E+00 0.  1.
         25    1    1    2    0    0 -0.77835499824E+02  0.88384324843E+02 -0.30002655024E+02  0.17434251696E+03  0.12500000000E+03 0.  0.
         25    1    1    2    0    0  0.41310581783E+02 -0.39735074236E+02 -0.64266502177E+02  0.15179138182E+03  0.12500000000E+03 0.  0.
         25    1    1    2    0    0  0.36524918040E+02 -0.48649250607E+02 -0.23279881480E+03  0.27114775934E+03  0.12500000000E+03 0.  0.
</event>
<event>
 5    0  0.5677492E-005  0.3226457E+03  0.7546771E-02  0.1074438E+00
         21   -1    0    0  502  501  0.00000000000E+00  0.00000000000E+00  0.54640390549E+03  0.54640390549E+03  0.00000000000E+00 0.  1.
         21   -1    0    0  501  502 -0.00000000000E+00 -0.00000000000E+00 -0.19051890108E+03  0.19051890108E+03  0.00000000000E+00 0. -1.
         25    1    1    2    0    0 -0.22610989008E+03 -0.30802637721E+02  0.25065113857E+03  0.36128309973E+03  0.12500000000E+03 0.  0.
         25    1    1    2    0    0  0.72858036748E+02  0.56714240897E+02  0.79420901605E+02  0.17452071009E+03  0.12500000000E+03 0.  0.
         25    1    1    2    0    0  0.15325185334E+03 -0.25911603176E+02  0.25812964245E+02  0.20111899675E+03  0.12500000000E+03 0.  0.
</event>
<event>
 5    0  0.5677492E-005  0.2349701E+03  0.7546771E-02  0.1123190E+00
         21   -1    0    0  502  501  0.00000000000E+00  0.00000000000E+00  0.49377342464E+02  0.49377342464E+02  0.00000000000E+00 0.  1.
         21   -1    0    0  501  502 -0.00000000000E+00 -0.00000000000E+00 -0.11181438204E+04  0.11181438204E+04  0.00000000000E+00 0.  1.
         25    1    1    2    0    0 -0.20474357525E+02 -0.11154189488E+03 -0.36079280526E+03  0.39831801611E+03  0.12500000000E+03 0.  0.
         25    1    1    2    0    0  0.15767902732E+02  0.10863334474E+03 -0.30719971372E+03  0.34935153421E+03  0.12500000000E+03 0.  0.
         25    1    1    2    0    0  0.47064547934E+01  0.29085501400E+01 -0.40077395898E+03  0.41985161257E+03  0.12500000000E+03 0.  0.
</event>
