<event>
 6    0  0.4469832E+002  0.1591714E+03  0.7546771E-02  0.1189635E+00
         21   -1    0    0  504  501  0.00000000000E+00  0.00000000000E+00  0.15559348230E+04  0.15559348230E+04  0.00000000000E+00 0.  1.
         21   -1    0    0  503  502 -0.00000000000E+00 -0.00000000000E+00 -0.92292713831E+02  0.92292713831E+02  0.00000000000E+00 0.  1.
         21    1    1    2  503  506 -0.23811855153E+02  0.57510509781E+02 -0.30505105456E+01  0.62319890851E+02  0.00000000000E+00 0.  1.
         21    1    1    2  504  505  0.20411102465E+03  0.75421250434E+01  0.10859741349E+04  0.11050149391E+04  0.00000000000E+00 0.  1.
         21    1    1    2  505  502 -0.65850019457E+02 -0.31823338455E+02 -0.86946477151E+01  0.73651522943E+02  0.00000000000E+00 0.  1.
         21    1    1    2  506  501 -0.11444915004E+03 -0.33229296369E+02  0.38941313254E+03  0.40724118392E+03  0.00000000000E+00 0. -1.
<scales pt_clust_3="62.24519" pt_clust_4="14000.00000" pt_clust_5="82.67616" pt_clust_6="159.17140"></scales>
<clustering>
<clus scale="   62.245">  2  3  1 -1</clus>
<clus scale="   82.676">  2  5  1 -1</clus>
<clus scale="  159.171">  1  6  2 -1</clus>
<clus scale="  159.171">  1  3  2 -1</clus>
</clustering>
</event>
<event>
 6    0  0.4469832E+002  0.2543578E+03  0.7546771E-02  0.1110581E+00
         21   -1    0    0  506  501  0.00000000000E+00  0.00000000000E+00  0.11890126987E+04  0.11890126987E+04  0.00000000000E+00 0.  1.
         21   -1    0    0  505  502 -0.00000000000E+00 -0.00000000000E+00 -0.80333523907E+02  0.80333523907E+02  0.00000000000E+00 0.  1.
         21    1    1    2  503  502  0.15524114257E+03  0.11101730183E+03  0.30994001098E+03  0.36398827462E+03  0.00000000000E+00 0.  1.
         21    1    1    2  504  503  0.65207887538E+02 -0.32602772836E+01  0.10351932681E+03  0.12238851674E+03  0.00000000000E+00 0.  1.
         21    1    1    2  505  501 -0.23502416670E+03 -0.65077276285E+02  0.30668268120E+03  0.39182352887E+03  0.00000000000E+00 0.  1.
         21    1    1    2  506  504  0.14575136596E+02 -0.42679748263E+02  0.38853715583E+03  0.39114590242E+03  0.00000000000E+00 0.  1.
<scales pt_clust_3="42.99781" pt_clust_4="42.99781" pt_clust_5="243.50251" pt_clust_6="45.09984"></scales>
<clustering>
<clus scale="   42.998">  3  4 -1 -1</clus>
<clus scale="   45.100">  1  6  2 -1</clus>
<clus scale="  243.503">  2  5  1 -1</clus>
<clus scale="   45.100">  1  3  2 -1</clus>
</clustering>
</event>
<event>
 6    0  0.4469832E+002  0.6803622E+02  0.7546771E-02  0.1366901E+00
         21   -1    0    0  504  501  0.00000000000E+00  0.00000000000E+00  0.13606115834E+04  0.13606115834E+04  0.00000000000E+00 0.  1.
         21   -1    0    0  506  502 -0.00000000000E+00 -0.00000000000E+00 -0.65878466619E+02  0.65878466619E+02  0.00000000000E+00 0. -1.
         21    1    1    2  503  501  0.28335491098E+02 -0.80130204277E+02  0.10826032846E+04  0.10859344462E+04  0.00000000000E+00 0.  1.
         21    1    1    2  504  505  0.14321587913E+02  0.31405225088E+02  0.15972286587E+03  0.16340988319E+03  0.00000000000E+00 0.  1.
         21    1    1    2  505  502 -0.43829488550E+01 -0.49456652488E+02  0.51818784994E+02  0.71765989119E+02  0.00000000000E+00 0.  1.
         21    1    1    2  506  503 -0.38274130156E+02  0.98181631677E+02  0.58818127019E+00  0.10537973142E+03  0.00000000000E+00 0. -1.
<scales pt_clust_3="68.03622" pt_clust_4="34.51661" pt_clust_5="47.97685" pt_clust_6="14000.00000"></scales>
<clustering>
<clus scale="   34.517">  1  4  2 -1</clus>
<clus scale="   47.977">  2  5  1 -1</clus>
<clus scale="   68.036">  1  3  2 -1</clus>
<clus scale="   34.517">  1  3  2 -1</clus>
</clustering>
</event>
<event>
 6    0  0.4469832E+002  0.1684903E+03  0.7546771E-02  0.1179431E+00
         21   -1    0    0  503  501  0.00000000000E+00  0.00000000000E+00  0.25513685576E+03  0.25513685576E+03  0.00000000000E+00 0.  1.
         21   -1    0    0  501  502 -0.00000000000E+00 -0.00000000000E+00 -0.57684798999E+03  0.57684798999E+03  0.00000000000E+00 0. -1.
         21    1    1    2  503  504 -0.26485503726E+01 -0.85613072901E+02  0.19409993936E+03  0.21215890161E+03  0.00000000000E+00 0.  1.
         21    1    1    2  504  506 -0.16845759987E+02 -0.37905362916E+02 -0.10251315181E+02  0.42728042669E+02  0.00000000000E+00 0.  1.
         21    1    1    2  505  502  0.74952880284E+01  0.19599346047E+03 -0.42498418378E+03  0.46806107759E+03  0.00000000000E+00 0. -1.
         21    1    1    2  506  505  0.11999022331E+02 -0.72475024649E+02 -0.80575574635E+02  0.10903682388E+03  0.00000000000E+00 0.  1.
<scales pt_clust_3="85.65403" pt_clust_4="38.13640" pt_clust_5="160.66498" pt_clust_6="38.13640"></scales>
<clustering>
<clus scale="   38.136">  4  6 -1 -1</clus>
<clus scale="   85.654">  1  3  2 -1</clus>
<clus scale="  160.665">  2  5  1 -1</clus>
<clus scale="   85.654">  1  3  2 -1</clus>
</clustering>
</event>
<event>
 6    0  0.4469832E+002  0.1326766E+03  0.7546771E-02  0.1223537E+00
         21   -1    0    0  503  501  0.00000000000E+00  0.00000000000E+00  0.73616868498E+02  0.73616868498E+02  0.00000000000E+00 0. -1.
         21   -1    0    0  506  502 -0.00000000000E+00 -0.00000000000E+00 -0.13380947350E+04  0.13380947350E+04  0.00000000000E+00 0.  1.
         21    1    1    2  503  505  0.52817334141E+02 -0.26068937859E+02 -0.34442238747E+03  0.34942243960E+03  0.00000000000E+00 0. -1.
         21    1    1    2  504  501  0.49654507135E+02  0.94782930087E+01  0.24962744086E+02  0.56378601522E+02  0.00000000000E+00 0. -1.
         21    1    1    2  505  502  0.57747992911E+02 -0.20552798153E+02 -0.74247545726E+03  0.74500137773E+03  0.00000000000E+00 0.  1.
         21    1    1    2  506  504 -0.16021983419E+03  0.37143443004E+02 -0.20254276585E+03  0.26090918463E+03  0.00000000000E+00 0. -1.
<scales pt_clust_3="44.03860" pt_clust_4="50.55104" pt_clust_5="44.03860" pt_clust_6="124.83901"></scales>
<clustering>
<clus scale="   44.039">  3  5 -1 -1</clus>
<clus scale="   50.551">  1  4  2 -1</clus>
<clus scale="  124.839">  1  6  2 -1</clus>
<clus scale="   50.551">  1  3  2 -1</clus>
</clustering>
</event>
<event>
 6    0  0.4469832E+002  0.1580831E+03  0.7546771E-02  0.1190878E+00
         21   -1    0    0  505  501  0.00000000000E+00  0.00000000000E+00  0.42886822970E+03  0.42886822970E+03  0.00000000000E+00 0.  1.
         21   -1    0    0  503  502 -0.00000000000E+00 -0.00000000000E+00 -0.10934725214E+03  0.10934725214E+03  0.00000000000E+00 0.  1.
         21    1    1    2  503  506 -0.66505342277E+02 -0.33803599718E+02 -0.20429019495E+02  0.77349781789E+02  0.00000000000E+00 0.  1.
         21    1    1    2  504  501  0.40356055968E+02 -0.15271056268E+02  0.85906252895E+02  0.96133764616E+02  0.00000000000E+00 0. -1.
         21    1    1    2  505  502 -0.11275339055E+03  0.15066660825E+01  0.87642050683E+02  0.14281710742E+03  0.00000000000E+00 0.  1.
         21    1    1    2  506  504  0.13890267686E+03  0.47567989904E+02  0.16640169348E+03  0.22191482802E+03  0.00000000000E+00 0.  1.
<scales pt_clust_3="74.60324" pt_clust_4="35.62636" pt_clust_5="143.77572" pt_clust_6="35.62636"></scales>
<clustering>
<clus scale="   35.626">  4  6 -1 -1</clus>
<clus scale="   74.603">  2  3  1 -1</clus>
<clus scale="  143.776">  1  5  2 -1</clus>
<clus scale="  143.776">  1  3  2 -1</clus>
</clustering>
</event>
<event>
 6    0  0.4469832E+002  0.1212613E+03  0.7546771E-02  0.1241031E+00
         21   -1    0    0  506  501  0.00000000000E+00  0.00000000000E+00  0.90792018479E+02  0.90792018479E+02  0.00000000000E+00 0.  1.
         21   -1    0    0  504  502 -0.00000000000E+00 -0.00000000000E+00 -0.98185785411E+03  0.98185785411E+03  0.00000000000E+00 0. -1.
         21    1    1    2  503  501  0.14626417283E+03  0.15868793352E+02 -0.30395121233E+03  0.33768530666E+03  0.00000000000E+00 0. -1.
         21    1    1    2  504  505 -0.37754555777E+02 -0.46468277662E+01 -0.39562477290E+03  0.39744931805E+03  0.00000000000E+00 0. -1.
         21    1    1    2  505  503 -0.62807592773E+02 -0.70003349579E+01 -0.25299744798E+03  0.26077098589E+03  0.00000000000E+00 0. -1.
         21    1    1    2  506  502 -0.45702024282E+02 -0.42216306281E+01  0.61507597574E+02  0.76744261987E+02  0.00000000000E+00 0.  1.
<scales pt_clust_3="111.39801" pt_clust_4="37.16560" pt_clust_5="37.16560" pt_clust_6="45.89659"></scales>
<clustering>
<clus scale="   37.166">  4  5 -1 -1</clus>
<clus scale="   45.897">  1  6  2 -1</clus>
<clus scale="  111.398">  1  3  2 -1</clus>
<clus scale="   45.897">  1  3  2 -1</clus>
</clustering>
</event>
<event>
 6    0  0.4469832E+002  0.1066133E+03  0.7546771E-02  0.1266973E+00
         21   -1    0    0  505  501  0.00000000000E+00  0.00000000000E+00  0.44228801450E+03  0.44228801450E+03  0.00000000000E+00 0. -1.
         21   -1    0    0  504  502 -0.00000000000E+00 -0.00000000000E+00 -0.90737091579E+03  0.90737091579E+03  0.00000000000E+00 0. -1.
         21    1    1    2  503  501 -0.83478986138E+01 -0.43489826085E+02  0.40624828621E+03  0.40865477170E+03  0.00000000000E+00 0. -1.
         21    1    1    2  504  506 -0.81151183225E+02  0.22041813597E+02 -0.40370876500E+03  0.41237376617E+03  0.00000000000E+00 0. -1.
         21    1    1    2  505  502  0.31888875459E+02  0.10153831629E+03 -0.38655374237E+03  0.40093730905E+03  0.00000000000E+00 0. -1.
         21    1    1    2  506  503  0.57610206380E+02 -0.80090303801E+02 -0.81068680132E+02  0.12769308337E+03  0.00000000000E+00 0. -1.
<scales pt_clust_3="44.28377" pt_clust_4="83.85556" pt_clust_5="106.61326" pt_clust_6="14000.00000"></scales>
<clustering>
<clus scale="   44.284">  1  3  2 -1</clus>
<clus scale="   83.856">  2  4  1 -1</clus>
<clus scale="  106.613">  2  5  1 -1</clus>
<clus scale="   44.284">  1  3  2 -1</clus>
</clustering>
</event>
<event>
 6    0  0.4469832E+002  0.1124299E+03  0.7546771E-02  0.1256135E+00
         21   -1    0    0  504  501  0.00000000000E+00  0.00000000000E+00  0.15067423502E+03  0.15067423502E+03  0.00000000000E+00 0.  1.
         21   -1    0    0  503  502 -0.00000000000E+00 -0.00000000000E+00 -0.74492179593E+03  0.74492179593E+03  0.00000000000E+00 0.  1.
         21    1    1    2  503  505 -0.17536641142E+02 -0.26514059407E+02 -0.36211011073E+03  0.36350276673E+03  0.00000000000E+00 0.  1.
         21    1    1    2  504  506  0.16851032217E+02  0.11497422058E+03  0.10480903760E+03  0.15648630307E+03  0.00000000000E+00 0.  1.
         21    1    1    2  505  501 -0.51639385951E+02 -0.62036553016E+02 -0.28844183834E+03  0.29952271065E+03  0.00000000000E+00 0.  1.
         21    1    1    2  506  502  0.52324994876E+02 -0.26423608156E+02 -0.48504649437E+02  0.76084250497E+02  0.00000000000E+00 0.  1.
<scales pt_clust_3="31.78882" pt_clust_4="112.42989" pt_clust_5="14000.00000" pt_clust_6="58.24271"></scales>
<clustering>
<clus scale="   31.789">  2  3  1 -1</clus>
<clus scale="   58.243">  2  6  1 -1</clus>
<clus scale="  112.430">  1  4  2 -1</clus>
<clus scale="  112.430">  1  3  2 -1</clus>
</clustering>
</event>
<event>
 6    0  0.4469832E+002  0.7934897E+02  0.7546771E-02  0.1330909E+00
         21   -1    0    0  506  501  0.00000000000E+00  0.00000000000E+00  0.22596205063E+02  0.22596205063E+02  0.00000000000E+00 0. -1.
         21   -1    0    0  504  502 -0.00000000000E+00 -0.00000000000E+00 -0.11336032920E+04  0.11336032920E+04  0.00000000000E+00 0. -1.
         21    1    1    2  503  502  0.10281028935E+03 -0.32516895216E+02 -0.47030209321E+03  0.48250529837E+03  0.00000000000E+00 0. -1.
         21    1    1    2  504  505 -0.30066085880E+02 -0.69472352178E+00 -0.35741446987E+03  0.35867750896E+03  0.00000000000E+00 0. -1.
         21    1    1    2  505  501 -0.61941845520E+02 -0.14681718682E+02 -0.24390330463E+03  0.25207373346E+03  0.00000000000E+00 0. -1.
         21    1    1    2  506  503 -0.10802357948E+02  0.47893337420E+02 -0.39387219209E+02  0.62942956266E+02  0.00000000000E+00 0. -1.
<scales pt_clust_3="14000.00000" pt_clust_4="30.07411" pt_clust_5="79.34897" pt_clust_6="49.52638"></scales>
<clustering>
<clus scale="   30.074">  2  4  1 -1</clus>
<clus scale="   49.526">  1  6  2 -1</clus>
<clus scale="   79.349">  1  5  2 -1</clus>
<clus scale="   49.526">  1  3  2 -1</clus>
</clustering>
</event>
<event>
 6    0  0.4469832E+002  0.1770137E+03  0.7546771E-02  0.1170725E+00
         21   -1    0    0  504  501  0.00000000000E+00  0.00000000000E+00  0.32652009761E+03  0.32652009761E+03  0.00000000000E+00 0. -1.
         21   -1    0    0  506  502 -0.00000000000E+00 -0.00000000000E+00 -0.67792342859E+03  0.67792342859E+03  0.00000000000E+00 0. -1.
         21    1    1    2  503  505 -0.82257739453E+02  0.14437181377E+03  0.16340278211E+03  0.23304511476E+03  0.00000000000E+00 0. -1.
         21    1    1    2  504  503  0.63321179839E+02  0.36807550263E+02  0.10032530381E+03  0.12421567597E+03  0.00000000000E+00 0. -1.
         21    1    1    2  505  502 -0.22865098244E+02 -0.35606449857E+02 -0.73883293205E+02  0.85143249903E+02  0.00000000000E+00 0. -1.
         21    1    1    2  506  501  0.41801657858E+02 -0.14557291417E+03 -0.54124812369E+03  0.56203948557E+03  0.00000000000E+00 0. -1.
<scales pt_clust_3="14000.00000" pt_clust_4="72.49108" pt_clust_5="42.31586" pt_clust_6="177.01367"></scales>
<clustering>
<clus scale="   42.316">  2  5  1 -1</clus>
<clus scale="   72.491">  1  4  2 -1</clus>
<clus scale="  177.014">  2  6  1 -1</clus>
<clus scale="   72.491">  1  3  2 -1</clus>
</clustering>
</event>
<event>
 6    0  0.4469832E+002  0.7364333E+02  0.7546771E-02  0.1348124E+00
         21   -1    0    0  505  501  0.00000000000E+00  0.00000000000E+00  0.19131640535E+03  0.19131640535E+03  0.00000000000E+00 0. -1.
         21   -1    0    0  504  502 -0.00000000000E+00 -0.00000000000E+00 -0.17582379157E+04  0.17582379157E+04  0.00000000000E+00 0.  1.
         21    1    1    2  503  506 -0.75205906378E+01  0.45887508324E+02 -0.11020149116E+04  0.11029955068E+04  0.00000000000E+00 0.  1.
         21    1    1    2  504  501  0.54294158185E+02  0.36853313525E+02  0.10313045851E+03  0.12223712122E+03  0.00000000000E+00 0. -1.
         21    1    1    2  505  503 -0.78605298767E+02 -0.65459797734E+02  0.43899166622E+02  0.11131448668E+03  0.00000000000E+00 0. -1.
         21    1    1    2  506  502  0.31831731221E+02 -0.17281024115E+02 -0.61193622391E+03  0.61300720635E+03  0.00000000000E+00 0.  1.
<scales pt_clust_3="37.28438" pt_clust_4="14000.00000" pt_clust_5="73.64333" pt_clust_6="36.22006"></scales>
<clustering>
<clus scale="   36.220">  2  6  1 -1</clus>
<clus scale="   37.284">  2  3  1 -1</clus>
<clus scale="   73.643">  2  5  1 -1</clus>
<clus scale="   73.643">  1  3  2 -1</clus>
</clustering>
</event>
<event>
 6    0  0.4469832E+002  0.1038947E+03  0.7546771E-02  0.1272313E+00
         21   -1    0    0  505  501  0.00000000000E+00  0.00000000000E+00  0.33736708417E+03  0.33736708417E+03  0.00000000000E+00 0. -1.
         21   -1    0    0  506  502 -0.00000000000E+00 -0.00000000000E+00 -0.26227149986E+03  0.26227149986E+03  0.00000000000E+00 0. -1.
         21    1    1    2  503  501 -0.29149206762E+02  0.33595683640E+02  0.14818639921E+03  0.15471766261E+03  0.00000000000E+00 0. -1.
         21    1    1    2  504  503 -0.40582732384E+02 -0.44937367103E+02  0.13803138247E+03  0.15072819138E+03  0.00000000000E+00 0. -1.
         21    1    1    2  505  502 -0.39702233724E+02  0.14677505249E+02  0.13399678464E+02  0.44398737662E+02  0.00000000000E+00 0. -1.
         21    1    1    2  506  504  0.10943417287E+03 -0.33358217869E+01 -0.22452187583E+03  0.24979399237E+03  0.00000000000E+00 0. -1.
<scales pt_clust_3="63.48921" pt_clust_4="103.89471" pt_clust_5="42.32844" pt_clust_6="14000.00000"></scales>
<clustering>
<clus scale="   42.328">  1  5  2 -1</clus>
<clus scale="   63.489">  1  3  2 -1</clus>
<clus scale="  103.895">  1  4  2 -1</clus>
<clus scale="   42.328">  1  3  2 -1</clus>
</clustering>
</event>
<event>
 6    0  0.4469832E+002  0.1443933E+03  0.7546771E-02  0.1207537E+00
         21   -1    0    0  506  501  0.00000000000E+00  0.00000000000E+00  0.31896101410E+03  0.31896101410E+03  0.00000000000E+00 0. -1.
         21   -1    0    0  503  502 -0.00000000000E+00 -0.00000000000E+00 -0.29615333895E+03  0.29615333895E+03  0.00000000000E+00 0. -1.
         21    1    1    2  503  505 -0.73500334701E+01  0.44657414499E+02 -0.10949239813E+03  0.11847739409E+03  0.00000000000E+00 0. -1.
         21    1    1    2  504  501  0.33939393415E+02  0.36639985286E+01  0.22623827016E+03  0.22879917438E+03  0.00000000000E+00 0. -1.
         21    1    1    2  505  504  0.21301899592E+02  0.86209033797E+02 -0.87840793877E+02  0.12490705946E+03  0.00000000000E+00 0. -1.
         21    1    1    2  506  502 -0.47891259538E+02 -0.13453044682E+03 -0.60974030045E+01  0.14293072513E+03  0.00000000000E+00 0. -1.
<scales pt_clust_3="38.35351" pt_clust_4="34.13660" pt_clust_5="38.35351" pt_clust_6="133.69561"></scales>
<clustering>
<clus scale="   34.137">  1  4  2 -1</clus>
<clus scale="   38.354">  3  5 -1 -1</clus>
<clus scale="  133.696">  1  6  2 -1</clus>
<clus scale="   34.137">  1  3  2 -1</clus>
</clustering>
</event>
<event>
 6    0  0.4469832E+002  0.8417172E+02  0.7546771E-02  0.1317613E+00
         21   -1    0    0  503  501  0.00000000000E+00  0.00000000000E+00  0.95442694027E+03  0.95442694027E+03  0.00000000000E+00 0.  1.
         21   -1    0    0  504  502 -0.00000000000E+00 -0.00000000000E+00 -0.66993728714E+03  0.66993728714E+03  0.00000000000E+00 0.  1.
         21    1    1    2  503  506 -0.56370142505E+02 -0.23009424226E+02  0.87211089368E+03  0.87423362864E+03  0.00000000000E+00 0.  1.
         21    1    1    2  504  505  0.85254736268E+01  0.82684414722E+02 -0.51030543135E+03  0.51703097528E+03  0.00000000000E+00 0.  1.
         21    1    1    2  505  501 -0.24655287759E+02  0.35158144484E+02  0.44991007856E+02  0.62194606888E+02  0.00000000000E+00 0.  1.
         21    1    1    2  506  502  0.72499956637E+02 -0.94833134980E+02 -0.12230681706E+03  0.17090501661E+03  0.00000000000E+00 0.  1.
<scales pt_clust_3="81.02797" pt_clust_4="84.17172" pt_clust_5="42.94157" pt_clust_6="14000.00000"></scales>
<clustering>
<clus scale="   42.942">  1  5  2 -1</clus>
<clus scale="   81.028">  1  3  2 -1</clus>
<clus scale="   84.172">  2  4  1 -1</clus>
<clus scale="   42.942">  1  3  2 -1</clus>
</clustering>
</event>
<event>
 6    0  0.4469832E+002  0.2258742E+03  0.7546771E-02  0.1129578E+00
         21   -1    0    0  506  501  0.00000000000E+00  0.00000000000E+00  0.45615374843E+03  0.45615374843E+03  0.00000000000E+00 0. -1.
         21   -1    0    0  504  502 -0.00000000000E+00 -0.00000000000E+00 -0.44234797482E+03  0.44234797482E+03  0.00000000000E+00 0. -1.
         21    1    1    2  503  501  0.55710272386E+02  0.56389622971E+02  0.92501790249E+02  0.12181956012E+03  0.00000000000E+00 0. -1.
         21    1    1    2  504  505 -0.11154798271E+03 -0.19328099793E+03 -0.35542140466E+03  0.41967233826E+03  0.00000000000E+00 0. -1.
         21    1    1    2  505  503  0.85538291039E+02  0.10414125962E+03  0.82938438112E+02  0.15824343811E+03  0.00000000000E+00 0. -1.
         21    1    1    2  506  502 -0.29700580720E+02  0.32750115343E+02  0.19378694991E+03  0.19876638676E+03  0.00000000000E+00 0. -1.
<scales pt_clust_3="33.73358" pt_clust_4="221.55016" pt_clust_5="33.73358" pt_clust_6="44.21193"></scales>
<clustering>
<clus scale="   33.734">  3  5 -1 -1</clus>
<clus scale="   44.212">  1  6  2 -1</clus>
<clus scale="  221.550">  2  4  1 -1</clus>
<clus scale="   44.212">  1  3  2 -1</clus>
</clustering>
</event>
<event>
 6    0  0.4469832E+002  0.4402067E+03  0.7546771E-02  0.1030683E+00
         21   -1    0    0  506  501  0.00000000000E+00  0.00000000000E+00  0.82836368289E+03  0.82836368289E+03  0.00000000000E+00 0.  1.
         21   -1    0    0  503  502 -0.00000000000E+00 -0.00000000000E+00 -0.11346142132E+04  0.11346142132E+04  0.00000000000E+00 0.  1.
         21    1    1    2  503  504 -0.31743874512E+03  0.18968301108E+03 -0.23368352202E+03  0.43744141329E+03  0.00000000000E+00 0.  1.
         21    1    1    2  504  501 -0.53296362390E+02  0.36450076288E+02  0.13329241879E+02  0.65930106890E+02  0.00000000000E+00 0. -1.
         21    1    1    2  505  502  0.31202645721E+03  0.21855548579E+03 -0.64116486321E+03  0.74580117470E+03  0.00000000000E+00 0.  1.
         21    1    1    2  506  505  0.58708650301E+02 -0.44468857315E+03  0.55526861302E+03  0.71380520124E+03  0.00000000000E+00 0.  1.
<scales pt_clust_3="53.26073" pt_clust_4="53.26073" pt_clust_5="380.95539" pt_clust_6="421.34992"></scales>
<clustering>
<clus scale="   53.261">  3  4 -1 -1</clus>
<clus scale="  380.955">  2  5  1 -1</clus>
<clus scale="  421.350">  1  6  2 -1</clus>
<clus scale="  421.350">  1  3  2 -1</clus>
</clustering>
</event>
<event>
 6    0  0.4469832E+002  0.1169743E+03  0.7546771E-02  0.1248174E+00
         21   -1    0    0  504  501  0.00000000000E+00  0.00000000000E+00  0.26965600066E+03  0.26965600066E+03  0.00000000000E+00 0. -1.
         21   -1    0    0  503  502 -0.00000000000E+00 -0.00000000000E+00 -0.11167870391E+03  0.11167870391E+03  0.00000000000E+00 0.  1.
         21    1    1    2  503  506 -0.32397781193E+02 -0.31658056192E+02 -0.16615379270E+02  0.48248518903E+02  0.00000000000E+00 0. -1.
         21    1    1    2  504  505  0.35847530076E+02  0.10650343261E+02 -0.26133850118E+01  0.37487397954E+02  0.00000000000E+00 0. -1.
         21    1    1    2  505  502  0.77915019986E+02 -0.46664918073E+02  0.19176050419E+01  0.90840751468E+02  0.00000000000E+00 0.  1.
         21    1    1    2  506  501 -0.81364768870E+02  0.67672631004E+02  0.17528845600E+03  0.20475803624E+03  0.00000000000E+00 0. -1.
<scales pt_clust_3="45.29734" pt_clust_4="30.29311" pt_clust_5="30.29311" pt_clust_6="107.02487"></scales>
<clustering>
<clus scale="   30.293">  4  5 -1 -1</clus>
<clus scale="   45.297">  2  3  1 -1</clus>
<clus scale="  107.025">  1  6  2 -1</clus>
<clus scale="  107.025">  1  3  2 -1</clus>
</clustering>
</event>
<event>
 6    0  0.4469832E+002  0.1111451E+03  0.7546771E-02  0.1258464E+00
         21   -1    0    0  506  501  0.00000000000E+00  0.00000000000E+00  0.17802706772E+03  0.17802706772E+03  0.00000000000E+00 0.  1.
         21   -1    0    0  505  502 -0.00000000000E+00 -0.00000000000E+00 -0.12691556478E+04  0.12691556478E+04  0.00000000000E+00 0.  1.
         21    1    1    2  503  502 -0.24792262053E+02 -0.10360702914E+03 -0.11358720155E+04  0.11408568308E+04  0.00000000000E+00 0.  1.
         21    1    1    2  504  501  0.15860286428E+02  0.58312985533E+02  0.12242752060E+03  0.13653003614E+03  0.00000000000E+00 0.  1.
         21    1    1    2  505  504 -0.46606864091E+02  0.43495548533E+01 -0.88342330699E+02  0.99977426457E+02  0.00000000000E+00 0.  1.
         21    1    1    2  506  503  0.55538839716E+02  0.40944488756E+02  0.10658245507E+02  0.69818422166E+02  0.00000000000E+00 0. -1.
<scales pt_clust_3="14000.00000" pt_clust_4="60.38381" pt_clust_5="46.80938" pt_clust_6="111.14505"></scales>
<clustering>
<clus scale="   46.809">  2  5  1 -1</clus>
<clus scale="   60.384">  1  4  2 -1</clus>
<clus scale="  111.145">  1  6  2 -1</clus>
<clus scale="   60.384">  1  3  2 -1</clus>
</clustering>
</event>
<event>
 6    0  0.4469832E+002  0.1131443E+03  0.7546771E-02  0.1254855E+00
         21   -1    0    0  506  501  0.00000000000E+00  0.00000000000E+00  0.62878764934E+03  0.62878764934E+03  0.00000000000E+00 0.  1.
         21   -1    0    0  505  502 -0.00000000000E+00 -0.00000000000E+00 -0.38434697263E+03  0.38434697263E+03  0.00000000000E+00 0.  1.
         21    1    1    2  503  502  0.36157898986E+02  0.23966878509E+02 -0.18479525499E+03  0.18981857441E+03  0.00000000000E+00 0.  1.
         21    1    1    2  504  503  0.64942297354E+02 -0.28818089457E+01 -0.15229668426E+03  0.16559011699E+03  0.00000000000E+00 0.  1.
         21    1    1    2  505  501 -0.81971430122E+01  0.69606768168E+02  0.49896691930E+03  0.50386534102E+03  0.00000000000E+00 0.  1.
         21    1    1    2  506  504 -0.92903053328E+02 -0.90691837731E+02  0.82565696660E+02  0.15386058954E+03  0.00000000000E+00 0.  1.
<scales pt_clust_3="36.70153" pt_clust_4="36.70153" pt_clust_5="70.08777" pt_clust_6="103.84175"></scales>
<clustering>
<clus scale="   36.702">  3  4 -1 -1</clus>
<clus scale="   70.088">  1  5  2 -1</clus>
<clus scale="  103.842">  1  6  2 -1</clus>
<clus scale="   70.088">  1  3  2 -1</clus>
</clustering>
</event>
<event>
 6    0  0.4469832E+002  0.1287133E+03  0.7546771E-02  0.1229378E+00
         21   -1    0    0  505  501  0.00000000000E+00  0.00000000000E+00  0.21705683018E+03  0.21705683018E+03  0.00000000000E+00 0.  1.
         21   -1    0    0  504  502 -0.00000000000E+00 -0.00000000000E+00 -0.37921357683E+03  0.37921357683E+03  0.00000000000E+00 0.  1.
         21    1    1    2  503  501 -0.34181689277E+02  0.10817395900E+02  0.15010430367E+03  0.15432662089E+03  0.00000000000E+00 0.  1.
         21    1    1    2  504  503  0.13991962526E+03 -0.38711504220E+02 -0.51444336076E+02  0.15402143294E+03  0.00000000000E+00 0.  1.
         21    1    1    2  505  506 -0.72477809828E+02  0.16460659052E+01 -0.11387064446E+03  0.13498987414E+03  0.00000000000E+00 0.  1.
         21    1    1    2  506  502 -0.33260126154E+02  0.26248042414E+02 -0.14694606978E+03  0.15293247904E+03  0.00000000000E+00 0.  1.
<scales pt_clust_3="35.85253" pt_clust_4="116.84080" pt_clust_5="40.48606" pt_clust_6="40.48606"></scales>
<clustering>
<clus scale="   35.853">  1  3  2 -1</clus>
<clus scale="   40.486">  5  6 -1 -1</clus>
<clus scale="  116.841">  1  4  2 -1</clus>
<clus scale="   35.853">  1  3  2 -1</clus>
</clustering>
</event>
<event>
 6    0  0.4469832E+002  0.2698547E+03  0.7546771E-02  0.1101363E+00
         21   -1    0    0  502  501  0.00000000000E+00  0.00000000000E+00  0.62624390515E+03  0.62624390515E+03  0.00000000000E+00 0. -1.
         21   -1    0    0  503  502 -0.00000000000E+00 -0.00000000000E+00 -0.59201016734E+03  0.59201016734E+03  0.00000000000E+00 0.  1.
         21    1    1    2  503  504  0.53606152960E+02  0.34035982750E+02 -0.23690879451E+02  0.67774077094E+02  0.00000000000E+00 0. -1.
         21    1    1    2  504  505  0.19180831274E+03  0.96948231707E+02 -0.47805436804E+03  0.52414250665E+03  0.00000000000E+00 0.  1.
         21    1    1    2  505  506 -0.23871866587E+03 -0.95048607534E+02  0.33568617651E+03  0.42273638161E+03  0.00000000000E+00 0. -1.
         21    1    1    2  506  501 -0.66957998301E+01 -0.35935606923E+02  0.20029280879E+03  0.20360110715E+03  0.00000000000E+00 0. -1.
<scales pt_clust_3="62.21981" pt_clust_4="269.85467" pt_clust_5="14000.00000" pt_clust_6="36.55409"></scales>
<clustering>
<clus scale="   36.554">  1  6  2 -1</clus>
<clus scale="   62.220">  2  3  1 -1</clus>
<clus scale="  269.855">  2  4  1 -1</clus>
<clus scale="   36.554">  1  3  2 -1</clus>
</clustering>
</event>
<event>
 6    0  0.4469832E+002  0.8911125E+02  0.7546771E-02  0.1305018E+00
         21   -1    0    0  506  501  0.00000000000E+00  0.00000000000E+00  0.39797949399E+02  0.39797949399E+02  0.00000000000E+00 0.  1.
         21   -1    0    0  503  502 -0.00000000000E+00 -0.00000000000E+00 -0.63812385229E+03  0.63812385229E+03  0.00000000000E+00 0.  1.
         21    1    1    2  503  505 -0.12419602611E+02  0.36548835209E+02 -0.12169659958E+03  0.12767194771E+03  0.00000000000E+00 0.  1.
         21    1    1    2  504  501 -0.25190840264E+02  0.38226551654E+02 -0.24666493056E+02  0.52002726508E+02  0.00000000000E+00 0.  1.
         21    1    1    2  505  504  0.85509003640E+02  0.20155200114E+02 -0.30126529103E+03  0.31381331612E+03  0.00000000000E+00 0.  1.
         21    1    1    2  506  502 -0.47898560765E+02 -0.94930586977E+02 -0.15069751923E+03  0.18443381135E+03  0.00000000000E+00 0.  1.
<scales pt_clust_3="38.60135" pt_clust_4="48.57467" pt_clust_5="14000.00000" pt_clust_6="89.11125"></scales>
<clustering>
<clus scale="   38.601">  2  3  1 -1</clus>
<clus scale="   48.575">  1  4  2 -1</clus>
<clus scale="   89.111">  1  6  2 -1</clus>
<clus scale="   48.575">  1  3  2 -1</clus>
</clustering>
</event>
<event>
 6    0  0.4469832E+002  0.1378009E+03  0.7546771E-02  0.1216319E+00
         21   -1    0    0  504  501  0.00000000000E+00  0.00000000000E+00  0.15348116365E+03  0.15348116365E+03  0.00000000000E+00 0.  1.
         21   -1    0    0  505  502 -0.00000000000E+00 -0.00000000000E+00 -0.66943501995E+03  0.66943501995E+03  0.00000000000E+00 0.  1.
         21    1    1    2  503  501  0.29239832097E+02  0.16194872477E+03  0.65592067529E+02  0.17715720860E+03  0.00000000000E+00 0.  1.
         21    1    1    2  504  506  0.30439243659E+02 -0.30373767849E+02 -0.49606708219E+01  0.43286505783E+02  0.00000000000E+00 0.  1.
         21    1    1    2  505  503 -0.32991010477E+02 -0.57708607857E+02 -0.10416386476E+03  0.12356698958E+03  0.00000000000E+00 0. -1.
         21    1    1    2  506  502 -0.26688065278E+02 -0.73866349060E+02 -0.47242138825E+03  0.47890547963E+03  0.00000000000E+00 0.  1.
<scales pt_clust_3="14000.00000" pt_clust_4="43.00132" pt_clust_5="67.35338" pt_clust_6="137.80088"></scales>
<clustering>
<clus scale="   43.001">  1  4  2 -1</clus>
<clus scale="   67.353">  2  5  1 -1</clus>
<clus scale="  137.801">  2  6  1 -1</clus>
<clus scale="   43.001">  1  3  2 -1</clus>
</clustering>
</event>
<event>
 6    0  0.4469832E+002  0.1394359E+03  0.7546771E-02  0.1214090E+00
         21   -1    0    0  505  501  0.00000000000E+00  0.00000000000E+00  0.13555015569E+03  0.13555015569E+03  0.00000000000E+00 0.  1.
         21   -1    0    0  506  502 -0.00000000000E+00 -0.00000000000E+00 -0.53307618746E+03  0.53307618746E+03  0.00000000000E+00 0.  1.
         21    1    1    2  503  502 -0.17100669185E+03  0.32423434018E+02 -0.36513824741E+03  0.40450031824E+03  0.00000000000E+00 0.  1.
         21    1    1    2  504  503  0.99587436416E+02 -0.46320232855E+01 -0.85199250116E+02  0.13114124199E+03  0.00000000000E+00 0.  1.
         21    1    1    2  505  504  0.65513939556E+01 -0.35642934623E+02 -0.14629798155E+02  0.39081588316E+02  0.00000000000E+00 0.  1.
         21    1    1    2  506  501  0.64867861478E+02  0.78515238901E+01  0.67441263911E+02  0.93903194610E+02  0.00000000000E+00 0.  1.
<scales pt_clust_3="139.43589" pt_clust_4="14000.00000" pt_clust_5="36.24003" pt_clust_6="70.86141"></scales>
<clustering>
<clus scale="   36.240">  1  5  2 -1</clus>
<clus scale="   70.861">  1  6  2 -1</clus>
<clus scale="  139.436">  2  3  1 -1</clus>
<clus scale="   36.240">  1  3  2 -1</clus>
</clustering>
</event>
<event>
 6    0  0.4469832E+002  0.1211515E+03  0.7546771E-02  0.1241209E+00
         21   -1    0    0  505  501  0.00000000000E+00  0.00000000000E+00  0.87670096316E+02  0.87670096316E+02  0.00000000000E+00 0. -1.
         21   -1    0    0  504  502 -0.00000000000E+00 -0.00000000000E+00 -0.11397124513E+04  0.11397124513E+04  0.00000000000E+00 0.  1.
         21    1    1    2  503  506 -0.60577494857E+02  0.19763252025E+02 -0.62289272193E+02  0.89107645261E+02  0.00000000000E+00 0. -1.
         21    1    1    2  504  503 -0.71005976360E+02  0.45983419865E+02 -0.14706393969E+03  0.16965885163E+03  0.00000000000E+00 0.  1.
         21    1    1    2  505  502  0.10188460117E+03 -0.42594880952E+02 -0.89631341906E+03  0.90309054974E+03  0.00000000000E+00 0.  1.
         21    1    1    2  506  501  0.29698870051E+02 -0.23151790939E+02  0.53624275962E+02  0.65525500978E+02  0.00000000000E+00 0. -1.
<scales pt_clust_3="33.55154" pt_clust_4="33.55154" pt_clust_5="114.81812" pt_clust_6="37.65672"></scales>
<clustering>
<clus scale="   33.552">  3  4 -1 -1</clus>
<clus scale="   37.657">  1  6  2 -1</clus>
<clus scale="  114.818">  2  5  1 -1</clus>
<clus scale="   37.657">  1  3  2 -1</clus>
</clustering>
</event>
<event>
 6    0  0.4469832E+002  0.7509194E+02  0.7546771E-02  0.1343587E+00
         21   -1    0    0  506  501  0.00000000000E+00  0.00000000000E+00  0.11605576303E+04  0.11605576303E+04  0.00000000000E+00 0.  1.
         21   -1    0    0  505  502 -0.00000000000E+00 -0.00000000000E+00 -0.90236559800E+02  0.90236559800E+02  0.00000000000E+00 0. -1.
         21    1    1    2  503  501  0.45870376137E+02 -0.33180852723E+02  0.56225329866E+02  0.79789398500E+02  0.00000000000E+00 0. -1.
         21    1    1    2  504  502 -0.92950878284E+02  0.54973935510E+02  0.30520971513E+03  0.32375140088E+03  0.00000000000E+00 0. -1.
         21    1    1    2  505  503  0.38205188835E+02 -0.63095652649E+02 -0.48766269819E+02  0.88424243899E+02  0.00000000000E+00 0. -1.
         21    1    1    2  506  504  0.88753133122E+01  0.41302569863E+02  0.75765229535E+03  0.75882914686E+03  0.00000000000E+00 0.  1.
<scales pt_clust_3="54.13290" pt_clust_4="75.09194" pt_clust_5="14000.00000" pt_clust_6="42.24540"></scales>
<clustering>
<clus scale="   42.245">  1  6  2 -1</clus>
<clus scale="   54.133">  1  3  2 -1</clus>
<clus scale="   75.092">  1  4  2 -1</clus>
<clus scale="   42.245">  1  3  2 -1</clus>
</clustering>
</event>
<event>
 6    0  0.4469832E+002  0.1142133E+03  0.7546771E-02  0.1252961E+00
         21   -1    0    0  506  501  0.00000000000E+00  0.00000000000E+00  0.30739238793E+03  0.30739238793E+03  0.00000000000E+00 0. -1.
         21   -1    0    0  503  502 -0.00000000000E+00 -0.00000000000E+00 -0.30020063399E+03  0.30020063399E+03  0.00000000000E+00 0.  1.
         21    1    1    2  503  504 -0.52600484100E+02  0.11292330166E+02 -0.18385331694E+03  0.19156296563E+03  0.00000000000E+00 0.  1.
         21    1    1    2  504  501 -0.78165883478E+01 -0.10856092123E+03  0.11016151411E+03  0.15486165395E+03  0.00000000000E+00 0. -1.
         21    1    1    2  505  502  0.28120354904E+02 -0.18893651339E+02 -0.64161014116E+02  0.72555910533E+02  0.00000000000E+00 0. -1.
         21    1    1    2  506  505  0.32296717544E+02  0.11616224240E+03  0.14504457089E+03  0.18861249181E+03  0.00000000000E+00 0. -1.
<scales pt_clust_3="30.10077" pt_clust_4="14000.00000" pt_clust_5="33.87808" pt_clust_6="114.21329"></scales>
<clustering>
<clus scale="   33.878">  2  5  1 -1</clus>
<clus scale="   30.101">  2  3  1 -1</clus>
<clus scale="  114.213">  1  6  2 -1</clus>
<clus scale="  114.213">  1  3  2 -1</clus>
</clustering>
</event>
<event>
 6    0  0.4469832E+002  0.1293413E+03  0.7546771E-02  0.1228436E+00
         21   -1    0    0  505  501  0.00000000000E+00  0.00000000000E+00  0.48182340493E+03  0.48182340493E+03  0.00000000000E+00 0. -1.
         21   -1    0    0  504  502 -0.00000000000E+00 -0.00000000000E+00 -0.37745688663E+03  0.37745688663E+03  0.00000000000E+00 0. -1.
         21    1    1    2  503  502 -0.39541903726E+02 -0.58841965352E+02 -0.32254952070E+03  0.33024859173E+03  0.00000000000E+00 0. -1.
         21    1    1    2  504  506 -0.32256715928E+02  0.16290537675E+03  0.20307324196E+03  0.26233070559E+03  0.00000000000E+00 0. -1.
         21    1    1    2  505  503  0.31291126534E+02 -0.88080461758E+01  0.20230640620E+02  0.38288315412E+02  0.00000000000E+00 0. -1.
         21    1    1    2  506  501  0.40507493121E+02 -0.95255365220E+02  0.20361215643E+03  0.22841267883E+03  0.00000000000E+00 0. -1.
<scales pt_clust_3="70.80807" pt_clust_4="14000.00000" pt_clust_5="32.50717" pt_clust_6="129.34128"></scales>
<clustering>
<clus scale="   32.507">  1  5  2 -1</clus>
<clus scale="   70.808">  2  3  1 -1</clus>
<clus scale="  129.341">  1  6  2 -1</clus>
<clus scale="   32.507">  1  3  2 -1</clus>
</clustering>
</event>
<event>
 6    0  0.4469832E+002  0.2903088E+03  0.7546771E-02  0.1090188E+00
         21   -1    0    0  506  501  0.00000000000E+00  0.00000000000E+00  0.93316305079E+03  0.93316305079E+03  0.00000000000E+00 0. -1.
         21   -1    0    0  501  502 -0.00000000000E+00 -0.00000000000E+00 -0.17254230278E+03  0.17254230278E+03  0.00000000000E+00 0.  1.
         21    1    1    2  503  502 -0.21925983705E+03 -0.42109925377E+01 -0.12618975063E+02  0.21966303088E+03  0.00000000000E+00 0.  1.
         21    1    1    2  504  505  0.30035867812E+03  0.24539420969E+02  0.63896451040E+03  0.70646526047E+03  0.00000000000E+00 0. -1.
         21    1    1    2  505  503 -0.61277734233E+02  0.69783658192E+01  0.27371811722E+02  0.67474990768E+02  0.00000000000E+00 0. -1.
         21    1    1    2  506  504 -0.19821106831E+02 -0.27306794250E+02  0.10690340096E+03  0.11210207146E+03  0.00000000000E+00 0. -1.
<scales pt_clust_3="31.47034" pt_clust_4="284.17883" pt_clust_5="31.47034" pt_clust_6="33.74222"></scales>
<clustering>
<clus scale="   31.470">  3  5 -1 -1</clus>
<clus scale="   33.742">  1  6  2 -1</clus>
<clus scale="  284.179">  1  4  2 -1</clus>
<clus scale="   33.742">  1  3  2 -1</clus>
</clustering>
</event>
<event>
 6    0  0.4469832E+002  0.1461826E+03  0.7546771E-02  0.1205244E+00
         21   -1    0    0  505  501  0.00000000000E+00  0.00000000000E+00  0.18384008149E+03  0.18384008149E+03  0.00000000000E+00 0.  1.
         21   -1    0    0  504  502 -0.00000000000E+00 -0.00000000000E+00 -0.14894346239E+04  0.14894346239E+04  0.00000000000E+00 0.  1.
         21    1    1    2  503  506  0.10388881424E+03  0.20753818236E+03 -0.33189696759E+03  0.40499454312E+03  0.00000000000E+00 0.  1.
         21    1    1    2  504  501 -0.26585924526E+02 -0.12109262094E+03 -0.10064327187E+04  0.10140399654E+04  0.00000000000E+00 0.  1.
         21    1    1    2  505  503 -0.34735557732E+02 -0.98384667229E+02  0.11841705061E+03  0.15782490168E+03  0.00000000000E+00 0.  1.
         21    1    1    2  506  502 -0.42567331987E+02  0.11939105807E+02 -0.85681906755E+02  0.96415295182E+02  0.00000000000E+00 0.  1.
<scales pt_clust_3="146.18256" pt_clust_4="14000.00000" pt_clust_5="104.37939" pt_clust_6="44.20995"></scales>
<clustering>
<clus scale="   44.210">  2  6  1 -1</clus>
<clus scale="  104.379">  1  5  2 -1</clus>
<clus scale="  146.183">  1  3  2 -1</clus>
<clus scale="  104.379">  1  3  2 -1</clus>
</clustering>
</event>
<event>
 6    0  0.4469832E+002  0.9940309E+02  0.7546771E-02  0.1281556E+00
         21   -1    0    0  505  501  0.00000000000E+00  0.00000000000E+00  0.17651697452E+04  0.17651697452E+04  0.00000000000E+00 0.  1.
         21   -1    0    0  506  502 -0.00000000000E+00 -0.00000000000E+00 -0.32084635231E+03  0.32084635231E+03  0.00000000000E+00 0. -1.
         21    1    1    2  503  501 -0.65656794462E+02  0.38260619727E+02  0.11921396848E+03  0.14137418421E+03  0.00000000000E+00 0.  1.
         21    1    1    2  504  502 -0.30536720550E+02 -0.79509995315E+01 -0.18579750422E+02  0.36618531119E+02  0.00000000000E+00 0. -1.
         21    1    1    2  505  504  0.15084924150E+03  0.15048064379E+02  0.16177862607E+04  0.16248736330E+04  0.00000000000E+00 0.  1.
         21    1    1    2  506  503 -0.54655726490E+02 -0.45357684574E+02 -0.27409708586E+03  0.28314974918E+03  0.00000000000E+00 0. -1.
<scales pt_clust_3="76.84161" pt_clust_4="31.55487" pt_clust_5="99.40309" pt_clust_6="14000.00000"></scales>
<clustering>
<clus scale="   31.555">  2  4  1 -1</clus>
<clus scale="   76.842">  1  3  2 -1</clus>
<clus scale="   99.403">  1  5  2 -1</clus>
<clus scale="   76.842">  1  3  2 -1</clus>
</clustering>
</event>
<event>
 6    0  0.4469832E+002  0.1300662E+03  0.7546771E-02  0.1227358E+00
         21   -1    0    0  505  501  0.00000000000E+00  0.00000000000E+00  0.21248342923E+03  0.21248342923E+03  0.00000000000E+00 0. -1.
         21   -1    0    0  503  502 -0.00000000000E+00 -0.00000000000E+00 -0.13321101887E+03  0.13321101887E+03  0.00000000000E+00 0. -1.
         21    1    1    2  503  506 -0.12007326562E+03 -0.32416487402E+02 -0.33979238987E+02  0.12893023871E+03  0.00000000000E+00 0. -1.
         21    1    1    2  504  502  0.49330850702E+02  0.16210370042E+02  0.21604187113E+01  0.51970918184E+02  0.00000000000E+00 0. -1.
         21    1    1    2  505  504  0.73736236349E+02 -0.15712958430E+02  0.36829003081E+02  0.83906525858E+02  0.00000000000E+00 0. -1.
         21    1    1    2  506  501 -0.29938214275E+01  0.31919075790E+02  0.74262227556E+02  0.80886765343E+02  0.00000000000E+00 0. -1.
<scales pt_clust_3="122.96529" pt_clust_4="36.51048" pt_clust_5="36.51048" pt_clust_6="32.05917"></scales>
<clustering>
<clus scale="   32.059">  1  6  2 -1</clus>
<clus scale="   36.510">  4  5 -1 -1</clus>
<clus scale="  122.965">  2  3  1 -1</clus>
<clus scale="   32.059">  1  3  2 -1</clus>
</clustering>
</event>
<event>
 6    0  0.4469832E+002  0.7348295E+02  0.7546771E-02  0.1348634E+00
         21   -1    0    0  503  501  0.00000000000E+00  0.00000000000E+00  0.78417268749E+02  0.78417268749E+02  0.00000000000E+00 0. -1.
         21   -1    0    0  504  502 -0.00000000000E+00 -0.00000000000E+00 -0.36813707600E+03  0.36813707600E+03  0.00000000000E+00 0. -1.
         21    1    1    2  503  502  0.38778948575E+02  0.10076041413E+03 -0.14591946373E+03  0.18151847785E+03  0.00000000000E+00 0. -1.
         21    1    1    2  504  506 -0.64998024123E+02 -0.18674927713E+02 -0.14810043732E+03  0.16281042841E+03  0.00000000000E+00 0. -1.
         21    1    1    2  505  501 -0.11973143872E+02 -0.33961609221E+02  0.16463800060E+02  0.39595502112E+02  0.00000000000E+00 0. -1.
         21    1    1    2  506  505  0.38192219419E+02 -0.48123877192E+02 -0.12163706265E+02  0.62629936374E+02  0.00000000000E+00 0. -1.
<scales pt_clust_3="14000.00000" pt_clust_4="70.80589" pt_clust_5="36.01037" pt_clust_6="73.48295"></scales>
<clustering>
<clus scale="   36.010">  1  5  2 -1</clus>
<clus scale="   70.806">  2  4  1 -1</clus>
<clus scale="   73.483">  1  6  2 -1</clus>
<clus scale="   36.010">  1  3  2 -1</clus>
</clustering>
</event>
<event>
 6    0  0.4469832E+002  0.1002937E+03  0.7546771E-02  0.1279680E+00
         21   -1    0    0  504  501  0.00000000000E+00  0.00000000000E+00  0.22519669756E+04  0.22519669756E+04  0.00000000000E+00 0.  1.
         21   -1    0    0  503  502 -0.00000000000E+00 -0.00000000000E+00 -0.10888747865E+02  0.10888747865E+02  0.00000000000E+00 0.  1.
         21    1    1    2  503  506  0.84265166020E+02 -0.65665721317E+02  0.61286508938E+03  0.62210627946E+03  0.00000000000E+00 0.  1.
         21    1    1    2  504  505 -0.26955632256E+02  0.13682548604E+02  0.49917615993E+03  0.50009064868E+03  0.00000000000E+00 0. -1.
         21    1    1    2  505  502 -0.90668789586E+02  0.35478563951E+02  0.44118310478E+03  0.45179872714E+03  0.00000000000E+00 0.  1.
         21    1    1    2  506  501  0.33359255822E+02  0.16504608761E+02  0.68785387364E+03  0.68886006819E+03  0.00000000000E+00 0.  1.
<scales pt_clust_3="100.29372" pt_clust_4="30.22943" pt_clust_5="14000.00000" pt_clust_6="31.57853"></scales>
<clustering>
<clus scale="   30.229">  1  4  2 -1</clus>
<clus scale="   31.579">  1  6  2 -1</clus>
<clus scale="  100.294">  1  3  2 -1</clus>
<clus scale="   30.229">  1  3  2 -1</clus>
</clustering>
</event>
<event>
 6    0  0.4469832E+002  0.7034188E+02  0.7546771E-02  0.1358934E+00
         21   -1    0    0  503  501  0.00000000000E+00  0.00000000000E+00  0.27804232009E+03  0.27804232009E+03  0.00000000000E+00 0.  1.
         21   -1    0    0  504  502 -0.00000000000E+00 -0.00000000000E+00 -0.10934924728E+03  0.10934924728E+03  0.00000000000E+00 0. -1.
         21    1    1    2  503  505 -0.14538824301E+02 -0.31464289533E+02  0.31154767083E+02  0.46604704053E+02  0.00000000000E+00 0.  1.
         21    1    1    2  504  506 -0.32242648710E+02  0.57124654832E+02  0.20363548073E+02  0.68683976848E+02  0.00000000000E+00 0.  1.
         21    1    1    2  505  502  0.20422870532E+02 -0.10680892479E+03 -0.19990392517E+02  0.11056607006E+03  0.00000000000E+00 0. -1.
         21    1    1    2  506  501  0.26358602478E+02  0.81148559492E+02  0.13716515018E+03  0.16153681641E+03  0.00000000000E+00 0.  1.
<scales pt_clust_3="34.66091" pt_clust_4="62.04649" pt_clust_5="70.34188" pt_clust_6="14000.00000"></scales>
<clustering>
<clus scale="   34.661">  1  3  2 -1</clus>
<clus scale="   62.046">  2  4  1 -1</clus>
<clus scale="   70.342">  2  5  1 -1</clus>
<clus scale="   34.661">  1  3  2 -1</clus>
</clustering>
</event>
<event>
 6    0  0.4469832E+002  0.1307925E+03  0.7546771E-02  0.1226285E+00
         21   -1    0    0  504  501  0.00000000000E+00  0.00000000000E+00  0.10868372081E+03  0.10868372081E+03  0.00000000000E+00 0.  1.
         21   -1    0    0  505  502 -0.00000000000E+00 -0.00000000000E+00 -0.55933628113E+03  0.55933628113E+03  0.00000000000E+00 0.  1.
         21    1    1    2  503  502  0.46849074146E+02 -0.26778802019E+02 -0.15640643533E+03  0.16545365816E+03  0.00000000000E+00 0.  1.
         21    1    1    2  504  506  0.11362957814E+03  0.88148557370E+02 -0.19888652779E+02  0.14518060375E+03  0.00000000000E+00 0.  1.
         21    1    1    2  505  501 -0.49527764952E+02 -0.18150218907E+02 -0.22046220080E+03  0.22668482951E+03  0.00000000000E+00 0.  1.
         21    1    1    2  506  503 -0.11095088734E+03 -0.43219536443E+02 -0.53895271402E+02  0.13070091052E+03  0.00000000000E+00 0.  1.
<scales pt_clust_3="42.34144" pt_clust_4="130.79247" pt_clust_5="52.74874" pt_clust_6="14000.00000"></scales>
<clustering>
<clus scale="   52.749">  2  5  1 -1</clus>
<clus scale="   42.341">  2  3  1 -1</clus>
<clus scale="  130.792">  1  4  2 -1</clus>
<clus scale="  130.792">  1  3  2 -1</clus>
</clustering>
</event>
<event>
 6    0  0.4469832E+002  0.1465530E+03  0.7546771E-02  0.1204774E+00
         21   -1    0    0  503  501  0.00000000000E+00  0.00000000000E+00  0.76660994728E+03  0.76660994728E+03  0.00000000000E+00 0.  1.
         21   -1    0    0  506  502 -0.00000000000E+00 -0.00000000000E+00 -0.39852823263E+03  0.39852823263E+03  0.00000000000E+00 0. -1.
         21    1    1    2  503  504 -0.11734448227E+03  0.49738578211E+02  0.35789526736E+03  0.37991140557E+03  0.00000000000E+00 0. -1.
         21    1    1    2  504  505  0.13855630167E+03 -0.16370969055E+03  0.34314507636E+03  0.40465695959E+03  0.00000000000E+00 0.  1.
         21    1    1    2  505  502 -0.68369532191E+02  0.10875437755E+03 -0.28735426597E+03  0.31476083260E+03  0.00000000000E+00 0. -1.
         21    1    1    2  506  501  0.47157712788E+02  0.52167347925E+01 -0.45604363111E+02  0.65808982153E+02  0.00000000000E+00 0. -1.
<scales pt_clust_3="14000.00000" pt_clust_4="146.55302" pt_clust_5="116.49731" pt_clust_6="47.44538"></scales>
<clustering>
<clus scale="   47.445">  2  6  1 -1</clus>
<clus scale="  116.497">  2  5  1 -1</clus>
<clus scale="  146.553">  2  4  1 -1</clus>
<clus scale="  146.553">  1  3  2 -1</clus>
</clustering>
</event>
<event>
 6    0  0.4469832E+002  0.1259598E+03  0.7546771E-02  0.1233577E+00
         21   -1    0    0  504  501  0.00000000000E+00  0.00000000000E+00  0.31358512400E+02  0.31358512400E+02  0.00000000000E+00 0.  1.
         21   -1    0    0  506  502 -0.00000000000E+00 -0.00000000000E+00 -0.14354329533E+04  0.14354329533E+04  0.00000000000E+00 0.  1.
         21    1    1    2  503  501 -0.41656498988E+02  0.13011527740E+03 -0.19496038245E+03  0.23806469718E+03  0.00000000000E+00 0.  1.
         21    1    1    2  504  502  0.31972914058E+02  0.20401379733E+02 -0.14597935873E+03  0.15082591522E+03  0.00000000000E+00 0.  1.
         21    1    1    2  505  503  0.31215249648E+01 -0.10750319678E+03 -0.42901526853E+03  0.44229038184E+03  0.00000000000E+00 0.  1.
         21    1    1    2  506  505  0.65620599658E+01 -0.43013460350E+02 -0.63411943119E+03  0.63561047145E+03  0.00000000000E+00 0.  1.
<scales pt_clust_3="14000.00000" pt_clust_4="37.92735" pt_clust_5="125.95984" pt_clust_6="39.80560"></scales>
<clustering>
<clus scale="   37.927">  2  4  1 -1</clus>
<clus scale="   39.806">  2  6  1 -1</clus>
<clus scale="  125.960">  2  5  1 -1</clus>
<clus scale="  125.960">  1  3  2 -1</clus>
</clustering>
</event>
<event>
 6    0  0.4469832E+002  0.1263526E+03  0.7546771E-02  0.1232970E+00
         21   -1    0    0  504  501  0.00000000000E+00  0.00000000000E+00  0.35220374712E+02  0.35220374712E+02  0.00000000000E+00 0. -1.
         21   -1    0    0  506  502 -0.00000000000E+00 -0.00000000000E+00 -0.15509020925E+04  0.15509020925E+04  0.00000000000E+00 0. -1.
         21    1    1    2  503  502 -0.88225807148E+02 -0.19894771228E+02 -0.68523234964E+03  0.69117506318E+03  0.00000000000E+00 0. -1.
         21    1    1    2  504  505  0.45934974993E+02 -0.12139145224E+03 -0.23331193499E+03  0.26698383025E+03  0.00000000000E+00 0. -1.
         21    1    1    2  505  503  0.10185791339E+02  0.12976650074E+03 -0.56914091445E+03  0.58383600057E+03  0.00000000000E+00 0. -1.
         21    1    1    2  506  501  0.32105040817E+02  0.11519722729E+02 -0.27996518693E+02  0.44127573200E+02  0.00000000000E+00 0. -1.
<scales pt_clust_3="86.73806" pt_clust_4="126.35260" pt_clust_5="14000.00000" pt_clust_6="34.10920"></scales>
<clustering>
<clus scale="   34.109">  1  6  2 -1</clus>
<clus scale="   86.738">  2  3  1 -1</clus>
<clus scale="  126.353">  1  4  2 -1</clus>
<clus scale="   34.109">  1  3  2 -1</clus>
</clustering>
</event>
<event>
 6    0  0.4469832E+002  0.1240135E+03  0.7546771E-02  0.1236619E+00
         21   -1    0    0  502  501  0.00000000000E+00  0.00000000000E+00  0.35058735044E+03  0.35058735044E+03  0.00000000000E+00 0.  1.
         21   -1    0    0  503  502 -0.00000000000E+00 -0.00000000000E+00 -0.76526995770E+03  0.76526995770E+03  0.00000000000E+00 0.  1.
         21    1    1    2  503  506 -0.42604794934E+02  0.10679472440E+03 -0.66382357650E+03  0.67370766838E+03  0.00000000000E+00 0.  1.
         21    1    1    2  504  501 -0.65014908362E+02 -0.10540891202E+03  0.29253591409E+03  0.31767158840E+03  0.00000000000E+00 0.  1.
         21    1    1    2  505  504  0.42915590216E+02  0.21278996365E+02 -0.21525669722E+02  0.52515693149E+02  0.00000000000E+00 0. -1.
         21    1    1    2  506  505  0.64704113080E+02 -0.22664808752E+02 -0.21869275133E+02  0.71962358216E+02  0.00000000000E+00 0.  1.
<scales pt_clust_3="114.97948" pt_clust_4="115.54918" pt_clust_5="37.63993" pt_clust_6="37.63993"></scales>
<clustering>
<clus scale="   37.640">  5  6 -1 -1</clus>
<clus scale="  114.979">  2  3  1 -1</clus>
<clus scale="  115.549">  1  4  2 -1</clus>
<clus scale="  115.549">  1  3  2 -1</clus>
</clustering>
</event>
<event>
 6    0  0.4469832E+002  0.1439627E+03  0.7546771E-02  0.1208094E+00
         21   -1    0    0  505  501  0.00000000000E+00  0.00000000000E+00  0.63290823204E+03  0.63290823204E+03  0.00000000000E+00 0. -1.
         21   -1    0    0  503  502 -0.00000000000E+00 -0.00000000000E+00 -0.51826504310E+03  0.51826504310E+03  0.00000000000E+00 0. -1.
         21    1    1    2  503  506 -0.73411104957E+02  0.12764919495E+03 -0.45337993155E+03  0.47669368533E+03  0.00000000000E+00 0. -1.
         21    1    1    2  504  501 -0.67285371983E+02 -0.13273706535E+02  0.28896504855E+03  0.29699210739E+03  0.00000000000E+00 0. -1.
         21    1    1    2  505  502 -0.26705798814E+02 -0.29070484451E+02 -0.18722233608E+01  0.39519589786E+02  0.00000000000E+00 0. -1.
         21    1    1    2  506  504  0.16740227575E+03 -0.85305003965E+02  0.28093029530E+03  0.33796789263E+03  0.00000000000E+00 0. -1.
<scales pt_clust_3="143.96266" pt_clust_4="68.83914" pt_clust_5="39.47522" pt_clust_6="14000.00000"></scales>
<clustering>
<clus scale="   39.475">  2  5  1 -1</clus>
<clus scale="   68.839">  1  4  2 -1</clus>
<clus scale="  143.963">  2  3  1 -1</clus>
<clus scale="   68.839">  1  3  2 -1</clus>
</clustering>
</event>
<event>
 6    0  0.9725657E+002  0.2490486E+03  0.7546771E-02  0.1113908E+00
         21   -1    0    0  506  501  0.00000000000E+00  0.00000000000E+00  0.29146122685E+04  0.29146122685E+04  0.00000000000E+00 0.  1.
         21   -1    0    0  505  502 -0.00000000000E+00 -0.00000000000E+00 -0.22738723126E+04  0.22738723126E+04  0.00000000000E+00 0. -1.
         21    1    1    2  503  501 -0.49990805791E+02  0.59099848457E+02  0.24854399260E+03  0.26031901392E+03  0.00000000000E+00 0.  1.
         21    1    1    2  504  503 -0.28161160494E+02  0.20398354271E+03  0.60526519672E+03  0.63933425923E+03  0.00000000000E+00 0.  1.
         21    1    1    2  505  504  0.45434948866E+02 -0.23404501590E+03 -0.22444010779E+04  0.22570284895E+04  0.00000000000E+00 0. -1.
         21    1    1    2  506  502  0.32717017419E+02 -0.29038375266E+02  0.20313318445E+04  0.20318028184E+04  0.00000000000E+00 0.  1.
<scales pt_clust_3="43.63600" pt_clust_4="43.63600" pt_clust_5="238.66283" pt_clust_6="43.74506"></scales>
<clustering>
<clus scale="   43.636">  3  4 -1 -1</clus>
<clus scale="   43.745">  1  6  2 -1</clus>
<clus scale="  238.663">  2  5  1 -1</clus>
<clus scale="   43.745">  1  3  2 -1</clus>
</clustering>
</event>
<event>
 6    0  0.4469832E+002  0.2489112E+03  0.7546771E-02  0.1113995E+00
         21   -1    0    0  506  501  0.00000000000E+00  0.00000000000E+00  0.43133259679E+03  0.43133259679E+03  0.00000000000E+00 0.  1.
         21   -1    0    0  504  502 -0.00000000000E+00 -0.00000000000E+00 -0.90563939189E+03  0.90563939189E+03  0.00000000000E+00 0.  1.
         21    1    1    2  503  502  0.89644861709E+01  0.10722833058E+03 -0.33995004205E+03  0.35657300512E+03  0.00000000000E+00 0.  1.
         21    1    1    2  504  501 -0.29952258916E+02  0.25499553833E+02  0.56548448409E+02  0.68884628744E+02  0.00000000000E+00 0.  1.
         21    1    1    2  505  503 -0.26582777031E+02  0.13713038029E+03 -0.48785186619E+03  0.50745524785E+03  0.00000000000E+00 0.  1.
         21    1    1    2  506  505  0.47570549776E+02 -0.26985826470E+03  0.29694666473E+03  0.40405910697E+03  0.00000000000E+00 0.  1.
<scales pt_clust_3="31.24411" pt_clust_4="39.33656" pt_clust_5="31.24411" pt_clust_6="246.35248"></scales>
<clustering>
<clus scale="   31.244">  3  5 -1 -1</clus>
<clus scale="   39.337">  1  4  2 -1</clus>
<clus scale="  246.352">  1  6  2 -1</clus>
<clus scale="   39.337">  1  3  2 -1</clus>
</clustering>
</event>
<event>
 6    0  0.4469832E+002  0.1072353E+03  0.7546771E-02  0.1265777E+00
         21   -1    0    0  504  501  0.00000000000E+00  0.00000000000E+00  0.87204691106E+03  0.87204691106E+03  0.00000000000E+00 0. -1.
         21   -1    0    0  503  502 -0.00000000000E+00 -0.00000000000E+00 -0.59813059889E+02  0.59813059889E+02  0.00000000000E+00 0.  1.
         21    1    1    2  503  505  0.50171486270E+02  0.18033859329E+02  0.20450563631E+02  0.57101870982E+02  0.00000000000E+00 0. -1.
         21    1    1    2  504  506 -0.10234552369E+03  0.78215516546E+02  0.18895513511E+03  0.22868387860E+03  0.00000000000E+00 0.  1.
         21    1    1    2  505  501  0.72024612205E+02 -0.73299772693E+02  0.60682835311E+03  0.61546815643E+03  0.00000000000E+00 0. -1.
         21    1    1    2  506  502 -0.19850574782E+02 -0.22949603183E+02 -0.40002006790E+01  0.30606064936E+02  0.00000000000E+00 0.  1.
<scales pt_clust_3="42.40282" pt_clust_4="107.23530" pt_clust_5="14000.00000" pt_clust_6="30.34353"></scales>
<clustering>
<clus scale="   30.344">  2  6  1 -1</clus>
<clus scale="   42.403">  2  3  1 -1</clus>
<clus scale="  107.235">  2  4  1 -1</clus>
<clus scale="  107.235">  1  3  2 -1</clus>
</clustering>
</event>
<event>
 6    0  0.4469832E+002  0.8928300E+02  0.7546771E-02  0.1304597E+00
         21   -1    0    0  505  501  0.00000000000E+00  0.00000000000E+00  0.32388594208E+02  0.32388594208E+02  0.00000000000E+00 0.  1.
         21   -1    0    0  503  502 -0.00000000000E+00 -0.00000000000E+00 -0.85070431814E+03  0.85070431814E+03  0.00000000000E+00 0.  1.
         21    1    1    2  503  506 -0.26176778108E+00  0.33532199449E+02 -0.35888502571E+03  0.36044824677E+03  0.00000000000E+00 0.  1.
         21    1    1    2  504  501  0.22407002532E+02  0.76136371835E+02 -0.81122452790E+02  0.11348864800E+03  0.00000000000E+00 0.  1.
         21    1    1    2  505  502  0.34369570652E+02 -0.51154589417E+01 -0.11778601343E+03  0.12280464269E+03  0.00000000000E+00 0. -1.
         21    1    1    2  506  504 -0.56514805403E+02 -0.10455311234E+03 -0.26052223201E+03  0.28635137489E+03  0.00000000000E+00 0.  1.
<scales pt_clust_3="33.53322" pt_clust_4="89.28300" pt_clust_5="34.44516" pt_clust_6="14000.00000"></scales>
<clustering>
<clus scale="   33.533">  2  3  1 -1</clus>
<clus scale="   34.445">  2  5  1 -1</clus>
<clus scale="   89.283">  1  4  2 -1</clus>
<clus scale="   89.283">  1  3  2 -1</clus>
</clustering>
</event>
<event>
 6    0  0.4469832E+002  0.7865265E+02  0.7546771E-02  0.1332919E+00
         21   -1    0    0  504  501  0.00000000000E+00  0.00000000000E+00  0.13308430466E+03  0.13308430466E+03  0.00000000000E+00 0. -1.
         21   -1    0    0  503  502 -0.00000000000E+00 -0.00000000000E+00 -0.24972131169E+03  0.24972131169E+03  0.00000000000E+00 0.  1.
         21    1    1    2  503  505  0.43582280588E+02  0.12960144732E+02 -0.57175432295E+02  0.73050739837E+02  0.00000000000E+00 0. -1.
         21    1    1    2  504  506 -0.37246510684E+02  0.76145126813E+02 -0.77160846068E+01  0.85117100850E+02  0.00000000000E+00 0. -1.
         21    1    1    2  505  501 -0.45781088981E+02 -0.35648184454E+02  0.66962487373E+02  0.88604039853E+02  0.00000000000E+00 0.  1.
         21    1    1    2  506  502  0.39445319077E+02 -0.53457087091E+02 -0.11870797750E+03  0.13603373581E+03  0.00000000000E+00 0.  1.
<scales pt_clust_3="45.46846" pt_clust_4="78.65265" pt_clust_5="55.54945" pt_clust_6="14000.00000"></scales>
<clustering>
<clus scale="   45.468">  2  3  1 -1</clus>
<clus scale="   55.549">  1  5  2 -1</clus>
<clus scale="   78.653">  1  4  2 -1</clus>
<clus scale="   55.549">  1  3  2 -1</clus>
</clustering>
</event>
<event>
 6    0  0.4469832E+002  0.1335349E+03  0.7546771E-02  0.1222303E+00
         21   -1    0    0  504  501  0.00000000000E+00  0.00000000000E+00  0.11875202973E+04  0.11875202973E+04  0.00000000000E+00 0. -1.
         21   -1    0    0  505  502 -0.00000000000E+00 -0.00000000000E+00 -0.63144408927E+03  0.63144408927E+03  0.00000000000E+00 0. -1.
         21    1    1    2  503  502  0.24873935507E+02 -0.11060593683E+03 -0.57839276327E+03  0.58939848535E+03  0.00000000000E+00 0. -1.
         21    1    1    2  504  506  0.24214813876E+02  0.24944373134E+02  0.39468447199E+03  0.39621258359E+03  0.00000000000E+00 0. -1.
         21    1    1    2  505  501 -0.30746650121E+02 -0.98647411521E+01 -0.37796643600E+02  0.49711727782E+02  0.00000000000E+00 0.  1.
         21    1    1    2  506  503 -0.18342099262E+02  0.95526304850E+02  0.77758114289E+03  0.78364158982E+03  0.00000000000E+00 0. -1.
<scales pt_clust_3="120.54061" pt_clust_4="34.33576" pt_clust_5="32.29040" pt_clust_6="34.33576"></scales>
<clustering>
<clus scale="   32.290">  2  5  1 -1</clus>
<clus scale="   34.336">  4  6 -1 -1</clus>
<clus scale="  120.541">  2  3  1 -1</clus>
<clus scale="  133.535">  1  3  2 -1</clus>
</clustering>
</event>
<event>
 6    0  0.4469832E+002  0.6312516E+02  0.7546771E-02  0.1385166E+00
         21   -1    0    0  506  501  0.00000000000E+00  0.00000000000E+00  0.57862158481E+02  0.57862158481E+02  0.00000000000E+00 0.  1.
         21   -1    0    0  505  502 -0.00000000000E+00 -0.00000000000E+00 -0.86326405528E+03  0.86326405528E+03  0.00000000000E+00 0.  1.
         21    1    1    2  503  502  0.62511746019E+02  0.10635352789E+02 -0.66501933447E+03  0.66803558613E+03  0.00000000000E+00 0.  1.
         21    1    1    2  504  501  0.34842685427E+02  0.10976141755E+02  0.96489215709E+01  0.37783463355E+02  0.00000000000E+00 0.  1.
         21    1    1    2  505  504 -0.66464940659E+02  0.43426117297E+02 -0.99742613028E+02  0.12748335128E+03  0.00000000000E+00 0.  1.
         21    1    1    2  506  503 -0.30889490787E+02 -0.65037611840E+02 -0.50288870870E+02  0.87823812991E+02  0.00000000000E+00 0.  1.
<scales pt_clust_3="14000.00000" pt_clust_4="36.53065" pt_clust_5="63.12516" pt_clust_6="60.16127"></scales>
<clustering>
<clus scale="   36.531">  1  4  2 -1</clus>
<clus scale="   60.161">  1  6  2 -1</clus>
<clus scale="   63.125">  1  5  2 -1</clus>
<clus scale="   36.531">  1  3  2 -1</clus>
</clustering>
</event>
<event>
 6    0  0.4469832E+002  0.1233744E+03  0.7546771E-02  0.1237632E+00
         21   -1    0    0  506  501  0.00000000000E+00  0.00000000000E+00  0.12989868578E+03  0.12989868578E+03  0.00000000000E+00 0.  1.
         21   -1    0    0  504  502 -0.00000000000E+00 -0.00000000000E+00 -0.44748573257E+03  0.44748573257E+03  0.00000000000E+00 0.  1.
         21    1    1    2  503  505 -0.71384266788E+01 -0.14640323317E+03 -0.41080041300E+02  0.15222494412E+03  0.00000000000E+00 0.  1.
         21    1    1    2  504  503  0.73829336649E+02  0.38322010034E+02 -0.19631708253E+03  0.21321290838E+03  0.00000000000E+00 0.  1.
         21    1    1    2  505  501 -0.75917117473E+02  0.10296054680E+02  0.11632912505E+02  0.77490271136E+02  0.00000000000E+00 0.  1.
         21    1    1    2  506  502  0.92262075026E+01  0.97785168459E+02 -0.91822835461E+02  0.13445629471E+03  0.00000000000E+00 0.  1.
<scales pt_clust_3="14000.00000" pt_clust_4="77.10561" pt_clust_5="76.61212" pt_clust_6="123.37442"></scales>
<clustering>
<clus scale="   76.612">  1  5  2 -1</clus>
<clus scale="   77.106">  2  4  1 -1</clus>
<clus scale="  123.374">  2  6  1 -1</clus>
<clus scale="   76.612">  1  3  2 -1</clus>
</clustering>
</event>
<event>
 6    0  0.4469832E+002  0.9802165E+02  0.7546771E-02  0.1284512E+00
         21   -1    0    0  504  501  0.00000000000E+00  0.00000000000E+00  0.52513444938E+03  0.52513444938E+03  0.00000000000E+00 0.  1.
         21   -1    0    0  503  502 -0.00000000000E+00 -0.00000000000E+00 -0.70541987167E+03  0.70541987167E+03  0.00000000000E+00 0.  1.
         21    1    1    2  503  505 -0.11779430624E+03 -0.42519717428E+02  0.95779725115E+02  0.15766160184E+03  0.00000000000E+00 0.  1.
         21    1    1    2  504  506  0.11526250539E+03  0.62120305526E+02 -0.50817717797E+03  0.52477463898E+03  0.00000000000E+00 0.  1.
         21    1    1    2  505  501  0.38322772679E+02 -0.85182807972E+01  0.38688647870E+03  0.38887317138E+03  0.00000000000E+00 0.  1.
         21    1    1    2  506  502 -0.35790971830E+02 -0.11082307301E+02 -0.15477444814E+03  0.15924490886E+03  0.00000000000E+00 0.  1.
<scales pt_clust_3="98.02165" pt_clust_4="14000.00000" pt_clust_5="39.19916" pt_clust_6="37.46747"></scales>
<clustering>
<clus scale="   37.467">  2  6  1 -1</clus>
<clus scale="   39.199">  1  5  2 -1</clus>
<clus scale="   98.022">  1  3  2 -1</clus>
<clus scale="   39.199">  1  3  2 -1</clus>
</clustering>
</event>
<event>
 6    0  0.4469832E+002  0.1040228E+03  0.7546771E-02  0.1272057E+00
         21   -1    0    0  503  501  0.00000000000E+00  0.00000000000E+00  0.25838594368E+03  0.25838594368E+03  0.00000000000E+00 0. -1.
         21   -1    0    0  504  502 -0.00000000000E+00 -0.00000000000E+00 -0.34623287010E+03  0.34623287010E+03  0.00000000000E+00 0.  1.
         21    1    1    2  503  505  0.36445286595E+02  0.16429492811E+02  0.14059483770E+03  0.14616803870E+03  0.00000000000E+00 0. -1.
         21    1    1    2  504  506 -0.25918576402E+02  0.45177372900E+02 -0.20833181925E+03  0.21474383469E+03  0.00000000000E+00 0.  1.
         21    1    1    2  505  502  0.77304953883E+02 -0.56506759834E+02  0.69352451123E+02  0.11823211188E+03  0.00000000000E+00 0.  1.
         21    1    1    2  506  501 -0.87831664077E+02 -0.51001058772E+01 -0.89462395988E+02  0.12547482851E+03  0.00000000000E+00 0. -1.
<scales pt_clust_3="39.97733" pt_clust_4="51.98776" pt_clust_5="14000.00000" pt_clust_6="104.02275"></scales>
<clustering>
<clus scale="   39.977">  1  3  2 -1</clus>
<clus scale="   51.988">  2  4  1 -1</clus>
<clus scale="  104.023">  2  6  1 -1</clus>
<clus scale="   39.977">  1  3  2 -1</clus>
</clustering>
</event>
<event>
 6    0  0.4469832E+002  0.8085430E+02  0.7546771E-02  0.1326644E+00
         21   -1    0    0  503  501  0.00000000000E+00  0.00000000000E+00  0.12724334665E+04  0.12724334665E+04  0.00000000000E+00 0.  1.
         21   -1    0    0  506  502 -0.00000000000E+00 -0.00000000000E+00 -0.43524264036E+03  0.43524264036E+03  0.00000000000E+00 0.  1.
         21    1    1    2  503  504  0.16679065509E+02  0.79891045955E+02  0.12007290692E+04  0.12034995090E+04  0.00000000000E+00 0.  1.
         21    1    1    2  504  505 -0.60012560732E+02 -0.50784438540E+02  0.12886694638E+02  0.79665761417E+02  0.00000000000E+00 0.  1.
         21    1    1    2  505  502 -0.36839806604E+02  0.16569762164E+02 -0.37334906994E+01  0.40566825382E+02  0.00000000000E+00 0. -1.
         21    1    1    2  506  501  0.80173301827E+02 -0.45676369579E+02 -0.37269144695E+03  0.38394401114E+03  0.00000000000E+00 0.  1.
<scales pt_clust_3="80.85430" pt_clust_4="14000.00000" pt_clust_5="40.39466" pt_clust_6="55.55649"></scales>
<clustering>
<clus scale="   40.395">  2  5  1 -1</clus>
<clus scale="   55.556">  2  6  1 -1</clus>
<clus scale="   80.854">  1  3  2 -1</clus>
<clus scale="   80.854">  1  3  2 -1</clus>
</clustering>
</event>
<event>
 6    0  0.4469832E+002  0.6782808E+02  0.7546771E-02  0.1367638E+00
         21   -1    0    0  506  501  0.00000000000E+00  0.00000000000E+00  0.59428264777E+03  0.59428264777E+03  0.00000000000E+00 0.  1.
         21   -1    0    0  503  502 -0.00000000000E+00 -0.00000000000E+00 -0.94317315411E+03  0.94317315411E+03  0.00000000000E+00 0.  1.
         21    1    1    2  503  501  0.59017190774E+02 -0.75928300903E+02 -0.39613540824E+03  0.40764126060E+03  0.00000000000E+00 0.  1.
         21    1    1    2  504  502 -0.56191023280E+02  0.18390879084E+02 -0.51922929318E+03  0.52258464810E+03  0.00000000000E+00 0.  1.
         21    1    1    2  505  504 -0.69653225007E+02  0.41291214148E+02  0.73107323907E+02  0.10909269879E+03  0.00000000000E+00 0.  1.
         21    1    1    2  506  505  0.66827057513E+02  0.16246207671E+02  0.49336687117E+03  0.49813719440E+03  0.00000000000E+00 0.  1.
<scales pt_clust_3="58.68680" pt_clust_4="59.12407" pt_clust_5="67.82808" pt_clust_6="14000.00000"></scales>
<clustering>
<clus scale="   59.124">  2  4  1 -1</clus>
<clus scale="   58.687">  2  3  1 -1</clus>
<clus scale="   67.828">  2  5  1 -1</clus>
<clus scale="   67.828">  1  3  2 -1</clus>
</clustering>
</event>
<event>
 6    0  0.4469832E+002  0.2286830E+03  0.7546771E-02  0.1127570E+00
         21   -1    0    0  503  501  0.00000000000E+00  0.00000000000E+00  0.14029461888E+04  0.14029461888E+04  0.00000000000E+00 0. -1.
         21   -1    0    0  505  502 -0.00000000000E+00 -0.00000000000E+00 -0.18314437595E+03  0.18314437595E+03  0.00000000000E+00 0. -1.
         21    1    1    2  503  506 -0.90569678858E+02  0.20621673078E+03  0.57437817498E+03  0.61695907050E+03  0.00000000000E+00 0. -1.
         21    1    1    2  504  502  0.12948995615E+03 -0.32859286963E+02 -0.51874695106E+02  0.14331212606E+03  0.00000000000E+00 0. -1.
         21    1    1    2  505  501 -0.12278448419E+03 -0.11813609854E+03  0.70482273306E+03  0.72512568040E+03  0.00000000000E+00 0. -1.
         21    1    1    2  506  504  0.83864206897E+02 -0.55221345275E+02 -0.75244000413E+01  0.10069368783E+03  0.00000000000E+00 0. -1.
<scales pt_clust_3="222.62863" pt_clust_4="45.31800" pt_clust_5="170.38828" pt_clust_6="45.31800"></scales>
<clustering>
<clus scale="   45.318">  4  6 -1 -1</clus>
<clus scale="  170.388">  1  5  2 -1</clus>
<clus scale="  222.629">  1  3  2 -1</clus>
<clus scale="  170.388">  1  3  2 -1</clus>
</clustering>
</event>
<event>
 6    0  0.4469832E+002  0.6926511E+02  0.7546771E-02  0.1362610E+00
         21   -1    0    0  505  501  0.00000000000E+00  0.00000000000E+00  0.54513431564E+03  0.54513431564E+03  0.00000000000E+00 0. -1.
         21   -1    0    0  503  502 -0.00000000000E+00 -0.00000000000E+00 -0.59915053324E+03  0.59915053324E+03  0.00000000000E+00 0. -1.
         21    1    1    2  503  506 -0.38221586471E+02  0.16045855138E+02 -0.73506641054E+02  0.84389486421E+02  0.00000000000E+00 0. -1.
         21    1    1    2  504  502  0.15993030425E+01  0.43076580709E+02 -0.50257663556E+03  0.50442187125E+03  0.00000000000E+00 0. -1.
         21    1    1    2  505  504  0.12877503597E+02 -0.11862528264E+03  0.40263014037E+03  0.41993906428E+03  0.00000000000E+00 0. -1.
         21    1    1    2  506  501  0.23744779831E+02  0.59502846796E+02  0.11943691865E+03  0.13553442693E+03  0.00000000000E+00 0. -1.
<scales pt_clust_3="41.45310" pt_clust_4="69.26511" pt_clust_5="14000.00000" pt_clust_6="64.08023"></scales>
<clustering>
<clus scale="   41.453">  2  3  1 -1</clus>
<clus scale="   64.080">  1  6  2 -1</clus>
<clus scale="   69.265">  2  4  1 -1</clus>
<clus scale="   64.080">  1  3  2 -1</clus>
</clustering>
</event>
<event>
 6    0  0.4469832E+002  0.3080912E+03  0.7546771E-02  0.1081264E+00
         21   -1    0    0  503  501  0.00000000000E+00  0.00000000000E+00  0.18878561143E+03  0.18878561143E+03  0.00000000000E+00 0. -1.
         21   -1    0    0  504  502 -0.00000000000E+00 -0.00000000000E+00 -0.53768269915E+03  0.53768269915E+03  0.00000000000E+00 0. -1.
         21    1    1    2  503  505  0.90769303337E+02 -0.30733869827E+01 -0.39129325381E+01  0.90905572860E+02  0.00000000000E+00 0. -1.
         21    1    1    2  504  501 -0.27302280595E+03  0.77901943433E+02 -0.10624658018E+03  0.30314765570E+03  0.00000000000E+00 0. -1.
         21    1    1    2  505  506  0.18514805585E+03 -0.33837771995E+02 -0.21147270919E+03  0.28309981302E+03  0.00000000000E+00 0. -1.
         21    1    1    2  506  502 -0.28945532412E+01 -0.40990784455E+02 -0.27264865819E+02  0.49315269003E+02  0.00000000000E+00 0. -1.
<scales pt_clust_3="87.06602" pt_clust_4="280.93406" pt_clust_5="87.06602" pt_clust_6="41.09286"></scales>
<clustering>
<clus scale="   41.093">  2  6  1 -1</clus>
<clus scale="   87.066">  3  5 -1 -1</clus>
<clus scale="  280.934">  1  4  2 -1</clus>
<clus scale="  280.934">  1  3  2 -1</clus>
</clustering>
</event>
<event>
 6    0  0.4469832E+002  0.8515777E+02  0.7546771E-02  0.1315020E+00
         21   -1    0    0  504  501  0.00000000000E+00  0.00000000000E+00  0.93585483998E+03  0.93585483998E+03  0.00000000000E+00 0.  1.
         21   -1    0    0  503  502 -0.00000000000E+00 -0.00000000000E+00 -0.67761142512E+02  0.67761142512E+02  0.00000000000E+00 0. -1.
         21    1    1    2  503  506 -0.68443889422E+02  0.42414191198E+02 -0.97180456794E+01  0.81104685598E+02  0.00000000000E+00 0. -1.
         21    1    1    2  504  505 -0.37713125504E+02 -0.11704761465E+02  0.51539343059E+03  0.51690392683E+03  0.00000000000E+00 0.  1.
         21    1    1    2  505  502 -0.26855558105E+02 -0.32339548276E+02  0.14266280871E+03  0.14872708016E+03  0.00000000000E+00 0.  1.
         21    1    1    2  506  501  0.13301257303E+03  0.16301185433E+01  0.21975550385E+03  0.25688028991E+03  0.00000000000E+00 0.  1.
<scales pt_clust_3="85.15777" pt_clust_4="39.48774" pt_clust_5="54.04562" pt_clust_6="14000.00000"></scales>
<clustering>
<clus scale="   39.488">  1  4  2 -1</clus>
<clus scale="   54.046">  1  5  2 -1</clus>
<clus scale="   85.158">  2  3  1 -1</clus>
<clus scale="   39.488">  1  3  2 -1</clus>
</clustering>
</event>
<event>
 6    0  0.4469832E+002  0.1021398E+03  0.7546771E-02  0.1275859E+00
         21   -1    0    0  503  501  0.00000000000E+00  0.00000000000E+00  0.12295153334E+03  0.12295153334E+03  0.00000000000E+00 0. -1.
         21   -1    0    0  505  502 -0.00000000000E+00 -0.00000000000E+00 -0.51085595185E+03  0.51085595185E+03  0.00000000000E+00 0. -1.
         21    1    1    2  503  506  0.33777309245E+02 -0.10555080834E+02 -0.16139205422E+02  0.38894605061E+02  0.00000000000E+00 0. -1.
         21    1    1    2  504  502  0.98365059870E+02  0.17503518584E+02 -0.39127856251E+03  0.40383285112E+03  0.00000000000E+00 0. -1.
         21    1    1    2  505  501 -0.14159314626E+03  0.30437727691E+02  0.35851978114E+02  0.14919932530E+03  0.00000000000E+00 0. -1.
         21    1    1    2  506  504  0.94507771425E+01 -0.37386165441E+02 -0.16338628692E+02  0.41880703701E+02  0.00000000000E+00 0. -1.
<scales pt_clust_3="34.57707" pt_clust_4="102.13984" pt_clust_5="14000.00000" pt_clust_6="73.95837"></scales>
<clustering>
<clus scale="   34.577">  3  6 -1 -1</clus>
<clus scale="   73.958">  1  3  2 -1</clus>
<clus scale="  102.140">  2  4  1 -1</clus>
<clus scale="   73.958">  1  3  2 -1</clus>
</clustering>
</event>
<event>
 6    0  0.4469832E+002  0.1142216E+03  0.7546771E-02  0.1252946E+00
         21   -1    0    0  506  501  0.00000000000E+00  0.00000000000E+00  0.86918543575E+03  0.86918543575E+03  0.00000000000E+00 0. -1.
         21   -1    0    0  504  502 -0.00000000000E+00 -0.00000000000E+00 -0.53327705786E+02  0.53327705786E+02  0.00000000000E+00 0. -1.
         21    1    1    2  503  502 -0.35383927940E+02  0.10821755361E+02  0.83024026606E+02  0.90896214110E+02  0.00000000000E+00 0.  1.
         21    1    1    2  504  505  0.89771454567E+02  0.13252604522E+02  0.20802678333E+02  0.93098319037E+02  0.00000000000E+00 0. -1.
         21    1    1    2  505  501  0.60447721762E+02  0.30040269729E+01  0.11512933681E+03  0.13006811845E+03  0.00000000000E+00 0. -1.
         21    1    1    2  506  503 -0.11483524839E+03 -0.27078386856E+02  0.59690168822E+03  0.60845048994E+03  0.00000000000E+00 0. -1.
<scales pt_clust_3="35.22640" pt_clust_4="95.34049" pt_clust_5="60.52232" pt_clust_6="35.22640"></scales>
<clustering>
<clus scale="   35.226">  3  6 -1 -1</clus>
<clus scale="   60.522">  1  5  2 -1</clus>
<clus scale="   95.340">  2  4  1 -1</clus>
<clus scale="   60.522">  1  3  2 -1</clus>
</clustering>
</event>
<event>
 6    0  0.4469832E+002  0.1169055E+03  0.7546771E-02  0.1248291E+00
         21   -1    0    0  503  501  0.00000000000E+00  0.00000000000E+00  0.15497086137E+03  0.15497086137E+03  0.00000000000E+00 0.  1.
         21   -1    0    0  506  502 -0.00000000000E+00 -0.00000000000E+00 -0.10429727998E+04  0.10429727998E+04  0.00000000000E+00 0.  1.
         21    1    1    2  503  504 -0.32406694723E+01  0.53156157344E+02  0.11578524679E+03  0.12744529170E+03  0.00000000000E+00 0.  1.
         21    1    1    2  504  505  0.10735858627E+03 -0.11175008479E+03 -0.18961125661E+03  0.24488033022E+03  0.00000000000E+00 0.  1.
         21    1    1    2  505  502 -0.44825937866E+02  0.34902671382E+01 -0.15191792868E+03  0.15843170051E+03  0.00000000000E+00 0. -1.
         21    1    1    2  506  501 -0.59291978929E+02  0.55103660312E+02 -0.66225799991E+03  0.66718633873E+03  0.00000000000E+00 0.  1.
<scales pt_clust_3="53.29644" pt_clust_4="14000.00000" pt_clust_5="44.96161" pt_clust_6="116.90549"></scales>
<clustering>
<clus scale="   44.962">  2  5  1 -1</clus>
<clus scale="   53.296">  1  3  2 -1</clus>
<clus scale="  116.905">  2  6  1 -1</clus>
<clus scale="   53.296">  1  3  2 -1</clus>
</clustering>
</event>
<event>
 6    0  0.4469832E+002  0.1341481E+03  0.7546771E-02  0.1221427E+00
         21   -1    0    0  504  501  0.00000000000E+00  0.00000000000E+00  0.24874408141E+03  0.24874408141E+03  0.00000000000E+00 0.  1.
         21   -1    0    0  503  502 -0.00000000000E+00 -0.00000000000E+00 -0.18919991074E+03  0.18919991074E+03  0.00000000000E+00 0.  1.
         21    1    1    2  503  506 -0.47112589354E+02  0.21102750699E+02 -0.53626651038E+01  0.51900677642E+02  0.00000000000E+00 0.  1.
         21    1    1    2  504  505  0.22818536083E+02 -0.40357908236E+02  0.19913530766E+02  0.50457854232E+02  0.00000000000E+00 0. -1.
         21    1    1    2  505  502  0.11957280840E+03  0.75142848110E+02  0.13327510343E+03  0.19418124864E+03  0.00000000000E+00 0.  1.
         21    1    1    2  506  501 -0.95278755131E+02 -0.55887690573E+02 -0.88281798414E+02  0.14140421164E+03  0.00000000000E+00 0.  1.
<scales pt_clust_3="47.65059" pt_clust_4="46.36212" pt_clust_5="14000.00000" pt_clust_6="134.14813"></scales>
<clustering>
<clus scale="   46.362">  1  4  2 -1</clus>
<clus scale="   47.651">  2  3  1 -1</clus>
<clus scale="  134.148">  2  6  1 -1</clus>
<clus scale="   46.362">  1  3  2 -1</clus>
</clustering>
</event>
<event>
 6    0  0.4469832E+002  0.1027781E+03  0.7546771E-02  0.1274560E+00
         21   -1    0    0  505  501  0.00000000000E+00  0.00000000000E+00  0.24345516938E+04  0.24345516938E+04  0.00000000000E+00 0.  1.
         21   -1    0    0  504  502 -0.00000000000E+00 -0.00000000000E+00 -0.83722669327E+01  0.83722669327E+01  0.00000000000E+00 0. -1.
         21    1    1    2  503  506 -0.35311726671E+02 -0.66009243456E+01  0.24203318994E+03  0.24468460367E+03  0.00000000000E+00 0. -1.
         21    1    1    2  504  501  0.12068685379E+03 -0.31673520143E+02  0.14518368983E+04  0.14571887001E+04  0.00000000000E+00 0.  1.
         21    1    1    2  505  503 -0.35020096162E+02  0.16628603887E+02  0.53099461587E+03  0.53240792602E+03  0.00000000000E+00 0. -1.
         21    1    1    2  506  502 -0.50355030962E+02  0.21645840602E+02  0.20131472277E+03  0.20864273091E+03  0.00000000000E+00 0. -1.
<scales pt_clust_3="30.10879" pt_clust_4="95.81323" pt_clust_5="38.76748" pt_clust_6="30.10879"></scales>
<clustering>
<clus scale="   30.109">  3  6 -1 -1</clus>
<clus scale="   38.767">  1  5  2 -1</clus>
<clus scale="   95.813">  1  4  2 -1</clus>
<clus scale="   38.767">  1  3  2 -1</clus>
</clustering>
</event>
<event>
 6    0  0.4469832E+002  0.9336788E+02  0.7546771E-02  0.1294895E+00
         21   -1    0    0  506  501  0.00000000000E+00  0.00000000000E+00  0.28899780776E+03  0.28899780776E+03  0.00000000000E+00 0.  1.
         21   -1    0    0  505  502 -0.00000000000E+00 -0.00000000000E+00 -0.17623860273E+04  0.17623860273E+04  0.00000000000E+00 0.  1.
         21    1    1    2  503  504  0.36811302627E+02  0.18175276027E+02 -0.59847410316E+03  0.59988054212E+03  0.00000000000E+00 0.  1.
         21    1    1    2  504  501  0.50543087969E+02 -0.70571035059E+02  0.13566875414E+03  0.16106174462E+03  0.00000000000E+00 0.  1.
         21    1    1    2  505  503  0.20635117951E+02  0.45952777144E+02 -0.11289571170E+04  0.11300803679E+04  0.00000000000E+00 0.  1.
         21    1    1    2  506  502 -0.10798950855E+03  0.64429818880E+01  0.11837424647E+03  0.16036118046E+03  0.00000000000E+00 0.  1.
<scales pt_clust_3="32.96814" pt_clust_4="86.80366" pt_clust_5="32.96814" pt_clust_6="85.92980"></scales>
<clustering>
<clus scale="   32.968">  3  5 -1 -1</clus>
<clus scale="   86.804">  1  4  2 -1</clus>
<clus scale="   85.930">  1  6  2 -1</clus>
<clus scale="   86.804">  1  3  2 -1</clus>
</clustering>
</event>
<event>
 6    0  0.4469832E+002  0.8766458E+02  0.7546771E-02  0.1308608E+00
         21   -1    0    0  506  501  0.00000000000E+00  0.00000000000E+00  0.89589829371E+03  0.89589829371E+03  0.00000000000E+00 0. -1.
         21   -1    0    0  503  502 -0.00000000000E+00 -0.00000000000E+00 -0.24304425769E+03  0.24304425769E+03  0.00000000000E+00 0.  1.
         21    1    1    2  503  504  0.27802743812E+02  0.49250170412E+02 -0.18860618722E+03  0.19690318866E+03  0.00000000000E+00 0.  1.
         21    1    1    2  504  501  0.61555454905E+02 -0.21052991657E+02  0.55964148516E+03  0.56341005884E+03  0.00000000000E+00 0. -1.
         21    1    1    2  505  502 -0.23850799144E+02  0.52001778156E+02 -0.19161020715E+02  0.60333989310E+02  0.00000000000E+00 0. -1.
         21    1    1    2  506  505 -0.65507399573E+02 -0.80198956911E+02  0.30097975879E+03  0.31829531459E+03  0.00000000000E+00 0.  1.
<scales pt_clust_3="56.55592" pt_clust_4="65.47780" pt_clust_5="87.66458" pt_clust_6="14000.00000"></scales>
<clustering>
<clus scale="   56.556">  2  3  1 -1</clus>
<clus scale="   65.478">  1  4  2 -1</clus>
<clus scale="   87.665">  2  5  1 -1</clus>
<clus scale="   65.478">  1  3  2 -1</clus>
</clustering>
</event>
<event>
 6    0  0.4469832E+002  0.1460297E+03  0.7546771E-02  0.1205438E+00
         21   -1    0    0  502  501  0.00000000000E+00  0.00000000000E+00  0.30116978854E+03  0.30116978854E+03  0.00000000000E+00 0.  1.
         21   -1    0    0  506  502 -0.00000000000E+00 -0.00000000000E+00 -0.47341154735E+03  0.47341154735E+03  0.00000000000E+00 0.  1.
         21    1    1    2  503  504  0.84538673463E+02 -0.10267439668E+03  0.12852610472E+03  0.18495344992E+03  0.00000000000E+00 0.  1.
         21    1    1    2  504  501 -0.47122784623E+02 -0.31222476888E+02  0.12605187000E+03  0.13814656646E+03  0.00000000000E+00 0. -1.
         21    1    1    2  505  503  0.74095904005E+00  0.44137448105E+02 -0.81925432964E+02  0.93061484578E+02  0.00000000000E+00 0. -1.
         21    1    1    2  506  505 -0.38156847880E+02  0.89759425464E+02 -0.34489430057E+03  0.35841983492E+03  0.00000000000E+00 0.  1.
<scales pt_clust_3="137.81399" pt_clust_4="56.52787" pt_clust_5="32.48780" pt_clust_6="32.48780"></scales>
<clustering>
<clus scale="   32.488">  5  6 -1 -1</clus>
<clus scale="   56.528">  1  4  2 -1</clus>
<clus scale="  137.814">  1  3  2 -1</clus>
<clus scale="   56.528">  1  3  2 -1</clus>
</clustering>
</event>
<event>
 6    0  0.4469832E+002  0.1062556E+03  0.7546771E-02  0.1267665E+00
         21   -1    0    0  503  501  0.00000000000E+00  0.00000000000E+00  0.33118286711E+03  0.33118286711E+03  0.00000000000E+00 0. -1.
         21   -1    0    0  504  502 -0.00000000000E+00 -0.00000000000E+00 -0.33846040206E+03  0.33846040206E+03  0.00000000000E+00 0. -1.
         21    1    1    2  503  502  0.72543128634E+02 -0.36439811519E+02 -0.33982695412E+02  0.88006755213E+02  0.00000000000E+00 0.  1.
         21    1    1    2  504  506 -0.51552526009E+02  0.53398726500E+02 -0.13521012989E+03  0.15424288040E+03  0.00000000000E+00 0. -1.
         21    1    1    2  505  501 -0.27041522742E+02 -0.83908205590E+02  0.27888307065E+03  0.29248520990E+03  0.00000000000E+00 0. -1.
         21    1    1    2  506  505  0.60509201175E+01  0.66949290610E+02 -0.11696778030E+03  0.13490842366E+03  0.00000000000E+00 0. -1.
<scales pt_clust_3="81.18107" pt_clust_4="55.98487" pt_clust_5="88.48455" pt_clust_6="55.98487"></scales>
<clustering>
<clus scale="   55.985">  4  6 -1 -1</clus>
<clus scale="   81.181">  2  3  1 -1</clus>
<clus scale="   88.485">  1  5  2 -1</clus>
<clus scale="   88.485">  1  3  2 -1</clus>
</clustering>
</event>
<event>
 6    0  0.7644306E+002  0.1105655E+03  0.7546771E-02  0.1259526E+00
         21   -1    0    0  503  501  0.00000000000E+00  0.00000000000E+00  0.18866859596E+04  0.18866859596E+04  0.00000000000E+00 0. -1.
         21   -1    0    0  506  502 -0.00000000000E+00 -0.00000000000E+00 -0.40319627057E+03  0.40319627057E+03  0.00000000000E+00 0.  1.
         21    1    1    2  503  505 -0.45137912046E+00  0.39534931968E+02  0.13216821090E+03  0.13795524840E+03  0.00000000000E+00 0. -1.
         21    1    1    2  504  501 -0.25831901116E+02  0.68791105476E+02  0.16767749152E+04  0.16783842288E+04  0.00000000000E+00 0. -1.
         21    1    1    2  505  502  0.36170982744E+02 -0.16491011993E+03 -0.36611411562E+03  0.40316650817E+03  0.00000000000E+00 0.  1.
         21    1    1    2  506  504 -0.98877025082E+01  0.56584082484E+02  0.40660678584E+02  0.70376244816E+02  0.00000000000E+00 0. -1.
<scales pt_clust_3="39.53751" pt_clust_4="14000.00000" pt_clust_5="110.56553" pt_clust_6="58.67867"></scales>
<clustering>
<clus scale="   39.538">  1  3  2 -1</clus>
<clus scale="   58.679">  2  6  1 -1</clus>
<clus scale="  110.566">  2  5  1 -1</clus>
<clus scale="   39.538">  1  3  2 -1</clus>
</clustering>
</event>
<event>
 6    0  0.4469832E+002  0.1159017E+03  0.7546771E-02  0.1250015E+00
         21   -1    0    0  504  501  0.00000000000E+00  0.00000000000E+00  0.17224838928E+03  0.17224838928E+03  0.00000000000E+00 0.  1.
         21   -1    0    0  503  502 -0.00000000000E+00 -0.00000000000E+00 -0.22942990823E+03  0.22942990823E+03  0.00000000000E+00 0.  1.
         21    1    1    2  503  505 -0.33871178108E+02  0.63003702044E+02 -0.53511781638E+02  0.89332155195E+02  0.00000000000E+00 0. -1.
         21    1    1    2  504  502  0.50032703008E+02 -0.89511175703E+02 -0.91614206448E+02  0.13750885342E+03  0.00000000000E+00 0.  1.
         21    1    1    2  505  506 -0.48409376922E+02  0.21179179450E+02 -0.24133927542E+02  0.58090204637E+02  0.00000000000E+00 0. -1.
         21    1    1    2  506  501  0.32247852022E+02  0.53282942095E+01  0.11207839668E+03  0.11674708426E+03  0.00000000000E+00 0.  1.
<scales pt_clust_3="34.76960" pt_clust_4="107.63623" pt_clust_5="34.76960" pt_clust_6="32.68508"></scales>
<clustering>
<clus scale="   32.685">  1  6  2 -1</clus>
<clus scale="   34.770">  3  5 -1 -1</clus>
<clus scale="  107.636">  2  4  1 -1</clus>
<clus scale="   32.685">  1  3  2 -1</clus>
</clustering>
</event>
<event>
 6    0  0.4469832E+002  0.6981883E+02  0.7546771E-02  0.1360710E+00
         21   -1    0    0  505  501  0.00000000000E+00  0.00000000000E+00  0.42626420000E+02  0.42626420000E+02  0.00000000000E+00 0. -1.
         21   -1    0    0  506  502 -0.00000000000E+00 -0.00000000000E+00 -0.59491755317E+03  0.59491755317E+03  0.00000000000E+00 0. -1.
         21    1    1    2  503  504 -0.69948665575E+02 -0.61449781368E+02 -0.27800108460E+03  0.29317826400E+03  0.00000000000E+00 0. -1.
         21    1    1    2  504  501 -0.79032816578E+01  0.56492597104E+02 -0.29446470040E+02  0.64194781613E+02  0.00000000000E+00 0. -1.
         21    1    1    2  505  502  0.72098694341E+02 -0.40824538797E+02 -0.11042082994E+03  0.13804935486E+03  0.00000000000E+00 0. -1.
         21    1    1    2  506  503  0.57532528919E+01  0.45781723061E+02 -0.13442274859E+03  0.14212157269E+03  0.00000000000E+00 0. -1.
<scales pt_clust_3="14000.00000" pt_clust_4="61.62219" pt_clust_5="69.81883" pt_clust_6="46.14180"></scales>
<clustering>
<clus scale="   46.142">  2  6  1 -1</clus>
<clus scale="   61.622">  1  4  2 -1</clus>
<clus scale="   69.819">  1  5  2 -1</clus>
<clus scale="   61.622">  1  3  2 -1</clus>
</clustering>
</event>
<event>
 6    0  0.4469832E+002  0.1004131E+03  0.7546771E-02  0.1279430E+00
         21   -1    0    0  506  501  0.00000000000E+00  0.00000000000E+00  0.10002420398E+04  0.10002420398E+04  0.00000000000E+00 0.  1.
         21   -1    0    0  505  502 -0.00000000000E+00 -0.00000000000E+00 -0.19679969570E+03  0.19679969570E+03  0.00000000000E+00 0. -1.
         21    1    1    2  503  502  0.85381072529E+02 -0.72434343713E+02  0.13992481727E+03  0.17920830389E+03  0.00000000000E+00 0.  1.
         21    1    1    2  504  501  0.70748767946E+02  0.17748187514E+02 -0.20195986295E+02  0.75685297042E+02  0.00000000000E+00 0.  1.
         21    1    1    2  505  504 -0.57851501047E+02  0.34071131423E+02 -0.11714391007E+03  0.13501975350E+03  0.00000000000E+00 0. -1.
         21    1    1    2  506  503 -0.98278339428E+02  0.20615024776E+02  0.80085742317E+03  0.80712838105E+03  0.00000000000E+00 0.  1.
<scales pt_clust_3="100.41308" pt_clust_4="51.59962" pt_clust_5="67.13895" pt_clust_6="14000.00000"></scales>
<clustering>
<clus scale="   67.139">  2  5  1 -1</clus>
<clus scale="   51.600">  2  4  1 -1</clus>
<clus scale="  100.413">  2  3  1 -1</clus>
<clus scale="  100.413">  1  3  2 -1</clus>
</clustering>
</event>
<event>
 6    0  0.4469832E+002  0.9258520E+02  0.7546771E-02  0.1296709E+00
         21   -1    0    0  505  501  0.00000000000E+00  0.00000000000E+00  0.25922227339E+03  0.25922227339E+03  0.00000000000E+00 0. -1.
         21   -1    0    0  506  502 -0.00000000000E+00 -0.00000000000E+00 -0.22301935632E+03  0.22301935632E+03  0.00000000000E+00 0. -1.
         21    1    1    2  503  502  0.35626186096E+02  0.45014371319E+02 -0.15300884933E+03  0.16342345834E+03  0.00000000000E+00 0. -1.
         21    1    1    2  504  501 -0.40079126131E+02  0.28772261714E+02  0.48128094286E+02  0.68923819215E+02  0.00000000000E+00 0. -1.
         21    1    1    2  505  503  0.10488133230E+02 -0.12104450027E+03  0.15802241459E+03  0.19933101990E+03  0.00000000000E+00 0. -1.
         21    1    1    2  506  504 -0.60351931949E+01  0.47257867233E+02 -0.16938742470E+02  0.50563332255E+02  0.00000000000E+00 0. -1.
<scales pt_clust_3="14000.00000" pt_clust_4="51.15667" pt_clust_5="92.58520" pt_clust_6="47.64168"></scales>
<clustering>
<clus scale="   47.642">  2  6  1 -1</clus>
<clus scale="   51.157">  1  4  2 -1</clus>
<clus scale="   92.585">  1  5  2 -1</clus>
<clus scale="   51.157">  1  3  2 -1</clus>
</clustering>
</event>
<event>
 6    0  0.4469832E+002  0.4241957E+03  0.7546771E-02  0.1035709E+00
         21   -1    0    0  506  501  0.00000000000E+00  0.00000000000E+00  0.33599357228E+03  0.33599357228E+03  0.00000000000E+00 0. -1.
         21   -1    0    0  505  502 -0.00000000000E+00 -0.00000000000E+00 -0.52753236469E+03  0.52753236469E+03  0.00000000000E+00 0. -1.
         21    1    1    2  503  504  0.32162569762E+02  0.80833680880E+02 -0.70742061733E+01  0.87284358571E+02  0.00000000000E+00 0.  1.
         21    1    1    2  504  501  0.83718626268E+02  0.82336170339E+02 -0.56352133638E+02  0.13024444823E+03  0.00000000000E+00 0.  1.
         21    1    1    2  505  503  0.58740060275E+02  0.18158497915E+03  0.80149854314E+02  0.20699637311E+03  0.00000000000E+00 0. -1.
         21    1    1    2  506  502 -0.17462125630E+03 -0.34475483037E+03 -0.20826230691E+03  0.43900075705E+03  0.00000000000E+00 0. -1.
<scales pt_clust_3="43.41162" pt_clust_4="102.55497" pt_clust_5="102.55497" pt_clust_6="386.45631"></scales>
<clustering>
<clus scale="   43.412">  3  5 -1 -1</clus>
<clus scale="  102.555">  3  4 -1 -1</clus>
<clus scale="  386.456">  2  6  1 -1</clus>
<clus scale="  424.196">  1  3  2 -1</clus>
</clustering>
</event>
<event>
 6    0  0.4469832E+002  0.1062279E+03  0.7546771E-02  0.1267719E+00
         21   -1    0    0  504  501  0.00000000000E+00  0.00000000000E+00  0.10599721298E+04  0.10599721298E+04  0.00000000000E+00 0. -1.
         21   -1    0    0  505  502 -0.00000000000E+00 -0.00000000000E+00 -0.33248499984E+03  0.33248499984E+03  0.00000000000E+00 0. -1.
         21    1    1    2  503  501 -0.43045285738E+02 -0.41659047013E+02  0.91272698029E+03  0.91469061074E+03  0.00000000000E+00 0. -1.
         21    1    1    2  504  506  0.33686314472E+02 -0.40236354863E+01  0.79135069671E+02  0.86100619493E+02  0.00000000000E+00 0.  1.
         21    1    1    2  505  503 -0.75800135225E+02  0.80405587139E+02 -0.27757088142E+03  0.29875795078E+03  0.00000000000E+00 0. -1.
         21    1    1    2  506  502  0.85159106491E+02 -0.34722904640E+02  0.13195961450E+02  0.92907948656E+02  0.00000000000E+00 0. -1.
<scales pt_clust_3="46.86683" pt_clust_4="33.92576" pt_clust_5="106.22787" pt_clust_6="14000.00000"></scales>
<clustering>
<clus scale="   33.926">  1  4  2 -1</clus>
<clus scale="   46.867">  1  3  2 -1</clus>
<clus scale="  106.228">  2  5  1 -1</clus>
<clus scale="   33.926">  1  3  2 -1</clus>
</clustering>
</event>
<event>
 6    0  0.4469832E+002  0.1438178E+03  0.7546771E-02  0.1208282E+00
         21   -1    0    0  505  501  0.00000000000E+00  0.00000000000E+00  0.40960312771E+03  0.40960312771E+03  0.00000000000E+00 0.  1.
         21   -1    0    0  503  502 -0.00000000000E+00 -0.00000000000E+00 -0.31421980629E+03  0.31421980629E+03  0.00000000000E+00 0.  1.
         21    1    1    2  503  506  0.57635273143E+02  0.13493225578E+03 -0.22884043345E+03  0.27183907435E+03  0.00000000000E+00 0.  1.
         21    1    1    2  504  501 -0.24279484718E+02 -0.64513006038E+02  0.10316001672E+02  0.69698215305E+02  0.00000000000E+00 0.  1.
         21    1    1    2  505  502 -0.56508606489E+02  0.55664996979E+02  0.65972543211E+02  0.10317068844E+03  0.00000000000E+00 0. -1.
         21    1    1    2  506  504  0.23152818065E+02 -0.12608424672E+03  0.24793520999E+03  0.27911495591E+03  0.00000000000E+00 0.  1.
<scales pt_clust_3="14000.00000" pt_clust_4="68.93055" pt_clust_5="74.33056" pt_clust_6="143.81784"></scales>
<clustering>
<clus scale="   68.931">  1  4  2 -1</clus>
<clus scale="   74.331">  1  5  2 -1</clus>
<clus scale="  143.818">  1  6  2 -1</clus>
<clus scale="   68.931">  1  3  2 -1</clus>
</clustering>
</event>
<event>
 6    0  0.4469832E+002  0.1503493E+03  0.7546771E-02  0.1200044E+00
         21   -1    0    0  503  501  0.00000000000E+00  0.00000000000E+00  0.43031228346E+03  0.43031228346E+03  0.00000000000E+00 0. -1.
         21   -1    0    0  506  502 -0.00000000000E+00 -0.00000000000E+00 -0.11410232149E+04  0.11410232149E+04  0.00000000000E+00 0.  1.
         21    1    1    2  503  502  0.30011858399E+02  0.25216441943E+01 -0.30516868706E+02  0.42875979401E+02  0.00000000000E+00 0.  1.
         21    1    1    2  504  501  0.95203842245E+02 -0.12057057571E+03  0.40014872049E+03  0.42862575030E+03  0.00000000000E+00 0. -1.
         21    1    1    2  505  504 -0.64411424969E+02  0.63260850087E+02 -0.25629415483E+03  0.27173049262E+03  0.00000000000E+00 0.  1.
         21    1    1    2  506  505 -0.60804275674E+02  0.54788081432E+02 -0.82404862839E+03  0.82810327603E+03  0.00000000000E+00 0.  1.
<scales pt_clust_3="30.11761" pt_clust_4="14000.00000" pt_clust_5="150.34932" pt_clust_6="68.43273"></scales>
<clustering>
<clus scale="   30.118">  2  3  1 -1</clus>
<clus scale="   68.433">  2  6  1 -1</clus>
<clus scale="  150.349">  2  5  1 -1</clus>
<clus scale="  150.349">  1  3  2 -1</clus>
</clustering>
</event>
<event>
 6    0  0.4469832E+002  0.9835560E+02  0.7546771E-02  0.1283792E+00
         21   -1    0    0  506  501  0.00000000000E+00  0.00000000000E+00  0.26218471751E+02  0.26218471751E+02  0.00000000000E+00 0. -1.
         21   -1    0    0  505  502 -0.00000000000E+00 -0.00000000000E+00 -0.13544203250E+04  0.13544203250E+04  0.00000000000E+00 0.  1.
         21    1    1    2  503  501 -0.36052577294E+02 -0.37094546267E+02 -0.10932416110E+03  0.12094447442E+03  0.00000000000E+00 0. -1.
         21    1    1    2  504  503  0.45181059655E+02 -0.78591114765E+02 -0.10688704197E+03  0.14015252838E+03  0.00000000000E+00 0. -1.
         21    1    1    2  505  504 -0.78958994986E+01  0.48633757033E+02 -0.24168332874E+03  0.24665445251E+03  0.00000000000E+00 0.  1.
         21    1    1    2  506  502 -0.12325828620E+01  0.67051903998E+02 -0.87030732141E+03  0.87288734140E+03  0.00000000000E+00 0.  1.
<scales pt_clust_3="48.85465" pt_clust_4="98.35560" pt_clust_5="49.27055" pt_clust_6="14000.00000"></scales>
<clustering>
<clus scale="   49.271">  2  5  1 -1</clus>
<clus scale="   48.855">  1  3  2 -1</clus>
<clus scale="   98.356">  1  4  2 -1</clus>
<clus scale="   48.855">  1  3  2 -1</clus>
</clustering>
</event>
<event>
 6    0  0.4469832E+002  0.1289379E+03  0.7546771E-02  0.1229040E+00
         21   -1    0    0  503  501  0.00000000000E+00  0.00000000000E+00  0.10135325847E+04  0.10135325847E+04  0.00000000000E+00 0. -1.
         21   -1    0    0  506  502 -0.00000000000E+00 -0.00000000000E+00 -0.13483472568E+03  0.13483472568E+03  0.00000000000E+00 0. -1.
         21    1    1    2  503  504 -0.85474318516E+02 -0.35162384209E+02  0.12492173912E+03  0.15539528079E+03  0.00000000000E+00 0. -1.
         21    1    1    2  504  502 -0.21246015883E+02 -0.47122177994E+02  0.91002518046E+02  0.10465825883E+03  0.00000000000E+00 0. -1.
         21    1    1    2  505  501  0.36377261168E+02 -0.95917358052E+01  0.74526083886E+03  0.74620977243E+03  0.00000000000E+00 0. -1.
         21    1    1    2  506  505  0.70343073231E+02  0.91876298009E+02 -0.82487236969E+02  0.14210399836E+03  0.00000000000E+00 0. -1.
<scales pt_clust_3="43.33089" pt_clust_4="43.33089" pt_clust_5="37.62056" pt_clust_6="117.38999"></scales>
<clustering>
<clus scale="   37.621">  1  5  2 -1</clus>
<clus scale="   43.331">  3  4 -1 -1</clus>
<clus scale="  117.390">  2  6  1 -1</clus>
<clus scale="   37.621">  1  3  2 -1</clus>
</clustering>
</event>
<event>
 6    0  0.4469832E+002  0.2167947E+03  0.7546771E-02  0.1136296E+00
         21   -1    0    0  505  501  0.00000000000E+00  0.00000000000E+00  0.14617414645E+03  0.14617414645E+03  0.00000000000E+00 0. -1.
         21   -1    0    0  506  502 -0.00000000000E+00 -0.00000000000E+00 -0.79853194564E+03  0.79853194564E+03  0.00000000000E+00 0.  1.
         21    1    1    2  503  502 -0.28893365407E+02  0.20258194685E+03 -0.23906807982E+03  0.31468685791E+03  0.00000000000E+00 0.  1.
         21    1    1    2  504  501 -0.16238342583E+03 -0.82295987776E+01 -0.75151762649E+02  0.17911976638E+03  0.00000000000E+00 0.  1.
         21    1    1    2  505  503  0.36826777885E+02 -0.22485182122E+01 -0.61434268048E+01  0.37403330018E+02  0.00000000000E+00 0. -1.
         21    1    1    2  506  504  0.15445001335E+03 -0.19210382986E+03 -0.33199452992E+03  0.41349613779E+03  0.00000000000E+00 0. -1.
<scales pt_clust_3="216.79471" pt_clust_4="148.00020" pt_clust_5="36.89536" pt_clust_6="14000.00000"></scales>
<clustering>
<clus scale="   36.895">  1  5  2 -1</clus>
<clus scale="  148.000">  1  4  2 -1</clus>
<clus scale="  216.795">  2  3  1 -1</clus>
<clus scale="   36.895">  1  3  2 -1</clus>
</clustering>
</event>
<event>
 6    0  0.4469832E+002  0.2213121E+03  0.7546771E-02  0.1132909E+00
         21   -1    0    0  505  501  0.00000000000E+00  0.00000000000E+00  0.50666463048E+03  0.50666463048E+03  0.00000000000E+00 0. -1.
         21   -1    0    0  506  502 -0.00000000000E+00 -0.00000000000E+00 -0.16914446165E+04  0.16914446165E+04  0.00000000000E+00 0. -1.
         21    1    1    2  503  501 -0.23635244603E+02 -0.45106095167E+02  0.85042881779E+02  0.99123540846E+02  0.00000000000E+00 0. -1.
         21    1    1    2  504  503  0.77948204307E+02  0.23016956936E+02  0.11335390362E+02  0.82062134605E+02  0.00000000000E+00 0. -1.
         21    1    1    2  505  502  0.90612284770E+02 -0.14659097683E+03  0.33968198326E+03  0.38089808399E+03  0.00000000000E+00 0. -1.
         21    1    1    2  506  504 -0.14492524447E+03  0.16868011506E+03 -0.16208402414E+04  0.16360254876E+04  0.00000000000E+00 0. -1.
<scales pt_clust_3="50.92332" pt_clust_4="77.39299" pt_clust_5="221.31214" pt_clust_6="14000.00000"></scales>
<clustering>
<clus scale="   50.923">  1  3  2 -1</clus>
<clus scale="   77.393">  1  4  2 -1</clus>
<clus scale="  221.312">  1  5  2 -1</clus>
<clus scale="   50.923">  1  3  2 -1</clus>
</clustering>
</event>
<event>
 6    0  0.4469832E+002  0.9055752E+02  0.7546771E-02  0.1301507E+00
         21   -1    0    0  503  501  0.00000000000E+00  0.00000000000E+00  0.38946325564E+03  0.38946325564E+03  0.00000000000E+00 0.  1.
         21   -1    0    0  505  502 -0.00000000000E+00 -0.00000000000E+00 -0.37353541861E+03  0.37353541861E+03  0.00000000000E+00 0.  1.
         21    1    1    2  503  506 -0.14101291860E+03 -0.15880949217E+02  0.16541194305E+03  0.21794026398E+03  0.00000000000E+00 0.  1.
         21    1    1    2  504  501  0.50185652245E+02  0.13207503099E+02  0.18601460048E+03  0.19311776050E+03  0.00000000000E+00 0.  1.
         21    1    1    2  505  504  0.32488834446E+02 -0.25712157759E+02 -0.12913193519E+03  0.13561598765E+03  0.00000000000E+00 0.  1.
         21    1    1    2  506  502  0.58338431907E+02  0.28385603877E+02 -0.20636677130E+03  0.21632466212E+03  0.00000000000E+00 0.  1.
<scales pt_clust_3="14000.00000" pt_clust_4="52.26310" pt_clust_5="41.43235" pt_clust_6="90.55752"></scales>
<clustering>
<clus scale="   41.432">  2  5  1 -1</clus>
<clus scale="   52.263">  1  4  2 -1</clus>
<clus scale="   90.558">  2  6  1 -1</clus>
<clus scale="   52.263">  1  3  2 -1</clus>
</clustering>
</event>
<event>
 6    0  0.4469832E+002  0.1394081E+03  0.7546771E-02  0.1214128E+00
         21   -1    0    0  505  501  0.00000000000E+00  0.00000000000E+00  0.14872159891E+04  0.14872159891E+04  0.00000000000E+00 0.  1.
         21   -1    0    0  504  502 -0.00000000000E+00 -0.00000000000E+00 -0.49265512026E+03  0.49265512026E+03  0.00000000000E+00 0. -1.
         21    1    1    2  503  501  0.88875888493E+02 -0.94378625573E+02  0.10393467956E+04  0.10474005967E+04  0.00000000000E+00 0.  1.
         21    1    1    2  504  503  0.34535198049E+02  0.42909904611E+02 -0.32208213176E+03  0.32675807475E+03  0.00000000000E+00 0. -1.
         21    1    1    2  505  506 -0.10544369910E+03  0.17516415127E+03  0.38811102036E+03  0.43866959969E+03  0.00000000000E+00 0.  1.
         21    1    1    2  506  502 -0.17967387444E+02 -0.12369543031E+03 -0.11081481535E+03  0.16704283819E+03  0.00000000000E+00 0. -1.
<scales pt_clust_3="139.40813" pt_clust_4="55.08121" pt_clust_5="14000.00000" pt_clust_6="88.88886"></scales>
<clustering>
<clus scale="   55.081">  2  4  1 -1</clus>
<clus scale="   88.889">  2  6  1 -1</clus>
<clus scale="  139.408">  1  3  2 -1</clus>
<clus scale="  139.408">  1  3  2 -1</clus>
</clustering>
</event>
<event>
 6    0  0.4469832E+002  0.7760024E+02  0.7546771E-02  0.1336003E+00
         21   -1    0    0  505  501  0.00000000000E+00  0.00000000000E+00  0.19367267938E+03  0.19367267938E+03  0.00000000000E+00 0.  1.
         21   -1    0    0  506  502 -0.00000000000E+00 -0.00000000000E+00 -0.14743291869E+04  0.14743291869E+04  0.00000000000E+00 0. -1.
         21    1    1    2  503  504 -0.86648041669E+02 -0.20973301333E+01 -0.88149968592E+03  0.88575051690E+03  0.00000000000E+00 0. -1.
         21    1    1    2  504  502  0.56965963826E+02 -0.48005991372E+01 -0.49382351532E+03  0.49712154557E+03  0.00000000000E+00 0.  1.
         21    1    1    2  505  503  0.26128697991E+02  0.74639182577E+02  0.16772633423E+03  0.18543419218E+03  0.00000000000E+00 0.  1.
         21    1    1    2  506  501  0.35533798523E+01 -0.67741253306E+02 -0.73059640507E+02  0.99695611633E+02  0.00000000000E+00 0.  1.
<scales pt_clust_3="35.80645" pt_clust_4="57.16788" pt_clust_5="77.60024" pt_clust_6="14000.00000"></scales>
<clustering>
<clus scale="   57.168">  2  4  1 -1</clus>
<clus scale="   35.806">  2  3  1 -1</clus>
<clus scale="   77.600">  1  5  2 -1</clus>
<clus scale="   77.600">  1  3  2 -1</clus>
</clustering>
</event>
<event>
 6    0  0.4469832E+002  0.1276381E+03  0.7546771E-02  0.1231003E+00
         21   -1    0    0  506  501  0.00000000000E+00  0.00000000000E+00  0.33439149243E+03  0.33439149243E+03  0.00000000000E+00 0.  1.
         21   -1    0    0  503  502 -0.00000000000E+00 -0.00000000000E+00 -0.63339021966E+03  0.63339021966E+03  0.00000000000E+00 0. -1.
         21    1    1    2  503  504 -0.58525752470E+02  0.31823106197E+02 -0.97284717079E+02  0.11790797245E+03  0.00000000000E+00 0. -1.
         21    1    1    2  504  501  0.36917641502E+02 -0.30307097393E+02  0.25670965838E+02  0.54225740138E+02  0.00000000000E+00 0.  1.
         21    1    1    2  505  502  0.71703394756E+01  0.90365861063E+02 -0.49971634823E+03  0.50787186504E+03  0.00000000000E+00 0. -1.
         21    1    1    2  506  505  0.14437771493E+02 -0.91881869866E+02  0.27233137224E+03  0.28777613446E+03  0.00000000000E+00 0.  1.
<scales pt_clust_3="64.97603" pt_clust_4="47.76434" pt_clust_5="14000.00000" pt_clust_6="127.63809"></scales>
<clustering>
<clus scale="   47.764">  1  4  2 -1</clus>
<clus scale="   64.976">  2  3  1 -1</clus>
<clus scale="  127.638">  1  6  2 -1</clus>
<clus scale="   47.764">  1  3  2 -1</clus>
</clustering>
</event>
<event>
 6    0  0.4469832E+002  0.1151769E+03  0.7546771E-02  0.1251273E+00
         21   -1    0    0  506  501  0.00000000000E+00  0.00000000000E+00  0.35214012480E+02  0.35214012480E+02  0.00000000000E+00 0. -1.
         21   -1    0    0  505  502 -0.00000000000E+00 -0.00000000000E+00 -0.11085618330E+04  0.11085618330E+04  0.00000000000E+00 0.  1.
         21    1    1    2  503  502  0.61402709724E+02 -0.66435238181E+01 -0.42609172555E+03  0.43054452470E+03  0.00000000000E+00 0.  1.
         21    1    1    2  504  503  0.35087759514E+02 -0.46337810572E+02 -0.28435655452E+03  0.29023609985E+03  0.00000000000E+00 0.  1.
         21    1    1    2  505  501 -0.60729452759E+02 -0.46359624326E+02 -0.27560685722E+03  0.28600073592E+03  0.00000000000E+00 0.  1.
         21    1    1    2  506  504 -0.35761016479E+02  0.99340958716E+02 -0.87292683241E+02  0.13699448502E+03  0.00000000000E+00 0. -1.
<scales pt_clust_3="50.13215" pt_clust_4="50.13215" pt_clust_5="76.40210" pt_clust_6="102.93298"></scales>
<clustering>
<clus scale="   50.132">  3  4 -1 -1</clus>
<clus scale="   76.402">  2  5  1 -1</clus>
<clus scale="  102.933">  1  6  2 -1</clus>
<clus scale="  102.933">  1  3  2 -1</clus>
</clustering>
</event>
<event>
 6    0  0.4469832E+002  0.1393011E+03  0.7546771E-02  0.1214272E+00
         21   -1    0    0  503  501  0.00000000000E+00  0.00000000000E+00  0.12690311655E+03  0.12690311655E+03  0.00000000000E+00 0. -1.
         21   -1    0    0  506  502 -0.00000000000E+00 -0.00000000000E+00 -0.88858795546E+03  0.88858795546E+03  0.00000000000E+00 0. -1.
         21    1    1    2  503  502 -0.13717001883E+03  0.65377704684E+01  0.56216105113E+02  0.14838668061E+03  0.00000000000E+00 0. -1.
         21    1    1    2  504  505  0.89489209111E+02  0.20751432875E+02 -0.40164482887E+03  0.41201639418E+03  0.00000000000E+00 0. -1.
         21    1    1    2  505  501 -0.85312672663E+01  0.43163930054E+02 -0.19330506179E+02  0.48058046652E+02  0.00000000000E+00 0.  1.
         21    1    1    2  506  504  0.56212076983E+02 -0.70453133398E+02 -0.39692560898E+03  0.40702995058E+03  0.00000000000E+00 0. -1.
<scales pt_clust_3="139.30110" pt_clust_4="14000.00000" pt_clust_5="43.99895" pt_clust_6="88.38126"></scales>
<clustering>
<clus scale="   43.999">  1  5  2 -1</clus>
<clus scale="   88.381">  2  6  1 -1</clus>
<clus scale="  139.301">  1  3  2 -1</clus>
<clus scale="   43.999">  1  3  2 -1</clus>
</clustering>
</event>
<event>
 6    0  0.4469832E+002  0.8280231E+02  0.7546771E-02  0.1321282E+00
         21   -1    0    0  503  501  0.00000000000E+00  0.00000000000E+00  0.17212922044E+04  0.17212922044E+04  0.00000000000E+00 0. -1.
         21   -1    0    0  505  502 -0.00000000000E+00 -0.00000000000E+00 -0.15266650376E+03  0.15266650376E+03  0.00000000000E+00 0. -1.
         21    1    1    2  503  506 -0.44031840344E+02  0.94088288583E+02  0.12804810823E+03  0.16488701293E+03  0.00000000000E+00 0. -1.
         21    1    1    2  504  501  0.75936518199E+02 -0.33459548155E+02  0.15457849093E+04  0.15480106208E+04  0.00000000000E+00 0. -1.
         21    1    1    2  505  504  0.68863180349E+01 -0.65526104320E+02 -0.10252442461E+03  0.12187021525E+03  0.00000000000E+00 0. -1.
         21    1    1    2  506  502 -0.38790995889E+02  0.48973638930E+01 -0.26828922858E+01  0.39190859218E+02  0.00000000000E+00 0. -1.
<scales pt_clust_3="14000.00000" pt_clust_4="82.80231" pt_clust_5="66.69632" pt_clust_6="39.09892"></scales>
<clustering>
<clus scale="   39.099">  2  6  1 -1</clus>
<clus scale="   66.696">  2  5  1 -1</clus>
<clus scale="   82.802">  1  4  2 -1</clus>
<clus scale="   82.802">  1  3  2 -1</clus>
</clustering>
</event>
<event>
 6    0  0.4469832E+002  0.9166809E+02  0.7546771E-02  0.1298862E+00
         21   -1    0    0  505  501  0.00000000000E+00  0.00000000000E+00  0.27952328496E+03  0.27952328496E+03  0.00000000000E+00 0.  1.
         21   -1    0    0  501  502 -0.00000000000E+00 -0.00000000000E+00 -0.27610739043E+03  0.27610739043E+03  0.00000000000E+00 0.  1.
         21    1    1    2  503  506 -0.59970470095E+02 -0.75867956140E+02 -0.16054051400E+03  0.18741841075E+03  0.00000000000E+00 0.  1.
         21    1    1    2  504  503  0.34871519865E+01  0.62879180087E+02  0.44051769778E+02  0.76853821882E+02  0.00000000000E+00 0.  1.
         21    1    1    2  505  504  0.20761086957E+01  0.47758218883E+02  0.19007939985E+03  0.19599830598E+03  0.00000000000E+00 0.  1.
         21    1    1    2  506  502  0.54407209413E+02 -0.34769442830E+02 -0.70174761096E+02  0.95360136775E+02  0.00000000000E+00 0.  1.
<scales pt_clust_3="14000.00000" pt_clust_4="91.66809" pt_clust_5="47.80332" pt_clust_6="61.37454"></scales>
<clustering>
<clus scale="   47.803">  1  5  2 -1</clus>
<clus scale="   61.375">  2  6  1 -1</clus>
<clus scale="   91.668">  1  4  2 -1</clus>
<clus scale="   47.803">  1  3  2 -1</clus>
</clustering>
</event>
<event>
 6    0  0.4469832E+002  0.8439447E+02  0.7546771E-02  0.1317024E+00
         21   -1    0    0  503  501  0.00000000000E+00  0.00000000000E+00  0.12602162467E+04  0.12602162467E+04  0.00000000000E+00 0.  1.
         21   -1    0    0  505  502 -0.00000000000E+00 -0.00000000000E+00 -0.85305158357E+02  0.85305158357E+02  0.00000000000E+00 0. -1.
         21    1    1    2  503  506  0.68705082943E+02  0.12714197755E+02  0.14906811397E+03  0.16463092616E+03  0.00000000000E+00 0. -1.
         21    1    1    2  504  501 -0.84598182948E+02  0.31070405393E+02  0.10352494772E+04  0.10391649064E+04  0.00000000000E+00 0.  1.
         21    1    1    2  505  504  0.42269674716E+02  0.30395056001E+02  0.22576562241E+02  0.56747563758E+02  0.00000000000E+00 0. -1.
         21    1    1    2  506  502 -0.26376574711E+02 -0.74179659149E+02 -0.31983065035E+02  0.84978008767E+02  0.00000000000E+00 0. -1.
<scales pt_clust_3="84.39447" pt_clust_4="14000.00000" pt_clust_5="52.06328" pt_clust_6="49.12328"></scales>
<clustering>
<clus scale="   52.063">  2  5  1 -1</clus>
<clus scale="   49.123">  2  6  1 -1</clus>
<clus scale="   84.394">  2  3  1 -1</clus>
<clus scale="   84.394">  1  3  2 -1</clus>
</clustering>
</event>
<event>
 6    0  0.4469832E+002  0.1107528E+03  0.7546771E-02  0.1259182E+00
         21   -1    0    0  503  501  0.00000000000E+00  0.00000000000E+00  0.11856125225E+04  0.11856125225E+04  0.00000000000E+00 0. -1.
         21   -1    0    0  501  502 -0.00000000000E+00 -0.00000000000E+00 -0.12328747476E+03  0.12328747476E+03  0.00000000000E+00 0.  1.
         21    1    1    2  503  505  0.61337081398E+01  0.48154076715E+02  0.72867644979E+03  0.73029158968E+03  0.00000000000E+00 0. -1.
         21    1    1    2  504  502  0.42001776564E+02 -0.52472197390E+02 -0.50840110102E+02  0.84274536657E+02  0.00000000000E+00 0.  1.
         21    1    1    2  505  506 -0.92170501967E+02  0.11220969302E+02  0.42443978348E+03  0.43447720468E+03  0.00000000000E+00 0. -1.
         21    1    1    2  506  504  0.44035017263E+02 -0.69028486265E+01 -0.39951075435E+02  0.59856666237E+02  0.00000000000E+00 0.  1.
<scales pt_clust_3="48.54315" pt_clust_4="32.60489" pt_clust_5="103.26250" pt_clust_6="32.60489"></scales>
<clustering>
<clus scale="   32.605">  4  6 -1 -1</clus>
<clus scale="   48.543">  1  3  2 -1</clus>
<clus scale="  103.262">  1  5  2 -1</clus>
<clus scale="   48.543">  1  3  2 -1</clus>
</clustering>
</event>
<event>
 6    0  0.4469832E+002  0.2222505E+03  0.7546771E-02  0.1132216E+00
         21   -1    0    0  506  501  0.00000000000E+00  0.00000000000E+00  0.57764178316E+03  0.57764178316E+03  0.00000000000E+00 0. -1.
         21   -1    0    0  503  502 -0.00000000000E+00 -0.00000000000E+00 -0.14640461988E+04  0.14640461988E+04  0.00000000000E+00 0.  1.
         21    1    1    2  503  501 -0.25179682210E+02  0.21916213714E+03  0.77616862731E+02  0.23385986431E+03  0.00000000000E+00 0. -1.
         21    1    1    2  504  505 -0.11163369815E+03 -0.10733420171E+03 -0.82974242946E+03  0.84407062067E+03  0.00000000000E+00 0.  1.
         21    1    1    2  505  502 -0.20738884975E+02 -0.63516255324E+02 -0.53046956075E+03  0.53466098691E+03  0.00000000000E+00 0.  1.
         21    1    1    2  506  504  0.15755226533E+03 -0.48311680113E+02  0.39619071188E+03  0.42909651004E+03  0.00000000000E+00 0. -1.
<scales pt_clust_3="213.03403" pt_clust_4="41.60415" pt_clust_5="41.60415" pt_clust_6="164.79301"></scales>
<clustering>
<clus scale="   41.604">  4  5 -1 -1</clus>
<clus scale="  164.793">  1  6  2 -1</clus>
<clus scale="  213.034">  1  3  2 -1</clus>
<clus scale="  164.793">  1  3  2 -1</clus>
</clustering>
</event>
<event>
 6    0  0.4469832E+002  0.8939834E+02  0.7546771E-02  0.1304315E+00
         21   -1    0    0  503  501  0.00000000000E+00  0.00000000000E+00  0.62880601384E+02  0.62880601384E+02  0.00000000000E+00 0.  1.
         21   -1    0    0  505  502 -0.00000000000E+00 -0.00000000000E+00 -0.76463532175E+03  0.76463532175E+03  0.00000000000E+00 0. -1.
         21    1    1    2  503  502  0.11033350071E+03  0.49032340463E+02 -0.36278936994E+03  0.38235295047E+03  0.00000000000E+00 0.  1.
         21    1    1    2  504  501  0.37130051787E+02 -0.34535222694E+02  0.70855785580E+01  0.51200857177E+02  0.00000000000E+00 0.  1.
         21    1    1    2  505  506 -0.71035089051E+02 -0.22337668710E+02 -0.28853480599E+03  0.29798874071E+03  0.00000000000E+00 0. -1.
         21    1    1    2  506  504 -0.76428463443E+02  0.78405509405E+01 -0.57516122994E+02  0.95973374785E+02  0.00000000000E+00 0. -1.
<scales pt_clust_3="89.39834" pt_clust_4="50.70821" pt_clust_5="14000.00000" pt_clust_6="56.52082"></scales>
<clustering>
<clus scale="   50.708">  1  4  2 -1</clus>
<clus scale="   56.521">  1  6  2 -1</clus>
<clus scale="   89.398">  1  3  2 -1</clus>
<clus scale="   50.708">  1  3  2 -1</clus>
</clustering>
</event>
<event>
 6    0  0.4469832E+002  0.1429055E+03  0.7546771E-02  0.1209472E+00
         21   -1    0    0  505  501  0.00000000000E+00  0.00000000000E+00  0.10179480403E+03  0.10179480403E+03  0.00000000000E+00 0. -1.
         21   -1    0    0  503  502 -0.00000000000E+00 -0.00000000000E+00 -0.15118345020E+04  0.15118345020E+04  0.00000000000E+00 0. -1.
         21    1    1    2  503  506  0.14978809695E+03  0.14323944375E+03 -0.62057236769E+02  0.21634489333E+03  0.00000000000E+00 0. -1.
         21    1    1    2  504  502 -0.12347793668E+03 -0.65994376178E+02 -0.12507167949E+04  0.12585287282E+04  0.00000000000E+00 0. -1.
         21    1    1    2  505  504  0.56501500967E+01 -0.53240639345E+02 -0.32448958631E+02  0.62605309600E+02  0.00000000000E+00 0. -1.
         21    1    1    2  506  501 -0.31960310368E+02 -0.24004428224E+02 -0.64816707683E+02  0.76150374970E+02  0.00000000000E+00 0.  1.
<scales pt_clust_3="142.90554" pt_clust_4="14000.00000" pt_clust_5="57.00942" pt_clust_6="39.97091"></scales>
<clustering>
<clus scale="   39.971">  1  6  2 -1</clus>
<clus scale="   57.009">  1  5  2 -1</clus>
<clus scale="  142.906">  1  3  2 -1</clus>
<clus scale="   39.971">  1  3  2 -1</clus>
</clustering>
</event>
<event>
 6    0  0.4469832E+002  0.1196675E+03  0.7546771E-02  0.1243647E+00
         21   -1    0    0  504  501  0.00000000000E+00  0.00000000000E+00  0.54136002455E+03  0.54136002455E+03  0.00000000000E+00 0. -1.
         21   -1    0    0  505  502 -0.00000000000E+00 -0.00000000000E+00 -0.21298018483E+03  0.21298018483E+03  0.00000000000E+00 0. -1.
         21    1    1    2  503  502 -0.40453351481E+02  0.39952489778E+01 -0.11039126344E+03  0.11763786255E+03  0.00000000000E+00 0. -1.
         21    1    1    2  504  503  0.76768255174E+02  0.10066795060E+03  0.48507239101E+03  0.50132088107E+03  0.00000000000E+00 0. -1.
         21    1    1    2  505  506  0.42540529548E+01 -0.32570110407E+02 -0.40934312346E+02  0.52483587774E+02  0.00000000000E+00 0. -1.
         21    1    1    2  506  501 -0.40568956648E+02 -0.72093089168E+02 -0.53669754978E+01  0.82897877990E+02  0.00000000000E+00 0.  1.
<scales pt_clust_3="41.77649" pt_clust_4="14000.00000" pt_clust_5="32.84675" pt_clust_6="119.66746"></scales>
<clustering>
<clus scale="   32.847">  2  5  1 -1</clus>
<clus scale="   41.776">  2  3  1 -1</clus>
<clus scale="  119.667">  2  6  1 -1</clus>
<clus scale="  119.667">  1  3  2 -1</clus>
</clustering>
</event>
<event>
 6    0  0.4469832E+002  0.1576620E+03  0.7546771E-02  0.1191362E+00
         21   -1    0    0  505  501  0.00000000000E+00  0.00000000000E+00  0.38063549119E+03  0.38063549119E+03  0.00000000000E+00 0.  1.
         21   -1    0    0  506  502 -0.00000000000E+00 -0.00000000000E+00 -0.86393932517E+03  0.86393932517E+03  0.00000000000E+00 0.  1.
         21    1    1    2  503  502  0.34851987084E+01  0.65516692023E+02 -0.64895709576E+03  0.65226520349E+03  0.00000000000E+00 0.  1.
         21    1    1    2  504  501 -0.36690424934E+02 -0.92305967772E+01  0.14987510608E+03  0.15457664319E+03  0.00000000000E+00 0.  1.
         21    1    1    2  505  503  0.54585120789E+02  0.94328515095E+02 -0.16732116330E+03  0.19968419031E+03  0.00000000000E+00 0.  1.
         21    1    1    2  506  504 -0.21379894563E+02 -0.15061461034E+03  0.18309931900E+03  0.23804877937E+03  0.00000000000E+00 0.  1.
<scales pt_clust_3="65.52898" pt_clust_4="37.83373" pt_clust_5="14000.00000" pt_clust_6="157.66199"></scales>
<clustering>
<clus scale="   37.834">  1  4  2 -1</clus>
<clus scale="   65.529">  2  3  1 -1</clus>
<clus scale="  157.662">  1  6  2 -1</clus>
<clus scale="   37.834">  1  3  2 -1</clus>
</clustering>
</event>
<event>
 6    0  0.4469832E+002  0.8627546E+02  0.7546771E-02  0.1312130E+00
         21   -1    0    0  506  501  0.00000000000E+00  0.00000000000E+00  0.37379159389E+03  0.37379159389E+03  0.00000000000E+00 0.  1.
         21   -1    0    0  505  502 -0.00000000000E+00 -0.00000000000E+00 -0.18864406181E+04  0.18864406181E+04  0.00000000000E+00 0. -1.
         21    1    1    2  503  501  0.48638058212E+01 -0.88449005657E+02  0.22534256335E+03  0.24212838344E+03  0.00000000000E+00 0.  1.
         21    1    1    2  504  503  0.54492050156E+02 -0.17930638341E+02 -0.86583315270E+03  0.86773149052E+03  0.00000000000E+00 0. -1.
         21    1    1    2  505  504 -0.86249598657E+00  0.33572106285E+02 -0.99527446300E+03  0.99584089438E+03  0.00000000000E+00 0. -1.
         21    1    1    2  506  502 -0.58493359990E+02  0.72807537713E+02  0.12311602811E+03  0.15453144369E+03  0.00000000000E+00 0.  1.
<scales pt_clust_3="86.27546" pt_clust_4="55.63903" pt_clust_5="33.58318" pt_clust_6="14000.00000"></scales>
<clustering>
<clus scale="   33.583">  2  5  1 -1</clus>
<clus scale="   55.639">  2  4  1 -1</clus>
<clus scale="   86.275">  1  3  2 -1</clus>
<clus scale="   86.275">  1  3  2 -1</clus>
</clustering>
</event>
<event>
 6    0  0.4469832E+002  0.1089840E+03  0.7546771E-02  0.1262463E+00
         21   -1    0    0  505  501  0.00000000000E+00  0.00000000000E+00  0.58736270313E+03  0.58736270313E+03  0.00000000000E+00 0. -1.
         21   -1    0    0  503  502 -0.00000000000E+00 -0.00000000000E+00 -0.90660271657E+02  0.90660271657E+02  0.00000000000E+00 0. -1.
         21    1    1    2  503  506 -0.32004189530E+02 -0.97565568169E+02  0.33979414115E+02  0.10815687136E+03  0.00000000000E+00 0. -1.
         21    1    1    2  504  502  0.14339472833E+02  0.11520266320E+03  0.19961623499E+02  0.11779533311E+03  0.00000000000E+00 0. -1.
         21    1    1    2  505  504  0.67243095820E+01  0.33093449783E+02  0.10368134692E+03  0.10904225996E+03  0.00000000000E+00 0. -1.
         21    1    1    2  506  501  0.10940407114E+02 -0.50730544813E+02  0.33908004694E+03  0.34302851036E+03  0.00000000000E+00 0. -1.
<scales pt_clust_3="108.98397" pt_clust_4="14000.00000" pt_clust_5="33.76970" pt_clust_6="31.46685"></scales>
<clustering>
<clus scale="   33.770">  1  5  2 -1</clus>
<clus scale="   31.467">  1  6  2 -1</clus>
<clus scale="  108.984">  1  3  2 -1</clus>
<clus scale="   33.770">  1  3  2 -1</clus>
</clustering>
</event>
<event>
 6    0  0.4469832E+002  0.9939991E+02  0.7546771E-02  0.1281563E+00
         21   -1    0    0  503  501  0.00000000000E+00  0.00000000000E+00  0.55288367013E+03  0.55288367013E+03  0.00000000000E+00 0. -1.
         21   -1    0    0  506  502 -0.00000000000E+00 -0.00000000000E+00 -0.21298823182E+03  0.21298823182E+03  0.00000000000E+00 0. -1.
         21    1    1    2  503  502 -0.26418809952E+02 -0.17807489581E+02  0.65724330517E+00  0.31866787934E+02  0.00000000000E+00 0.  1.
         21    1    1    2  504  505  0.85032191373E+01 -0.12222854542E+03 -0.10283039713E+02  0.12295471913E+03  0.00000000000E+00 0. -1.
         21    1    1    2  505  501  0.75374176714E+02  0.67395699741E+02  0.45764506618E+03  0.46868161203E+03  0.00000000000E+00 0. -1.
         21    1    1    2  506  504 -0.57458585898E+02  0.72640335257E+02 -0.10812383147E+03  0.14236878285E+03  0.00000000000E+00 0. -1.
<scales pt_clust_3="31.86001" pt_clust_4="99.39991" pt_clust_5="14000.00000" pt_clust_6="96.28935"></scales>
<clustering>
<clus scale="   31.860">  2  3  1 -1</clus>
<clus scale="   96.289">  2  6  1 -1</clus>
<clus scale="   99.400">  2  4  1 -1</clus>
<clus scale="   99.400">  1  3  2 -1</clus>
</clustering>
</event>
<event>
 6    0  0.4469832E+002  0.1289625E+03  0.7546771E-02  0.1229003E+00
         21   -1    0    0  504  501  0.00000000000E+00  0.00000000000E+00  0.15216482380E+04  0.15216482380E+04  0.00000000000E+00 0. -1.
         21   -1    0    0  503  502 -0.00000000000E+00 -0.00000000000E+00 -0.22879312199E+03  0.22879312199E+03  0.00000000000E+00 0. -1.
         21    1    1    2  503  506 -0.85114011225E+02 -0.18762592937E+02  0.60208141364E+03  0.60835717999E+03  0.00000000000E+00 0. -1.
         21    1    1    2  504  505  0.38286774985E+02 -0.24629226817E+02 -0.41523999011E+02  0.61617517365E+02  0.00000000000E+00 0. -1.
         21    1    1    2  505  502  0.76830938839E+02  0.11084471091E+02 -0.16486246468E+03  0.18222373863E+03  0.00000000000E+00 0. -1.
         21    1    1    2  506  501 -0.30003702599E+02  0.32307348663E+02  0.89716016603E+03  0.89824292397E+03  0.00000000000E+00 0. -1.
<scales pt_clust_3="114.90733" pt_clust_4="44.59488" pt_clust_5="44.59488" pt_clust_6="44.09067"></scales>
<clustering>
<clus scale="   44.091">  1  6  2 -1</clus>
<clus scale="   44.595">  4  5 -1 -1</clus>
<clus scale="  114.907">  1  3  2 -1</clus>
<clus scale="   44.091">  1  3  2 -1</clus>
</clustering>
</event>
<event>
 6    0  0.4469832E+002  0.1302541E+03  0.7546771E-02  0.1227079E+00
         21   -1    0    0  504  501  0.00000000000E+00  0.00000000000E+00  0.21810222947E+03  0.21810222947E+03  0.00000000000E+00 0. -1.
         21   -1    0    0  505  502 -0.00000000000E+00 -0.00000000000E+00 -0.21735274630E+03  0.21735274630E+03  0.00000000000E+00 0.  1.
         21    1    1    2  503  501 -0.71259374093E+01  0.47722264011E+02  0.45771786205E+01  0.48467969118E+02  0.00000000000E+00 0.  1.
         21    1    1    2  504  502 -0.75593671052E+02 -0.13362158707E+03  0.13119471620E+03  0.20194351981E+03  0.00000000000E+00 0. -1.
         21    1    1    2  505  506  0.24932778163E+02  0.35912646707E+02 -0.22876200904E+02  0.49342498804E+02  0.00000000000E+00 0.  1.
         21    1    1    2  506  503  0.57786830298E+02  0.49986676356E+02 -0.11214621075E+03  0.13570098804E+03  0.00000000000E+00 0.  1.
<scales pt_clust_3="48.25136" pt_clust_4="123.19628" pt_clust_5="31.99281" pt_clust_6="31.99281"></scales>
<clustering>
<clus scale="   31.993">  5  6 -1 -1</clus>
<clus scale="   48.251">  1  3  2 -1</clus>
<clus scale="  123.196">  1  4  2 -1</clus>
<clus scale="   48.251">  1  3  2 -1</clus>
</clustering>
</event>
<event>
 6    0  0.4469832E+002  0.9727584E+02  0.7546771E-02  0.1286131E+00
         21   -1    0    0  504  501  0.00000000000E+00  0.00000000000E+00  0.32708004360E+03  0.32708004360E+03  0.00000000000E+00 0.  1.
         21   -1    0    0  506  502 -0.00000000000E+00 -0.00000000000E+00 -0.21112740408E+03  0.21112740408E+03  0.00000000000E+00 0.  1.
         21    1    1    2  503  501 -0.28903965270E+02  0.10079414220E+02  0.25160120015E+03  0.25345650064E+03  0.00000000000E+00 0.  1.
         21    1    1    2  504  505  0.16776196774E+01 -0.38658569194E+02  0.79571263971E+01  0.39504623026E+02  0.00000000000E+00 0.  1.
         21    1    1    2  505  502  0.56978544645E+02 -0.72368395441E+02 -0.52310723614E+02  0.10592521425E+03  0.00000000000E+00 0.  1.
         21    1    1    2  506  503 -0.29752199052E+02  0.10094755042E+03 -0.91294963414E+02  0.13932110977E+03  0.00000000000E+00 0.  1.
<scales pt_clust_3="30.61101" pt_clust_4="36.23957" pt_clust_5="14000.00000" pt_clust_6="97.27584"></scales>
<clustering>
<clus scale="   30.611">  1  3  2 -1</clus>
<clus scale="   36.240">  1  4  2 -1</clus>
<clus scale="   97.276">  2  6  1 -1</clus>
<clus scale="   30.611">  1  3  2 -1</clus>
</clustering>
</event>
<event>
 6    0  0.4469832E+002  0.9104277E+02  0.7546771E-02  0.1300346E+00
         21   -1    0    0  503  501  0.00000000000E+00  0.00000000000E+00  0.46867533314E+02  0.46867533314E+02  0.00000000000E+00 0.  1.
         21   -1    0    0  505  502 -0.00000000000E+00 -0.00000000000E+00 -0.10337649121E+04  0.10337649121E+04  0.00000000000E+00 0.  1.
         21    1    1    2  503  506 -0.58794842388E+02 -0.75477222172E+02 -0.29986646797E+02  0.10026386959E+03  0.00000000000E+00 0.  1.
         21    1    1    2  504  502  0.29751831797E+02 -0.40672496023E+02 -0.24287398170E+03  0.24804675852E+03  0.00000000000E+00 0. -1.
         21    1    1    2  505  501 -0.24242706549E+02  0.83487279117E+02 -0.26350492668E+03  0.27747555024E+03  0.00000000000E+00 0. -1.
         21    1    1    2  506  504  0.53285717140E+02  0.32662439079E+02 -0.45053182360E+03  0.45484626705E+03  0.00000000000E+00 0.  1.
<scales pt_clust_3="14000.00000" pt_clust_4="50.39269" pt_clust_5="70.93351" pt_clust_6="91.04277"></scales>
<clustering>
<clus scale="   50.393">  2  4  1 -1</clus>
<clus scale="   70.934">  2  5  1 -1</clus>
<clus scale="   91.043">  2  6  1 -1</clus>
<clus scale="   91.043">  1  3  2 -1</clus>
</clustering>
</event>
<event>
 6    0  0.4469832E+002  0.8092536E+02  0.7546771E-02  0.1326446E+00
         21   -1    0    0  505  501  0.00000000000E+00  0.00000000000E+00  0.38028891382E+03  0.38028891382E+03  0.00000000000E+00 0. -1.
         21   -1    0    0  506  502 -0.00000000000E+00 -0.00000000000E+00 -0.95371732956E+02  0.95371732956E+02  0.00000000000E+00 0.  1.
         21    1    1    2  503  501 -0.21780118773E+02 -0.77723410136E+02  0.27949900426E+03  0.29092094363E+03  0.00000000000E+00 0. -1.
         21    1    1    2  504  502 -0.24696744437E+02  0.28777560607E+02  0.12316898020E+02  0.39872084935E+02  0.00000000000E+00 0.  1.
         21    1    1    2  505  504  0.77560962825E+02  0.63140810961E+02 -0.29047932069E+02  0.10414531828E+03  0.00000000000E+00 0.  1.
         21    1    1    2  506  503 -0.31084099615E+02 -0.14194961432E+02  0.22149210647E+02  0.40722299926E+02  0.00000000000E+00 0.  1.
<scales pt_clust_3="80.92536" pt_clust_4="39.78641" pt_clust_5="14000.00000" pt_clust_6="34.17189"></scales>
<clustering>
<clus scale="   34.172">  2  6  1 -1</clus>
<clus scale="   39.786">  2  4  1 -1</clus>
<clus scale="   80.925">  1  3  2 -1</clus>
<clus scale="   80.925">  1  3  2 -1</clus>
</clustering>
</event>
<event>
 6    0  0.4469832E+002  0.1085398E+03  0.7546771E-02  0.1263298E+00
         21   -1    0    0  503  501  0.00000000000E+00  0.00000000000E+00  0.97768824880E+02  0.97768824880E+02  0.00000000000E+00 0. -1.
         21   -1    0    0  505  502 -0.00000000000E+00 -0.00000000000E+00 -0.17549511376E+04  0.17549511376E+04  0.00000000000E+00 0.  1.
         21    1    1    2  503  506 -0.30887770838E+02  0.38284485037E+02 -0.68592279876E+02  0.84407683540E+02  0.00000000000E+00 0. -1.
         21    1    1    2  504  502 -0.28189692479E+02 -0.32101792247E+02 -0.30605124288E+03  0.30901868405E+03  0.00000000000E+00 0.  1.
         21    1    1    2  505  501  0.42377135480E+02  0.73435328833E+02  0.66531377490E+02  0.10777287842E+03  0.00000000000E+00 0. -1.
         21    1    1    2  506  504  0.16700327838E+02 -0.79618021623E+02 -0.13490701675E+04  0.13515207165E+04  0.00000000000E+00 0.  1.
<scales pt_clust_3="48.85675" pt_clust_4="42.72217" pt_clust_5="108.53980" pt_clust_6="14000.00000"></scales>
<clustering>
<clus scale="   42.722">  2  4  1 -1</clus>
<clus scale="   48.857">  1  3  2 -1</clus>
<clus scale="  108.540">  1  5  2 -1</clus>
<clus scale="   48.857">  1  3  2 -1</clus>
</clustering>
</event>
<event>
 6    0  0.4469832E+002  0.1475475E+03  0.7546771E-02  0.1203519E+00
         21   -1    0    0  505  501  0.00000000000E+00  0.00000000000E+00  0.19731954624E+03  0.19731954624E+03  0.00000000000E+00 0. -1.
         21   -1    0    0  506  502 -0.00000000000E+00 -0.00000000000E+00 -0.14878569626E+04  0.14878569626E+04  0.00000000000E+00 0. -1.
         21    1    1    2  503  501  0.57410580756E+02  0.32763727848E+01 -0.25620392669E+02  0.62953267761E+02  0.00000000000E+00 0.  1.
         21    1    1    2  504  502 -0.18827293684E+03  0.64834758078E+02 -0.11040049747E+04  0.11218187148E+04  0.00000000000E+00 0. -1.
         21    1    1    2  505  504  0.77015960361E+02 -0.63491798512E+02  0.15255839031E+03  0.18230943224E+03  0.00000000000E+00 0. -1.
         21    1    1    2  506  503  0.53846395721E+02 -0.46193323512E+01 -0.31347043923E+03  0.31809509401E+03  0.00000000000E+00 0. -1.
<scales pt_clust_3="59.52604" pt_clust_4="147.54755" pt_clust_5="14000.00000" pt_clust_6="54.04417"></scales>
<clustering>
<clus scale="   54.044">  2  6  1 -1</clus>
<clus scale="   59.526">  1  3  2 -1</clus>
<clus scale="  147.548">  2  4  1 -1</clus>
<clus scale="   59.526">  1  3  2 -1</clus>
</clustering>
</event>
<event>
 6    0  0.4469832E+002  0.8640017E+02  0.7546771E-02  0.1311811E+00
         21   -1    0    0  504  501  0.00000000000E+00  0.00000000000E+00  0.71084919447E+03  0.71084919447E+03  0.00000000000E+00 0. -1.
         21   -1    0    0  503  502 -0.00000000000E+00 -0.00000000000E+00 -0.67713147739E+03  0.67713147739E+03  0.00000000000E+00 0.  1.
         21    1    1    2  503  501  0.30991618799E+02  0.18938843107E+02 -0.90103597407E+02  0.97148435292E+02  0.00000000000E+00 0. -1.
         21    1    1    2  504  506  0.52008794834E+02 -0.69077122687E+02  0.69409952295E+03  0.69946458908E+03  0.00000000000E+00 0. -1.
         21    1    1    2  505  502  0.21498344148E+02  0.30500880190E+02 -0.27517040141E+03  0.27768909288E+03  0.00000000000E+00 0.  1.
         21    1    1    2  506  505 -0.10449875778E+03  0.19637399390E+02 -0.29510780705E+03  0.31367855460E+03  0.00000000000E+00 0.  1.
<scales pt_clust_3="36.32025" pt_clust_4="14000.00000" pt_clust_5="53.54558" pt_clust_6="86.40017"></scales>
<clustering>
<clus scale="   36.320">  2  3  1 -1</clus>
<clus scale="   53.546">  2  5  1 -1</clus>
<clus scale="   86.400">  2  6  1 -1</clus>
<clus scale="   86.400">  1  3  2 -1</clus>
</clustering>
</event>
<event>
 6    0  0.4469832E+002  0.1620117E+03  0.7546771E-02  0.1186444E+00
         21   -1    0    0  503  501  0.00000000000E+00  0.00000000000E+00  0.88298598311E+03  0.88298598311E+03  0.00000000000E+00 0.  1.
         21   -1    0    0  506  502 -0.00000000000E+00 -0.00000000000E+00 -0.26030556373E+03  0.26030556373E+03  0.00000000000E+00 0.  1.
         21    1    1    2  503  504  0.37820328889E+02  0.26800968347E+02  0.52925092125E+03  0.53127695868E+03  0.00000000000E+00 0.  1.
         21    1    1    2  504  505 -0.61441213050E+02  0.94955238775E+02  0.73235405764E+02  0.13474028607E+03  0.00000000000E+00 0.  1.
         21    1    1    2  505  502  0.14122859724E+02 -0.18332446538E+03 -0.18620058522E+03  0.26168296221E+03  0.00000000000E+00 0.  1.
         21    1    1    2  506  501  0.94980244365E+01  0.61568258261E+02  0.20639467759E+03  0.21559133988E+03  0.00000000000E+00 0.  1.
<scales pt_clust_3="46.35374" pt_clust_4="162.01168" pt_clust_5="14000.00000" pt_clust_6="83.98563"></scales>
<clustering>
<clus scale="   46.354">  1  3  2 -1</clus>
<clus scale="   83.986">  1  6  2 -1</clus>
<clus scale="  162.012">  1  4  2 -1</clus>
<clus scale="   46.354">  1  3  2 -1</clus>
</clustering>
</event>
<event>
 6    0  0.4469832E+002  0.8319843E+02  0.7546771E-02  0.1320212E+00
         21   -1    0    0  505  501  0.00000000000E+00  0.00000000000E+00  0.49351037567E+02  0.49351037567E+02  0.00000000000E+00 0.  1.
         21   -1    0    0  506  502 -0.00000000000E+00 -0.00000000000E+00 -0.64208286559E+03  0.64208286559E+03  0.00000000000E+00 0.  1.
         21    1    1    2  503  501 -0.21876092125E+02  0.25587956759E+02 -0.24191384357E+00  0.33665493611E+02  0.00000000000E+00 0.  1.
         21    1    1    2  504  503 -0.52821685820E+02  0.12035859615E+02 -0.15015598328E+03  0.15963023437E+03  0.00000000000E+00 0.  1.
         21    1    1    2  505  502  0.99640947567E+02 -0.76311887735E+02 -0.12378230683E+03  0.17627785489E+03  0.00000000000E+00 0.  1.
         21    1    1    2  506  504 -0.24943169621E+02  0.38688071360E+02 -0.31855162407E+03  0.32186032029E+03  0.00000000000E+00 0.  1.
<scales pt_clust_3="33.66462" pt_clust_4="83.19843" pt_clust_5="14000.00000" pt_clust_6="47.72324"></scales>
<clustering>
<clus scale="   33.665">  1  3  2 -1</clus>
<clus scale="   47.723">  2  6  1 -1</clus>
<clus scale="   83.198">  2  4  1 -1</clus>
<clus scale="   33.665">  1  3  2 -1</clus>
</clustering>
</event>
<event>
 6    0  0.4469832E+002  0.1591461E+03  0.7546771E-02  0.1189664E+00
         21   -1    0    0  505  501  0.00000000000E+00  0.00000000000E+00  0.10723001889E+04  0.10723001889E+04  0.00000000000E+00 0.  1.
         21   -1    0    0  506  502 -0.00000000000E+00 -0.00000000000E+00 -0.30082172642E+03  0.30082172642E+03  0.00000000000E+00 0.  1.
         21    1    1    2  503  502 -0.59596482046E+00  0.11819481621E+03  0.74147013837E+02  0.13952831044E+03  0.00000000000E+00 0.  1.
         21    1    1    2  504  501  0.35544426929E+02 -0.87358706759E+01  0.21978075722E+03  0.22280777133E+03  0.00000000000E+00 0.  1.
         21    1    1    2  505  503 -0.60814454585E+01  0.58041392316E+02  0.71577042763E+03  0.71814559267E+03  0.00000000000E+00 0.  1.
         21    1    1    2  506  504 -0.28867016650E+02 -0.16750033785E+03 -0.23821973624E+03  0.29264024085E+03  0.00000000000E+00 0.  1.
<scales pt_clust_3="159.14607" pt_clust_4="36.60221" pt_clust_5="56.01891" pt_clust_6="14000.00000"></scales>
<clustering>
<clus scale="   36.602">  1  4  2 -1</clus>
<clus scale="   56.019">  1  5  2 -1</clus>
<clus scale="  159.146">  1  3  2 -1</clus>
<clus scale="   36.602">  1  3  2 -1</clus>
</clustering>
</event>
<event>
 6    0  0.4469832E+002  0.1805747E+03  0.7546771E-02  0.1167248E+00
         21   -1    0    0  506  501  0.00000000000E+00  0.00000000000E+00  0.67970020315E+03  0.67970020315E+03  0.00000000000E+00 0.  1.
         21   -1    0    0  503  502 -0.00000000000E+00 -0.00000000000E+00 -0.15832502740E+03  0.15832502740E+03  0.00000000000E+00 0.  1.
         21    1    1    2  503  504  0.33692144515E+02  0.27614513571E+02  0.32919173581E+02  0.54602142367E+02  0.00000000000E+00 0.  1.
         21    1    1    2  504  501 -0.16299167300E+03  0.24129394543E+02  0.30763168924E+03  0.34897817894E+03  0.00000000000E+00 0.  1.
         21    1    1    2  505  502 -0.65571423628E+02  0.53089165200E+02 -0.62914443527E+02  0.10524399395E+03  0.00000000000E+00 0.  1.
         21    1    1    2  506  505  0.19487095211E+03 -0.10483307331E+03  0.24373875646E+03  0.32920091530E+03  0.00000000000E+00 0.  1.
<scales pt_clust_3="43.56285" pt_clust_4="180.57473" pt_clust_5="82.99062" pt_clust_6="14000.00000"></scales>
<clustering>
<clus scale="   43.563">  2  3  1 -1</clus>
<clus scale="   82.991">  2  5  1 -1</clus>
<clus scale="  180.575">  1  4  2 -1</clus>
<clus scale="  180.575">  1  3  2 -1</clus>
</clustering>
</event>
<event>
 6    0  0.4469832E+002  0.1106168E+03  0.7546771E-02  0.1259432E+00
         21   -1    0    0  505  501  0.00000000000E+00  0.00000000000E+00  0.21660315538E+04  0.21660315538E+04  0.00000000000E+00 0. -1.
         21   -1    0    0  504  502 -0.00000000000E+00 -0.00000000000E+00 -0.15504390166E+04  0.15504390166E+04  0.00000000000E+00 0. -1.
         21    1    1    2  503  501 -0.63981731984E+02 -0.11852136153E+02  0.21436278774E+04  0.21446152597E+04  0.00000000000E+00 0. -1.
         21    1    1    2  504  506 -0.79468172934E+02  0.35236139630E+02 -0.68481390882E+03  0.69030925371E+03  0.00000000000E+00 0. -1.
         21    1    1    2  505  502 -0.25782711298E+02 -0.18759384664E+02 -0.47724980746E+03  0.47831374790E+03  0.00000000000E+00 0. -1.
         21    1    1    2  506  503  0.16923261622E+03 -0.46246188123E+01 -0.36597162404E+03  0.40323230909E+03  0.00000000000E+00 0.  1.
<scales pt_clust_3="65.08347" pt_clust_4="14000.00000" pt_clust_5="31.88515" pt_clust_6="110.61681"></scales>
<clustering>
<clus scale="   31.885">  2  5  1 -1</clus>
<clus scale="   65.083">  1  3  2 -1</clus>
<clus scale="  110.617">  1  6  2 -1</clus>
<clus scale="   65.083">  1  3  2 -1</clus>
</clustering>
</event>
<event>
 6    0  0.4469832E+002  0.1636813E+03  0.7546771E-02  0.1184602E+00
         21   -1    0    0  505  501  0.00000000000E+00  0.00000000000E+00  0.25865295553E+03  0.25865295553E+03  0.00000000000E+00 0. -1.
         21   -1    0    0  506  502 -0.00000000000E+00 -0.00000000000E+00 -0.36977884679E+03  0.36977884679E+03  0.00000000000E+00 0.  1.
         21    1    1    2  503  504 -0.84355520501E+02  0.73228191780E+02 -0.19213386153E+03  0.22224680573E+03  0.00000000000E+00 0.  1.
         21    1    1    2  504  501  0.74039354043E+02  0.15963735230E+02  0.70773211777E+02  0.10366057252E+03  0.00000000000E+00 0. -1.
         21    1    1    2  505  502  0.67284678789E+02 -0.76843474432E+02  0.13236848413E+03  0.16719319111E+03  0.00000000000E+00 0. -1.
         21    1    1    2  506  503 -0.56968512331E+02 -0.12348452578E+02 -0.12213372563E+03  0.13533123296E+03  0.00000000000E+00 0.  1.
<scales pt_clust_3="53.17756" pt_clust_4="75.74079" pt_clust_5="146.19318" pt_clust_6="53.17756"></scales>
<clustering>
<clus scale="   53.178">  3  6 -1 -1</clus>
<clus scale="   75.741">  1  4  2 -1</clus>
<clus scale="  146.193">  1  5  2 -1</clus>
<clus scale="   75.741">  1  3  2 -1</clus>
</clustering>
</event>
<event>
 6    0  0.4469832E+002  0.2295754E+03  0.7546771E-02  0.1126939E+00
         21   -1    0    0  503  501  0.00000000000E+00  0.00000000000E+00  0.22069058571E+03  0.22069058571E+03  0.00000000000E+00 0. -1.
         21   -1    0    0  506  502 -0.00000000000E+00 -0.00000000000E+00 -0.45688935875E+03  0.45688935875E+03  0.00000000000E+00 0.  1.
         21    1    1    2  503  504  0.16447796154E+03 -0.11724727072E+03  0.86314743521E+02  0.21965918436E+03  0.00000000000E+00 0. -1.
         21    1    1    2  504  505 -0.88662133918E+02  0.10881035776E+02 -0.44818995995E+02  0.99940548990E+02  0.00000000000E+00 0.  1.
         21    1    1    2  505  502 -0.12731923484E+03  0.62810965665E+02 -0.24467572660E+03  0.28288092221E+03  0.00000000000E+00 0.  1.
         21    1    1    2  506  501  0.51503407220E+02  0.43555269283E+02 -0.33018793974E+02  0.75099288898E+02  0.00000000000E+00 0.  1.
<scales pt_clust_3="205.03230" pt_clust_4="81.57421" pt_clust_5="81.57421" pt_clust_6="67.45119"></scales>
<clustering>
<clus scale="   67.451">  2  6  1 -1</clus>
<clus scale="   81.574">  4  5 -1 -1</clus>
<clus scale="  205.032">  1  3  2 -1</clus>
<clus scale="  205.032">  1  3  2 -1</clus>
</clustering>
</event>
<event>
 6    0  0.4469832E+002  0.1204442E+03  0.7546771E-02  0.1242366E+00
         21   -1    0    0  504  501  0.00000000000E+00  0.00000000000E+00  0.86000356672E+02  0.86000356672E+02  0.00000000000E+00 0. -1.
         21   -1    0    0  506  502 -0.00000000000E+00 -0.00000000000E+00 -0.22404876518E+04  0.22404876518E+04  0.00000000000E+00 0.  1.
         21    1    1    2  503  501 -0.74043343437E+02 -0.13872441320E+02  0.52850442710E+02  0.92021902991E+02  0.00000000000E+00 0. -1.
         21    1    1    2  504  502  0.17385720497E+03  0.18076118797E+01 -0.63961922494E+03  0.66282904892E+03  0.00000000000E+00 0.  1.
         21    1    1    2  505  503 -0.66268908424E+02  0.61796728447E+01 -0.67603365336E+03  0.67930203669E+03  0.00000000000E+00 0.  1.
         21    1    1    2  506  505 -0.33544953112E+02  0.58851565956E+01 -0.89168485953E+03  0.89233501985E+03  0.00000000000E+00 0.  1.
<scales pt_clust_3="75.33168" pt_clust_4="110.96606" pt_clust_5="33.50137" pt_clust_6="33.50137"></scales>
<clustering>
<clus scale="   33.501">  5  6 -1 -1</clus>
<clus scale="   75.332">  1  3  2 -1</clus>
<clus scale="  110.966">  1  4  2 -1</clus>
<clus scale="   75.332">  1  3  2 -1</clus>
</clustering>
</event>
<event>
 6    0  0.4469832E+002  0.2076506E+03  0.7546771E-02  0.1143440E+00
         21   -1    0    0  505  501  0.00000000000E+00  0.00000000000E+00  0.63013942957E+03  0.63013942957E+03  0.00000000000E+00 0. -1.
         21   -1    0    0  506  502 -0.00000000000E+00 -0.00000000000E+00 -0.15473044440E+03  0.15473044440E+03  0.00000000000E+00 0. -1.
         21    1    1    2  503  501 -0.11404183230E+03 -0.13475020114E+03  0.23641373890E+03  0.29505018584E+03  0.00000000000E+00 0. -1.
         21    1    1    2  504  503  0.11331018130E+02 -0.71756435244E+02 -0.25956421507E+01  0.72691920658E+02  0.00000000000E+00 0. -1.
         21    1    1    2  505  502  0.13940133964E+03  0.23815533791E+03  0.24435850837E+03  0.36859432861E+03  0.00000000000E+00 0. -1.
         21    1    1    2  506  504 -0.36690525472E+02 -0.31648701526E+02 -0.27676199517E+01  0.48533438863E+02  0.00000000000E+00 0. -1.
<scales pt_clust_3="207.65058" pt_clust_4="121.10666" pt_clust_5="14000.00000" pt_clust_6="47.13635"></scales>
<clustering>
<clus scale="   47.136">  4  6 -1 -1</clus>
<clus scale="  121.107">  2  4  1 -1</clus>
<clus scale="  207.651">  1  3  2 -1</clus>
<clus scale="  207.651">  1  3  2 -1</clus>
</clustering>
</event>
<event>
 6    0  0.4469832E+002  0.1023999E+03  0.7546771E-02  0.1275329E+00
         21   -1    0    0  506  501  0.00000000000E+00  0.00000000000E+00  0.13484401966E+04  0.13484401966E+04  0.00000000000E+00 0.  1.
         21   -1    0    0  504  502 -0.00000000000E+00 -0.00000000000E+00 -0.18188827863E+04  0.18188827863E+04  0.00000000000E+00 0.  1.
         21    1    1    2  503  502 -0.72082026705E+02  0.18818583639E+02 -0.11310984241E+04  0.11335491179E+04  0.00000000000E+00 0.  1.
         21    1    1    2  504  501 -0.48974403164E+02 -0.20664340846E+02  0.11791333286E+04  0.11803308493E+04  0.00000000000E+00 0.  1.
         21    1    1    2  505  503  0.11452996000E+03  0.76017376701E+02 -0.67035075063E+03  0.68429955587E+03  0.00000000000E+00 0. -1.
         21    1    1    2  506  505  0.65264698732E+01 -0.74171619495E+02  0.15187325647E+03  0.16914345976E+03  0.00000000000E+00 0.  1.
<scales pt_clust_3="74.80467" pt_clust_4="53.15550" pt_clust_5="102.39987" pt_clust_6="14000.00000"></scales>
<clustering>
<clus scale="   53.155">  1  4  2 -1</clus>
<clus scale="   74.805">  2  3  1 -1</clus>
<clus scale="  102.400">  2  5  1 -1</clus>
<clus scale="   53.155">  1  3  2 -1</clus>
</clustering>
</event>
<event>
 6    0  0.4469832E+002  0.1484263E+03  0.7546771E-02  0.1202420E+00
         21   -1    0    0  506  501  0.00000000000E+00  0.00000000000E+00  0.10448598140E+04  0.10448598140E+04  0.00000000000E+00 0.  1.
         21   -1    0    0  505  502 -0.00000000000E+00 -0.00000000000E+00 -0.91824757399E+02  0.91824757399E+02  0.00000000000E+00 0. -1.
         21    1    1    2  503  502  0.13636847259E+03 -0.15265631499E+02  0.26951504187E+02  0.13984199441E+03  0.00000000000E+00 0. -1.
         21    1    1    2  504  503  0.49575099790E+02 -0.93204969583E+01  0.61606771311E+02  0.79623843502E+02  0.00000000000E+00 0. -1.
         21    1    1    2  505  501 -0.24396729944E+03  0.37605523640E+02  0.71032422439E+03  0.75199383133E+03  0.00000000000E+00 0.  1.
         21    1    1    2  506  504  0.58023727060E+02 -0.13019395183E+02  0.15415255671E+03  0.16522490216E+03  0.00000000000E+00 0. -1.
<scales pt_clust_3="14000.00000" pt_clust_4="33.49059" pt_clust_5="148.42633" pt_clust_6="115.75327"></scales>
<clustering>
<clus scale="   33.491">  4  6 -1 -1</clus>
<clus scale="  115.753">  1  4  2 -1</clus>
<clus scale="  148.426">  1  5  2 -1</clus>
<clus scale="  115.753">  1  3  2 -1</clus>
</clustering>
</event>
<event>
 6    0  0.4469832E+002  0.9173261E+02  0.7546771E-02  0.1298709E+00
         21   -1    0    0  505  501  0.00000000000E+00  0.00000000000E+00  0.72239866659E+02  0.72239866659E+02  0.00000000000E+00 0.  1.
         21   -1    0    0  504  502 -0.00000000000E+00 -0.00000000000E+00 -0.46152132930E+03  0.46152132930E+03  0.00000000000E+00 0.  1.
         21    1    1    2  503  506 -0.38939248056E+00  0.80159656323E+02 -0.17073121438E+03  0.18861301570E+03  0.00000000000E+00 0.  1.
         21    1    1    2  504  501 -0.40922043245E+02 -0.11526089859E+03 -0.41130169333E+02  0.12904022318E+03  0.00000000000E+00 0.  1.
         21    1    1    2  505  503  0.97477794394E+01  0.32346134311E+02  0.20667056973E+01  0.33846164942E+02  0.00000000000E+00 0.  1.
         21    1    1    2  506  502  0.31563656286E+02  0.27551079611E+01 -0.17948678463E+03  0.18226179214E+03  0.00000000000E+00 0.  1.
<scales pt_clust_3="91.73261" pt_clust_4="14000.00000" pt_clust_5="34.48827" pt_clust_6="31.68367"></scales>
<clustering>
<clus scale="   31.684">  2  6  1 -1</clus>
<clus scale="   34.488">  1  5  2 -1</clus>
<clus scale="   91.733">  2  3  1 -1</clus>
<clus scale="   34.488">  1  3  2 -1</clus>
</clustering>
</event>
<event>
 6    0  0.4469832E+002  0.1580492E+03  0.7546771E-02  0.1190917E+00
         21   -1    0    0  504  501  0.00000000000E+00  0.00000000000E+00  0.59550907398E+03  0.59550907398E+03  0.00000000000E+00 0.  1.
         21   -1    0    0  506  502 -0.00000000000E+00 -0.00000000000E+00 -0.66774029563E+02  0.66774029563E+02  0.00000000000E+00 0.  1.
         21    1    1    2  503  502  0.14716653358E+02 -0.66632703099E+02  0.68568911989E+02  0.96737752194E+02  0.00000000000E+00 0.  1.
         21    1    1    2  504  505  0.86056197712E+01 -0.43481702427E+02  0.20505342923E+03  0.20978947537E+03  0.00000000000E+00 0.  1.
         21    1    1    2  505  503  0.37241318992E+02 -0.56340885459E+02  0.97804549271E+02  0.11885680911E+03  0.00000000000E+00 0. -1.
         21    1    1    2  506  501 -0.60563592121E+02  0.16645529099E+03  0.15730815392E+03  0.23689906686E+03  0.00000000000E+00 0.  1.
<scales pt_clust_3="31.12372" pt_clust_4="44.32511" pt_clust_5="31.12372" pt_clust_6="154.92195"></scales>
<clustering>
<clus scale="   31.124">  3  5 -1 -1</clus>
<clus scale="   44.325">  1  4  2 -1</clus>
<clus scale="  154.922">  1  6  2 -1</clus>
<clus scale="   44.325">  1  3  2 -1</clus>
</clustering>
</event>
<event>
 6    0  0.4469832E+002  0.1001170E+03  0.7546771E-02  0.1280050E+00
         21   -1    0    0  505  501  0.00000000000E+00  0.00000000000E+00  0.13201489946E+04  0.13201489946E+04  0.00000000000E+00 0. -1.
         21   -1    0    0  504  502 -0.00000000000E+00 -0.00000000000E+00 -0.72753345369E+03  0.72753345369E+03  0.00000000000E+00 0. -1.
         21    1    1    2  503  502  0.24691118701E+02 -0.38847379574E+02 -0.24763152243E+03  0.25187326405E+03  0.00000000000E+00 0. -1.
         21    1    1    2  504  501 -0.73087942557E+02  0.86309102042E+02  0.11693160711E+04  0.11747728217E+04  0.00000000000E+00 0. -1.
         21    1    1    2  505  506 -0.20561712841E+02 -0.49235254668E+02  0.13849172382E+03  0.14841445989E+03  0.00000000000E+00 0. -1.
         21    1    1    2  506  503  0.68958536697E+02  0.17735322000E+01 -0.46756073156E+03  0.47262190269E+03  0.00000000000E+00 0. -1.
<scales pt_clust_3="46.03010" pt_clust_4="100.11701" pt_clust_5="53.63116" pt_clust_6="14000.00000"></scales>
<clustering>
<clus scale="   46.030">  2  3  1 -1</clus>
<clus scale="   53.631">  1  5  2 -1</clus>
<clus scale="  100.117">  1  4  2 -1</clus>
<clus scale="   53.631">  1  3  2 -1</clus>
</clustering>
</event>
<event>
 6    0  0.4469832E+002  0.1955288E+03  0.7546771E-02  0.1153567E+00
         21   -1    0    0  506  501  0.00000000000E+00  0.00000000000E+00  0.61313748739E+02  0.61313748739E+02  0.00000000000E+00 0. -1.
         21   -1    0    0  503  502 -0.00000000000E+00 -0.00000000000E+00 -0.61743175990E+03  0.61743175990E+03  0.00000000000E+00 0. -1.
         21    1    1    2  503  504 -0.54213658033E+02  0.24355008166E+02 -0.91248162421E+02  0.10889680567E+03  0.00000000000E+00 0. -1.
         21    1    1    2  504  505 -0.45516969680E+02  0.54417496029E+02 -0.74864295926E+02  0.10313932910E+03  0.00000000000E+00 0. -1.
         21    1    1    2  505  501 -0.58266165928E+02  0.87436338300E+01 -0.35346209872E+02  0.68707727199E+02  0.00000000000E+00 0. -1.
         21    1    1    2  506  502  0.15799679364E+03 -0.87516138025E+02 -0.35465934294E+03  0.39800164667E+03  0.00000000000E+00 0. -1.
<scales pt_clust_3="31.89957" pt_clust_4="41.68210" pt_clust_5="41.68210" pt_clust_6="180.61578"></scales>
<clustering>
<clus scale="   31.900">  3  4 -1 -1</clus>
<clus scale="   41.682">  3  5 -1 -1</clus>
<clus scale="  180.616">  2  6  1 -1</clus>
<clus scale="  195.529">  1  3  2 -1</clus>
</clustering>
</event>
<event>
 6    0  0.4469832E+002  0.7522683E+02  0.7546771E-02  0.1343170E+00
         21   -1    0    0  504  501  0.00000000000E+00  0.00000000000E+00  0.43038626687E+02  0.43038626687E+02  0.00000000000E+00 0. -1.
         21   -1    0    0  503  502 -0.00000000000E+00 -0.00000000000E+00 -0.96396094423E+03  0.96396094423E+03  0.00000000000E+00 0.  1.
         21    1    1    2  503  505 -0.87486680639E+02  0.77962154948E+02 -0.36517307050E+03  0.38351452164E+03  0.00000000000E+00 0.  1.
         21    1    1    2  504  506  0.40042519494E+02  0.96830245704E+01 -0.11988457917E+03  0.12676543952E+03  0.00000000000E+00 0.  1.
         21    1    1    2  505  501  0.17909256549E+02 -0.70040928134E+02 -0.14225272373E+02  0.73680604355E+02  0.00000000000E+00 0. -1.
         21    1    1    2  506  502  0.29534904597E+02 -0.17604251383E+02 -0.42163939550E+03  0.42303900541E+03  0.00000000000E+00 0.  1.
<scales pt_clust_3="14000.00000" pt_clust_4="47.11051" pt_clust_5="75.22683" pt_clust_6="34.38343"></scales>
<clustering>
<clus scale="   34.383">  2  6  1 -1</clus>
<clus scale="   47.111">  2  4  1 -1</clus>
<clus scale="   75.227">  1  5  2 -1</clus>
<clus scale="   75.227">  1  3  2 -1</clus>
</clustering>
</event>
<event>
 6    0  0.4469832E+002  0.9782116E+02  0.7546771E-02  0.1284946E+00
         21   -1    0    0  505  501  0.00000000000E+00  0.00000000000E+00  0.45025438738E+02  0.45025438738E+02  0.00000000000E+00 0. -1.
         21   -1    0    0  503  502 -0.00000000000E+00 -0.00000000000E+00 -0.60289465860E+03  0.60289465860E+03  0.00000000000E+00 0. -1.
         21    1    1    2  503  501  0.25515548662E+02  0.89392781115E+02 -0.26883621515E+03  0.28445566107E+03  0.00000000000E+00 0. -1.
         21    1    1    2  504  502  0.30495052279E+02 -0.16488880318E+02 -0.79972950778E+02  0.87163663551E+02  0.00000000000E+00 0.  1.
         21    1    1    2  505  506  0.41869698262E+02 -0.44921788243E+01 -0.86194902673E+01  0.42983100349E+02  0.00000000000E+00 0. -1.
         21    1    1    2  506  504 -0.97880299203E+02 -0.68411721973E+02 -0.20044056366E+03  0.23331767236E+03  0.00000000000E+00 0. -1.
<scales pt_clust_3="97.82116" pt_clust_4="34.66744" pt_clust_5="43.70867" pt_clust_6="14000.00000"></scales>
<clustering>
<clus scale="   34.667">  2  4  1 -1</clus>
<clus scale="   43.709">  1  5  2 -1</clus>
<clus scale="   97.821">  2  3  1 -1</clus>
<clus scale="   43.709">  1  3  2 -1</clus>
</clustering>
</event>
<event>
 6    0  0.4469832E+002  0.1449868E+03  0.7546771E-02  0.1206772E+00
         21   -1    0    0  504  501  0.00000000000E+00  0.00000000000E+00  0.56390434127E+02  0.56390434127E+02  0.00000000000E+00 0.  1.
         21   -1    0    0  503  502 -0.00000000000E+00 -0.00000000000E+00 -0.13741193699E+04  0.13741193699E+04  0.00000000000E+00 0.  1.
         21    1    1    2  503  501  0.15236346538E+03 -0.13533665406E+03 -0.48767681036E+03  0.52854451740E+03  0.00000000000E+00 0.  1.
         21    1    1    2  504  506 -0.46976638342E+02  0.12475404874E+03 -0.10932448736E+03  0.17240133631E+03  0.00000000000E+00 0.  1.
         21    1    1    2  505  502 -0.49315685129E+02 -0.14348252072E+02 -0.36207898628E+03  0.36570357046E+03  0.00000000000E+00 0.  1.
         21    1    1    2  506  505 -0.56071141911E+02  0.24930857389E+02 -0.35864865174E+03  0.36386037982E+03  0.00000000000E+00 0.  1.
<scales pt_clust_3="144.98684" pt_clust_4="14000.00000" pt_clust_5="36.55875" pt_clust_6="113.20437"></scales>
<clustering>
<clus scale="   36.559">  5  6 -1 -1</clus>
<clus scale="  113.204">  2  5  1 -1</clus>
<clus scale="  144.987">  2  3  1 -1</clus>
<clus scale="  144.987">  1  3  2 -1</clus>
</clustering>
</event>
<event>
 6    0  0.4469832E+002  0.7797649E+02  0.7546771E-02  0.1334894E+00
         21   -1    0    0  503  501  0.00000000000E+00  0.00000000000E+00  0.15456355694E+03  0.15456355694E+03  0.00000000000E+00 0. -1.
         21   -1    0    0  505  502 -0.00000000000E+00 -0.00000000000E+00 -0.24047091132E+03  0.24047091132E+03  0.00000000000E+00 0.  1.
         21    1    1    2  503  502  0.66489398514E+02  0.46433238143E+02  0.24702827382E+02  0.84776856511E+02  0.00000000000E+00 0. -1.
         21    1    1    2  504  506  0.29002790466E+02 -0.34813114052E+02 -0.66252627068E+02  0.80265343444E+02  0.00000000000E+00 0.  1.
         21    1    1    2  505  504 -0.95807848085E+01 -0.34456058138E+02 -0.11245979483E+03  0.11800939299E+03  0.00000000000E+00 0.  1.
         21    1    1    2  506  501 -0.85911404172E+02  0.22835934047E+02  0.68102240139E+02  0.11198287531E+03  0.00000000000E+00 0. -1.
<scales pt_clust_3="77.97649" pt_clust_4="59.74149" pt_clust_5="35.76327" pt_clust_6="14000.00000"></scales>
<clustering>
<clus scale="   35.763">  2  5  1 -1</clus>
<clus scale="   59.741">  2  4  1 -1</clus>
<clus scale="   77.976">  2  3  1 -1</clus>
<clus scale="   77.976">  1  3  2 -1</clus>
</clustering>
</event>
<event>
 6    0  0.4469832E+002  0.1695438E+03  0.7546771E-02  0.1178324E+00
         21   -1    0    0  506  501  0.00000000000E+00  0.00000000000E+00  0.82408216080E+03  0.82408216080E+03  0.00000000000E+00 0. -1.
         21   -1    0    0  504  502 -0.00000000000E+00 -0.00000000000E+00 -0.10344533611E+03  0.10344533611E+03  0.00000000000E+00 0. -1.
         21    1    1    2  503  505  0.12329131781E+02 -0.39481035382E+02  0.59853424496E+01  0.41792152009E+02  0.00000000000E+00 0. -1.
         21    1    1    2  504  501  0.41505708856E+02  0.53667561557E+02  0.18434420004E+03  0.19643246961E+03  0.00000000000E+00 0. -1.
         21    1    1    2  505  502  0.10990051937E+03 -0.65399432463E+02 -0.41816945853E+01  0.12795583806E+03  0.00000000000E+00 0. -1.
         21    1    1    2  506  503 -0.16373536001E+03  0.51212906287E+02  0.53448897679E+03  0.56134703722E+03  0.00000000000E+00 0. -1.
<scales pt_clust_3="30.47259" pt_clust_4="67.84490" pt_clust_5="30.47259" pt_clust_6="160.85386"></scales>
<clustering>
<clus scale="   30.473">  3  5 -1 -1</clus>
<clus scale="   67.845">  1  4  2 -1</clus>
<clus scale="  160.854">  1  6  2 -1</clus>
<clus scale="   67.845">  1  3  2 -1</clus>
</clustering>
</event>
<event>
 6    0  0.4469832E+002  0.1276797E+03  0.7546771E-02  0.1230940E+00
         21   -1    0    0  505  501  0.00000000000E+00  0.00000000000E+00  0.45864372212E+03  0.45864372212E+03  0.00000000000E+00 0. -1.
         21   -1    0    0  506  502 -0.00000000000E+00 -0.00000000000E+00 -0.41584953183E+03  0.41584953183E+03  0.00000000000E+00 0.  1.
         21    1    1    2  503  501  0.28699354111E+02 -0.61179358352E+02 -0.29439887670E+03  0.30205507017E+03  0.00000000000E+00 0.  1.
         21    1    1    2  504  502  0.76203191547E+01  0.10929121549E+03  0.22891070878E+03  0.25377697224E+03  0.00000000000E+00 0. -1.
         21    1    1    2  505  504 -0.73760988762E+02 -0.13362649347E+02  0.20005045584E+03  0.21363386609E+03  0.00000000000E+00 0. -1.
         21    1    1    2  506  503  0.37441315497E+02 -0.34749207787E+02 -0.91768097635E+02  0.10502734545E+03  0.00000000000E+00 0. -1.
<scales pt_clust_3="47.73402" pt_clust_4="115.27278" pt_clust_5="74.96162" pt_clust_6="47.73402"></scales>
<clustering>
<clus scale="   47.734">  3  6 -1 -1</clus>
<clus scale="   74.962">  1  5  2 -1</clus>
<clus scale="  115.273">  1  4  2 -1</clus>
<clus scale="   74.962">  1  3  2 -1</clus>
</clustering>
</event>
<event>
 6    0  0.4469832E+002  0.1286072E+03  0.7546771E-02  0.1229537E+00
         21   -1    0    0  503  501  0.00000000000E+00  0.00000000000E+00  0.26098633239E+02  0.26098633239E+02  0.00000000000E+00 0. -1.
         21   -1    0    0  506  502 -0.00000000000E+00 -0.00000000000E+00 -0.17041892243E+04  0.17041892243E+04  0.00000000000E+00 0. -1.
         21    1    1    2  503  504 -0.32550410534E+02  0.11965728338E+03 -0.20299571212E+03  0.23787529050E+03  0.00000000000E+00 0. -1.
         21    1    1    2  504  505 -0.37055260282E+02 -0.51705634661E+02 -0.53967134137E+03  0.54340750976E+03  0.00000000000E+00 0. -1.
         21    1    1    2  505  502 -0.87648500034E+00 -0.67021106330E+02 -0.70142727593E+03  0.70462246653E+03  0.00000000000E+00 0. -1.
         21    1    1    2  506  501  0.70482155816E+02 -0.93054238643E+00 -0.23399626161E+03  0.24438259072E+03  0.00000000000E+00 0. -1.
<scales pt_clust_3="121.74405" pt_clust_4="40.38151" pt_clust_5="40.38151" pt_clust_6="70.48830"></scales>
<clustering>
<clus scale="   40.382">  4  5 -1 -1</clus>
<clus scale="   70.488">  1  6  2 -1</clus>
<clus scale="  121.744">  1  3  2 -1</clus>
<clus scale="   70.488">  1  3  2 -1</clus>
</clustering>
</event>
<event>
 6    0  0.4469832E+002  0.1768428E+03  0.7546771E-02  0.1170894E+00
         21   -1    0    0  505  501  0.00000000000E+00  0.00000000000E+00  0.20152806659E+03  0.20152806659E+03  0.00000000000E+00 0.  1.
         21   -1    0    0  503  502 -0.00000000000E+00 -0.00000000000E+00 -0.24540152159E+03  0.24540152159E+03  0.00000000000E+00 0.  1.
         21    1    1    2  503  506  0.44728358596E+02 -0.27699307836E+02 -0.65209387403E+02  0.83786287200E+02  0.00000000000E+00 0. -1.
         21    1    1    2  504  502  0.75212341266E+02  0.50476653964E+02 -0.24465541756E+02  0.93826177624E+02  0.00000000000E+00 0.  1.
         21    1    1    2  505  504  0.33132005970E+02  0.70117441127E+02 -0.17320249588E+02  0.79461792175E+02  0.00000000000E+00 0.  1.
         21    1    1    2  506  501 -0.15307270583E+03 -0.92894787254E+02  0.63121723752E+02  0.18985533118E+03  0.00000000000E+00 0.  1.
<scales pt_clust_3="52.61062" pt_clust_4="41.39295" pt_clust_5="41.39295" pt_clust_6="171.09103"></scales>
<clustering>
<clus scale="   41.393">  4  5 -1 -1</clus>
<clus scale="   52.611">  2  3  1 -1</clus>
<clus scale="  171.091">  1  6  2 -1</clus>
<clus scale="  171.091">  1  3  2 -1</clus>
</clustering>
</event>
<event>
 6    0  0.4469832E+002  0.2466334E+03  0.7546771E-02  0.1115451E+00
         21   -1    0    0  504  501  0.00000000000E+00  0.00000000000E+00  0.39031234947E+03  0.39031234947E+03  0.00000000000E+00 0. -1.
         21   -1    0    0  503  502 -0.00000000000E+00 -0.00000000000E+00 -0.21081888457E+03  0.21081888457E+03  0.00000000000E+00 0. -1.
         21    1    1    2  503  506 -0.11019253279E+03 -0.18192941169E+03  0.10456444282E+03  0.23701145083E+03  0.00000000000E+00 0. -1.
         21    1    1    2  504  502  0.14360152695E+03  0.18205381410E+03 -0.11613108988E+02  0.23216342105E+03  0.00000000000E+00 0. -1.
         21    1    1    2  505  501 -0.49229604517E+02  0.34536046793E+02  0.63375806532E+02  0.87365813351E+02  0.00000000000E+00 0. -1.
         21    1    1    2  506  505  0.15820610353E+02 -0.34660449199E+02  0.23166324538E+02  0.44590548810E+02  0.00000000000E+00 0. -1.
<scales pt_clust_3="35.83112" pt_clust_4="231.64781" pt_clust_5="60.13562" pt_clust_6="35.83112"></scales>
<clustering>
<clus scale="   35.831">  3  6 -1 -1</clus>
<clus scale="   60.136">  1  5  2 -1</clus>
<clus scale="  231.648">  2  4  1 -1</clus>
<clus scale="   60.136">  1  3  2 -1</clus>
</clustering>
</event>
<event>
 6    0  0.4469832E+002  0.1142963E+03  0.7546771E-02  0.1252814E+00
         21   -1    0    0  504  501  0.00000000000E+00  0.00000000000E+00  0.51878186547E+03  0.51878186547E+03  0.00000000000E+00 0.  1.
         21   -1    0    0  503  502 -0.00000000000E+00 -0.00000000000E+00 -0.17510150649E+03  0.17510150649E+03  0.00000000000E+00 0.  1.
         21    1    1    2  503  506  0.57677569088E+02  0.69860871950E+02  0.11257164754E+03  0.14449781741E+03  0.00000000000E+00 0.  1.
         21    1    1    2  504  505  0.21471646871E+02 -0.88276172641E+02  0.42881174280E+02  0.10046148209E+03  0.00000000000E+00 0.  1.
         21    1    1    2  505  502  0.35989784503E+02 -0.55228526053E+02 -0.10581515065E+03  0.12466876427E+03  0.00000000000E+00 0.  1.
         21    1    1    2  506  501 -0.11513900046E+03  0.73643826745E+02  0.29404268781E+03  0.32425530820E+03  0.00000000000E+00 0.  1.
<scales pt_clust_3="86.98029" pt_clust_4="114.29628" pt_clust_5="65.92006" pt_clust_6="14000.00000"></scales>
<clustering>
<clus scale="   65.920">  2  5  1 -1</clus>
<clus scale="   86.980">  2  3  1 -1</clus>
<clus scale="  114.296">  2  4  1 -1</clus>
<clus scale="  114.296">  1  3  2 -1</clus>
</clustering>
</event>
<event>
 6    0  0.4469832E+002  0.2483328E+03  0.7546771E-02  0.1114363E+00
         21   -1    0    0  505  501  0.00000000000E+00  0.00000000000E+00  0.97954145355E+02  0.97954145355E+02  0.00000000000E+00 0.  1.
         21   -1    0    0  506  502 -0.00000000000E+00 -0.00000000000E+00 -0.14924950540E+04  0.14924950540E+04  0.00000000000E+00 0.  1.
         21    1    1    2  503  504  0.47980970790E+02 -0.26630979647E+02 -0.78639157089E+02  0.95893167966E+02  0.00000000000E+00 0.  1.
         21    1    1    2  504  501  0.10499194060E+01 -0.66771071950E+02  0.39080558664E+02  0.77374210468E+02  0.00000000000E+00 0.  1.
         21    1    1    2  505  502 -0.22612100017E+03  0.68722653503E+02 -0.78738338648E+03  0.82208643531E+03  0.00000000000E+00 0.  1.
         21    1    1    2  506  503  0.17709010997E+03  0.24679398093E+02 -0.56759892373E+03  0.59509538560E+03  0.00000000000E+00 0.  1.
<scales pt_clust_3="53.08164" pt_clust_4="66.77933" pt_clust_5="229.10356" pt_clust_6="53.08164"></scales>
<clustering>
<clus scale="   53.082">  3  6 -1 -1</clus>
<clus scale="   66.779">  1  4  2 -1</clus>
<clus scale="  229.104">  2  5  1 -1</clus>
<clus scale="   66.779">  1  3  2 -1</clus>
</clustering>
</event>
<event>
 6    0  0.4469832E+002  0.1721497E+03  0.7546771E-02  0.1175624E+00
         21   -1    0    0  503  501  0.00000000000E+00  0.00000000000E+00  0.14026214502E+03  0.14026214502E+03  0.00000000000E+00 0.  1.
         21   -1    0    0  505  502 -0.00000000000E+00 -0.00000000000E+00 -0.74776048774E+03  0.74776048774E+03  0.00000000000E+00 0.  1.
         21    1    1    2  503  506 -0.17853329165E+02  0.43749104921E+02  0.94412500798E+02  0.10557672968E+03  0.00000000000E+00 0.  1.
         21    1    1    2  504  502  0.57226400782E+02 -0.95062151159E+02 -0.40095913566E+03  0.41602872737E+03  0.00000000000E+00 0.  1.
         21    1    1    2  505  501 -0.10695227177E+03  0.73691207205E+02 -0.14308520998E+03  0.19324223082E+03  0.00000000000E+00 0.  1.
         21    1    1    2  506  504  0.67579200156E+02 -0.22378160967E+02 -0.15786649788E+03  0.17317494488E+03  0.00000000000E+00 0.  1.
<scales pt_clust_3="47.25173" pt_clust_4="59.49014" pt_clust_5="155.33613" pt_clust_6="59.49014"></scales>
<clustering>
<clus scale="   47.252">  1  3  2 -1</clus>
<clus scale="   59.490">  4  6 -1 -1</clus>
<clus scale="  155.336">  1  5  2 -1</clus>
<clus scale="   47.252">  1  3  2 -1</clus>
</clustering>
</event>
<event>
 6    0  0.4469832E+002  0.2590444E+03  0.7546771E-02  0.1107719E+00
         21   -1    0    0  505  501  0.00000000000E+00  0.00000000000E+00  0.28472138788E+03  0.28472138788E+03  0.00000000000E+00 0. -1.
         21   -1    0    0  503  502 -0.00000000000E+00 -0.00000000000E+00 -0.29992394942E+03  0.29992394942E+03  0.00000000000E+00 0. -1.
         21    1    1    2  503  501  0.25489666529E+03 -0.35933882958E+02  0.31568105717E+02  0.25934552091E+03  0.00000000000E+00 0. -1.
         21    1    1    2  504  506 -0.13011503837E+03  0.22680436444E+01  0.57379276382E+02  0.14222323506E+03  0.00000000000E+00 0. -1.
         21    1    1    2  505  504 -0.93738452932E+02 -0.57767630289E+01 -0.41175663497E+02  0.10254610579E+03  0.00000000000E+00 0. -1.
         21    1    1    2  506  502 -0.31043173981E+02  0.39442602342E+02 -0.62974280142E+02  0.80530475534E+02  0.00000000000E+00 0. -1.
<scales pt_clust_3="239.95254" pt_clust_4="85.17118" pt_clust_5="85.17118" pt_clust_6="50.19360"></scales>
<clustering>
<clus scale="   50.194">  2  6  1 -1</clus>
<clus scale="   85.171">  4  5 -1 -1</clus>
<clus scale="  239.953">  2  3  1 -1</clus>
<clus scale="  259.044">  1  3  2 -1</clus>
</clustering>
</event>
<event>
 6    0  0.4469832E+002  0.2486373E+03  0.7546771E-02  0.1114169E+00
         21   -1    0    0  503  501  0.00000000000E+00  0.00000000000E+00  0.54828925267E+03  0.54828925267E+03  0.00000000000E+00 0.  1.
         21   -1    0    0  505  502 -0.00000000000E+00 -0.00000000000E+00 -0.99853688646E+03  0.99853688646E+03  0.00000000000E+00 0.  1.
         21    1    1    2  503  506 -0.13885074315E+01 -0.39071557250E+02  0.38473051805E+03  0.38671189024E+03  0.00000000000E+00 0.  1.
         21    1    1    2  504  501  0.10636897217E+02  0.12180050874E+03  0.51694762802E+02  0.13274357240E+03  0.00000000000E+00 0.  1.
         21    1    1    2  505  504  0.53167046896E+02  0.13357519171E+03 -0.37102817929E+02  0.14847789672E+03  0.00000000000E+00 0.  1.
         21    1    1    2  506  502 -0.62415436681E+02 -0.21630414320E+03 -0.84957009671E+03  0.87889277977E+03  0.00000000000E+00 0.  1.
<scales pt_clust_3="39.09622" pt_clust_4="85.51376" pt_clust_5="85.51376" pt_clust_6="228.55112"></scales>
<clustering>
<clus scale="   39.096">  1  3  2 -1</clus>
<clus scale="   85.514">  4  5 -1 -1</clus>
<clus scale="  228.551">  2  6  1 -1</clus>
<clus scale="   39.096">  1  3  2 -1</clus>
</clustering>
</event>
<event>
 6    0  0.4469832E+002  0.8817573E+02  0.7546771E-02  0.1307331E+00
         21   -1    0    0  505  501  0.00000000000E+00  0.00000000000E+00  0.14742322421E+03  0.14742322421E+03  0.00000000000E+00 0. -1.
         21   -1    0    0  503  502 -0.00000000000E+00 -0.00000000000E+00 -0.77072626903E+03  0.77072626903E+03  0.00000000000E+00 0. -1.
         21    1    1    2  503  506 -0.30174656325E+02 -0.30935833379E+02 -0.57077898741E+02  0.71592053999E+02  0.00000000000E+00 0.  1.
         21    1    1    2  504  502  0.12490507012E+03  0.17442675673E+02 -0.67300256167E+03  0.68471743916E+03  0.00000000000E+00 0. -1.
         21    1    1    2  505  504 -0.56825885776E+02 -0.11630608911E+02  0.15779334614E+02  0.60111893655E+02  0.00000000000E+00 0. -1.
         21    1    1    2  506  501 -0.37904528019E+02  0.25123766617E+02  0.90998080984E+02  0.10172810642E+03  0.00000000000E+00 0. -1.
<scales pt_clust_3="43.21499" pt_clust_4="88.17573" pt_clust_5="14000.00000" pt_clust_6="45.53715"></scales>
<clustering>
<clus scale="   43.215">  2  3  1 -1</clus>
<clus scale="   45.537">  1  6  2 -1</clus>
<clus scale="   88.176">  2  4  1 -1</clus>
<clus scale="   45.537">  1  3  2 -1</clus>
</clustering>
</event>
<event>
 6    0  0.4469832E+002  0.7627971E+02  0.7546771E-02  0.1339953E+00
         21   -1    0    0  506  501  0.00000000000E+00  0.00000000000E+00  0.20672527970E+03  0.20672527970E+03  0.00000000000E+00 0. -1.
         21   -1    0    0  503  502 -0.00000000000E+00 -0.00000000000E+00 -0.83266410239E+03  0.83266410239E+03  0.00000000000E+00 0. -1.
         21    1    1    2  503  504  0.84594637407E+02 -0.74040798302E+02 -0.71750572788E+03  0.72625943163E+03  0.00000000000E+00 0. -1.
         21    1    1    2  504  501 -0.61749644825E+02  0.42860609376E+01  0.10279038243E+03  0.11998854810E+03  0.00000000000E+00 0. -1.
         21    1    1    2  505  502 -0.29108314437E+02  0.20723232639E+02 -0.91857572434E+02  0.98562467268E+02  0.00000000000E+00 0. -1.
         21    1    1    2  506  505  0.62633218552E+01  0.49031504725E+02  0.80634095187E+02  0.94578935090E+02  0.00000000000E+00 0. -1.
<scales pt_clust_3="14000.00000" pt_clust_4="76.27971" pt_clust_5="35.73159" pt_clust_6="49.59030"></scales>
<clustering>
<clus scale="   35.732">  2  5  1 -1</clus>
<clus scale="   49.590">  1  6  2 -1</clus>
<clus scale="   76.280">  1  4  2 -1</clus>
<clus scale="   49.590">  1  3  2 -1</clus>
</clustering>
</event>
<event>
 6    0  0.4469832E+002  0.1011649E+03  0.7546771E-02  0.1277865E+00
         21   -1    0    0  504  501  0.00000000000E+00  0.00000000000E+00  0.35009329280E+02  0.35009329280E+02  0.00000000000E+00 0. -1.
         21   -1    0    0  505  502 -0.00000000000E+00 -0.00000000000E+00 -0.12679500518E+04  0.12679500518E+04  0.00000000000E+00 0. -1.
         21    1    1    2  503  502 -0.21589654722E+02  0.22639395842E+02 -0.18043880436E+03  0.18313060245E+03  0.00000000000E+00 0.  1.
         21    1    1    2  504  506  0.25585927418E+02  0.82266642355E+02 -0.24704779505E+03  0.26163916596E+03  0.00000000000E+00 0. -1.
         21    1    1    2  505  501  0.47473113712E+02 -0.10754164101E+03 -0.11052677758E+03  0.16135386466E+03  0.00000000000E+00 0. -1.
         21    1    1    2  506  503 -0.51469386408E+02  0.26356028169E+01 -0.69492734549E+03  0.69683574797E+03  0.00000000000E+00 0. -1.
<scales pt_clust_3="31.28347" pt_clust_4="14000.00000" pt_clust_5="101.16493" pt_clust_6="67.51338"></scales>
<clustering>
<clus scale="   31.283">  2  3  1 -1</clus>
<clus scale="   67.513">  2  6  1 -1</clus>
<clus scale="  101.165">  1  5  2 -1</clus>
<clus scale="  101.165">  1  3  2 -1</clus>
</clustering>
</event>
<event>
 6    0  0.4469832E+002  0.7606615E+02  0.7546771E-02  0.1340601E+00
         21   -1    0    0  504  501  0.00000000000E+00  0.00000000000E+00  0.48235911336E+03  0.48235911336E+03  0.00000000000E+00 0.  1.
         21   -1    0    0  503  502 -0.00000000000E+00 -0.00000000000E+00 -0.26777540414E+03  0.26777540414E+03  0.00000000000E+00 0. -1.
         21    1    1    2  503  506 -0.60806576971E+02 -0.22119916013E+02 -0.56064134854E+02  0.85614938558E+02  0.00000000000E+00 0. -1.
         21    1    1    2  504  505  0.12379307672E+03 -0.55754894959E+02  0.22060843847E+03  0.25903941260E+03  0.00000000000E+00 0.  1.
         21    1    1    2  505  502 -0.14317283915E+02  0.30677325759E+02 -0.17097857485E+03  0.17429789440E+03  0.00000000000E+00 0. -1.
         21    1    1    2  506  501 -0.48669215837E+02  0.47197485212E+02  0.22101798045E+03  0.23118227195E+03  0.00000000000E+00 0.  1.
<scales pt_clust_3="14000.00000" pt_clust_4="76.06615" pt_clust_5="33.85385" pt_clust_6="69.48886"></scales>
<clustering>
<clus scale="   33.854">  2  5  1 -1</clus>
<clus scale="   69.489">  1  6  2 -1</clus>
<clus scale="   76.066">  1  4  2 -1</clus>
<clus scale="   69.489">  1  3  2 -1</clus>
</clustering>
</event>
<event>
 6    0  0.4469832E+002  0.1615793E+03  0.7546771E-02  0.1186925E+00
         21   -1    0    0  503  501  0.00000000000E+00  0.00000000000E+00  0.21116291609E+03  0.21116291609E+03  0.00000000000E+00 0.  1.
         21   -1    0    0  506  502 -0.00000000000E+00 -0.00000000000E+00 -0.46423971871E+03  0.46423971871E+03  0.00000000000E+00 0. -1.
         21    1    1    2  503  505 -0.13766316368E+03 -0.13102578463E+03  0.11183122644E+03  0.22051105659E+03  0.00000000000E+00 0.  1.
         21    1    1    2  504  502  0.40893303764E+02  0.84718101463E+02 -0.28435218649E+03  0.29950890633E+03  0.00000000000E+00 0. -1.
         21    1    1    2  505  504  0.37635447476E+02  0.41406911500E+02 -0.77994714558E+02  0.95990284538E+02  0.00000000000E+00 0. -1.
         21    1    1    2  506  501  0.59134412442E+02  0.49007716663E+01 -0.25611280171E+01  0.59392387344E+02  0.00000000000E+00 0.  1.
<scales pt_clust_3="151.84798" pt_clust_4="42.59358" pt_clust_5="42.59358" pt_clust_6="59.33714"></scales>
<clustering>
<clus scale="   42.594">  4  5 -1 -1</clus>
<clus scale="   59.337">  1  6  2 -1</clus>
<clus scale="  151.848">  1  3  2 -1</clus>
<clus scale="   59.337">  1  3  2 -1</clus>
</clustering>
</event>
<event>
 6    0  0.4469832E+002  0.2504312E+03  0.7546771E-02  0.1113033E+00
         21   -1    0    0  503  501  0.00000000000E+00  0.00000000000E+00  0.40175505055E+03  0.40175505055E+03  0.00000000000E+00 0.  1.
         21   -1    0    0  506  502 -0.00000000000E+00 -0.00000000000E+00 -0.20506194286E+04  0.20506194286E+04  0.00000000000E+00 0. -1.
         21    1    1    2  503  505  0.23985815598E+03  0.13041754135E+03  0.33016466434E+03  0.42842662810E+03  0.00000000000E+00 0.  1.
         21    1    1    2  504  502 -0.16909266669E+03 -0.10321071117E+03 -0.18296082279E+04  0.18403018906E+04  0.00000000000E+00 0. -1.
         21    1    1    2  505  504 -0.32604889065E+02 -0.19150255853E+02 -0.13788221403E+03  0.14297313047E+03  0.00000000000E+00 0.  1.
         21    1    1    2  506  501 -0.38160600226E+02 -0.80565743281E+01 -0.11538600442E+02  0.40672829993E+02  0.00000000000E+00 0. -1.
<scales pt_clust_3="236.66160" pt_clust_4="35.77999" pt_clust_5="35.77999" pt_clust_6="39.00179"></scales>
<clustering>
<clus scale="   35.780">  4  5 -1 -1</clus>
<clus scale="   39.002">  1  6  2 -1</clus>
<clus scale="  236.662">  1  3  2 -1</clus>
<clus scale="   39.002">  1  3  2 -1</clus>
</clustering>
</event>
<event>
 6    0  0.4469832E+002  0.7695361E+02  0.7546771E-02  0.1337926E+00
         21   -1    0    0  505  501  0.00000000000E+00  0.00000000000E+00  0.15216523170E+02  0.15216523170E+02  0.00000000000E+00 0. -1.
         21   -1    0    0  506  502 -0.00000000000E+00 -0.00000000000E+00 -0.22433739400E+04  0.22433739400E+04  0.00000000000E+00 0. -1.
         21    1    1    2  503  504 -0.52203505181E+02  0.12036747545E+02 -0.24868841642E+03  0.25439343095E+03  0.00000000000E+00 0. -1.
         21    1    1    2  504  502 -0.64606931572E+02 -0.25035717048E+02 -0.10963834202E+04  0.10985706381E+04  0.00000000000E+00 0. -1.
         21    1    1    2  505  503 -0.10626595745E+01  0.36796927035E+02 -0.41422379627E+02  0.55416212596E+02  0.00000000000E+00 0. -1.
         21    1    1    2  506  501  0.11787309633E+03 -0.23797957532E+02 -0.84166320059E+03  0.85021018157E+03  0.00000000000E+00 0. -1.
<scales pt_clust_3="58.13101" pt_clust_4="14000.00000" pt_clust_5="36.81227" pt_clust_6="76.95361"></scales>
<clustering>
<clus scale="   36.812">  1  5  2 -1</clus>
<clus scale="   58.131">  1  3  2 -1</clus>
<clus scale="   76.954">  1  6  2 -1</clus>
<clus scale="   36.812">  1  3  2 -1</clus>
</clustering>
</event>
<event>
 6    0  0.4469832E+002  0.6724597E+02  0.7546771E-02  0.1369717E+00
         21   -1    0    0  505  501  0.00000000000E+00  0.00000000000E+00  0.57926463629E+02  0.57926463629E+02  0.00000000000E+00 0.  1.
         21   -1    0    0  503  502 -0.00000000000E+00 -0.00000000000E+00 -0.87723435733E+03  0.87723435733E+03  0.00000000000E+00 0.  1.
         21    1    1    2  503  501 -0.58038329650E+02 -0.34470078424E+02 -0.14358212324E+03  0.15865831252E+03  0.00000000000E+00 0.  1.
         21    1    1    2  504  506 -0.75557790363E+01 -0.68615008436E+02 -0.62792946884E+02  0.93317004656E+02  0.00000000000E+00 0.  1.
         21    1    1    2  505  504  0.49676621111E+02  0.51109346064E+02 -0.35277781472E+01  0.71360893764E+02  0.00000000000E+00 0.  1.
         21    1    1    2  506  502  0.15917487576E+02  0.51975740795E+02 -0.60940504543E+03  0.61182461002E+03  0.00000000000E+00 0.  1.
<scales pt_clust_3="49.27167" pt_clust_4="67.24597" pt_clust_5="14000.00000" pt_clust_6="54.35848"></scales>
<clustering>
<clus scale="   54.358">  2  6  1 -1</clus>
<clus scale="   49.272">  2  3  1 -1</clus>
<clus scale="   67.246">  2  4  1 -1</clus>
<clus scale="   67.246">  1  3  2 -1</clus>
</clustering>
</event>
<event>
 6    0  0.4469832E+002  0.1305969E+03  0.7546771E-02  0.1226573E+00
         21   -1    0    0  503  501  0.00000000000E+00  0.00000000000E+00  0.52996338440E+03  0.52996338440E+03  0.00000000000E+00 0.  1.
         21   -1    0    0  505  502 -0.00000000000E+00 -0.00000000000E+00 -0.61902344451E+03  0.61902344451E+03  0.00000000000E+00 0. -1.
         21    1    1    2  503  502  0.26790427346E+01 -0.10391069535E+03  0.28642800849E+03  0.30470578256E+03  0.00000000000E+00 0.  1.
         21    1    1    2  504  506  0.11600668583E+03  0.69106755830E+02 -0.19107888046E+03  0.23397528377E+03  0.00000000000E+00 0. -1.
         21    1    1    2  505  504 -0.50092291048E+02  0.50041905290E+02 -0.38827104337E+03  0.39467433794E+03  0.00000000000E+00 0. -1.
         21    1    1    2  506  501 -0.68593437515E+02 -0.15237965768E+02  0.20386185524E+03  0.21563142464E+03  0.00000000000E+00 0.  1.
<scales pt_clust_3="14000.00000" pt_clust_4="130.59689" pt_clust_5="71.18556" pt_clust_6="70.26561"></scales>
<clustering>
<clus scale="   70.266">  1  6  2 -1</clus>
<clus scale="   71.186">  2  5  1 -1</clus>
<clus scale="  130.597">  2  4  1 -1</clus>
<clus scale="   70.266">  1  3  2 -1</clus>
</clustering>
</event>
<event>
 6    0  0.4469832E+002  0.1547354E+03  0.7546771E-02  0.1194772E+00
         21   -1    0    0  503  501  0.00000000000E+00  0.00000000000E+00  0.21941199829E+03  0.21941199829E+03  0.00000000000E+00 0. -1.
         21   -1    0    0  505  502 -0.00000000000E+00 -0.00000000000E+00 -0.48761064906E+03  0.48761064906E+03  0.00000000000E+00 0. -1.
         21    1    1    2  503  504  0.27399076120E+02  0.16326231524E+03  0.11404572629E+03  0.20102666647E+03  0.00000000000E+00 0. -1.
         21    1    1    2  504  502 -0.91327374921E+02 -0.13112635159E+03 -0.37071527044E+03  0.40368876778E+03  0.00000000000E+00 0. -1.
         21    1    1    2  505  506  0.30537957608E+02 -0.98568438178E+01 -0.41321817374E+02  0.52318417560E+02  0.00000000000E+00 0. -1.
         21    1    1    2  506  501  0.33390341193E+02 -0.22279119826E+02  0.29792710752E+02  0.49988795536E+02  0.00000000000E+00 0. -1.
<scales pt_clust_3="14000.00000" pt_clust_4="154.73544" pt_clust_5="32.08932" pt_clust_6="40.84844"></scales>
<clustering>
<clus scale="   32.089">  2  5  1 -1</clus>
<clus scale="   40.848">  1  6  2 -1</clus>
<clus scale="  154.735">  2  4  1 -1</clus>
<clus scale="   40.848">  1  3  2 -1</clus>
</clustering>
</event>
<event>
 6    0  0.4469832E+002  0.2244697E+03  0.7546771E-02  0.1130594E+00
         21   -1    0    0  504  501  0.00000000000E+00  0.00000000000E+00  0.59917596402E+03  0.59917596402E+03  0.00000000000E+00 0. -1.
         21   -1    0    0  505  502 -0.00000000000E+00 -0.00000000000E+00 -0.57968609518E+03  0.57968609518E+03  0.00000000000E+00 0. -1.
         21    1    1    2  503  501 -0.47730409067E+02  0.19432346309E+02 -0.28593053381E+02  0.58935309742E+02  0.00000000000E+00 0. -1.
         21    1    1    2  504  502  0.49883554915E+02 -0.48356601236E+02  0.45724335596E+03  0.46249131506E+03  0.00000000000E+00 0. -1.
         21    1    1    2  505  506  0.14996697871E+03 -0.13613690273E+03 -0.38062701561E+03  0.43116154281E+03  0.00000000000E+00 0. -1.
         21    1    1    2  506  503 -0.15212012456E+03  0.16506115765E+03 -0.28533418133E+02  0.22627389158E+03  0.00000000000E+00 0. -1.
<scales pt_clust_3="30.69097" pt_clust_4="69.47467" pt_clust_5="215.13690" pt_clust_6="30.69097"></scales>
<clustering>
<clus scale="   30.691">  3  6 -1 -1</clus>
<clus scale="   69.475">  1  4  2 -1</clus>
<clus scale="  215.137">  2  5  1 -1</clus>
<clus scale="   69.475">  1  3  2 -1</clus>
</clustering>
</event>
<event>
 6    0  0.4469832E+002  0.8503883E+02  0.7546771E-02  0.1315331E+00
         21   -1    0    0  506  501  0.00000000000E+00  0.00000000000E+00  0.63380658852E+03  0.63380658852E+03  0.00000000000E+00 0. -1.
         21   -1    0    0  505  502 -0.00000000000E+00 -0.00000000000E+00 -0.67400992576E+02  0.67400992576E+02  0.00000000000E+00 0. -1.
         21    1    1    2  503  502  0.48868979243E+01 -0.63651587537E+02 -0.90982153330E+01  0.64483981650E+02  0.00000000000E+00 0. -1.
         21    1    1    2  504  503 -0.82951270168E+02  0.83359809771E+02  0.12663466004E+03  0.17281813629E+03  0.00000000000E+00 0. -1.
         21    1    1    2  505  501  0.26710029812E+02 -0.18652913362E+02  0.38940498917E+02  0.50771245064E+02  0.00000000000E+00 0.  1.
         21    1    1    2  506  504  0.51354342432E+02 -0.10553088724E+01  0.40992865233E+03  0.41313421810E+03  0.00000000000E+00 0. -1.
<scales pt_clust_3="14000.00000" pt_clust_4="85.03883" pt_clust_5="32.57847" pt_clust_6="52.07343"></scales>
<clustering>
<clus scale="   32.578">  2  5  1 -1</clus>
<clus scale="   52.073">  1  6  2 -1</clus>
<clus scale="   85.039">  1  4  2 -1</clus>
<clus scale="   52.073">  1  3  2 -1</clus>
</clustering>
</event>
<event>
 6    0  0.4469832E+002  0.1095831E+03  0.7546771E-02  0.1261344E+00
         21   -1    0    0  503  501  0.00000000000E+00  0.00000000000E+00  0.32421191464E+03  0.32421191464E+03  0.00000000000E+00 0.  1.
         21   -1    0    0  506  502 -0.00000000000E+00 -0.00000000000E+00 -0.41164612921E+03  0.41164612921E+03  0.00000000000E+00 0.  1.
         21    1    1    2  503  502  0.19923944318E+02 -0.67271416763E+02 -0.29531608047E+03  0.30353582071E+03  0.00000000000E+00 0.  1.
         21    1    1    2  504  505  0.53276442995E+02  0.10293657631E+03  0.89439578758E+02  0.14640271981E+03  0.00000000000E+00 0.  1.
         21    1    1    2  505  501 -0.10082331520E+03 -0.52639852517E+02  0.18197319569E+03  0.21459389300E+03  0.00000000000E+00 0.  1.
         21    1    1    2  506  504  0.27622927889E+02  0.16974692973E+02 -0.63530908553E+02  0.71325610325E+02  0.00000000000E+00 0.  1.
<scales pt_clust_3="68.47371" pt_clust_4="14000.00000" pt_clust_5="109.58309" pt_clust_6="32.42170"></scales>
<clustering>
<clus scale="   32.422">  2  6  1 -1</clus>
<clus scale="   68.474">  2  3  1 -1</clus>
<clus scale="  109.583">  1  5  2 -1</clus>
<clus scale="  109.583">  1  3  2 -1</clus>
</clustering>
</event>
<event>
 6    0  0.4469832E+002  0.8877028E+02  0.7546771E-02  0.1305857E+00
         21   -1    0    0  503  501  0.00000000000E+00  0.00000000000E+00  0.13264852609E+03  0.13264852609E+03  0.00000000000E+00 0.  1.
         21   -1    0    0  505  502 -0.00000000000E+00 -0.00000000000E+00 -0.11276199979E+04  0.11276199979E+04  0.00000000000E+00 0.  1.
         21    1    1    2  503  502 -0.30267382935E+02 -0.51987587350E+01 -0.16922264797E+03  0.17198676155E+03  0.00000000000E+00 0.  1.
         21    1    1    2  504  506  0.10485823631E+03  0.70878137120E+02 -0.11796108238E+03  0.17301380581E+03  0.00000000000E+00 0.  1.
         21    1    1    2  505  504  0.72131786722E+01 -0.42953899786E+02 -0.79345881905E+03  0.79465336153E+03  0.00000000000E+00 0.  1.
         21    1    1    2  506  501 -0.81804032044E+02 -0.22725478599E+02  0.85671077542E+02  0.12061459515E+03  0.00000000000E+00 0.  1.
<scales pt_clust_3="30.71061" pt_clust_4="14000.00000" pt_clust_5="50.54335" pt_clust_6="88.77028"></scales>
<clustering>
<clus scale="   30.711">  2  3  1 -1</clus>
<clus scale="   50.543">  2  5  1 -1</clus>
<clus scale="   88.770">  1  6  2 -1</clus>
<clus scale="   88.770">  1  3  2 -1</clus>
</clustering>
</event>
<event>
 6    0  0.4469832E+002  0.1424272E+03  0.7546771E-02  0.1210100E+00
         21   -1    0    0  506  501  0.00000000000E+00  0.00000000000E+00  0.15553301354E+04  0.15553301354E+04  0.00000000000E+00 0. -1.
         21   -1    0    0  505  502 -0.00000000000E+00 -0.00000000000E+00 -0.32139085305E+03  0.32139085305E+03  0.00000000000E+00 0. -1.
         21    1    1    2  503  504 -0.18903194645E+03  0.17404101587E+02  0.39216717854E+03  0.43569608152E+03  0.00000000000E+00 0. -1.
         21    1    1    2  504  501  0.92083886265E+02 -0.10743920052E+03  0.10998693651E+04  0.11089342831E+04  0.00000000000E+00 0. -1.
         21    1    1    2  505  503  0.26957935554E+02  0.11676993874E+03 -0.96124420044E+02  0.15362894588E+03  0.00000000000E+00 0. -1.
         21    1    1    2  506  502  0.69990124633E+02 -0.26734839803E+02 -0.16197284124E+03  0.17846167797E+03  0.00000000000E+00 0. -1.
<scales pt_clust_3="142.42722" pt_clust_4="14000.00000" pt_clust_5="127.08998" pt_clust_6="74.92242"></scales>
<clustering>
<clus scale="   74.922">  2  6  1 -1</clus>
<clus scale="  127.090">  2  5  1 -1</clus>
<clus scale="  142.427">  2  3  1 -1</clus>
<clus scale="  142.427">  1  3  2 -1</clus>
</clustering>
</event>
<event>
 6    0  0.4469832E+002  0.6664488E+02  0.7546771E-02  0.1371889E+00
         21   -1    0    0  503  501  0.00000000000E+00  0.00000000000E+00  0.66908945980E+03  0.66908945980E+03  0.00000000000E+00 0.  1.
         21   -1    0    0  506  502 -0.00000000000E+00 -0.00000000000E+00 -0.13499992815E+03  0.13499992815E+03  0.00000000000E+00 0.  1.
         21    1    1    2  503  502  0.41221334615E+02  0.44577918460E+02 -0.66630911274E+02  0.90144703555E+02  0.00000000000E+00 0.  1.
         21    1    1    2  504  501  0.51051120263E+02  0.21010772512E+02  0.33857906819E+03  0.34305022206E+03  0.00000000000E+00 0.  1.
         21    1    1    2  505  504 -0.37822486806E+02 -0.87635728259E+02  0.29041652117E+03  0.30569971728E+03  0.00000000000E+00 0.  1.
         21    1    1    2  506  505 -0.54449968072E+02  0.22047037287E+02 -0.28275146443E+02  0.65194745054E+02  0.00000000000E+00 0.  1.
<scales pt_clust_3="66.64488" pt_clust_4="55.20570" pt_clust_5="14000.00000" pt_clust_6="56.56837"></scales>
<clustering>
<clus scale="   55.206">  1  4  2 -1</clus>
<clus scale="   56.568">  2  6  1 -1</clus>
<clus scale="   66.645">  2  3  1 -1</clus>
<clus scale="   55.206">  1  3  2 -1</clus>
</clustering>
</event>
<event>
 6    0  0.4469832E+002  0.7323730E+02  0.7546771E-02  0.1349418E+00
         21   -1    0    0  505  501  0.00000000000E+00  0.00000000000E+00  0.30243645584E+04  0.30243645584E+04  0.00000000000E+00 0.  1.
         21   -1    0    0  506  502 -0.00000000000E+00 -0.00000000000E+00 -0.46260903101E+02  0.46260903101E+02  0.00000000000E+00 0.  1.
         21    1    1    2  503  502 -0.74292336138E+02  0.13572381518E+01 -0.80611902538E+01  0.74740725796E+02  0.00000000000E+00 0.  1.
         21    1    1    2  504  501 -0.10189509441E+02  0.61398820730E+02  0.56343281083E+03  0.56685992415E+03  0.00000000000E+00 0.  1.
         21    1    1    2  505  503  0.78587751618E+02 -0.32698723772E+02  0.23260494461E+04  0.23276063385E+04  0.00000000000E+00 0.  1.
         21    1    1    2  506  504  0.58940939611E+01 -0.30057335110E+02  0.96682588656E+02  0.10141847310E+03  0.00000000000E+00 0.  1.
<scales pt_clust_3="73.23730" pt_clust_4="61.04333" pt_clust_5="14000.00000" pt_clust_6="30.62979"></scales>
<clustering>
<clus scale="   30.630">  2  6  1 -1</clus>
<clus scale="   61.043">  1  4  2 -1</clus>
<clus scale="   73.237">  2  3  1 -1</clus>
<clus scale="   61.043">  1  3  2 -1</clus>
</clustering>
</event>
<event>
 6    0  0.4469832E+002  0.9678030E+02  0.7546771E-02  0.1287216E+00
         21   -1    0    0  503  501  0.00000000000E+00  0.00000000000E+00  0.74593017859E+02  0.74593017859E+02  0.00000000000E+00 0.  1.
         21   -1    0    0  505  502 -0.00000000000E+00 -0.00000000000E+00 -0.85503219067E+03  0.85503219067E+03  0.00000000000E+00 0. -1.
         21    1    1    2  503  502 -0.32698197073E+01 -0.11758478891E+03 -0.15724629894E+02  0.11867661223E+03  0.00000000000E+00 0.  1.
         21    1    1    2  504  506  0.56822599466E+02  0.40250040434E+02 -0.25509483075E+03  0.26442814949E+03  0.00000000000E+00 0. -1.
         21    1    1    2  505  504 -0.54841031138E+02  0.48675656775E+01 -0.44805166911E+03  0.45142167657E+03  0.00000000000E+00 0. -1.
         21    1    1    2  506  501  0.12882513792E+01  0.72467182801E+02 -0.61568043059E+02  0.95098770239E+02  0.00000000000E+00 0. -1.
<scales pt_clust_3="96.78030" pt_clust_4="48.48398" pt_clust_5="55.05662" pt_clust_6="14000.00000"></scales>
<clustering>
<clus scale="   55.057">  2  5  1 -1</clus>
<clus scale="   48.484">  2  4  1 -1</clus>
<clus scale="   96.780">  1  3  2 -1</clus>
<clus scale="   96.780">  1  3  2 -1</clus>
</clustering>
</event>
<event>
 6    0  0.4469832E+002  0.1105334E+03  0.7546771E-02  0.1259585E+00
         21   -1    0    0  503  501  0.00000000000E+00  0.00000000000E+00  0.37248283550E+03  0.37248283550E+03  0.00000000000E+00 0. -1.
         21   -1    0    0  505  502 -0.00000000000E+00 -0.00000000000E+00 -0.44581587654E+03  0.44581587654E+03  0.00000000000E+00 0.  1.
         21    1    1    2  503  504 -0.99425333697E+02 -0.80502322518E+02  0.22490720722E+03  0.25874557537E+03  0.00000000000E+00 0. -1.
         21    1    1    2  504  502 -0.11662914563E+02 -0.32336990923E+02 -0.35358655559E+02  0.49314694372E+02  0.00000000000E+00 0.  1.
         21    1    1    2  505  506  0.65574931965E+02  0.12595024721E+03 -0.36826899644E+03  0.39469683330E+03  0.00000000000E+00 0.  1.
         21    1    1    2  506  501  0.45513316295E+02 -0.13110933768E+02  0.10538740373E+03  0.11554160900E+03  0.00000000000E+00 0. -1.
<scales pt_clust_3="14000.00000" pt_clust_4="34.37593" pt_clust_5="110.53337" pt_clust_6="47.33769"></scales>
<clustering>
<clus scale="   34.376">  2  4  1 -1</clus>
<clus scale="   47.338">  1  6  2 -1</clus>
<clus scale="  110.533">  2  5  1 -1</clus>
<clus scale="   47.338">  1  3  2 -1</clus>
</clustering>
</event>
<event>
 6    0  0.4469832E+002  0.1428485E+03  0.7546771E-02  0.1209547E+00
         21   -1    0    0  506  501  0.00000000000E+00  0.00000000000E+00  0.64133271581E+03  0.64133271581E+03  0.00000000000E+00 0.  1.
         21   -1    0    0  505  502 -0.00000000000E+00 -0.00000000000E+00 -0.75911818999E+02  0.75911818999E+02  0.00000000000E+00 0.  1.
         21    1    1    2  503  504 -0.48465647298E+02  0.75296257176E+00  0.26723953745E+02  0.55350299226E+02  0.00000000000E+00 0.  1.
         21    1    1    2  504  501  0.70485686451E+02  0.12475173565E+03  0.11414584421E+03  0.18319525455E+03  0.00000000000E+00 0.  1.
         21    1    1    2  505  503 -0.53466628911E+02  0.25752998105E+02  0.68853896788E+02  0.90899705287E+02  0.00000000000E+00 0.  1.
         21    1    1    2  506  502  0.31446589758E+02 -0.15125769632E+03  0.35569720207E+03  0.38779927574E+03  0.00000000000E+00 0.  1.
<scales pt_clust_3="30.79636" pt_clust_4="142.84845" pt_clust_5="110.69751" pt_clust_6="14000.00000"></scales>
<clustering>
<clus scale="   30.796">  3  5 -1 -1</clus>
<clus scale="  110.698">  2  3  1 -1</clus>
<clus scale="  142.848">  2  4  1 -1</clus>
<clus scale="  142.848">  1  3  2 -1</clus>
</clustering>
</event>
<event>
 6    0  0.4469832E+002  0.2566503E+03  0.7546771E-02  0.1109173E+00
         21   -1    0    0  506  501  0.00000000000E+00  0.00000000000E+00  0.18848205374E+04  0.18848205374E+04  0.00000000000E+00 0. -1.
         21   -1    0    0  503  502 -0.00000000000E+00 -0.00000000000E+00 -0.16046006593E+03  0.16046006593E+03  0.00000000000E+00 0. -1.
         21    1    1    2  503  504  0.20508229291E+03  0.12775680801E+03  0.11537591026E+03  0.26775389732E+03  0.00000000000E+00 0. -1.
         21    1    1    2  504  501 -0.16535855611E+02  0.37178032210E+02  0.14889790919E+04  0.14895349532E+04  0.00000000000E+00 0. -1.
         21    1    1    2  505  502 -0.71644720122E+02 -0.23540271433E+02  0.15972516909E+02  0.77085871578E+02  0.00000000000E+00 0. -1.
         21    1    1    2  506  505 -0.11690171718E+03 -0.14139456879E+03  0.10403295238E+03  0.21090588124E+03  0.00000000000E+00 0. -1.
<scales pt_clust_3="245.12177" pt_clust_4="40.68956" pt_clust_5="49.87432" pt_clust_6="49.87432"></scales>
<clustering>
<clus scale="   40.690">  1  4  2 -1</clus>
<clus scale="   49.874">  5  6 -1 -1</clus>
<clus scale="  245.122">  2  3  1 -1</clus>
<clus scale="   40.690">  1  3  2 -1</clus>
</clustering>
</event>
<event>
 6    0  0.4469832E+002  0.1954103E+03  0.7546771E-02  0.1153670E+00
         21   -1    0    0  504  501  0.00000000000E+00  0.00000000000E+00  0.84750871768E+03  0.84750871768E+03  0.00000000000E+00 0. -1.
         21   -1    0    0  506  502 -0.00000000000E+00 -0.00000000000E+00 -0.35812412188E+04  0.35812412188E+04  0.00000000000E+00 0. -1.
         21    1    1    2  503  502 -0.47667824252E+02  0.31159290881E+02 -0.32736882473E+04  0.32741835415E+04  0.00000000000E+00 0. -1.
         21    1    1    2  504  505  0.20197743747E+03 -0.11434058054E+02  0.74791782438E+03  0.77479461469E+03  0.00000000000E+00 0. -1.
         21    1    1    2  505  503 -0.75740759997E+02 -0.12414503458E+03 -0.14275836510E+02  0.14612478176E+03  0.00000000000E+00 0.  1.
         21    1    1    2  506  501 -0.78568853223E+02  0.10441980175E+03 -0.19368624162E+03  0.23364699846E+03  0.00000000000E+00 0.  1.
<scales pt_clust_3="56.94842" pt_clust_4="14000.00000" pt_clust_5="145.72214" pt_clust_6="195.41035"></scales>
<clustering>
<clus scale="   56.948">  2  3  1 -1</clus>
<clus scale="  145.722">  2  5  1 -1</clus>
<clus scale="  195.410">  2  6  1 -1</clus>
<clus scale="  195.410">  1  3  2 -1</clus>
</clustering>
</event>
<event>
 6    0  0.4469832E+002  0.1236562E+03  0.7546771E-02  0.1237184E+00
         21   -1    0    0  506  501  0.00000000000E+00  0.00000000000E+00  0.44447523860E+03  0.44447523860E+03  0.00000000000E+00 0. -1.
         21   -1    0    0  503  502 -0.00000000000E+00 -0.00000000000E+00 -0.60774182600E+02  0.60774182600E+02  0.00000000000E+00 0. -1.
         21    1    1    2  503  501 -0.12949732201E+02  0.38044066958E+02  0.20272259973E+03  0.20666760519E+03  0.00000000000E+00 0. -1.
         21    1    1    2  504  505 -0.32009380481E+02  0.37820433358E+02  0.18354821183E+02  0.52838291786E+02  0.00000000000E+00 0. -1.
         21    1    1    2  505  502  0.87152303324E+02 -0.92906955403E+02  0.77193591442E+02  0.14894991405E+03  0.00000000000E+00 0. -1.
         21    1    1    2  506  504 -0.42193190642E+02  0.17042455086E+02  0.85430043643E+02  0.96793610166E+02  0.00000000000E+00 0. -1.
<scales pt_clust_3="40.18764" pt_clust_4="54.94296" pt_clust_5="110.40114" pt_clust_6="54.94296"></scales>
<clustering>
<clus scale="   40.188">  1  3  2 -1</clus>
<clus scale="   54.943">  4  6 -1 -1</clus>
<clus scale="  110.401">  2  5  1 -1</clus>
<clus scale="   40.188">  1  3  2 -1</clus>
</clustering>
</event>
<event>
 6    0  0.4469832E+002  0.9207665E+02  0.7546771E-02  0.1297899E+00
         21   -1    0    0  503  501  0.00000000000E+00  0.00000000000E+00  0.83559951899E+02  0.83559951899E+02  0.00000000000E+00 0.  1.
         21   -1    0    0  505  502 -0.00000000000E+00 -0.00000000000E+00 -0.92250937665E+03  0.92250937665E+03  0.00000000000E+00 0. -1.
         21    1    1    2  503  502  0.29646171108E+01  0.63383034690E+02 -0.11062845585E+03  0.12753373391E+03  0.00000000000E+00 0. -1.
         21    1    1    2  504  506 -0.36065115269E+01 -0.13061128077E+03 -0.33459401401E+03  0.35920115228E+03  0.00000000000E+00 0. -1.
         21    1    1    2  505  504 -0.21804256545E+02  0.26741033292E+02 -0.44724427652E+03  0.44857323966E+03  0.00000000000E+00 0. -1.
         21    1    1    2  506  501  0.22446150961E+02  0.40487212792E+02  0.53517321624E+02  0.70761202693E+02  0.00000000000E+00 0.  1.
<scales pt_clust_3="92.07665" pt_clust_4="14000.00000" pt_clust_5="34.50375" pt_clust_6="46.52947"></scales>
<clustering>
<clus scale="   34.504">  2  5  1 -1</clus>
<clus scale="   46.529">  1  6  2 -1</clus>
<clus scale="   92.077">  1  3  2 -1</clus>
<clus scale="   46.529">  1  3  2 -1</clus>
</clustering>
</event>
<event>
 6    0  0.4469832E+002  0.2888767E+03  0.7546771E-02  0.1090937E+00
         21   -1    0    0  504  501  0.00000000000E+00  0.00000000000E+00  0.59619086064E+02  0.59619086064E+02  0.00000000000E+00 0. -1.
         21   -1    0    0  501  502 -0.00000000000E+00 -0.00000000000E+00 -0.17187509774E+04  0.17187509774E+04  0.00000000000E+00 0. -1.
         21    1    1    2  503  505 -0.21444962588E+03 -0.48394127367E+02 -0.74319548884E+03  0.77502914024E+03  0.00000000000E+00 0. -1.
         21    1    1    2  504  506  0.40523259967E+02 -0.18727304827E+02 -0.39326707364E+02  0.59493163107E+02  0.00000000000E+00 0. -1.
         21    1    1    2  505  502 -0.76242604302E+02 -0.29049654238E+02 -0.18964506065E+03  0.20645112291E+03  0.00000000000E+00 0. -1.
         21    1    1    2  506  503  0.25016897021E+03  0.96171086431E+02 -0.68696463449E+03  0.73739663720E+03  0.00000000000E+00 0. -1.
<scales pt_clust_3="31.13792" pt_clust_4="44.64131" pt_clust_5="31.13792" pt_clust_6="284.31892"></scales>
<clustering>
<clus scale="   31.138">  3  5 -1 -1</clus>
<clus scale="   44.641">  1  4  2 -1</clus>
<clus scale="  284.319">  1  6  2 -1</clus>
<clus scale="   44.641">  1  3  2 -1</clus>
</clustering>
</event>
<event>
 6    0  0.4469832E+002  0.1320644E+03  0.7546771E-02  0.1224424E+00
         21   -1    0    0  504  501  0.00000000000E+00  0.00000000000E+00  0.60016857629E+03  0.60016857629E+03  0.00000000000E+00 0. -1.
         21   -1    0    0  506  502 -0.00000000000E+00 -0.00000000000E+00 -0.25100331377E+03  0.25100331377E+03  0.00000000000E+00 0.  1.
         21    1    1    2  503  502  0.48487789321E+02  0.23427720403E+02 -0.35647075381E+02  0.64580475220E+02  0.00000000000E+00 0.  1.
         21    1    1    2  504  505 -0.15275758901E+03 -0.36062790405E+02 -0.51382745796E+02  0.16515323919E+03  0.00000000000E+00 0.  1.
         21    1    1    2  505  503  0.62540183489E+02  0.45733866098E+01 -0.81035502771E+02  0.10246435051E+03  0.00000000000E+00 0.  1.
         21    1    1    2  506  501  0.41729616196E+02  0.80616833925E+01  0.51723058646E+03  0.51897382514E+03  0.00000000000E+00 0. -1.
<scales pt_clust_3="31.80446" pt_clust_4="127.52698" pt_clust_5="31.80446" pt_clust_6="42.50120"></scales>
<clustering>
<clus scale="   31.804">  3  5 -1 -1</clus>
<clus scale="   42.501">  1  6  2 -1</clus>
<clus scale="  127.527">  1  4  2 -1</clus>
<clus scale="   42.501">  1  3  2 -1</clus>
</clustering>
</event>
<event>
 6    0  0.4469832E+002  0.7247224E+02  0.7546771E-02  0.1351882E+00
         21   -1    0    0  504  501  0.00000000000E+00  0.00000000000E+00  0.47425723028E+03  0.47425723028E+03  0.00000000000E+00 0.  1.
         21   -1    0    0  505  502 -0.00000000000E+00 -0.00000000000E+00 -0.25554440784E+03  0.25554440784E+03  0.00000000000E+00 0.  1.
         21    1    1    2  503  506 -0.76596451314E+02  0.60093463638E+02 -0.13191059136E+03  0.16394707938E+03  0.00000000000E+00 0.  1.
         21    1    1    2  504  502 -0.67633145156E-01  0.53882008470E+02  0.70258688410E+01  0.54338184033E+02  0.00000000000E+00 0.  1.
         21    1    1    2  505  503  0.53106014561E+02 -0.45658854409E+02 -0.65616045080E+02  0.95971064079E+02  0.00000000000E+00 0.  1.
         21    1    1    2  506  501  0.23558069898E+02 -0.68316617700E+02  0.40921359003E+03  0.41554531062E+03  0.00000000000E+00 0.  1.
<scales pt_clust_3="14000.00000" pt_clust_4="53.88205" pt_clust_5="59.50275" pt_clust_6="72.47224"></scales>
<clustering>
<clus scale="   53.882">  2  4  1 -1</clus>
<clus scale="   59.503">  2  5  1 -1</clus>
<clus scale="   72.472">  1  6  2 -1</clus>
<clus scale="   72.472">  1  3  2 -1</clus>
</clustering>
</event>
<event>
 6    0  0.4469832E+002  0.1297988E+03  0.7546771E-02  0.1227755E+00
         21   -1    0    0  503  501  0.00000000000E+00  0.00000000000E+00  0.17225992092E+03  0.17225992092E+03  0.00000000000E+00 0.  1.
         21   -1    0    0  505  502 -0.00000000000E+00 -0.00000000000E+00 -0.16093313433E+04  0.16093313433E+04  0.00000000000E+00 0. -1.
         21    1    1    2  503  506 -0.53290555476E+01  0.13240415003E+03  0.13177595077E+03  0.18688006576E+03  0.00000000000E+00 0.  1.
         21    1    1    2  504  501  0.58431044923E+02 -0.51424709747E+02 -0.13008589371E+03  0.15159494558E+03  0.00000000000E+00 0. -1.
         21    1    1    2  505  504  0.51379836139E+01 -0.31007655802E+02 -0.61007651485E+03  0.61088560923E+03  0.00000000000E+00 0. -1.
         21    1    1    2  506  502 -0.58239972989E+02 -0.49971784482E+02 -0.82868496460E+03  0.83223064367E+03  0.00000000000E+00 0. -1.
<scales pt_clust_3="129.79876" pt_clust_4="81.31830" pt_clust_5="31.43046" pt_clust_6="14000.00000"></scales>
<clustering>
<clus scale="   31.430">  2  5  1 -1</clus>
<clus scale="   81.318">  2  4  1 -1</clus>
<clus scale="  129.799">  1  3  2 -1</clus>
<clus scale="  129.799">  1  3  2 -1</clus>
</clustering>
</event>
<event>
 6    0  0.4469832E+002  0.1234705E+03  0.7546771E-02  0.1237479E+00
         21   -1    0    0  505  501  0.00000000000E+00  0.00000000000E+00  0.50253948582E+03  0.50253948582E+03  0.00000000000E+00 0.  1.
         21   -1    0    0  506  502 -0.00000000000E+00 -0.00000000000E+00 -0.98763873496E+03  0.98763873496E+03  0.00000000000E+00 0.  1.
         21    1    1    2  503  502 -0.64634467205E+02  0.12050261640E+02 -0.88197590339E+03  0.88442315513E+03  0.00000000000E+00 0.  1.
         21    1    1    2  504  501  0.38131238670E+02 -0.11677899625E+03  0.41201695890E+03  0.42994104218E+03  0.00000000000E+00 0.  1.
         21    1    1    2  505  503  0.65935553969E+01  0.13587442050E+03 -0.44613304895E+00  0.13603504017E+03  0.00000000000E+00 0.  1.
         21    1    1    2  506  504  0.19909673139E+02 -0.31145685893E+02 -0.14694171603E+02  0.39778983312E+02  0.00000000000E+00 0.  1.
<scales pt_clust_3="49.20686" pt_clust_4="14000.00000" pt_clust_5="123.47054" pt_clust_6="36.96551"></scales>
<clustering>
<clus scale="   36.966">  2  6  1 -1</clus>
<clus scale="   49.207">  2  3  1 -1</clus>
<clus scale="  123.471">  2  5  1 -1</clus>
<clus scale="  123.471">  1  3  2 -1</clus>
</clustering>
</event>
<event>
 6    0  0.4469832E+002  0.1472405E+03  0.7546771E-02  0.1203905E+00
         21   -1    0    0  503  501  0.00000000000E+00  0.00000000000E+00  0.40146681038E+03  0.40146681038E+03  0.00000000000E+00 0.  1.
         21   -1    0    0  505  502 -0.00000000000E+00 -0.00000000000E+00 -0.53885503117E+03  0.53885503117E+03  0.00000000000E+00 0.  1.
         21    1    1    2  503  504 -0.37230202854E+02 -0.83508813260E+02  0.15426992234E+03  0.17932935854E+03  0.00000000000E+00 0.  1.
         21    1    1    2  504  506 -0.92529381806E+02  0.24280475985E+01  0.19689211390E+03  0.21756398238E+03  0.00000000000E+00 0.  1.
         21    1    1    2  505  501  0.17204793291E+03  0.52004160748E+02 -0.31748511811E+03  0.36483108992E+03  0.00000000000E+00 0.  1.
         21    1    1    2  506  502 -0.42288348253E+02  0.29076604914E+02 -0.17106513892E+03  0.17859741069E+03  0.00000000000E+00 0.  1.
<scales pt_clust_3="91.12715" pt_clust_4="147.24052" pt_clust_5="14000.00000" pt_clust_6="51.32011"></scales>
<clustering>
<clus scale="   51.320">  2  6  1 -1</clus>
<clus scale="   91.127">  1  3  2 -1</clus>
<clus scale="  147.241">  1  4  2 -1</clus>
<clus scale="   91.127">  1  3  2 -1</clus>
</clustering>
</event>
<event>
 6    0  0.4469832E+002  0.1392779E+03  0.7546771E-02  0.1214304E+00
         21   -1    0    0  504  501  0.00000000000E+00  0.00000000000E+00  0.99758920042E+03  0.99758920042E+03  0.00000000000E+00 0.  1.
         21   -1    0    0  505  502 -0.00000000000E+00 -0.00000000000E+00 -0.23713383956E+03  0.23713383956E+03  0.00000000000E+00 0.  1.
         21    1    1    2  503  506 -0.64817879042E+02  0.17646060784E+02 -0.12258447976E+03  0.13978446117E+03  0.00000000000E+00 0.  1.
         21    1    1    2  504  502  0.30607051230E+02 -0.37528840363E+02  0.80955024722E+02  0.94334094959E+02  0.00000000000E+00 0. -1.
         21    1    1    2  505  503 -0.59590094787E+02  0.38369715985E+02 -0.83699296590E+02  0.10967582574E+03  0.00000000000E+00 0.  1.
         21    1    1    2  506  501  0.93800922599E+02 -0.18486936407E+02  0.88578411250E+03  0.89092865812E+03  0.00000000000E+00 0.  1.
<scales pt_clust_3="31.73173" pt_clust_4="48.42732" pt_clust_5="31.73173" pt_clust_6="135.41051"></scales>
<clustering>
<clus scale="   31.732">  3  5 -1 -1</clus>
<clus scale="   48.427">  1  4  2 -1</clus>
<clus scale="  135.411">  1  6  2 -1</clus>
<clus scale="   48.427">  1  3  2 -1</clus>
</clustering>
</event>
<event>
 6    0  0.4469832E+002  0.1908838E+03  0.7546771E-02  0.1157667E+00
         21   -1    0    0  504  501  0.00000000000E+00  0.00000000000E+00  0.19885852619E+04  0.19885852619E+04  0.00000000000E+00 0.  1.
         21   -1    0    0  501  502 -0.00000000000E+00 -0.00000000000E+00 -0.15173781927E+03  0.15173781927E+03  0.00000000000E+00 0. -1.
         21    1    1    2  503  506  0.57994367768E+02 -0.87115347385E+02  0.48961237505E+02  0.11554061286E+03  0.00000000000E+00 0.  1.
         21    1    1    2  504  505 -0.99076597136E+02  0.10712675970E+03  0.16111305519E+04  0.16177249364E+04  0.00000000000E+00 0.  1.
         21    1    1    2  505  503 -0.47580416407E+02  0.31373678527E+01  0.27126145525E+03  0.27542061688E+03  0.00000000000E+00 0. -1.
         21    1    1    2  506  502  0.88662645775E+02 -0.23148780169E+02 -0.94505801994E+02  0.13163691500E+03  0.00000000000E+00 0. -1.
<scales pt_clust_3="171.76345" pt_clust_4="47.60144" pt_clust_5="47.60144" pt_clust_6="91.63477"></scales>
<clustering>
<clus scale="   47.601">  4  5 -1 -1</clus>
<clus scale="   91.635">  2  6  1 -1</clus>
<clus scale="  171.763">  2  3  1 -1</clus>
<clus scale="  190.884">  1  3  2 -1</clus>
</clustering>
</event>
<event>
 6    0  0.4469832E+002  0.1655905E+03  0.7546771E-02  0.1182526E+00
         21   -1    0    0  504  501  0.00000000000E+00  0.00000000000E+00  0.92060875830E+03  0.92060875830E+03  0.00000000000E+00 0.  1.
         21   -1    0    0  506  502 -0.00000000000E+00 -0.00000000000E+00 -0.66378261409E+02  0.66378261409E+02  0.00000000000E+00 0.  1.
         21    1    1    2  503  502 -0.83055778482E+02 -0.41491629852E+02  0.10245553958E+03  0.13826407805E+03  0.00000000000E+00 0.  1.
         21    1    1    2  504  505  0.22899163828E+02  0.26592540869E+02  0.14275429972E+03  0.14700450681E+03  0.00000000000E+00 0.  1.
         21    1    1    2  505  503  0.15936732876E+03 -0.10248868228E+03  0.27410341017E+03  0.33321847928E+03  0.00000000000E+00 0.  1.
         21    1    1    2  506  501 -0.99210714102E+02  0.11738777126E+03  0.33491724742E+03  0.36849995556E+03  0.00000000000E+00 0. -1.
<scales pt_clust_3="87.84581" pt_clust_4="35.09323" pt_clust_5="165.59050" pt_clust_6="14000.00000"></scales>
<clustering>
<clus scale="   35.093">  1  4  2 -1</clus>
<clus scale="   87.846">  2  3  1 -1</clus>
<clus scale="  165.590">  2  5  1 -1</clus>
<clus scale="   35.093">  1  3  2 -1</clus>
</clustering>
</event>
<event>
 6    0  0.6126489E+002  0.6742570E+02  0.7546771E-02  0.1369073E+00
         21   -1    0    0  503  501  0.00000000000E+00  0.00000000000E+00  0.16597915349E+04  0.16597915349E+04  0.00000000000E+00 0. -1.
         21   -1    0    0  504  502 -0.00000000000E+00 -0.00000000000E+00 -0.48868218115E+03  0.48868218115E+03  0.00000000000E+00 0. -1.
         21    1    1    2  503  506  0.86558134665E+02  0.23219623809E+02  0.16110009062E+04  0.16134916738E+04  0.00000000000E+00 0. -1.
         21    1    1    2  504  505  0.20559707963E+02  0.33288287263E+02 -0.82635397828E+02  0.91429867300E+02  0.00000000000E+00 0. -1.
         21    1    1    2  505  501 -0.30994373529E+02  0.13378140858E+02  0.28508897360E+02  0.44185779069E+02  0.00000000000E+00 0.  1.
         21    1    1    2  506  502 -0.76123469099E+02 -0.69886051930E+02 -0.38576505200E+03  0.39936639587E+03  0.00000000000E+00 0. -1.
<scales pt_clust_3="67.42570" pt_clust_4="39.11241" pt_clust_5="33.75834" pt_clust_6="14000.00000"></scales>
<clustering>
<clus scale="   33.758">  1  5  2 -1</clus>
<clus scale="   39.112">  2  4  1 -1</clus>
<clus scale="   67.426">  1  3  2 -1</clus>
<clus scale="   33.758">  1  3  2 -1</clus>
</clustering>
</event>
<event>
 6    0  0.4469832E+002  0.1293050E+03  0.7546771E-02  0.1228491E+00
         21   -1    0    0  503  501  0.00000000000E+00  0.00000000000E+00  0.24052218201E+03  0.24052218201E+03  0.00000000000E+00 0. -1.
         21   -1    0    0  505  502 -0.00000000000E+00 -0.00000000000E+00 -0.26420832954E+03  0.26420832954E+03  0.00000000000E+00 0. -1.
         21    1    1    2  503  504 -0.39979527835E+02 -0.14352620364E+03  0.82471928467E+01  0.14921846389E+03  0.00000000000E+00 0. -1.
         21    1    1    2  504  502  0.30043342942E+02  0.66248017283E+02 -0.57940270880E+02  0.92997189413E+02  0.00000000000E+00 0.  1.
         21    1    1    2  505  506  0.16855849064E+02 -0.46201922492E+02 -0.83775349414E+02  0.97144461803E+02  0.00000000000E+00 0. -1.
         21    1    1    2  506  501 -0.69196641714E+01  0.12348010885E+03  0.10978227992E+03  0.16537039644E+03  0.00000000000E+00 0. -1.
<scales pt_clust_3="14000.00000" pt_clust_4="59.40297" pt_clust_5="49.18066" pt_clust_6="129.30496"></scales>
<clustering>
<clus scale="   49.181">  2  5  1 -1</clus>
<clus scale="   59.403">  2  4  1 -1</clus>
<clus scale="  129.305">  1  6  2 -1</clus>
<clus scale="  129.305">  1  3  2 -1</clus>
</clustering>
</event>
<event>
 6    0  0.4469832E+002  0.1388472E+03  0.7546771E-02  0.1214889E+00
         21   -1    0    0  506  501  0.00000000000E+00  0.00000000000E+00  0.29505413098E+03  0.29505413098E+03  0.00000000000E+00 0.  1.
         21   -1    0    0  504  502 -0.00000000000E+00 -0.00000000000E+00 -0.10008723900E+04  0.10008723900E+04  0.00000000000E+00 0.  1.
         21    1    1    2  503  502 -0.94469279148E+02 -0.52868265695E+02 -0.23859333797E+03  0.26200434948E+03  0.00000000000E+00 0.  1.
         21    1    1    2  504  501  0.12553754214E+03  0.10575394363E+03 -0.71565177213E+03  0.73423499646E+03  0.00000000000E+00 0.  1.
         21    1    1    2  505  503 -0.69336245359E+01 -0.32785569450E+02 -0.13321231667E+02  0.36061391078E+02  0.00000000000E+00 0.  1.
         21    1    1    2  506  505 -0.24134638456E+02 -0.20100108489E+02  0.26174808276E+03  0.26362578395E+03  0.00000000000E+00 0.  1.
<scales pt_clust_3="138.84717" pt_clust_4="14000.00000" pt_clust_5="42.72305" pt_clust_6="31.40852"></scales>
<clustering>
<clus scale="   31.409">  1  6  2 -1</clus>
<clus scale="   42.723">  1  5  2 -1</clus>
<clus scale="  138.847">  1  3  2 -1</clus>
<clus scale="   31.409">  1  3  2 -1</clus>
</clustering>
</event>
<event>
 6    0  0.4469832E+002  0.1434008E+03  0.7546771E-02  0.1208825E+00
         21   -1    0    0  504  501  0.00000000000E+00  0.00000000000E+00  0.82793673038E+02  0.82793673038E+02  0.00000000000E+00 0.  1.
         21   -1    0    0  506  502 -0.00000000000E+00 -0.00000000000E+00 -0.21050357754E+04  0.21050357754E+04  0.00000000000E+00 0. -1.
         21    1    1    2  503  505  0.14027778348E+03 -0.10394484513E+03 -0.59773725189E+03  0.62271358558E+03  0.00000000000E+00 0. -1.
         21    1    1    2  504  502 -0.59249593792E+02 -0.27069441867E-01 -0.66980380239E+02  0.89425312044E+02  0.00000000000E+00 0. -1.
         21    1    1    2  505  501  0.51812758828E+02  0.14952557797E+03 -0.57911058971E+02  0.16851157585E+03  0.00000000000E+00 0.  1.
         21    1    1    2  506  503 -0.13284094852E+03 -0.45553663396E+02 -0.12996134112E+04  0.13071789749E+04  0.00000000000E+00 0. -1.
<scales pt_clust_3="141.35332" pt_clust_4="59.24960" pt_clust_5="14000.00000" pt_clust_6="143.40078"></scales>
<clustering>
<clus scale="   59.250">  1  4  2 -1</clus>
<clus scale="  143.401">  2  6  1 -1</clus>
<clus scale="  141.353">  2  3  1 -1</clus>
<clus scale="   59.250">  1  3  2 -1</clus>
</clustering>
</event>
<event>
 6    0  0.4469832E+002  0.9061088E+02  0.7546771E-02  0.1301379E+00
         21   -1    0    0  503  501  0.00000000000E+00  0.00000000000E+00  0.38873529064E+03  0.38873529064E+03  0.00000000000E+00 0.  1.
         21   -1    0    0  504  502 -0.00000000000E+00 -0.00000000000E+00 -0.10037351331E+03  0.10037351331E+03  0.00000000000E+00 0.  1.
         21    1    1    2  503  502 -0.32993259027E+02 -0.81555266153E+01  0.16209417079E+01  0.34024920391E+02  0.00000000000E+00 0.  1.
         21    1    1    2  504  506 -0.90133507321E+01  0.77008785013E+02 -0.51535962091E+01  0.77705553305E+02  0.00000000000E+00 0.  1.
         21    1    1    2  505  501  0.92863938972E+01  0.41642963185E+02  0.25176115749E+03  0.25535084475E+03  0.00000000000E+00 0.  1.
         21    1    1    2  506  505  0.32720215862E+02 -0.11049622158E+03  0.40133274342E+02  0.12202748551E+03  0.00000000000E+00 0.  1.
<scales pt_clust_3="33.98629" pt_clust_4="14000.00000" pt_clust_5="42.34794" pt_clust_6="90.61088"></scales>
<clustering>
<clus scale="   33.986">  2  3  1 -1</clus>
<clus scale="   42.348">  1  5  2 -1</clus>
<clus scale="   90.611">  1  6  2 -1</clus>
<clus scale="   42.348">  1  3  2 -1</clus>
</clustering>
</event>
<event>
 6    0  0.4469832E+002  0.7567639E+02  0.7546771E-02  0.1341789E+00
         21   -1    0    0  504  501  0.00000000000E+00  0.00000000000E+00  0.60338098746E+02  0.60338098746E+02  0.00000000000E+00 0. -1.
         21   -1    0    0  505  502 -0.00000000000E+00 -0.00000000000E+00 -0.19025005865E+04  0.19025005865E+04  0.00000000000E+00 0.  1.
         21    1    1    2  503  502 -0.16782864754E+02 -0.52600393214E+02 -0.22823354471E+03  0.23481698586E+03  0.00000000000E+00 0. -1.
         21    1    1    2  504  503  0.28952849982E+02 -0.49386104608E+02  0.32912062917E+02  0.66033769663E+02  0.00000000000E+00 0. -1.
         21    1    1    2  505  506 -0.57566599163E+02  0.76790716154E+02 -0.15421116712E+04  0.15450951860E+04  0.00000000000E+00 0.  1.
         21    1    1    2  506  501  0.45396613935E+02  0.25195781668E+02 -0.10472933476E+03  0.11689274370E+03  0.00000000000E+00 0.  1.
<scales pt_clust_3="52.96347" pt_clust_4="14000.00000" pt_clust_5="75.67639" pt_clust_6="51.91994"></scales>
<clustering>
<clus scale="   51.920">  1  6  2 -1</clus>
<clus scale="   52.963">  2  3  1 -1</clus>
<clus scale="   75.676">  2  5  1 -1</clus>
<clus scale="   51.920">  1  3  2 -1</clus>
</clustering>
</event>
<event>
 6    0  0.4469832E+002  0.1947777E+03  0.7546771E-02  0.1154221E+00
         21   -1    0    0  503  501  0.00000000000E+00  0.00000000000E+00  0.22821700019E+04  0.22821700019E+04  0.00000000000E+00 0. -1.
         21   -1    0    0  505  502 -0.00000000000E+00 -0.00000000000E+00 -0.18079762962E+03  0.18079762962E+03  0.00000000000E+00 0. -1.
         21    1    1    2  503  502  0.23837546347E+03  0.66591309077E+02 -0.66474930356E+01  0.24759130274E+03  0.00000000000E+00 0. -1.
         21    1    1    2  504  506 -0.56843709538E+02 -0.57667096785E+02  0.14928538340E+03  0.16983176106E+03  0.00000000000E+00 0. -1.
         21    1    1    2  505  504 -0.14596951044E+03  0.30000784883E+02  0.85975184728E+02  0.17204324299E+03  0.00000000000E+00 0. -1.
         21    1    1    2  506  501 -0.35562243498E+02 -0.38924997175E+02  0.18727592972E+04  0.18735013247E+04  0.00000000000E+00 0. -1.
<scales pt_clust_3="194.77773" pt_clust_4="101.52832" pt_clust_5="14000.00000" pt_clust_6="52.72408"></scales>
<clustering>
<clus scale="   52.724">  1  6  2 -1</clus>
<clus scale="  101.528">  1  4  2 -1</clus>
<clus scale="  194.778">  2  3  1 -1</clus>
<clus scale="   52.724">  1  3  2 -1</clus>
</clustering>
</event>
<event>
 6    0  0.4469832E+002  0.1067784E+03  0.7546771E-02  0.1266655E+00
         21   -1    0    0  505  501  0.00000000000E+00  0.00000000000E+00  0.70739264785E+02  0.70739264785E+02  0.00000000000E+00 0.  1.
         21   -1    0    0  506  502 -0.00000000000E+00 -0.00000000000E+00 -0.95718991117E+03  0.95718991117E+03  0.00000000000E+00 0. -1.
         21    1    1    2  503  501  0.53198219508E+02  0.27577753783E+02 -0.68691169357E+02  0.91154044398E+02  0.00000000000E+00 0.  1.
         21    1    1    2  504  502 -0.93336924897E+02 -0.39192145446E+02 -0.55652722232E+03  0.56565922161E+03  0.00000000000E+00 0. -1.
         21    1    1    2  505  504  0.25211073041E+02  0.60917694914E+02  0.32076709677E+02  0.73317658590E+02  0.00000000000E+00 0.  1.
         21    1    1    2  506  503  0.14927632348E+02 -0.49303303251E+02 -0.29330896439E+03  0.29779825136E+03  0.00000000000E+00 0. -1.
<scales pt_clust_3="59.09883" pt_clust_4="106.77838" pt_clust_5="14000.00000" pt_clust_6="51.51359"></scales>
<clustering>
<clus scale="   51.514">  2  6  1 -1</clus>
<clus scale="   59.099">  1  3  2 -1</clus>
<clus scale="  106.778">  2  4  1 -1</clus>
<clus scale="   59.099">  1  3  2 -1</clus>
</clustering>
</event>
<event>
 6    0  0.4469832E+002  0.8259675E+02  0.7546771E-02  0.1321840E+00
         21   -1    0    0  505  501  0.00000000000E+00  0.00000000000E+00  0.15256624740E+04  0.15256624740E+04  0.00000000000E+00 0.  1.
         21   -1    0    0  506  502 -0.00000000000E+00 -0.00000000000E+00 -0.50401171433E+02  0.50401171433E+02  0.00000000000E+00 0. -1.
         21    1    1    2  503  502 -0.43669081073E+02 -0.19759198119E+01  0.87045635573E+02  0.97405521266E+02  0.00000000000E+00 0. -1.
         21    1    1    2  504  501  0.60295813042E+02 -0.54183870006E+01  0.12239309766E+04  0.12254272641E+04  0.00000000000E+00 0.  1.
         21    1    1    2  505  503  0.18757742988E+02  0.72712728148E+02  0.16239873220E+03  0.17891993175E+03  0.00000000000E+00 0. -1.
         21    1    1    2  506  504 -0.35384474957E+02 -0.65318421335E+02  0.18859581701E+01  0.74310928348E+02  0.00000000000E+00 0. -1.
<scales pt_clust_3="43.71376" pt_clust_4="59.82222" pt_clust_5="82.59675" pt_clust_6="14000.00000"></scales>
<clustering>
<clus scale="   43.714">  2  3  1 -1</clus>
<clus scale="   59.822">  1  4  2 -1</clus>
<clus scale="   82.597">  1  5  2 -1</clus>
<clus scale="   59.822">  1  3  2 -1</clus>
</clustering>
</event>
<event>
 6    0  0.4469832E+002  0.1486326E+03  0.7546771E-02  0.1202163E+00
         21   -1    0    0  504  501  0.00000000000E+00  0.00000000000E+00  0.56494699973E+03  0.56494699973E+03  0.00000000000E+00 0. -1.
         21   -1    0    0  506  502 -0.00000000000E+00 -0.00000000000E+00 -0.54641521015E+03  0.54641521015E+03  0.00000000000E+00 0. -1.
         21    1    1    2  503  501 -0.63042671570E+02  0.15567719158E+02 -0.26198561189E+02  0.70022117412E+02  0.00000000000E+00 0. -1.
         21    1    1    2  504  505  0.13182061115E+03  0.73444706210E+02  0.51977893860E+03  0.54124019013E+03  0.00000000000E+00 0. -1.
         21    1    1    2  505  502 -0.21986776733E+02 -0.10226581781E+03 -0.36690579320E+03  0.38152532934E+03  0.00000000000E+00 0. -1.
         21    1    1    2  506  503 -0.46791162850E+02  0.13253392445E+02 -0.10814279463E+03  0.11857457300E+03  0.00000000000E+00 0. -1.
<scales pt_clust_3="70.33626" pt_clust_4="148.63257" pt_clust_5="14000.00000" pt_clust_6="48.63194"></scales>
<clustering>
<clus scale="   48.632">  2  6  1 -1</clus>
<clus scale="   70.336">  2  3  1 -1</clus>
<clus scale="  148.633">  1  4  2 -1</clus>
<clus scale="  148.633">  1  3  2 -1</clus>
</clustering>
</event>
<event>
 6    0  0.4469832E+002  0.1503202E+03  0.7546771E-02  0.1200080E+00
         21   -1    0    0  503  501  0.00000000000E+00  0.00000000000E+00  0.14198554547E+04  0.14198554547E+04  0.00000000000E+00 0.  1.
         21   -1    0    0  506  502 -0.00000000000E+00 -0.00000000000E+00 -0.41018698982E+02  0.41018698982E+02  0.00000000000E+00 0.  1.
         21    1    1    2  503  502 -0.27309995316E+02  0.37145450700E+02  0.10876251861E+03  0.11813088422E+03  0.00000000000E+00 0. -1.
         21    1    1    2  504  501  0.14837907538E+02 -0.55472014952E+02  0.65298381288E+03  0.65550375119E+03  0.00000000000E+00 0.  1.
         21    1    1    2  505  504 -0.36279894241E+02 -0.12969805671E+03  0.38325045233E+03  0.40622496951E+03  0.00000000000E+00 0.  1.
         21    1    1    2  506  505  0.48751982020E+02  0.14802462097E+03  0.23383997194E+03  0.28101454881E+03  0.00000000000E+00 0.  1.
<scales pt_clust_3="46.10445" pt_clust_4="55.93616" pt_clust_5="150.32024" pt_clust_6="14000.00000"></scales>
<clustering>
<clus scale="   46.104">  2  3  1 -1</clus>
<clus scale="   55.936">  1  4  2 -1</clus>
<clus scale="  150.320">  1  5  2 -1</clus>
<clus scale="   55.936">  1  3  2 -1</clus>
</clustering>
</event>
<event>
 6    0  0.4469832E+002  0.6527004E+02  0.7546771E-02  0.1376959E+00
         21   -1    0    0  504  501  0.00000000000E+00  0.00000000000E+00  0.40585637261E+03  0.40585637261E+03  0.00000000000E+00 0. -1.
         21   -1    0    0  503  502 -0.00000000000E+00 -0.00000000000E+00 -0.15299885006E+03  0.15299885006E+03  0.00000000000E+00 0. -1.
         21    1    1    2  503  506  0.37844425571E+02 -0.11890554825E+01  0.51899216910E+01  0.38217138654E+02  0.00000000000E+00 0. -1.
         21    1    1    2  504  505  0.14910266745E+00 -0.62576457185E+02  0.29488009934E+03  0.30144669216E+03  0.00000000000E+00 0. -1.
         21    1    1    2  505  502  0.26703633263E+02 -0.33818895889E+02 -0.85717761300E+02  0.95939232595E+02  0.00000000000E+00 0. -1.
         21    1    1    2  506  501 -0.64697161501E+02  0.97584408556E+02  0.38505262812E+02  0.12325215927E+03  0.00000000000E+00 0. -1.
<scales pt_clust_3="37.86310" pt_clust_4="65.27004" pt_clust_5="62.37206" pt_clust_6="14000.00000"></scales>
<clustering>
<clus scale="   37.863">  2  3  1 -1</clus>
<clus scale="   62.372">  2  5  1 -1</clus>
<clus scale="   65.270">  1  4  2 -1</clus>
<clus scale="   65.270">  1  3  2 -1</clus>
</clustering>
</event>
<event>
 6    0  0.4469832E+002  0.1066909E+03  0.7546771E-02  0.1266824E+00
         21   -1    0    0  503  501  0.00000000000E+00  0.00000000000E+00  0.87919160031E+03  0.87919160031E+03  0.00000000000E+00 0.  1.
         21   -1    0    0  506  502 -0.00000000000E+00 -0.00000000000E+00 -0.12107113154E+03  0.12107113154E+03  0.00000000000E+00 0.  1.
         21    1    1    2  503  504  0.48090974712E+02  0.75560893280E+02  0.17897993529E+03  0.20013997021E+03  0.00000000000E+00 0.  1.
         21    1    1    2  504  502 -0.87235045331E+02  0.13880361321E+03  0.27994575625E+02  0.16631323591E+03  0.00000000000E+00 0.  1.
         21    1    1    2  505  501  0.23007739833E+02 -0.13116954065E+03  0.52998744161E+03  0.54646270939E+03  0.00000000000E+00 0.  1.
         21    1    1    2  506  505  0.16136330786E+02 -0.83194965846E+02  0.21158516242E+02  0.87346816329E+02  0.00000000000E+00 0. -1.
<scales pt_clust_3="82.46657" pt_clust_4="14000.00000" pt_clust_5="106.69088" pt_clust_6="84.74540"></scales>
<clustering>
<clus scale="   84.745">  2  6  1 -1</clus>
<clus scale="   82.467">  1  3  2 -1</clus>
<clus scale="  106.691">  1  5  2 -1</clus>
<clus scale="   82.467">  1  3  2 -1</clus>
</clustering>
</event>
<event>
 6    0  0.4469832E+002  0.7929056E+02  0.7546771E-02  0.1331077E+00
         21   -1    0    0  505  501  0.00000000000E+00  0.00000000000E+00  0.97248989814E+03  0.97248989814E+03  0.00000000000E+00 0.  1.
         21   -1    0    0  504  502 -0.00000000000E+00 -0.00000000000E+00 -0.69028773683E+02  0.69028773683E+02  0.00000000000E+00 0. -1.
         21    1    1    2  503  501 -0.68239625369E+02  0.23667752956E+02  0.17600476801E+03  0.19024848847E+03  0.00000000000E+00 0. -1.
         21    1    1    2  504  503  0.36931551727E+02  0.20414310125E+02  0.54397062950E+02  0.68845653664E+02  0.00000000000E+00 0.  1.
         21    1    1    2  505  506  0.13180446135E+03 -0.14461327173E+02  0.66417103846E+03  0.67727742790E+03  0.00000000000E+00 0.  1.
         21    1    1    2  506  502 -0.10049638771E+03 -0.29620735908E+02  0.88882550332E+01  0.10514710179E+03  0.00000000000E+00 0. -1.
<scales pt_clust_3="69.07235" pt_clust_4="42.19815" pt_clust_5="79.29056" pt_clust_6="14000.00000"></scales>
<clustering>
<clus scale="   42.198">  2  4  1 -1</clus>
<clus scale="   69.072">  1  3  2 -1</clus>
<clus scale="   79.291">  1  5  2 -1</clus>
<clus scale="   69.072">  1  3  2 -1</clus>
</clustering>
</event>
<event>
 6    0  0.4469832E+002  0.1601198E+03  0.7546771E-02  0.1188562E+00
         21   -1    0    0  506  501  0.00000000000E+00  0.00000000000E+00  0.19212356135E+04  0.19212356135E+04  0.00000000000E+00 0. -1.
         21   -1    0    0  505  502 -0.00000000000E+00 -0.00000000000E+00 -0.57785321935E+03  0.57785321935E+03  0.00000000000E+00 0. -1.
         21    1    1    2  503  504  0.56632324406E+02  0.11558279002E+02  0.79615573685E+02  0.98384213948E+02  0.00000000000E+00 0.  1.
         21    1    1    2  504  502  0.40092317764E+02 -0.11079302497E+02 -0.42321495025E+03  0.42525408758E+03  0.00000000000E+00 0. -1.
         21    1    1    2  505  501  0.54828384229E+02 -0.58780276649E+02 -0.12912417634E+03  0.15209972241E+03  0.00000000000E+00 0. -1.
         21    1    1    2  506  503 -0.15155302640E+03  0.58301300144E+02  0.18161059471E+04  0.18233508089E+04  0.00000000000E+00 0. -1.
<scales pt_clust_3="60.07520" pt_clust_4="41.59501" pt_clust_5="14000.00000" pt_clust_6="160.11980"></scales>
<clustering>
<clus scale="   41.595">  2  4  1 -1</clus>
<clus scale="   60.075">  2  3  1 -1</clus>
<clus scale="  160.120">  1  6  2 -1</clus>
<clus scale="  160.120">  1  3  2 -1</clus>
</clustering>
</event>
<event>
 6    0  0.4469832E+002  0.1018437E+03  0.7546771E-02  0.1276466E+00
         21   -1    0    0  504  501  0.00000000000E+00  0.00000000000E+00  0.33941343924E+03  0.33941343924E+03  0.00000000000E+00 0.  1.
         21   -1    0    0  506  502 -0.00000000000E+00 -0.00000000000E+00 -0.71862672077E+03  0.71862672077E+03  0.00000000000E+00 0. -1.
         21    1    1    2  503  502  0.39223698394E+02  0.73506837680E+02 -0.45054050992E+03  0.45817955518E+03  0.00000000000E+00 0. -1.
         21    1    1    2  504  503 -0.55610287651E+02  0.10050453319E+02  0.26509880127E+00  0.56511821612E+02  0.00000000000E+00 0. -1.
         21    1    1    2  505  501 -0.41031721547E+02 -0.53753816831E+02  0.29892588307E+03  0.30647962178E+03  0.00000000000E+00 0.  1.
         21    1    1    2  506  505  0.57418310804E+02 -0.29803474167E+02 -0.22786375348E+03  0.23686916143E+03  0.00000000000E+00 0. -1.
<scales pt_clust_3="101.84371" pt_clust_4="56.51120" pt_clust_5="14000.00000" pt_clust_6="63.91130"></scales>
<clustering>
<clus scale="   56.511">  1  4  2 -1</clus>
<clus scale="   63.911">  2  6  1 -1</clus>
<clus scale="  101.844">  2  3  1 -1</clus>
<clus scale="   56.511">  1  3  2 -1</clus>
</clustering>
</event>
<event>
 6    0  0.4469832E+002  0.1021707E+03  0.7546771E-02  0.1275796E+00
         21   -1    0    0  504  501  0.00000000000E+00  0.00000000000E+00  0.58924331480E+03  0.58924331480E+03  0.00000000000E+00 0.  1.
         21   -1    0    0  503  502 -0.00000000000E+00 -0.00000000000E+00 -0.11925225442E+04  0.11925225442E+04  0.00000000000E+00 0. -1.
         21    1    1    2  503  501  0.42006218770E+01  0.79342512115E+02 -0.94510536092E+03  0.94843925620E+03  0.00000000000E+00 0. -1.
         21    1    1    2  504  505 -0.22129134650E+02  0.29741568257E+02  0.48728785000E+03  0.48869592615E+03  0.00000000000E+00 0.  1.
         21    1    1    2  505  506 -0.97031686011E+01 -0.12700038521E+03  0.56975023839E+02  0.13953280140E+03  0.00000000000E+00 0.  1.
         21    1    1    2  506  502  0.27631681375E+02  0.17916304841E+02 -0.20243674234E+03  0.20509787528E+03  0.00000000000E+00 0.  1.
<scales pt_clust_3="14000.00000" pt_clust_4="37.06950" pt_clust_5="102.17075" pt_clust_6="32.93181"></scales>
<clustering>
<clus scale="   32.932">  2  6  1 -1</clus>
<clus scale="   37.070">  1  4  2 -1</clus>
<clus scale="  102.171">  1  5  2 -1</clus>
<clus scale="   37.070">  1  3  2 -1</clus>
</clustering>
</event>
<event>
 6    0  0.4469832E+002  0.1500004E+03  0.7546771E-02  0.1200472E+00
         21   -1    0    0  503  501  0.00000000000E+00  0.00000000000E+00  0.34038525126E+03  0.34038525126E+03  0.00000000000E+00 0. -1.
         21   -1    0    0  501  502 -0.00000000000E+00 -0.00000000000E+00 -0.28918249683E+03  0.28918249683E+03  0.00000000000E+00 0.  1.
         21    1    1    2  503  504  0.25556519933E+02  0.53908887344E+02  0.76838457176E+02  0.97280277276E+02  0.00000000000E+00 0. -1.
         21    1    1    2  504  505  0.10970898558E+03 -0.71372195570E+01  0.21814584471E+03  0.24428387377E+03  0.00000000000E+00 0. -1.
         21    1    1    2  505  506 -0.57196464581E+02 -0.31357331641E+02 -0.63926811688E+02  0.91331019161E+02  0.00000000000E+00 0.  1.
         21    1    1    2  506  502 -0.78069040933E+02 -0.15414336146E+02 -0.17985473577E+03  0.19667257788E+03  0.00000000000E+00 0.  1.
<scales pt_clust_3="59.65990" pt_clust_4="139.52724" pt_clust_5="49.85525" pt_clust_6="49.85525"></scales>
<clustering>
<clus scale="   49.855">  5  6 -1 -1</clus>
<clus scale="   59.660">  1  3  2 -1</clus>
<clus scale="  139.527">  1  4  2 -1</clus>
<clus scale="   59.660">  1  3  2 -1</clus>
</clustering>
</event>
<event>
 6    0  0.4469832E+002  0.1501362E+03  0.7546771E-02  0.1200306E+00
         21   -1    0    0  504  501  0.00000000000E+00  0.00000000000E+00  0.15706108009E+04  0.15706108009E+04  0.00000000000E+00 0. -1.
         21   -1    0    0  503  502 -0.00000000000E+00 -0.00000000000E+00 -0.19145755751E+04  0.19145755751E+04  0.00000000000E+00 0.  1.
         21    1    1    2  503  505 -0.21357136178E+02 -0.28903628595E+02 -0.99077160754E+03  0.99142318176E+03  0.00000000000E+00 0.  1.
         21    1    1    2  504  506  0.12213994215E+03 -0.55406320432E+01  0.36917848697E+03  0.38889795488E+03  0.00000000000E+00 0. -1.
         21    1    1    2  505  501 -0.16064152809E+03  0.52370292225E+02  0.11841746537E+04  0.11961680310E+04  0.00000000000E+00 0. -1.
         21    1    1    2  506  502  0.59858722113E+02 -0.17926031586E+02 -0.90654630729E+03  0.90869720836E+03  0.00000000000E+00 0.  1.
<scales pt_clust_3="35.93810" pt_clust_4="14000.00000" pt_clust_5="150.13625" pt_clust_6="60.47748"></scales>
<clustering>
<clus scale="   35.938">  2  3  1 -1</clus>
<clus scale="   60.477">  2  6  1 -1</clus>
<clus scale="  150.136">  1  5  2 -1</clus>
<clus scale="  150.136">  1  3  2 -1</clus>
</clustering>
</event>
<event>
 6    0  0.4469832E+002  0.1292745E+03  0.7546771E-02  0.1228536E+00
         21   -1    0    0  506  501  0.00000000000E+00  0.00000000000E+00  0.36515147282E+03  0.36515147282E+03  0.00000000000E+00 0. -1.
         21   -1    0    0  501  502 -0.00000000000E+00 -0.00000000000E+00 -0.84910929195E+03  0.84910929195E+03  0.00000000000E+00 0.  1.
         21    1    1    2  503  505  0.12040388991E+02  0.35105970989E+02 -0.12741390727E+01  0.37135206968E+02  0.00000000000E+00 0.  1.
         21    1    1    2  504  503  0.50270193990E+02  0.11701458733E+02  0.88311954512E+01  0.52364172421E+02  0.00000000000E+00 0.  1.
         21    1    1    2  505  502 -0.87643525905E+02 -0.91023594868E+02 -0.80110303776E+03  0.81100725001E+03  0.00000000000E+00 0.  1.
         21    1    1    2  506  504  0.25332942924E+02  0.44216165146E+02  0.30958816225E+03  0.31375413537E+03  0.00000000000E+00 0. -1.
<scales pt_clust_3="36.76210" pt_clust_4="36.76210" pt_clust_5="121.78841" pt_clust_6="50.95907"></scales>
<clustering>
<clus scale="   36.762">  3  4 -1 -1</clus>
<clus scale="   50.959">  1  6  2 -1</clus>
<clus scale="  121.788">  2  5  1 -1</clus>
<clus scale="   50.959">  1  3  2 -1</clus>
</clustering>
</event>
<event>
 6    0  0.4469832E+002  0.1986189E+03  0.7546771E-02  0.1150910E+00
         21   -1    0    0  505  501  0.00000000000E+00  0.00000000000E+00  0.49121444669E+03  0.49121444669E+03  0.00000000000E+00 0. -1.
         21   -1    0    0  506  502 -0.00000000000E+00 -0.00000000000E+00 -0.43078087387E+03  0.43078087387E+03  0.00000000000E+00 0. -1.
         21    1    1    2  503  501  0.41183553044E+02  0.56870765019E+01  0.25248089009E+03  0.25588088585E+03  0.00000000000E+00 0. -1.
         21    1    1    2  504  502  0.14139324285E+03  0.13327914388E+03 -0.31378562264E+03  0.36907559699E+03  0.00000000000E+00 0. -1.
         21    1    1    2  505  504 -0.28451557039E+02  0.29210441156E+02  0.59231918891E+01  0.41204674160E+02  0.00000000000E+00 0. -1.
         21    1    1    2  506  503 -0.15412523886E+03 -0.16817666153E+03  0.11581511348E+03  0.25583416357E+03  0.00000000000E+00 0. -1.
<scales pt_clust_3="33.56308" pt_clust_4="14000.00000" pt_clust_5="40.77672" pt_clust_6="198.61887"></scales>
<clustering>
<clus scale="   40.777">  1  5  2 -1</clus>
<clus scale="   33.563">  1  3  2 -1</clus>
<clus scale="  198.619">  1  6  2 -1</clus>
<clus scale="   40.777">  1  3  2 -1</clus>
</clustering>
</event>
<event>
 6    0  0.4469832E+002  0.8975341E+02  0.7546771E-02  0.1303450E+00
         21   -1    0    0  503  501  0.00000000000E+00  0.00000000000E+00  0.33432898970E+03  0.33432898970E+03  0.00000000000E+00 0.  1.
         21   -1    0    0  504  502 -0.00000000000E+00 -0.00000000000E+00 -0.51702311718E+03  0.51702311718E+03  0.00000000000E+00 0.  1.
         21    1    1    2  503  505  0.33070125352E+02  0.31354297816E+02 -0.65142002944E+01  0.46034334880E+02  0.00000000000E+00 0. -1.
         21    1    1    2  504  506 -0.88304073803E+02  0.77844918851E+02 -0.26397318373E+03  0.28903162901E+03  0.00000000000E+00 0.  1.
         21    1    1    2  505  502  0.77389231820E+02 -0.13624585393E+02 -0.19858605979E+03  0.21356766064E+03  0.00000000000E+00 0.  1.
         21    1    1    2  506  501 -0.22155283368E+02 -0.95574631275E+02  0.28637931634E+03  0.30271848234E+03  0.00000000000E+00 0.  1.
<scales pt_clust_3="45.57110" pt_clust_4="89.75341" pt_clust_5="14000.00000" pt_clust_6="66.79934"></scales>
<clustering>
<clus scale="   45.571">  1  3  2 -1</clus>
<clus scale="   66.799">  1  6  2 -1</clus>
<clus scale="   89.753">  1  4  2 -1</clus>
<clus scale="   45.571">  1  3  2 -1</clus>
</clustering>
</event>
<event>
 6    0  0.4469832E+002  0.1092438E+03  0.7546771E-02  0.1261977E+00
         21   -1    0    0  503  501  0.00000000000E+00  0.00000000000E+00  0.47297597966E+03  0.47297597966E+03  0.00000000000E+00 0. -1.
         21   -1    0    0  504  502 -0.00000000000E+00 -0.00000000000E+00 -0.25465839136E+03  0.25465839136E+03  0.00000000000E+00 0.  1.
         21    1    1    2  503  505  0.28511091993E+02 -0.18070550464E+02  0.31036329745E+03  0.31219353543E+03  0.00000000000E+00 0. -1.
         21    1    1    2  504  501 -0.33685249117E+02  0.32797657674E+02 -0.80666951937E+02  0.93367764736E+02  0.00000000000E+00 0.  1.
         21    1    1    2  505  506 -0.20465185145E+02 -0.97953883944E+02  0.12508594994E+03  0.16018827065E+03  0.00000000000E+00 0. -1.
         21    1    1    2  506  502  0.25639342270E+02  0.83226776734E+02 -0.13646470716E+03  0.16188480020E+03  0.00000000000E+00 0.  1.
<scales pt_clust_3="33.75540" pt_clust_4="45.71817" pt_clust_5="14000.00000" pt_clust_6="109.24379"></scales>
<clustering>
<clus scale="   33.755">  1  3  2 -1</clus>
<clus scale="   45.718">  2  4  1 -1</clus>
<clus scale="  109.244">  2  6  1 -1</clus>
<clus scale="   33.755">  1  3  2 -1</clus>
</clustering>
</event>
<event>
 6    0  0.4469832E+002  0.1911655E+03  0.7546771E-02  0.1157414E+00
         21   -1    0    0  502  501  0.00000000000E+00  0.00000000000E+00  0.27414660294E+03  0.27414660294E+03  0.00000000000E+00 0. -1.
         21   -1    0    0  504  502 -0.00000000000E+00 -0.00000000000E+00 -0.16328026893E+03  0.16328026893E+03  0.00000000000E+00 0. -1.
         21    1    1    2  503  505  0.91250133927E+02  0.72510220941E+02  0.83324993735E+01  0.11684926028E+03  0.00000000000E+00 0. -1.
         21    1    1    2  504  503 -0.17183924426E+02  0.44136539844E+02 -0.47611957594E+01  0.47602420034E+02  0.00000000000E+00 0. -1.
         21    1    1    2  505  506  0.64518019649E+02  0.52084157504E+01  0.42309319577E+02  0.77329043555E+02  0.00000000000E+00 0.  1.
         21    1    1    2  506  501 -0.13858422915E+03 -0.12185517653E+03  0.64985710821E+02  0.19564614800E+03  0.00000000000E+00 0. -1.
<scales pt_clust_3="49.79447" pt_clust_4="47.36371" pt_clust_5="49.79447" pt_clust_6="178.06614"></scales>
<clustering>
<clus scale="   47.364">  2  4  1 -1</clus>
<clus scale="   49.794">  3  5 -1 -1</clus>
<clus scale="  178.066">  1  6  2 -1</clus>
<clus scale="  178.066">  1  3  2 -1</clus>
</clustering>
</event>
<event>
 6    0  0.4469832E+002  0.1056787E+03  0.7546771E-02  0.1268788E+00
         21   -1    0    0  504  501  0.00000000000E+00  0.00000000000E+00  0.22811911614E+03  0.22811911614E+03  0.00000000000E+00 0. -1.
         21   -1    0    0  505  502 -0.00000000000E+00 -0.00000000000E+00 -0.14923577776E+03  0.14923577776E+03  0.00000000000E+00 0. -1.
         21    1    1    2  503  501 -0.30741553326E+02  0.12885811752E+03  0.14874765884E+03  0.19918665508E+03  0.00000000000E+00 0. -1.
         21    1    1    2  504  502  0.26881392120E+02 -0.35492854893E+02  0.13781271776E+02  0.46607675790E+02  0.00000000000E+00 0. -1.
         21    1    1    2  505  506  0.19261028686E+02 -0.31784662282E+02 -0.39539250565E+02  0.54264208441E+02  0.00000000000E+00 0. -1.
         21    1    1    2  506  503 -0.15400867480E+02 -0.61580600347E+02 -0.44106341670E+02  0.77296354595E+02  0.00000000000E+00 0. -1.
<scales pt_clust_3="97.92020" pt_clust_4="44.52361" pt_clust_5="30.41138" pt_clust_6="30.41138"></scales>
<clustering>
<clus scale="   30.411">  5  6 -1 -1</clus>
<clus scale="   44.524">  1  4  2 -1</clus>
<clus scale="   97.920">  1  3  2 -1</clus>
<clus scale="   44.524">  1  3  2 -1</clus>
</clustering>
</event>
<event>
 6    0  0.4469832E+002  0.1027779E+03  0.7546771E-02  0.1274561E+00
         21   -1    0    0  503  501  0.00000000000E+00  0.00000000000E+00  0.63745061355E+03  0.63745061355E+03  0.00000000000E+00 0. -1.
         21   -1    0    0  504  502 -0.00000000000E+00 -0.00000000000E+00 -0.13533261093E+03  0.13533261093E+03  0.00000000000E+00 0.  1.
         21    1    1    2  503  506  0.79880741083E+02  0.46573368394E+02  0.10006571431E+02  0.93006144482E+02  0.00000000000E+00 0.  1.
         21    1    1    2  504  505 -0.66370117545E+01 -0.31084348638E+02 -0.47796782238E+02  0.57400514349E+02  0.00000000000E+00 0. -1.
         21    1    1    2  505  501 -0.10480921875E+03 -0.65137440175E+01  0.56894683372E+03  0.57855673948E+03  0.00000000000E+00 0. -1.
         21    1    1    2  506  502  0.31565489418E+02 -0.89752757386E+01 -0.29038620290E+02  0.43819826165E+02  0.00000000000E+00 0.  1.
<scales pt_clust_3="14000.00000" pt_clust_4="31.78501" pt_clust_5="102.77787" pt_clust_6="36.52403"></scales>
<clustering>
<clus scale="   31.785">  2  4  1 -1</clus>
<clus scale="   36.524">  2  6  1 -1</clus>
<clus scale="  102.778">  1  5  2 -1</clus>
<clus scale="  102.778">  1  3  2 -1</clus>
</clustering>
</event>
<event>
 6    0  0.4469832E+002  0.1880557E+03  0.7546771E-02  0.1160227E+00
         21   -1    0    0  503  501  0.00000000000E+00  0.00000000000E+00  0.13403593535E+03  0.13403593535E+03  0.00000000000E+00 0. -1.
         21   -1    0    0  504  502 -0.00000000000E+00 -0.00000000000E+00 -0.19384373881E+04  0.19384373881E+04  0.00000000000E+00 0.  1.
         21    1    1    2  503  505  0.33359427123E+02 -0.13980272921E+01 -0.25659894806E+01  0.33487164113E+02  0.00000000000E+00 0. -1.
         21    1    1    2  504  501 -0.65447249344E+02  0.11916871494E+03 -0.16185564246E+04  0.16242565760E+04  0.00000000000E+00 0.  1.
         21    1    1    2  505  506  0.93237229401E+02 -0.12211521772E+03  0.59177578398E+02  0.16464292614E+03  0.00000000000E+00 0. -1.
         21    1    1    2  506  502 -0.61149407181E+02  0.43445300667E+01 -0.24245661702E+03  0.25008665713E+03  0.00000000000E+00 0. -1.
<scales pt_clust_3="32.19103" pt_clust_4="174.91858" pt_clust_5="32.19103" pt_clust_6="61.30355"></scales>
<clustering>
<clus scale="   32.191">  3  5 -1 -1</clus>
<clus scale="   61.304">  2  6  1 -1</clus>
<clus scale="  174.919">  2  4  1 -1</clus>
<clus scale="  188.056">  1  3  2 -1</clus>
</clustering>
</event>
<event>
 6    0  0.4469832E+002  0.1321100E+03  0.7546771E-02  0.1224358E+00
         21   -1    0    0  504  501  0.00000000000E+00  0.00000000000E+00  0.77034532264E+03  0.77034532264E+03  0.00000000000E+00 0.  1.
         21   -1    0    0  506  502 -0.00000000000E+00 -0.00000000000E+00 -0.33539592479E+03  0.33539592479E+03  0.00000000000E+00 0. -1.
         21    1    1    2  503  502  0.10063762771E+03 -0.77297874310E+02 -0.27083327723E+03  0.29908787595E+03  0.00000000000E+00 0. -1.
         21    1    1    2  504  503 -0.85499299092E+02  0.10093472295E+03  0.71924733891E+03  0.73131025083E+03  0.00000000000E+00 0.  1.
         21    1    1    2  505  501  0.17334420316E+02 -0.34032706938E+02 -0.15425724331E+02  0.41190535810E+02  0.00000000000E+00 0.  1.
         21    1    1    2  506  505 -0.32472748931E+02  0.10395858301E+02  0.19610604964E+01  0.34152584839E+02  0.00000000000E+00 0. -1.
<scales pt_clust_3="132.10996" pt_clust_4="14000.00000" pt_clust_5="36.12897" pt_clust_6="34.09624"></scales>
<clustering>
<clus scale="   34.096">  2  6  1 -1</clus>
<clus scale="   36.129">  2  5  1 -1</clus>
<clus scale="  132.110">  2  3  1 -1</clus>
<clus scale="  132.110">  1  3  2 -1</clus>
</clustering>
</event>
<event>
 6    0  0.4469832E+002  0.1928203E+03  0.7546771E-02  0.1155942E+00
         21   -1    0    0  504  501  0.00000000000E+00  0.00000000000E+00  0.43472179002E+03  0.43472179002E+03  0.00000000000E+00 0. -1.
         21   -1    0    0  505  502 -0.00000000000E+00 -0.00000000000E+00 -0.21849191606E+03  0.21849191606E+03  0.00000000000E+00 0. -1.
         21    1    1    2  503  502  0.94283799024E+02 -0.92313767774E+02 -0.55257120385E+02  0.14305459039E+03  0.00000000000E+00 0. -1.
         21    1    1    2  504  506 -0.20615962063E+02  0.26633060322E+02  0.25242996424E+03  0.25466688956E+03  0.00000000000E+00 0. -1.
         21    1    1    2  505  501 -0.14270311506E+03  0.87152461123E+02  0.53292316430E+02  0.17549872227E+03  0.00000000000E+00 0. -1.
         21    1    1    2  506  503  0.69035278100E+02 -0.21471753671E+02 -0.34235286324E+02  0.79993503847E+02  0.00000000000E+00 0.  1.
<scales pt_clust_3="34.33860" pt_clust_4="33.67993" pt_clust_5="187.23880" pt_clust_6="34.33860"></scales>
<clustering>
<clus scale="   33.680">  1  4  2 -1</clus>
<clus scale="   34.339">  3  6 -1 -1</clus>
<clus scale="  187.239">  1  5  2 -1</clus>
<clus scale="   33.680">  1  3  2 -1</clus>
</clustering>
</event>
<event>
 6    0  0.4469832E+002  0.6585840E+02  0.7546771E-02  0.1374771E+00
         21   -1    0    0  504  501  0.00000000000E+00  0.00000000000E+00  0.12906234024E+04  0.12906234024E+04  0.00000000000E+00 0. -1.
         21   -1    0    0  506  502 -0.00000000000E+00 -0.00000000000E+00 -0.36367901578E+02  0.36367901578E+02  0.00000000000E+00 0. -1.
         21    1    1    2  503  505  0.43456102557E+02 -0.32697339921E+02  0.29258950745E+03  0.29760068676E+03  0.00000000000E+00 0. -1.
         21    1    1    2  504  503 -0.42024061513E+02 -0.30578382649E+02  0.83216034444E+03  0.83378168491E+03  0.00000000000E+00 0. -1.
         21    1    1    2  505  502  0.61276785500E+02  0.51254385570E+02  0.52583604056E+02  0.95639384654E+02  0.00000000000E+00 0. -1.
         21    1    1    2  506  501 -0.62708826544E+02  0.12021337000E+02  0.76922044836E+02  0.99969547620E+02  0.00000000000E+00 0. -1.
<scales pt_clust_3="54.90789" pt_clust_4="51.97172" pt_clust_5="65.85840" pt_clust_6="14000.00000"></scales>
<clustering>
<clus scale="   51.972">  1  4  2 -1</clus>
<clus scale="   54.908">  1  3  2 -1</clus>
<clus scale="   65.858">  2  5  1 -1</clus>
<clus scale="   51.972">  1  3  2 -1</clus>
</clustering>
</event>
<event>
 6    0  0.4469832E+002  0.1175727E+03  0.7546771E-02  0.1247156E+00
         21   -1    0    0  502  501  0.00000000000E+00  0.00000000000E+00  0.17095881366E+04  0.17095881366E+04  0.00000000000E+00 0.  1.
         21   -1    0    0  503  502 -0.00000000000E+00 -0.00000000000E+00 -0.22839289884E+02  0.22839289884E+02  0.00000000000E+00 0.  1.
         21    1    1    2  503  505 -0.36072923767E+02 -0.38056877422E+02  0.61243560058E+02  0.80624781530E+02  0.00000000000E+00 0.  1.
         21    1    1    2  504  506  0.18574244039E+02  0.11849833533E+03  0.78465668900E+03  0.79377136356E+03  0.00000000000E+00 0.  1.
         21    1    1    2  505  504 -0.15462070350E+02 -0.60692736001E+02  0.11321933857E+03  0.12938818512E+03  0.00000000000E+00 0.  1.
         21    1    1    2  506  501  0.32960750079E+02 -0.19748721903E+02  0.72762925908E+03  0.72864309626E+03  0.00000000000E+00 0.  1.
<scales pt_clust_3="32.48959" pt_clust_4="112.08268" pt_clust_5="32.48959" pt_clust_6="38.42425"></scales>
<clustering>
<clus scale="   32.490">  3  5 -1 -1</clus>
<clus scale="   38.424">  1  6  2 -1</clus>
<clus scale="  112.083">  1  4  2 -1</clus>
<clus scale="   38.424">  1  3  2 -1</clus>
</clustering>
</event>
<event>
 6    0  0.4469832E+002  0.8963112E+02  0.7546771E-02  0.1303747E+00
         21   -1    0    0  503  501  0.00000000000E+00  0.00000000000E+00  0.18310848568E+03  0.18310848568E+03  0.00000000000E+00 0. -1.
         21   -1    0    0  504  502 -0.00000000000E+00 -0.00000000000E+00 -0.22821324212E+03  0.22821324212E+03  0.00000000000E+00 0. -1.
         21    1    1    2  503  502 -0.27633534160E+02  0.37607493657E+02 -0.27062000883E+02  0.53947082230E+02  0.00000000000E+00 0. -1.
         21    1    1    2  504  506 -0.37473267434E+02  0.39378272425E+02 -0.14362835666E+03  0.15357082714E+03  0.00000000000E+00 0. -1.
         21    1    1    2  505  501  0.49979852927E+02  0.25402327356E+02  0.54911520791E+02  0.78476359812E+02  0.00000000000E+00 0. -1.
         21    1    1    2  506  505  0.15126948668E+02 -0.10238809344E+03  0.70674080323E+02  0.12532745862E+03  0.00000000000E+00 0. -1.
<scales pt_clust_3="46.66836" pt_clust_4="89.63112" pt_clust_5="55.66318" pt_clust_6="14000.00000"></scales>
<clustering>
<clus scale="   46.668">  2  3  1 -1</clus>
<clus scale="   55.663">  1  5  2 -1</clus>
<clus scale="   89.631">  2  4  1 -1</clus>
<clus scale="   55.663">  1  3  2 -1</clus>
</clustering>
</event>
<event>
 6    0  0.4469832E+002  0.1269605E+03  0.7546771E-02  0.1232037E+00
         21   -1    0    0  504  501  0.00000000000E+00  0.00000000000E+00  0.12556328926E+02  0.12556328926E+02  0.00000000000E+00 0.  1.
         21   -1    0    0  505  502 -0.00000000000E+00 -0.00000000000E+00 -0.24179396745E+04  0.24179396745E+04  0.00000000000E+00 0.  1.
         21    1    1    2  503  501  0.26216652174E+01 -0.52709417424E+02 -0.21956738469E+03  0.22582070816E+03  0.00000000000E+00 0.  1.
         21    1    1    2  504  506 -0.38528645534E+02 -0.21477849084E+02 -0.80201232067E+02  0.91531372507E+02  0.00000000000E+00 0.  1.
         21    1    1    2  505  503  0.13026477440E+02 -0.49886080674E+02 -0.54150594765E+03  0.54395496275E+03  0.00000000000E+00 0.  1.
         21    1    1    2  506  502  0.22880502877E+02  0.12407334718E+03 -0.15641087811E+04  0.15691889600E+04  0.00000000000E+00 0.  1.
<scales pt_clust_3="46.34941" pt_clust_4="44.11071" pt_clust_5="46.34941" pt_clust_6="116.48049"></scales>
<clustering>
<clus scale="   44.111">  1  4  2 -1</clus>
<clus scale="   46.349">  3  5 -1 -1</clus>
<clus scale="  116.480">  2  6  1 -1</clus>
<clus scale="   44.111">  1  3  2 -1</clus>
</clustering>
</event>
<event>
 6    0  0.4469832E+002  0.7428874E+02  0.7546771E-02  0.1346088E+00
         21   -1    0    0  503  501  0.00000000000E+00  0.00000000000E+00  0.66182358619E+02  0.66182358619E+02  0.00000000000E+00 0. -1.
         21   -1    0    0  504  502 -0.00000000000E+00 -0.00000000000E+00 -0.91732785551E+03  0.91732785551E+03  0.00000000000E+00 0. -1.
         21    1    1    2  503  502  0.99990464331E+02  0.29115667712E+02 -0.27633381602E+02  0.10774701315E+03  0.00000000000E+00 0. -1.
         21    1    1    2  504  506 -0.63017447960E+02  0.39637516035E+02 -0.71222417677E+03  0.71610446822E+03  0.00000000000E+00 0. -1.
         21    1    1    2  505  501  0.10047263027E+02 -0.36560882582E+02 -0.39361934205E+01  0.38120063591E+02  0.00000000000E+00 0. -1.
         21    1    1    2  506  505 -0.47020279398E+02 -0.32192301164E+02 -0.10735174510E+03  0.12153866917E+03  0.00000000000E+00 0. -1.
<scales pt_clust_3="74.28874" pt_clust_4="14000.00000" pt_clust_5="37.91630" pt_clust_6="58.99900"></scales>
<clustering>
<clus scale="   37.916">  1  5  2 -1</clus>
<clus scale="   58.999">  1  6  2 -1</clus>
<clus scale="   74.289">  1  3  2 -1</clus>
<clus scale="   37.916">  1  3  2 -1</clus>
</clustering>
</event>
<event>
 6    0  0.4469832E+002  0.1116648E+03  0.7546771E-02  0.1257518E+00
         21   -1    0    0  503  501  0.00000000000E+00  0.00000000000E+00  0.53305678549E+03  0.53305678549E+03  0.00000000000E+00 0. -1.
         21   -1    0    0  501  502 -0.00000000000E+00 -0.00000000000E+00 -0.40999933859E+02  0.40999933859E+02  0.00000000000E+00 0. -1.
         21    1    1    2  503  506 -0.58381720540E+02 -0.79143249419E+02  0.32860352318E+03  0.34300489015E+03  0.00000000000E+00 0. -1.
         21    1    1    2  504  502 -0.35853995357E+02  0.16350249544E+02  0.30659137539E+02  0.49928171986E+02  0.00000000000E+00 0.  1.
         21    1    1    2  505  504  0.37767220145E+02  0.40204842778E+02  0.33064504796E+02  0.64312158864E+02  0.00000000000E+00 0. -1.
         21    1    1    2  506  505  0.56468495752E+02  0.22588157096E+02  0.99729686122E+02  0.11681149835E+03  0.00000000000E+00 0. -1.
<scales pt_clust_3="100.60256" pt_clust_4="39.40609" pt_clust_5="47.69710" pt_clust_6="47.69710"></scales>
<clustering>
<clus scale="   39.406">  2  4  1 -1</clus>
<clus scale="   47.697">  5  6 -1 -1</clus>
<clus scale="  100.603">  1  3  2 -1</clus>
<clus scale="  100.603">  1  3  2 -1</clus>
</clustering>
</event>
<event>
 6    0  0.4469832E+002  0.6167405E+03  0.7546771E-02  0.9871271E-01
         21   -1    0    0  505  501  0.00000000000E+00  0.00000000000E+00  0.11049174622E+04  0.11049174622E+04  0.00000000000E+00 0. -1.
         21   -1    0    0  503  502 -0.00000000000E+00 -0.00000000000E+00 -0.71215700788E+03  0.71215700788E+03  0.00000000000E+00 0. -1.
         21    1    1    2  503  501  0.71445222681E+03  0.32616413397E+03  0.38466774598E+03  0.87452518631E+03  0.00000000000E+00 0. -1.
         21    1    1    2  504  506 -0.37640038917E+02 -0.81023002165E+02 -0.34153200495E+02  0.95644866634E+02  0.00000000000E+00 0. -1.
         21    1    1    2  505  504 -0.22537330277E+03 -0.10857754979E+03  0.22946238765E+03  0.33946310148E+03  0.00000000000E+00 0. -1.
         21    1    1    2  506  502 -0.45143888512E+03 -0.13656358202E+03 -0.18721647879E+03  0.50744131568E+03  0.00000000000E+00 0. -1.
<scales pt_clust_3="593.46658" pt_clust_4="73.04315" pt_clust_5="250.16437" pt_clust_6="73.04315"></scales>
<clustering>
<clus scale="   73.043">  4  6 -1 -1</clus>
<clus scale="  250.164">  1  5  2 -1</clus>
<clus scale="  593.467">  1  3  2 -1</clus>
<clus scale="  250.164">  1  3  2 -1</clus>
</clustering>
</event>
<event>
 6    0  0.4469832E+002  0.1570407E+03  0.7546771E-02  0.1192079E+00
         21   -1    0    0  505  501  0.00000000000E+00  0.00000000000E+00  0.63956142215E+03  0.63956142215E+03  0.00000000000E+00 0.  1.
         21   -1    0    0  504  502 -0.00000000000E+00 -0.00000000000E+00 -0.66834616341E+02  0.66834616341E+02  0.00000000000E+00 0.  1.
         21    1    1    2  503  506  0.51925695660E+02  0.34075620649E+02  0.46420701424E+02  0.77539069591E+02  0.00000000000E+00 0.  1.
         21    1    1    2  504  501 -0.11573998626E+03 -0.12336256495E+03  0.14162971341E+03  0.22061967857E+03  0.00000000000E+00 0.  1.
         21    1    1    2  505  503  0.15945303906E+02  0.34967534649E+02  0.26927692509E+03  0.27200559477E+03  0.00000000000E+00 0.  1.
         21    1    1    2  506  502  0.47868986694E+02  0.54319409651E+02  0.11539946588E+03  0.13623169557E+03  0.00000000000E+00 0. -1.
<scales pt_clust_3="37.20412" pt_clust_4="151.40098" pt_clust_5="38.43151" pt_clust_6="37.20412"></scales>
<clustering>
<clus scale="   38.432">  1  5  2 -1</clus>
<clus scale="   37.204">  3  6 -1 -1</clus>
<clus scale="  151.401">  1  4  2 -1</clus>
<clus scale="   38.432">  1  3  2 -1</clus>
</clustering>
</event>
<event>
 6    0  0.4469832E+002  0.8837053E+02  0.7546771E-02  0.1306846E+00
         21   -1    0    0  503  501  0.00000000000E+00  0.00000000000E+00  0.81960212677E+03  0.81960212677E+03  0.00000000000E+00 0.  1.
         21   -1    0    0  504  502 -0.00000000000E+00 -0.00000000000E+00 -0.37161498271E+02  0.37161498271E+02  0.00000000000E+00 0.  1.
         21    1    1    2  503  506  0.28790112061E+02 -0.14763534501E+02  0.18020630871E+03  0.18308781009E+03  0.00000000000E+00 0. -1.
         21    1    1    2  504  505  0.11715946261E+02 -0.67815631906E+02  0.95458856443E+02  0.11768014531E+03  0.00000000000E+00 0.  1.
         21    1    1    2  505  501 -0.86007329568E+02 -0.31905595600E+02  0.31477799616E+03  0.32787255853E+03  0.00000000000E+00 0.  1.
         21    1    1    2  506  502  0.45501271245E+02  0.11448476201E+03  0.19199746719E+03  0.22812311111E+03  0.00000000000E+00 0.  1.
<scales pt_clust_3="32.35479" pt_clust_4="72.19851" pt_clust_5="88.37053" pt_clust_6="14000.00000"></scales>
<clustering>
<clus scale="   32.355">  1  3  2 -1</clus>
<clus scale="   72.199">  2  4  1 -1</clus>
<clus scale="   88.371">  1  5  2 -1</clus>
<clus scale="   32.355">  1  3  2 -1</clus>
</clustering>
</event>
<event>
 6    0  0.4469832E+002  0.1742697E+03  0.7546771E-02  0.1173467E+00
         21   -1    0    0  503  501  0.00000000000E+00  0.00000000000E+00  0.23425382482E+03  0.23425382482E+03  0.00000000000E+00 0.  1.
         21   -1    0    0  506  502 -0.00000000000E+00 -0.00000000000E+00 -0.68573353746E+03  0.68573353746E+03  0.00000000000E+00 0.  1.
         21    1    1    2  503  504 -0.27873010846E+02  0.11401718531E+02 -0.47604958826E+01  0.30488788761E+02  0.00000000000E+00 0.  1.
         21    1    1    2  504  505 -0.13787130392E+03  0.59261216612E+02 -0.36043548227E+03  0.39042813054E+03  0.00000000000E+00 0.  1.
         21    1    1    2  505  502 -0.37292864591E+02 -0.42366451704E+02 -0.23763944188E+03  0.24425023709E+03  0.00000000000E+00 0.  1.
         21    1    1    2  506  501  0.20303717936E+03 -0.28296483439E+02  0.15135570739E+03  0.25482020590E+03  0.00000000000E+00 0.  1.
<scales pt_clust_3="30.11485" pt_clust_4="174.26965" pt_clust_5="56.59055" pt_clust_6="14000.00000"></scales>
<clustering>
<clus scale="   30.115">  1  3  2 -1</clus>
<clus scale="   56.591">  2  5  1 -1</clus>
<clus scale="  174.270">  2  4  1 -1</clus>
<clus scale="   30.115">  1  3  2 -1</clus>
</clustering>
</event>
<event>
 6    0  0.4469832E+002  0.1569964E+03  0.7546771E-02  0.1192130E+00
         21   -1    0    0  504  501  0.00000000000E+00  0.00000000000E+00  0.60526739469E+03  0.60526739469E+03  0.00000000000E+00 0.  1.
         21   -1    0    0  503  502 -0.00000000000E+00 -0.00000000000E+00 -0.31085740498E+03  0.31085740498E+03  0.00000000000E+00 0. -1.
         21    1    1    2  503  505  0.43649597258E+02  0.20477401178E+03 -0.19720717244E+03  0.28762536763E+03  0.00000000000E+00 0. -1.
         21    1    1    2  504  506 -0.15712797037E+02  0.32162891645E+02  0.22397400099E+03  0.22681643836E+03  0.00000000000E+00 0. -1.
         21    1    1    2  505  501 -0.79375169522E+01 -0.17733412945E+03  0.28562653850E+03  0.33629290378E+03  0.00000000000E+00 0.  1.
         21    1    1    2  506  502 -0.19999283269E+02 -0.59602773979E+02 -0.17983377330E+02  0.65390089903E+02  0.00000000000E+00 0. -1.
<scales pt_clust_3="14000.00000" pt_clust_4="35.79586" pt_clust_5="156.99643" pt_clust_6="61.29790"></scales>
<clustering>
<clus scale="   35.796">  1  4  2 -1</clus>
<clus scale="   61.298">  2  6  1 -1</clus>
<clus scale="  156.996">  1  5  2 -1</clus>
<clus scale="   35.796">  1  3  2 -1</clus>
</clustering>
</event>
<event>
 6    0  0.4469832E+002  0.1148093E+03  0.7546771E-02  0.1251914E+00
         21   -1    0    0  503  501  0.00000000000E+00  0.00000000000E+00  0.65797430683E+02  0.65797430683E+02  0.00000000000E+00 0.  1.
         21   -1    0    0  505  502 -0.00000000000E+00 -0.00000000000E+00 -0.84068291197E+03  0.84068291197E+03  0.00000000000E+00 0.  1.
         21    1    1    2  503  506  0.27775109278E+02  0.24086009219E+02 -0.27780100772E+02  0.46079567429E+02  0.00000000000E+00 0.  1.
         21    1    1    2  504  501  0.81168476305E+02 -0.59757922069E+02 -0.85583531700E+01  0.10115619706E+03  0.00000000000E+00 0.  1.
         21    1    1    2  505  504 -0.13886306900E+03  0.23357084217E+02 -0.64706284207E+03  0.66220754066E+03  0.00000000000E+00 0.  1.
         21    1    1    2  506  502  0.29919483415E+02  0.12314828633E+02 -0.91484185269E+02  0.97037037498E+02  0.00000000000E+00 0.  1.
<scales pt_clust_3="38.28493" pt_clust_4="14000.00000" pt_clust_5="114.80928" pt_clust_6="32.35476"></scales>
<clustering>
<clus scale="   32.355">  2  6  1 -1</clus>
<clus scale="   38.285">  1  3  2 -1</clus>
<clus scale="  114.809">  2  5  1 -1</clus>
<clus scale="   38.285">  1  3  2 -1</clus>
</clustering>
</event>
<event>
 6    0  0.4469832E+002  0.1523866E+03  0.7546771E-02  0.1197571E+00
         21   -1    0    0  506  501  0.00000000000E+00  0.00000000000E+00  0.43426139707E+03  0.43426139707E+03  0.00000000000E+00 0. -1.
         21   -1    0    0  504  502 -0.00000000000E+00 -0.00000000000E+00 -0.20590832042E+03  0.20590832042E+03  0.00000000000E+00 0. -1.
         21    1    1    2  503  502 -0.95260557836E+02  0.17164350774E+03  0.12368482556E+03  0.23202155871E+03  0.00000000000E+00 0. -1.
         21    1    1    2  504  505 -0.45953663023E+02 -0.16032032467E+02 -0.41000992840E+02  0.63638405261E+02  0.00000000000E+00 0.  1.
         21    1    1    2  505  501 -0.70329533891E+01 -0.12585041535E+03 -0.11308987411E+02  0.12655308244E+03  0.00000000000E+00 0. -1.
         21    1    1    2  506  503  0.14824717425E+03 -0.29761059923E+02  0.15697823133E+03  0.21795667109E+03  0.00000000000E+00 0. -1.
<scales pt_clust_3="14000.00000" pt_clust_4="48.66996" pt_clust_5="135.88987" pt_clust_6="152.38658"></scales>
<clustering>
<clus scale="   48.670">  2  4  1 -1</clus>
<clus scale="  135.890">  2  5  1 -1</clus>
<clus scale="  152.387">  1  6  2 -1</clus>
<clus scale="  152.387">  1  3  2 -1</clus>
</clustering>
</event>
<event>
 6    0  0.4469832E+002  0.9650302E+02  0.7546771E-02  0.1287826E+00
         21   -1    0    0  504  501  0.00000000000E+00  0.00000000000E+00  0.65929783656E+03  0.65929783656E+03  0.00000000000E+00 0.  1.
         21   -1    0    0  506  502 -0.00000000000E+00 -0.00000000000E+00 -0.61554623873E+03  0.61554623873E+03  0.00000000000E+00 0. -1.
         21    1    1    2  503  502 -0.30327607222E+02 -0.13100518451E+02 -0.28564599853E+03  0.28755003707E+03  0.00000000000E+00 0. -1.
         21    1    1    2  504  505  0.93411590572E+02  0.24581876890E+02  0.62077931131E+03  0.62824911244E+03  0.00000000000E+00 0.  1.
         21    1    1    2  505  503 -0.78519703722E+02 -0.51828435761E+02 -0.30050894965E+03  0.31489229817E+03  0.00000000000E+00 0. -1.
         21    1    1    2  506  501  0.15435720371E+02  0.40347077322E+02  0.91272346921E+01  0.44152627610E+02  0.00000000000E+00 0. -1.
<scales pt_clust_3="33.03615" pt_clust_4="14000.00000" pt_clust_5="96.50302" pt_clust_6="41.98948"></scales>
<clustering>
<clus scale="   33.036">  2  3  1 -1</clus>
<clus scale="   41.989">  2  6  1 -1</clus>
<clus scale="   96.503">  2  5  1 -1</clus>
<clus scale="   96.503">  1  3  2 -1</clus>
</clustering>
</event>
<event>
 6    0  0.4469832E+002  0.1372006E+03  0.7546771E-02  0.1217146E+00
         21   -1    0    0  505  501  0.00000000000E+00  0.00000000000E+00  0.28421053111E+03  0.28421053111E+03  0.00000000000E+00 0. -1.
         21   -1    0    0  506  502 -0.00000000000E+00 -0.00000000000E+00 -0.74197166014E+03  0.74197166014E+03  0.00000000000E+00 0.  1.
         21    1    1    2  503  502  0.59701381543E+02 -0.74234636913E+02 -0.62092149561E+03  0.62818670790E+03  0.00000000000E+00 0.  1.
         21    1    1    2  504  501 -0.38947632526E+02  0.14449906966E+03  0.17985233070E+03  0.23397384484E+03  0.00000000000E+00 0. -1.
         21    1    1    2  505  503 -0.45098617623E+02 -0.32837450853E+02  0.55786791637E+02  0.78894547410E+02  0.00000000000E+00 0.  1.
         21    1    1    2  506  504  0.24344868606E+02 -0.37426981893E+02 -0.72478755761E+02  0.85127091091E+02  0.00000000000E+00 0. -1.
<scales pt_clust_3="137.20064" pt_clust_4="14000.00000" pt_clust_5="55.83329" pt_clust_6="44.64809"></scales>
<clustering>
<clus scale="   44.648">  2  6  1 -1</clus>
<clus scale="   55.833">  1  5  2 -1</clus>
<clus scale="  137.201">  2  3  1 -1</clus>
<clus scale="   55.833">  1  3  2 -1</clus>
</clustering>
</event>
<event>
 6    0  0.4469832E+002  0.9134104E+02  0.7546771E-02  0.1299636E+00
         21   -1    0    0  506  501  0.00000000000E+00  0.00000000000E+00  0.22140803183E+03  0.22140803183E+03  0.00000000000E+00 0.  1.
         21   -1    0    0  505  502 -0.00000000000E+00 -0.00000000000E+00 -0.35617277423E+03  0.35617277423E+03  0.00000000000E+00 0.  1.
         21    1    1    2  503  501 -0.10419404239E+03 -0.25068500292E+02  0.15413562462E+03  0.18773017593E+03  0.00000000000E+00 0.  1.
         21    1    1    2  504  502  0.20259555409E+02 -0.36503186083E+02 -0.91536493141E+02  0.10060746372E+03  0.00000000000E+00 0.  1.
         21    1    1    2  505  503  0.71840442723E+02  0.33518360252E+02 -0.23075099292E+03  0.24398883257E+03  0.00000000000E+00 0.  1.
         21    1    1    2  506  504  0.12094044261E+02  0.28053326123E+02  0.33387119049E+02  0.45254333843E+02  0.00000000000E+00 0.  1.
<scales pt_clust_3="91.34104" pt_clust_4="41.28805" pt_clust_5="14000.00000" pt_clust_6="30.54922"></scales>
<clustering>
<clus scale="   30.549">  1  6  2 -1</clus>
<clus scale="   41.288">  2  4  1 -1</clus>
<clus scale="   91.341">  1  3  2 -1</clus>
<clus scale="   30.549">  1  3  2 -1</clus>
</clustering>
</event>
<event>
 6    0  0.4469832E+002  0.1141579E+03  0.7546771E-02  0.1253058E+00
         21   -1    0    0  505  501  0.00000000000E+00  0.00000000000E+00  0.51544405772E+03  0.51544405772E+03  0.00000000000E+00 0.  1.
         21   -1    0    0  504  502 -0.00000000000E+00 -0.00000000000E+00 -0.29193913098E+03  0.29193913098E+03  0.00000000000E+00 0.  1.
         21    1    1    2  503  502  0.66967537613E+02 -0.88272626429E+01 -0.61743800604E+02  0.91514308022E+02  0.00000000000E+00 0.  1.
         21    1    1    2  504  506  0.46140535096E+02  0.54298207714E+02 -0.19811173888E+03  0.21053623303E+03  0.00000000000E+00 0.  1.
         21    1    1    2  505  503 -0.22521019704E+02 -0.31122137077E+02  0.27512176197E+03  0.27779087036E+03  0.00000000000E+00 0.  1.
         21    1    1    2  506  501 -0.90587053005E+02 -0.14348807995E+02  0.20823870425E+03  0.22754177728E+03  0.00000000000E+00 0.  1.
<scales pt_clust_3="66.44281" pt_clust_4="14000.00000" pt_clust_5="38.41593" pt_clust_6="114.15794"></scales>
<clustering>
<clus scale="   38.416">  1  5  2 -1</clus>
<clus scale="   66.443">  2  3  1 -1</clus>
<clus scale="  114.158">  1  6  2 -1</clus>
<clus scale="   38.416">  1  3  2 -1</clus>
</clustering>
</event>
<event>
 6    0  0.4469832E+002  0.1873251E+03  0.7546771E-02  0.1160896E+00
         21   -1    0    0  504  501  0.00000000000E+00  0.00000000000E+00  0.19995695686E+04  0.19995695686E+04  0.00000000000E+00 0.  1.
         21   -1    0    0  506  502 -0.00000000000E+00 -0.00000000000E+00 -0.18699954975E+03  0.18699954975E+03  0.00000000000E+00 0. -1.
         21    1    1    2  503  502  0.29860171397E+02 -0.26556946818E+02 -0.25604905916E+02  0.47460641242E+02  0.00000000000E+00 0. -1.
         21    1    1    2  504  505 -0.29671732245E+02  0.18407796706E+03  0.18119036221E+04  0.18214718898E+04  0.00000000000E+00 0.  1.
         21    1    1    2  505  503 -0.43353588758E+02 -0.21939934616E+03 -0.27018674329E+02  0.22526787502E+03  0.00000000000E+00 0. -1.
         21    1    1    2  506  501  0.43165149606E+02  0.61878325914E+02  0.53289977019E+02  0.92368712285E+02  0.00000000000E+00 0. -1.
<scales pt_clust_3="39.96125" pt_clust_4="14000.00000" pt_clust_5="187.32514" pt_clust_6="75.01365"></scales>
<clustering>
<clus scale="   39.961">  2  3  1 -1</clus>
<clus scale="   75.014">  2  6  1 -1</clus>
<clus scale="  187.325">  2  5  1 -1</clus>
<clus scale="  187.325">  1  3  2 -1</clus>
</clustering>
</event>
<event>
 6    0  0.4469832E+002  0.1292733E+03  0.7546771E-02  0.1228538E+00
         21   -1    0    0  504  501  0.00000000000E+00  0.00000000000E+00  0.71638918091E+03  0.71638918091E+03  0.00000000000E+00 0. -1.
         21   -1    0    0  505  502 -0.00000000000E+00 -0.00000000000E+00 -0.13795862794E+03  0.13795862794E+03  0.00000000000E+00 0. -1.
         21    1    1    2  503  506 -0.40510802845E+02  0.24072657482E+02  0.43676044388E+02  0.64251185505E+02  0.00000000000E+00 0. -1.
         21    1    1    2  504  502  0.77705633979E+02  0.10650732272E+03 -0.23662348017E+02  0.13394731076E+03  0.00000000000E+00 0. -1.
         21    1    1    2  505  503 -0.49815274869E+01 -0.14002907108E+03  0.53291711695E+02  0.14990984924E+03  0.00000000000E+00 0. -1.
         21    1    1    2  506  501 -0.32213303647E+02  0.94490908737E+01  0.50512514490E+03  0.50623946335E+03  0.00000000000E+00 0. -1.
<scales pt_clust_3="55.49309" pt_clust_4="129.27329" pt_clust_5="14000.00000" pt_clust_6="33.57056"></scales>
<clustering>
<clus scale="   33.571">  1  6  2 -1</clus>
<clus scale="   55.493">  1  3  2 -1</clus>
<clus scale="  129.273">  2  4  1 -1</clus>
<clus scale="   33.571">  1  3  2 -1</clus>
</clustering>
</event>
<event>
 6    0  0.4469832E+002  0.9195642E+02  0.7546771E-02  0.1298182E+00
         21   -1    0    0  505  501  0.00000000000E+00  0.00000000000E+00  0.28530339663E+04  0.28530339663E+04  0.00000000000E+00 0. -1.
         21   -1    0    0  503  502 -0.00000000000E+00 -0.00000000000E+00 -0.14312390151E+02  0.14312390151E+02  0.00000000000E+00 0. -1.
         21    1    1    2  503  501 -0.67857508299E+02  0.35979202146E+02  0.12938633282E+04  0.12961409863E+04  0.00000000000E+00 0. -1.
         21    1    1    2  504  502 -0.10183073798E+02  0.29850255513E+02  0.76908414961E+02  0.83124226540E+02  0.00000000000E+00 0.  1.
         21    1    1    2  505  506  0.10845313981E+03 -0.81148295035E+02  0.14326302698E+04  0.14390193255E+04  0.00000000000E+00 0. -1.
         21    1    1    2  506  504 -0.30412557717E+02  0.15318837377E+02  0.35319563224E+02  0.49061818064E+02  0.00000000000E+00 0. -1.
<scales pt_clust_3="91.95642" pt_clust_4="31.53938" pt_clust_5="14000.00000" pt_clust_6="49.74295"></scales>
<clustering>
<clus scale="   31.539">  2  4  1 -1</clus>
<clus scale="   49.743">  2  6  1 -1</clus>
<clus scale="   91.956">  1  3  2 -1</clus>
<clus scale="   91.956">  1  3  2 -1</clus>
</clustering>
</event>
<event>
 6    0  0.4469832E+002  0.8566399E+02  0.7546771E-02  0.1313705E+00
         21   -1    0    0  506  501  0.00000000000E+00  0.00000000000E+00  0.30530109329E+03  0.30530109329E+03  0.00000000000E+00 0. -1.
         21   -1    0    0  504  502 -0.00000000000E+00 -0.00000000000E+00 -0.11519471052E+03  0.11519471052E+03  0.00000000000E+00 0.  1.
         21    1    1    2  503  501 -0.10108463097E+03  0.38096636491E+02  0.17532276864E+03  0.20593088533E+03  0.00000000000E+00 0. -1.
         21    1    1    2  504  503  0.38374609248E+02 -0.34807680732E+02 -0.27920206186E+02  0.58853404204E+02  0.00000000000E+00 0.  1.
         21    1    1    2  505  502  0.14670486341E+02  0.46439070081E+02 -0.28527443652E+02  0.56441345136E+02  0.00000000000E+00 0. -1.
         21    1    1    2  506  505  0.48039535380E+02 -0.49728025840E+02  0.71231263968E+02  0.99270169134E+02  0.00000000000E+00 0.  1.
<scales pt_clust_3="14000.00000" pt_clust_4="47.65999" pt_clust_5="48.70124" pt_clust_6="85.66399"></scales>
<clustering>
<clus scale="   48.701">  2  5  1 -1</clus>
<clus scale="   47.660">  2  4  1 -1</clus>
<clus scale="   85.664">  1  6  2 -1</clus>
<clus scale="   85.664">  1  3  2 -1</clus>
</clustering>
</event>
<event>
 6    0  0.4469832E+002  0.1182785E+03  0.7546771E-02  0.1245964E+00
         21   -1    0    0  504  501  0.00000000000E+00  0.00000000000E+00  0.41851108637E+03  0.41851108637E+03  0.00000000000E+00 0.  1.
         21   -1    0    0  505  502 -0.00000000000E+00 -0.00000000000E+00 -0.25977408403E+03  0.25977408403E+03  0.00000000000E+00 0.  1.
         21    1    1    2  503  501 -0.56099510086E+01  0.51712868664E+02  0.25135396837E+03  0.25667978057E+03  0.00000000000E+00 0.  1.
         21    1    1    2  504  506 -0.41288145217E+02 -0.91990031900E+02 -0.11208100876E+03  0.15076149850E+03  0.00000000000E+00 0.  1.
         21    1    1    2  505  503  0.46375044601E+02  0.72588241312E+02  0.12985128728E+03  0.15582379262E+03  0.00000000000E+00 0.  1.
         21    1    1    2  506  502  0.52305162508E+00 -0.32311078075E+02 -0.11038724455E+03  0.11502009871E+03  0.00000000000E+00 0.  1.
<scales pt_clust_3="51.43365" pt_clust_4="118.27847" pt_clust_5="14000.00000" pt_clust_6="32.31531"></scales>
<clustering>
<clus scale="   32.315">  2  6  1 -1</clus>
<clus scale="   51.434">  1  3  2 -1</clus>
<clus scale="  118.278">  2  4  1 -1</clus>
<clus scale="   51.434">  1  3  2 -1</clus>
</clustering>
</event>
<event>
 6    0  0.4469832E+002  0.1105463E+03  0.7546771E-02  0.1259562E+00
         21   -1    0    0  504  501  0.00000000000E+00  0.00000000000E+00  0.25733804408E+03  0.25733804408E+03  0.00000000000E+00 0.  1.
         21   -1    0    0  503  502 -0.00000000000E+00 -0.00000000000E+00 -0.14866060472E+03  0.14866060472E+03  0.00000000000E+00 0.  1.
         21    1    1    2  503  506  0.18576363559E+02  0.23821490100E+02 -0.45809989683E+02  0.54873489304E+02  0.00000000000E+00 0.  1.
         21    1    1    2  504  502  0.31106411144E+02 -0.42101350029E+02 -0.70369656846E+01  0.52817150383E+02  0.00000000000E+00 0.  1.
         21    1    1    2  505  501 -0.10553132975E+03 -0.56959535435E+02  0.16566542167E+03  0.20451474805E+03  0.00000000000E+00 0.  1.
         21    1    1    2  506  505  0.55848555045E+02  0.75239395365E+02 -0.41410269395E+01  0.93793261056E+02  0.00000000000E+00 0.  1.
<scales pt_clust_3="30.20835" pt_clust_4="50.65479" pt_clust_5="110.54631" pt_clust_6="14000.00000"></scales>
<clustering>
<clus scale="   30.208">  2  3  1 -1</clus>
<clus scale="   50.655">  2  4  1 -1</clus>
<clus scale="  110.546">  1  5  2 -1</clus>
<clus scale="  110.546">  1  3  2 -1</clus>
</clustering>
</event>
<event>
 6    0  0.4469832E+002  0.1810313E+03  0.7546771E-02  0.1166809E+00
         21   -1    0    0  504  501  0.00000000000E+00  0.00000000000E+00  0.27499522304E+03  0.27499522304E+03  0.00000000000E+00 0. -1.
         21   -1    0    0  505  502 -0.00000000000E+00 -0.00000000000E+00 -0.59862774154E+03  0.59862774154E+03  0.00000000000E+00 0.  1.
         21    1    1    2  503  502 -0.20225296000E+02 -0.29276501640E+02 -0.17093193105E+03  0.17459639515E+03  0.00000000000E+00 0. -1.
         21    1    1    2  504  503 -0.57257078686E+02 -0.48130619840E+02  0.77878988297E+02  0.10798178756E+03  0.00000000000E+00 0. -1.
         21    1    1    2  505  506  0.27191785657E+01 -0.15069348627E+03 -0.30460178594E+03  0.33985021515E+03  0.00000000000E+00 0.  1.
         21    1    1    2  506  501  0.74763196121E+02  0.22810060775E+03  0.74022210196E+02  0.25119456672E+03  0.00000000000E+00 0. -1.
<scales pt_clust_3="35.58337" pt_clust_4="76.01298" pt_clust_5="181.03127" pt_clust_6="14000.00000"></scales>
<clustering>
<clus scale="   35.583">  2  3  1 -1</clus>
<clus scale="   76.013">  1  4  2 -1</clus>
<clus scale="  181.031">  2  5  1 -1</clus>
<clus scale="   76.013">  1  3  2 -1</clus>
</clustering>
</event>
<event>
 6    0  0.4469832E+002  0.1546442E+03  0.7546771E-02  0.1194880E+00
         21   -1    0    0  506  501  0.00000000000E+00  0.00000000000E+00  0.90677083697E+03  0.90677083697E+03  0.00000000000E+00 0.  1.
         21   -1    0    0  504  502 -0.00000000000E+00 -0.00000000000E+00 -0.10976900063E+03  0.10976900063E+03  0.00000000000E+00 0.  1.
         21    1    1    2  503  505 -0.71374295057E+02 -0.14272756355E+03  0.61407548074E+03  0.63447154659E+03  0.00000000000E+00 0.  1.
         21    1    1    2  504  503  0.95437589788E+02  0.19037210961E+02  0.29547040900E+01  0.97362617168E+02  0.00000000000E+00 0.  1.
         21    1    1    2  505  501 -0.31521373035E+02  0.73513283884E+01  0.16385240390E+03  0.16701870928E+03  0.00000000000E+00 0.  1.
         21    1    1    2  506  502  0.74580783037E+01  0.11633902421E+03  0.16119247615E+02  0.11768696457E+03  0.00000000000E+00 0.  1.
<scales pt_clust_3="154.64422" pt_clust_4="95.32784" pt_clust_5="32.36725" pt_clust_6="14000.00000"></scales>
<clustering>
<clus scale="   32.367">  1  5  2 -1</clus>
<clus scale="   95.328">  2  4  1 -1</clus>
<clus scale="  154.644">  1  3  2 -1</clus>
<clus scale="   32.367">  1  3  2 -1</clus>
</clustering>
</event>
<event>
 6    0  0.4469832E+002  0.6269517E+02  0.7546771E-02  0.1386857E+00
         21   -1    0    0  505  501  0.00000000000E+00  0.00000000000E+00  0.64418478589E+03  0.64418478589E+03  0.00000000000E+00 0.  1.
         21   -1    0    0  504  502 -0.00000000000E+00 -0.00000000000E+00 -0.50969891975E+03  0.50969891975E+03  0.00000000000E+00 0. -1.
         21    1    1    2  503  501  0.48968889523E+02  0.38354270449E+02  0.61618116859E+03  0.61931271158E+03  0.00000000000E+00 0.  1.
         21    1    1    2  504  503  0.35150041091E+02 -0.15727603034E+02 -0.12377004463E+03  0.12962216953E+03  0.00000000000E+00 0. -1.
         21    1    1    2  505  506 -0.11537981955E+03 -0.55447474064E+02 -0.17704638797E+03  0.21847734123E+03  0.00000000000E+00 0. -1.
         21    1    1    2  506  502  0.31260888937E+02  0.32820806649E+02 -0.18087886985E+03  0.18647148330E+03  0.00000000000E+00 0. -1.
<scales pt_clust_3="62.69517" pt_clust_4="38.50822" pt_clust_5="14000.00000" pt_clust_6="54.35352"></scales>
<clustering>
<clus scale="   38.508">  2  4  1 -1</clus>
<clus scale="   54.354">  2  6  1 -1</clus>
<clus scale="   62.695">  1  3  2 -1</clus>
<clus scale="   62.695">  1  3  2 -1</clus>
</clustering>
</event>
<event>
 6    0  0.4469832E+002  0.8888496E+02  0.7546771E-02  0.1305575E+00
         21   -1    0    0  505  501  0.00000000000E+00  0.00000000000E+00  0.16121086965E+04  0.16121086965E+04  0.00000000000E+00 0. -1.
         21   -1    0    0  504  502 -0.00000000000E+00 -0.00000000000E+00 -0.15489596208E+03  0.15489596208E+03  0.00000000000E+00 0.  1.
         21    1    1    2  503  502 -0.38782811555E+02  0.46739284198E+02 -0.12844859719E+03  0.14208345885E+03  0.00000000000E+00 0.  1.
         21    1    1    2  504  506  0.56612602340E+01 -0.57491431314E+02  0.43976902325E+02  0.72603598258E+02  0.00000000000E+00 0. -1.
         21    1    1    2  505  503  0.27803474563E+02 -0.82959130365E+02  0.75656545156E+03  0.76160786038E+03  0.00000000000E+00 0. -1.
         21    1    1    2  506  501  0.53180767579E+01  0.93711277481E+02  0.78511897775E+03  0.79070974112E+03  0.00000000000E+00 0. -1.
<scales pt_clust_3="34.42160" pt_clust_4="57.76949" pt_clust_5="88.88496" pt_clust_6="14000.00000"></scales>
<clustering>
<clus scale="   57.769">  2  4  1 -1</clus>
<clus scale="   34.422">  2  3  1 -1</clus>
<clus scale="   88.885">  1  5  2 -1</clus>
<clus scale="   88.885">  1  3  2 -1</clus>
</clustering>
</event>
<event>
 6    0  0.4469832E+002  0.1028311E+03  0.7546771E-02  0.1274453E+00
         21   -1    0    0  505  501  0.00000000000E+00  0.00000000000E+00  0.17081646146E+03  0.17081646146E+03  0.00000000000E+00 0.  1.
         21   -1    0    0  504  502 -0.00000000000E+00 -0.00000000000E+00 -0.12965197280E+03  0.12965197280E+03  0.00000000000E+00 0.  1.
         21    1    1    2  503  506 -0.38663758745E+02 -0.41341247529E+02 -0.10265155831E+02  0.57527023318E+02  0.00000000000E+00 0. -1.
         21    1    1    2  504  501  0.50030715791E+02  0.88232525785E+02 -0.34295390202E+01  0.10148799371E+03  0.00000000000E+00 0.  1.
         21    1    1    2  505  503  0.36492653311E+02 -0.40921994920E+02  0.71793704963E+02  0.90336368569E+02  0.00000000000E+00 0.  1.
         21    1    1    2  506  502 -0.47859610357E+02 -0.59692833356E+01 -0.16934521459E+02  0.51117048664E+02  0.00000000000E+00 0. -1.
<scales pt_clust_3="33.77923" pt_clust_4="96.09941" pt_clust_5="54.82995" pt_clust_6="33.77923"></scales>
<clustering>
<clus scale="   33.779">  3  6 -1 -1</clus>
<clus scale="   54.830">  1  5  2 -1</clus>
<clus scale="   96.099">  1  4  2 -1</clus>
<clus scale="   54.830">  1  3  2 -1</clus>
</clustering>
</event>
<event>
 6    0  0.4469832E+002  0.1575573E+03  0.7546771E-02  0.1191482E+00
         21   -1    0    0  506  501  0.00000000000E+00  0.00000000000E+00  0.86356279088E+03  0.86356279088E+03  0.00000000000E+00 0. -1.
         21   -1    0    0  505  502 -0.00000000000E+00 -0.00000000000E+00 -0.36995314287E+03  0.36995314287E+03  0.00000000000E+00 0. -1.
         21    1    1    2  503  502  0.58539007564E+02  0.78741924231E+01 -0.70973359717E+00  0.59070483616E+02  0.00000000000E+00 0. -1.
         21    1    1    2  504  503  0.77054839980E+00  0.78489346901E+02  0.35675952054E+03  0.36529238538E+03  0.00000000000E+00 0. -1.
         21    1    1    2  505  501 -0.11706269641E+03 -0.13785981743E+03 -0.30786502933E+03  0.35705725093E+03  0.00000000000E+00 0. -1.
         21    1    1    2  506  504  0.57753140447E+02  0.51496278106E+02  0.44542489040E+03  0.45209581383E+03  0.00000000000E+00 0. -1.
<scales pt_clust_3="59.06622" pt_clust_4="65.28103" pt_clust_5="143.25487" pt_clust_6="65.28103"></scales>
<clustering>
<clus scale="   59.066">  2  3  1 -1</clus>
<clus scale="   65.281">  4  6 -1 -1</clus>
<clus scale="  143.255">  2  5  1 -1</clus>
<clus scale="  157.557">  1  3  2 -1</clus>
</clustering>
</event>
<event>
 6    0  0.4469832E+002  0.1768565E+03  0.7546771E-02  0.1170880E+00
         21   -1    0    0  504  501  0.00000000000E+00  0.00000000000E+00  0.10078370281E+04  0.10078370281E+04  0.00000000000E+00 0.  1.
         21   -1    0    0  503  502 -0.00000000000E+00 -0.00000000000E+00 -0.80219135963E+03  0.80219135963E+03  0.00000000000E+00 0. -1.
         21    1    1    2  503  506 -0.10621022034E+03  0.66854363319E+02 -0.71613505791E+03  0.72704851143E+03  0.00000000000E+00 0. -1.
         21    1    1    2  504  505  0.41040945824E+02  0.11358031837E+03  0.82680309014E+02  0.14635874232E+03  0.00000000000E+00 0.  1.
         21    1    1    2  505  502  0.29464817104E+02  0.18632731946E+02 -0.28954281029E+02  0.45317816990E+02  0.00000000000E+00 0.  1.
         21    1    1    2  506  501  0.35704457415E+02 -0.19906741363E+03  0.86805469836E+03  0.89130331694E+03  0.00000000000E+00 0.  1.
<scales pt_clust_3="115.22921" pt_clust_4="14000.00000" pt_clust_5="34.86193" pt_clust_6="176.85649"></scales>
<clustering>
<clus scale="   34.862">  2  5  1 -1</clus>
<clus scale="  115.229">  2  3  1 -1</clus>
<clus scale="  176.856">  1  6  2 -1</clus>
<clus scale="  176.856">  1  3  2 -1</clus>
</clustering>
</event>
<event>
 6    0  0.4469832E+002  0.1104115E+03  0.7546771E-02  0.1259810E+00
         21   -1    0    0  505  501  0.00000000000E+00  0.00000000000E+00  0.12988818300E+03  0.12988818300E+03  0.00000000000E+00 0.  1.
         21   -1    0    0  504  502 -0.00000000000E+00 -0.00000000000E+00 -0.26207491155E+03  0.26207491155E+03  0.00000000000E+00 0.  1.
         21    1    1    2  503  506  0.52404446705E+02 -0.21235076171E+02 -0.11425080939E+03  0.12747706437E+03  0.00000000000E+00 0.  1.
         21    1    1    2  504  501 -0.57324625268E+01 -0.46580965511E+02  0.19720363859E+02  0.50907172631E+02  0.00000000000E+00 0.  1.
         21    1    1    2  505  503 -0.98411436479E+02  0.58429611746E+02  0.38745137196E+02  0.12083052601E+03  0.00000000000E+00 0.  1.
         21    1    1    2  506  502  0.51739452301E+02  0.93864299362E+01 -0.76401420218E+02  0.92748331536E+02  0.00000000000E+00 0.  1.
<scales pt_clust_3="32.90987" pt_clust_4="46.93237" pt_clust_5="105.00519" pt_clust_6="32.90987"></scales>
<clustering>
<clus scale="   32.910">  3  6 -1 -1</clus>
<clus scale="   46.932">  1  4  2 -1</clus>
<clus scale="  105.005">  1  5  2 -1</clus>
<clus scale="   46.932">  1  3  2 -1</clus>
</clustering>
</event>
<event>
 6    0  0.4469832E+002  0.2504624E+03  0.7546771E-02  0.1113013E+00
         21   -1    0    0  504  501  0.00000000000E+00  0.00000000000E+00  0.36436269884E+03  0.36436269884E+03  0.00000000000E+00 0. -1.
         21   -1    0    0  501  502 -0.00000000000E+00 -0.00000000000E+00 -0.10962304986E+04  0.10962304986E+04  0.00000000000E+00 0. -1.
         21    1    1    2  503  505  0.26483416881E+03  0.23127194711E+03 -0.63188937834E+02  0.35723478603E+03  0.00000000000E+00 0. -1.
         21    1    1    2  504  503 -0.11354941691E+03 -0.72224505791E+02  0.17836394863E+03  0.22343577934E+03  0.00000000000E+00 0. -1.
         21    1    1    2  505  506 -0.23413078800E+02 -0.60228073310E+02 -0.13361401899E+03  0.14841933548E+03  0.00000000000E+00 0. -1.
         21    1    1    2  506  502 -0.12787167310E+03 -0.98819368004E+02 -0.71342879156E+03  0.73150329657E+03  0.00000000000E+00 0. -1.
<scales pt_clust_3="232.66342" pt_clust_4="134.57284" pt_clust_5="58.63796" pt_clust_6="58.63796"></scales>
<clustering>
<clus scale="   58.638">  5  6 -1 -1</clus>
<clus scale="  134.573">  1  4  2 -1</clus>
<clus scale="  232.663">  1  3  2 -1</clus>
<clus scale="  134.573">  1  3  2 -1</clus>
</clustering>
</event>
<event>
 6    0  0.4469832E+002  0.1673286E+03  0.7546771E-02  0.1180663E+00
         21   -1    0    0  503  501  0.00000000000E+00  0.00000000000E+00  0.11503497303E+04  0.11503497303E+04  0.00000000000E+00 0.  1.
         21   -1    0    0  505  502 -0.00000000000E+00 -0.00000000000E+00 -0.98471668117E+03  0.98471668117E+03  0.00000000000E+00 0. -1.
         21    1    1    2  503  502  0.92698433033E+02  0.47912140273E+02  0.83132534297E+03  0.83784867281E+03  0.00000000000E+00 0.  1.
         21    1    1    2  504  501 -0.23361063155E+02  0.81928026778E+02  0.30266756427E+03  0.31442899883E+03  0.00000000000E+00 0.  1.
         21    1    1    2  505  506 -0.50024107214E+01 -0.79093024004E+02 -0.61313748943E+03  0.61823807025E+03  0.00000000000E+00 0. -1.
         21    1    1    2  506  504 -0.64334959157E+02 -0.50747143047E+02 -0.35522236867E+03  0.36455066960E+03  0.00000000000E+00 0. -1.
<scales pt_clust_3="146.67005" pt_clust_4="85.19355" pt_clust_5="79.20757" pt_clust_6="79.20757"></scales>
<clustering>
<clus scale="   79.208">  5  6 -1 -1</clus>
<clus scale="   85.194">  1  4  2 -1</clus>
<clus scale="  146.670">  1  3  2 -1</clus>
<clus scale="   85.194">  1  3  2 -1</clus>
</clustering>
</event>
<event>
 6    0  0.5255470E+002  0.9488605E+02  0.7546771E-02  0.1291433E+00
         21   -1    0    0  505  501  0.00000000000E+00  0.00000000000E+00  0.19571052757E+04  0.19571052757E+04  0.00000000000E+00 0.  1.
         21   -1    0    0  503  502 -0.00000000000E+00 -0.00000000000E+00 -0.80620596402E+03  0.80620596402E+03  0.00000000000E+00 0.  1.
         21    1    1    2  503  504  0.23484049246E+02 -0.36835136195E+02 -0.14031938300E+03  0.14696209400E+03  0.00000000000E+00 0. -1.
         21    1    1    2  504  501 -0.39816058464E+02  0.86242032816E+02  0.19039232998E+04  0.19062914096E+04  0.00000000000E+00 0.  1.
         21    1    1    2  505  506  0.65048312454E+02 -0.69750605852E+02 -0.29386781154E+00  0.95375658992E+02  0.00000000000E+00 0.  1.
         21    1    1    2  506  502 -0.48716303236E+02  0.20343709231E+02 -0.61241073734E+03  0.61468207711E+03  0.00000000000E+00 0.  1.
<scales pt_clust_3="43.68441" pt_clust_4="94.88605" pt_clust_5="14000.00000" pt_clust_6="30.27991"></scales>
<clustering>
<clus scale="   43.684">  2  3  1 -1</clus>
<clus scale="   30.280">  2  6  1 -1</clus>
<clus scale="   94.886">  1  4  2 -1</clus>
<clus scale="   94.886">  1  3  2 -1</clus>
</clustering>
</event>
<event>
 6    0  0.4469832E+002  0.8559037E+02  0.7546771E-02  0.1313896E+00
         21   -1    0    0  503  501  0.00000000000E+00  0.00000000000E+00  0.11574047948E+02  0.11574047948E+02  0.00000000000E+00 0.  1.
         21   -1    0    0  506  502 -0.00000000000E+00 -0.00000000000E+00 -0.36692146060E+04  0.36692146060E+04  0.00000000000E+00 0.  1.
         21    1    1    2  503  505  0.18849998877E+02 -0.69163930312E+02 -0.15290239411E+03  0.16887307020E+03  0.00000000000E+00 0.  1.
         21    1    1    2  504  501 -0.15874571127E+01 -0.32377706761E+02 -0.93857799163E+03  0.93913762692E+03  0.00000000000E+00 0.  1.
         21    1    1    2  505  502 -0.50491093974E+02  0.12515494292E+03 -0.15719811921E+04  0.15777636004E+04  0.00000000000E+00 0.  1.
         21    1    1    2  506  504  0.33228552210E+02 -0.23613305843E+02 -0.99417898020E+03  0.99501435647E+03  0.00000000000E+00 0.  1.
<scales pt_clust_3="71.68662" pt_clust_4="31.63181" pt_clust_5="77.89404" pt_clust_6="31.63181"></scales>
<clustering>
<clus scale="   31.632">  4  6 -1 -1</clus>
<clus scale="   71.687">  1  3  2 -1</clus>
<clus scale="   77.894">  1  5  2 -1</clus>
<clus scale="   71.687">  1  3  2 -1</clus>
</clustering>
</event>
<event>
 6    0  0.4469832E+002  0.8750172E+02  0.7546771E-02  0.1309017E+00
         21   -1    0    0  504  501  0.00000000000E+00  0.00000000000E+00  0.26293189995E+04  0.26293189995E+04  0.00000000000E+00 0.  1.
         21   -1    0    0  505  502 -0.00000000000E+00 -0.00000000000E+00 -0.44316143939E+02  0.44316143939E+02  0.00000000000E+00 0.  1.
         21    1    1    2  503  502  0.83301508660E+02 -0.28151175047E+02  0.13000760571E+02  0.88885599379E+02  0.00000000000E+00 0.  1.
         21    1    1    2  504  503 -0.23844592950E+02  0.41625852610E+02  0.14315466541E+03  0.15097858937E+03  0.00000000000E+00 0.  1.
         21    1    1    2  505  506 -0.80984317613E+02  0.14059745311E+02  0.73814969294E+03  0.74271199352E+03  0.00000000000E+00 0.  1.
         21    1    1    2  506  501  0.21527401903E+02 -0.27534422874E+02  0.16906977367E+04  0.16910589612E+04  0.00000000000E+00 0.  1.
<scales pt_clust_3="14000.00000" pt_clust_4="42.55770" pt_clust_5="87.50172" pt_clust_6="34.95102"></scales>
<clustering>
<clus scale="   34.951">  1  6  2 -1</clus>
<clus scale="   42.558">  1  4  2 -1</clus>
<clus scale="   87.502">  1  5  2 -1</clus>
<clus scale="   34.951">  1  3  2 -1</clus>
</clustering>
</event>
<event>
 6    0  0.4469832E+002  0.4952836E+03  0.7546771E-02  0.1015017E+00
         21   -1    0    0  506  501  0.00000000000E+00  0.00000000000E+00  0.13658923925E+04  0.13658923925E+04  0.00000000000E+00 0.  1.
         21   -1    0    0  505  502 -0.00000000000E+00 -0.00000000000E+00 -0.83659429007E+03  0.83659429007E+03  0.00000000000E+00 0.  1.
         21    1    1    2  503  502 -0.17658690417E+03 -0.39932156283E+01 -0.16058541792E+03  0.23871857268E+03  0.00000000000E+00 0.  1.
         21    1    1    2  504  503 -0.34125124059E+02 -0.26680637803E+03 -0.31528961288E+03  0.41443661450E+03  0.00000000000E+00 0.  1.
         21    1    1    2  505  501  0.22331480346E+03  0.69081828601E+03  0.45412512004E+03  0.85634632619E+03  0.00000000000E+00 0.  1.
         21    1    1    2  506  504 -0.12602775228E+02 -0.42001869235E+03  0.55104801317E+03  0.69298516917E+03  0.00000000000E+00 0.  1.
<scales pt_clust_3="176.63205" pt_clust_4="301.18477" pt_clust_5="14000.00000" pt_clust_6="495.28358"></scales>
<clustering>
<clus scale="  176.632">  2  3  1 -1</clus>
<clus scale="  301.185">  2  4  1 -1</clus>
<clus scale="  495.284">  1  6  2 -1</clus>
<clus scale="  495.284">  1  3  2 -1</clus>
</clustering>
</event>
<event>
 6    0  0.4469832E+002  0.1244119E+03  0.7546771E-02  0.1235991E+00
         21   -1    0    0  505  501  0.00000000000E+00  0.00000000000E+00  0.13374140378E+03  0.13374140378E+03  0.00000000000E+00 0. -1.
         21   -1    0    0  504  502 -0.00000000000E+00 -0.00000000000E+00 -0.26192533272E+03  0.26192533272E+03  0.00000000000E+00 0. -1.
         21    1    1    2  503  502 -0.11630974189E+03 -0.33183777798E+02 -0.15139382057E+03  0.19377618036E+03  0.00000000000E+00 0. -1.
         21    1    1    2  504  501  0.60085274593E+00  0.40779047086E+02  0.61183025921E+02  0.73529955570E+02  0.00000000000E+00 0. -1.
         21    1    1    2  505  506  0.54147289268E+02 -0.23102633201E+02 -0.14094174529E+02  0.60533514284E+02  0.00000000000E+00 0. -1.
         21    1    1    2  506  503  0.61561599878E+02  0.15507363913E+02 -0.23878959756E+02  0.67827086286E+02  0.00000000000E+00 0. -1.
<scales pt_clust_3="117.85610" pt_clust_4="40.78347" pt_clust_5="38.37703" pt_clust_6="38.37703"></scales>
<clustering>
<clus scale="   38.377">  5  6 -1 -1</clus>
<clus scale="   40.783">  1  4  2 -1</clus>
<clus scale="  117.856">  2  3  1 -1</clus>
<clus scale="   40.783">  1  3  2 -1</clus>
</clustering>
</event>
<event>
 6    0  0.4469832E+002  0.1393020E+03  0.7546771E-02  0.1214271E+00
         21   -1    0    0  506  501  0.00000000000E+00  0.00000000000E+00  0.10740404259E+04  0.10740404259E+04  0.00000000000E+00 0. -1.
         21   -1    0    0  503  502 -0.00000000000E+00 -0.00000000000E+00 -0.17863894108E+03  0.17863894108E+03  0.00000000000E+00 0. -1.
         21    1    1    2  503  505 -0.44358407460E+02 -0.52980914255E+02 -0.98785238708E+02  0.12055359378E+03  0.00000000000E+00 0. -1.
         21    1    1    2  504  501 -0.12048867106E+03  0.71592384973E+02  0.72549662351E+03  0.73891023823E+03  0.00000000000E+00 0. -1.
         21    1    1    2  505  504  0.13132117068E+03 -0.46334752818E+02  0.30581254641E+03  0.33602600008E+03  0.00000000000E+00 0. -1.
         21    1    1    2  506  502  0.33525907843E+02  0.27723282100E+02 -0.37122446434E+02  0.57189534850E+02  0.00000000000E+00 0. -1.
<scales pt_clust_3="34.06207" pt_clust_4="139.30200" pt_clust_5="14000.00000" pt_clust_6="43.50364"></scales>
<clustering>
<clus scale="   43.504">  2  6  1 -1</clus>
<clus scale="   34.062">  2  3  1 -1</clus>
<clus scale="  139.302">  1  4  2 -1</clus>
<clus scale="  139.302">  1  3  2 -1</clus>
</clustering>
</event>
<event>
 6    0  0.4469832E+002  0.1291550E+03  0.7546771E-02  0.1228715E+00
         21   -1    0    0  506  501  0.00000000000E+00  0.00000000000E+00  0.43625142447E+03  0.43625142447E+03  0.00000000000E+00 0.  1.
         21   -1    0    0  504  502 -0.00000000000E+00 -0.00000000000E+00 -0.39647481491E+03  0.39647481491E+03  0.00000000000E+00 0.  1.
         21    1    1    2  503  501  0.17748343096E+02  0.37019294224E+02  0.35950289058E+03  0.36183941212E+03  0.00000000000E+00 0.  1.
         21    1    1    2  504  503  0.11828227940E+03  0.33947604667E+02 -0.38112547263E+02  0.12882431348E+03  0.00000000000E+00 0.  1.
         21    1    1    2  505  502 -0.12818719957E+03 -0.28341565143E+02 -0.26483168857E+03  0.29558590244E+03  0.00000000000E+00 0.  1.
         21    1    1    2  506  505 -0.78434229338E+01 -0.42625333748E+02 -0.16782045185E+02  0.46476611334E+02  0.00000000000E+00 0.  1.
<scales pt_clust_3="41.05401" pt_clust_4="129.15500" pt_clust_5="14000.00000" pt_clust_6="35.62058"></scales>
<clustering>
<clus scale="   41.054">  1  3  2 -1</clus>
<clus scale="   35.621">  1  6  2 -1</clus>
<clus scale="  129.155">  1  4  2 -1</clus>
<clus scale="   41.054">  1  3  2 -1</clus>
</clustering>
</event>
<event>
 6    0  0.4469832E+002  0.1016226E+03  0.7546771E-02  0.1276920E+00
         21   -1    0    0  502  501  0.00000000000E+00  0.00000000000E+00  0.84877049174E+03  0.84877049174E+03  0.00000000000E+00 0. -1.
         21   -1    0    0  506  502 -0.00000000000E+00 -0.00000000000E+00 -0.63177599698E+02  0.63177599698E+02  0.00000000000E+00 0.  1.
         21    1    1    2  503  504  0.20251957609E+02  0.66680992708E+02  0.61156083730E+02  0.92717652864E+02  0.00000000000E+00 0. -1.
         21    1    1    2  504  505 -0.50416315815E+02 -0.14149071943E+03  0.31106025406E+03  0.34542714172E+03  0.00000000000E+00 0.  1.
         21    1    1    2  505  501  0.56785116439E+02  0.30177808927E+02  0.41679157622E+03  0.42172321208E+03  0.00000000000E+00 0. -1.
         21    1    1    2  506  503 -0.26620758232E+02  0.44631917800E+02 -0.34150219556E+01  0.52080084776E+02  0.00000000000E+00 0. -1.
<scales pt_clust_3="101.62264" pt_clust_4="14000.00000" pt_clust_5="64.22925" pt_clust_6="51.96800"></scales>
<clustering>
<clus scale="   51.968">  2  6  1 -1</clus>
<clus scale="   64.229">  1  5  2 -1</clus>
<clus scale="  101.623">  2  3  1 -1</clus>
<clus scale="   64.229">  1  3  2 -1</clus>
</clustering>
</event>
<event>
 6    0  0.4469832E+002  0.1440735E+03  0.7546771E-02  0.1207951E+00
         21   -1    0    0  506  501  0.00000000000E+00  0.00000000000E+00  0.47206460049E+03  0.47206460049E+03  0.00000000000E+00 0.  1.
         21   -1    0    0  503  502 -0.00000000000E+00 -0.00000000000E+00 -0.14160433738E+03  0.14160433738E+03  0.00000000000E+00 0.  1.
         21    1    1    2  503  505 -0.80599699106E+01 -0.13520598900E+03  0.96337228965E+01  0.13578818502E+03  0.00000000000E+00 0.  1.
         21    1    1    2  504  502  0.11207439940E+03  0.14341747931E+03  0.96591760964E+02  0.20605633370E+03  0.00000000000E+00 0.  1.
         21    1    1    2  505  501 -0.99794100292E+02  0.30694759673E+02  0.11273434006E+03  0.15365566099E+03  0.00000000000E+00 0.  1.
         21    1    1    2  506  504 -0.42203292004E+01 -0.38906249989E+02  0.11150043918E+03  0.11816875816E+03  0.00000000000E+00 0.  1.
<scales pt_clust_3="144.07350" pt_clust_4="14000.00000" pt_clust_5="102.65217" pt_clust_6="39.13448"></scales>
<clustering>
<clus scale="   39.134">  1  6  2 -1</clus>
<clus scale="  102.652">  1  5  2 -1</clus>
<clus scale="  144.073">  2  3  1 -1</clus>
<clus scale="   39.134">  1  3  2 -1</clus>
</clustering>
</event>
<event>
 6    0  0.4469832E+002  0.7295763E+02  0.7546771E-02  0.1350315E+00
         21   -1    0    0  506  501  0.00000000000E+00  0.00000000000E+00  0.86571703485E+02  0.86571703485E+02  0.00000000000E+00 0.  1.
         21   -1    0    0  503  502 -0.00000000000E+00 -0.00000000000E+00 -0.19437955060E+04  0.19437955060E+04  0.00000000000E+00 0. -1.
         21    1    1    2  503  504 -0.55203991683E+01  0.48321718086E+02 -0.17175806086E+03  0.17851132938E+03  0.00000000000E+00 0. -1.
         21    1    1    2  504  505 -0.85113268969E+02  0.14263479108E+02 -0.46297632011E+03  0.47095094052E+03  0.00000000000E+00 0. -1.
         21    1    1    2  505  501  0.41527274304E+02 -0.60524552351E+02  0.61631021406E+02  0.95844242122E+02  0.00000000000E+00 0.  1.
         21    1    1    2  506  502  0.49106393833E+02 -0.20606448423E+01 -0.12841204429E+04  0.12850606975E+04  0.00000000000E+00 0. -1.
<scales pt_clust_3="48.63603" pt_clust_4="72.95763" pt_clust_5="14000.00000" pt_clust_6="55.90251"></scales>
<clustering>
<clus scale="   48.636">  2  3  1 -1</clus>
<clus scale="   55.903">  2  6  1 -1</clus>
<clus scale="   72.958">  2  4  1 -1</clus>
<clus scale="   72.958">  1  3  2 -1</clus>
</clustering>
</event>
<event>
 6    0  0.4469832E+002  0.2286606E+03  0.7546771E-02  0.1127586E+00
         21   -1    0    0  505  501  0.00000000000E+00  0.00000000000E+00  0.17684703117E+04  0.17684703117E+04  0.00000000000E+00 0.  1.
         21   -1    0    0  506  502 -0.00000000000E+00 -0.00000000000E+00 -0.27232313833E+03  0.27232313833E+03  0.00000000000E+00 0. -1.
         21    1    1    2  503  504 -0.97074297689E+02 -0.25293902968E+02 -0.53583754519E+02  0.11372958959E+03  0.00000000000E+00 0. -1.
         21    1    1    2  504  502 -0.98714196463E+02 -0.86325745370E+02 -0.36490734532E+02  0.13611833309E+03  0.00000000000E+00 0. -1.
         21    1    1    2  505  503  0.20224354444E+03  0.75823211441E+02  0.12020371210E+02  0.21632406243E+03  0.00000000000E+00 0. -1.
         21    1    1    2  506  501 -0.64550502902E+01  0.35796436896E+02  0.15742012912E+04  0.15746214649E+04  0.00000000000E+00 0.  1.
<scales pt_clust_3="52.73210" pt_clust_4="52.73210" pt_clust_5="220.83289" pt_clust_6="36.37379"></scales>
<clustering>
<clus scale="   36.374">  1  6  2 -1</clus>
<clus scale="   52.732">  3  4 -1 -1</clus>
<clus scale="  220.833">  1  5  2 -1</clus>
<clus scale="   36.374">  1  3  2 -1</clus>
</clustering>
</event>
<event>
 6    0  0.4469832E+002  0.1175606E+03  0.7546771E-02  0.1247176E+00
         21   -1    0    0  504  501  0.00000000000E+00  0.00000000000E+00  0.35094612585E+03  0.35094612585E+03  0.00000000000E+00 0. -1.
         21   -1    0    0  505  502 -0.00000000000E+00 -0.00000000000E+00 -0.28884636281E+03  0.28884636281E+03  0.00000000000E+00 0.  1.
         21    1    1    2  503  501  0.44301201007E+02 -0.13014333124E+03  0.27762880002E+03  0.30980257210E+03  0.00000000000E+00 0. -1.
         21    1    1    2  504  506  0.28734822975E+02  0.33535483215E+02  0.15159969251E+02  0.46692005243E+02  0.00000000000E+00 0. -1.
         21    1    1    2  505  503 -0.46237996297E+02  0.15826915196E+02 -0.14528499307E+02  0.50985496353E+02  0.00000000000E+00 0. -1.
         21    1    1    2  506  502 -0.26798027684E+02  0.80780932823E+02 -0.21616050693E+03  0.23231241497E+03  0.00000000000E+00 0.  1.
<scales pt_clust_3="117.56058" pt_clust_4="44.16241" pt_clust_5="47.99871" pt_clust_6="14000.00000"></scales>
<clustering>
<clus scale="   44.162">  1  4  2 -1</clus>
<clus scale="   47.999">  2  5  1 -1</clus>
<clus scale="  117.561">  1  3  2 -1</clus>
<clus scale="   44.162">  1  3  2 -1</clus>
</clustering>
</event>
<event>
 6    0  0.4469832E+002  0.1377524E+03  0.7546771E-02  0.1216386E+00
         21   -1    0    0  504  501  0.00000000000E+00  0.00000000000E+00  0.34881245646E+03  0.34881245646E+03  0.00000000000E+00 0.  1.
         21   -1    0    0  501  502 -0.00000000000E+00 -0.00000000000E+00 -0.25139563497E+03  0.25139563497E+03  0.00000000000E+00 0. -1.
         21    1    1    2  503  502 -0.34730736158E+02 -0.32226881239E+02 -0.10224499554E+03  0.11268910782E+03  0.00000000000E+00 0. -1.
         21    1    1    2  504  506 -0.33940653975E+02  0.65244169423E+02  0.98822800152E+02  0.12318569505E+03  0.00000000000E+00 0. -1.
         21    1    1    2  505  503 -0.37276897419E+01 -0.90315718849E+02 -0.10511154552E+03  0.13863355201E+03  0.00000000000E+00 0. -1.
         21    1    1    2  506  505  0.72399079874E+02  0.57298430665E+02  0.20595056240E+03  0.22569973655E+03  0.00000000000E+00 0.  1.
<scales pt_clust_3="43.86282" pt_clust_4="73.54434" pt_clust_5="43.86282" pt_clust_6="123.71390"></scales>
<clustering>
<clus scale="   43.863">  3  5 -1 -1</clus>
<clus scale="   73.544">  1  4  2 -1</clus>
<clus scale="  123.714">  1  6  2 -1</clus>
<clus scale="   73.544">  1  3  2 -1</clus>
</clustering>
</event>
<event>
 6    0  0.4469832E+002  0.1291539E+03  0.7546771E-02  0.1228717E+00
         21   -1    0    0  506  501  0.00000000000E+00  0.00000000000E+00  0.10853171851E+04  0.10853171851E+04  0.00000000000E+00 0.  1.
         21   -1    0    0  505  502 -0.00000000000E+00 -0.00000000000E+00 -0.62287074347E+03  0.62287074347E+03  0.00000000000E+00 0. -1.
         21    1    1    2  503  501 -0.28183952317E+02 -0.28400296357E+02  0.91141949276E+03  0.91229732204E+03  0.00000000000E+00 0.  1.
         21    1    1    2  504  503  0.11016371585E+03 -0.73857827054E+02  0.13215587846E+03  0.18723300755E+03  0.00000000000E+00 0.  1.
         21    1    1    2  505  504 -0.46563968898E+02  0.90371046239E+02 -0.55200666668E+03  0.56129002241E+03  0.00000000000E+00 0. -1.
         21    1    1    2  506  502 -0.35415794635E+02  0.11887077172E+02 -0.29122262914E+02  0.47367576575E+02  0.00000000000E+00 0. -1.
<scales pt_clust_3="40.02380" pt_clust_4="129.15391" pt_clust_5="14000.00000" pt_clust_6="37.35748"></scales>
<clustering>
<clus scale="   37.357">  2  6  1 -1</clus>
<clus scale="   40.024">  1  3  2 -1</clus>
<clus scale="  129.154">  1  4  2 -1</clus>
<clus scale="   40.024">  1  3  2 -1</clus>
</clustering>
</event>
<event>
 6    0  0.4469832E+002  0.1123410E+03  0.7546771E-02  0.1256295E+00
         21   -1    0    0  503  501  0.00000000000E+00  0.00000000000E+00  0.13061410338E+03  0.13061410338E+03  0.00000000000E+00 0. -1.
         21   -1    0    0  505  502 -0.00000000000E+00 -0.00000000000E+00 -0.73408355366E+03  0.73408355366E+03  0.00000000000E+00 0.  1.
         21    1    1    2  503  504 -0.11124470444E+03  0.20271729890E+02  0.82074056340E+02  0.13972286149E+03  0.00000000000E+00 0. -1.
         21    1    1    2  504  506  0.31526471778E+02  0.41699142472E+02 -0.56676215504E+02  0.77103374177E+02  0.00000000000E+00 0.  1.
         21    1    1    2  505  501  0.93626779129E+02 -0.29914582437E+02 -0.57712451631E+03  0.58543450816E+03  0.00000000000E+00 0.  1.
         21    1    1    2  506  502 -0.13908546470E+02 -0.32056289925E+02 -0.51742774798E+02  0.62436913220E+02  0.00000000000E+00 0. -1.
<scales pt_clust_3="112.34103" pt_clust_4="48.92710" pt_clust_5="14000.00000" pt_clust_6="34.94357"></scales>
<clustering>
<clus scale="   34.944">  2  6  1 -1</clus>
<clus scale="   48.927">  2  4  1 -1</clus>
<clus scale="  112.341">  1  3  2 -1</clus>
<clus scale="  112.341">  1  3  2 -1</clus>
</clustering>
</event>
<event>
 6    0  0.4469832E+002  0.7164251E+02  0.7546771E-02  0.1354595E+00
         21   -1    0    0  506  501  0.00000000000E+00  0.00000000000E+00  0.32489210316E+03  0.32489210316E+03  0.00000000000E+00 0. -1.
         21   -1    0    0  505  502 -0.00000000000E+00 -0.00000000000E+00 -0.11940347915E+04  0.11940347915E+04  0.00000000000E+00 0.  1.
         21    1    1    2  503  502  0.43070251774E+02  0.29523587541E+02 -0.51153605269E+03  0.51419434265E+03  0.00000000000E+00 0.  1.
         21    1    1    2  504  501 -0.85227739410E+02  0.92927618489E+02  0.24331232718E+03  0.27404415410E+03  0.00000000000E+00 0. -1.
         21    1    1    2  505  504  0.47656866696E+01 -0.82022323370E+02 -0.65105287080E+03  0.65621659068E+03  0.00000000000E+00 0.  1.
         21    1    1    2  506  503  0.37391800967E+02 -0.40428882660E+02  0.50133908019E+02  0.74471807189E+02  0.00000000000E+00 0. -1.
<scales pt_clust_3="52.21771" pt_clust_4="71.64251" pt_clust_5="14000.00000" pt_clust_6="55.21237"></scales>
<clustering>
<clus scale="   52.218">  2  3  1 -1</clus>
<clus scale="   55.212">  1  6  2 -1</clus>
<clus scale="   71.643">  1  4  2 -1</clus>
<clus scale="   55.212">  1  3  2 -1</clus>
</clustering>
</event>
<event>
 6    0  0.4469832E+002  0.6920043E+02  0.7546771E-02  0.1362833E+00
         21   -1    0    0  505  501  0.00000000000E+00  0.00000000000E+00  0.45690081756E+03  0.45690081756E+03  0.00000000000E+00 0.  1.
         21   -1    0    0  506  502 -0.00000000000E+00 -0.00000000000E+00 -0.12800516986E+03  0.12800516986E+03  0.00000000000E+00 0.  1.
         21    1    1    2  503  502  0.31687973250E+02  0.50957965292E+02  0.20499430375E+02  0.63411895738E+02  0.00000000000E+00 0.  1.
         21    1    1    2  504  501  0.34818366723E+02  0.19801559656E+02  0.31169491035E+03  0.31425807478E+03  0.00000000000E+00 0.  1.
         21    1    1    2  505  503  0.24749293965E+02  0.20085391851E+02  0.56803479187E+02  0.65135134645E+02  0.00000000000E+00 0.  1.
         21    1    1    2  506  504 -0.91255633937E+02 -0.90844916798E+02 -0.60102172213E+02  0.14210088226E+03  0.00000000000E+00 0.  1.
<scales pt_clust_3="63.20899" pt_clust_4="69.20043" pt_clust_5="31.87398" pt_clust_6="14000.00000"></scales>
<clustering>
<clus scale="   31.874">  1  5  2 -1</clus>
<clus scale="   63.209">  2  3  1 -1</clus>
<clus scale="   69.200">  1  4  2 -1</clus>
<clus scale="   31.874">  1  3  2 -1</clus>
</clustering>
</event>
<event>
 6    0  0.4469832E+002  0.1539963E+03  0.7546771E-02  0.1195647E+00
         21   -1    0    0  505  501  0.00000000000E+00  0.00000000000E+00  0.27609358683E+03  0.27609358683E+03  0.00000000000E+00 0. -1.
         21   -1    0    0  501  502 -0.00000000000E+00 -0.00000000000E+00 -0.53664952586E+03  0.53664952586E+03  0.00000000000E+00 0. -1.
         21    1    1    2  503  506  0.12346336742E+03 -0.71085565210E+02  0.18188307993E+03  0.23103639419E+03  0.00000000000E+00 0. -1.
         21    1    1    2  504  502 -0.17597161709E+02  0.52725590637E+02 -0.20307861406E+03  0.21054826406E+03  0.00000000000E+00 0. -1.
         21    1    1    2  505  503  0.28202708839E+02  0.22320943773E+02  0.44492323144E+02  0.57211748230E+02  0.00000000000E+00 0. -1.
         21    1    1    2  506  504 -0.13406891455E+03 -0.39609692007E+01 -0.28385272805E+03  0.31394670622E+03  0.00000000000E+00 0. -1.
<scales pt_clust_3="153.99626" pt_clust_4="55.79045" pt_clust_5="35.96689" pt_clust_6="14000.00000"></scales>
<clustering>
<clus scale="   35.967">  1  5  2 -1</clus>
<clus scale="   55.790">  2  4  1 -1</clus>
<clus scale="  153.996">  1  3  2 -1</clus>
<clus scale="   35.967">  1  3  2 -1</clus>
</clustering>
</event>
<event>
 6    0  0.4469832E+002  0.8418901E+02  0.7546771E-02  0.1317567E+00
         21   -1    0    0  505  501  0.00000000000E+00  0.00000000000E+00  0.16593386782E+03  0.16593386782E+03  0.00000000000E+00 0.  1.
         21   -1    0    0  506  502 -0.00000000000E+00 -0.00000000000E+00 -0.90902545224E+03  0.90902545224E+03  0.00000000000E+00 0. -1.
         21    1    1    2  503  502  0.53389266749E+02 -0.18578905558E+02 -0.36757666292E+03  0.37189809445E+03  0.00000000000E+00 0. -1.
         21    1    1    2  504  503  0.53143726486E+02  0.17804937275E+02  0.62686542653E+01  0.56396520127E+02  0.00000000000E+00 0.  1.
         21    1    1    2  505  504  0.33097436425E+02 -0.45291309030E+01  0.12063619812E+03  0.12517605850E+03  0.00000000000E+00 0.  1.
         21    1    1    2  506  501 -0.13963042966E+03  0.53030991864E+01 -0.50241977388E+03  0.52148864699E+03  0.00000000000E+00 0. -1.
<scales pt_clust_3="58.17496" pt_clust_4="14000.00000" pt_clust_5="33.40589" pt_clust_6="84.18901"></scales>
<clustering>
<clus scale="   33.406">  1  5  2 -1</clus>
<clus scale="   58.175">  2  3  1 -1</clus>
<clus scale="   84.189">  2  6  1 -1</clus>
<clus scale="   33.406">  1  3  2 -1</clus>
</clustering>
</event>
<event>
 6    0  0.4469832E+002  0.1632443E+03  0.7546771E-02  0.1185082E+00
         21   -1    0    0  505  501  0.00000000000E+00  0.00000000000E+00  0.27252236774E+04  0.27252236774E+04  0.00000000000E+00 0.  1.
         21   -1    0    0  506  502 -0.00000000000E+00 -0.00000000000E+00 -0.61907293573E+02  0.61907293573E+02  0.00000000000E+00 0. -1.
         21    1    1    2  503  504 -0.93524114818E+02  0.14320513058E+02  0.53204907455E+03  0.54039620176E+03  0.00000000000E+00 0. -1.
         21    1    1    2  504  502 -0.48142614381E+02  0.28034643077E+02  0.16584425757E+03  0.17495133695E+03  0.00000000000E+00 0. -1.
         21    1    1    2  505  503  0.12573872941E+03 -0.98289472845E+02  0.19985099675E+04  0.20048723498E+04  0.00000000000E+00 0.  1.
         21    1    1    2  506  501  0.15927999789E+02  0.55934316711E+02 -0.33086915817E+02  0.66911082501E+02  0.00000000000E+00 0. -1.
<scales pt_clust_3="40.62997" pt_clust_4="40.62997" pt_clust_5="154.41865" pt_clust_6="58.15797"></scales>
<clustering>
<clus scale="   40.630">  3  4 -1 -1</clus>
<clus scale="   58.158">  2  6  1 -1</clus>
<clus scale="  154.419">  1  5  2 -1</clus>
<clus scale="  154.419">  1  3  2 -1</clus>
</clustering>
</event>
<event>
 6    0  0.4469832E+002  0.7555888E+02  0.7546771E-02  0.1342149E+00
         21   -1    0    0  505  501  0.00000000000E+00  0.00000000000E+00  0.40434750838E+03  0.40434750838E+03  0.00000000000E+00 0.  1.
         21   -1    0    0  504  502 -0.00000000000E+00 -0.00000000000E+00 -0.78598990435E+03  0.78598990435E+03  0.00000000000E+00 0. -1.
         21    1    1    2  503  502  0.17151857955E+02  0.29392039937E+02 -0.69875838709E+02  0.77722011543E+02  0.00000000000E+00 0.  1.
         21    1    1    2  504  501 -0.49243557139E+02  0.37693910976E+02 -0.67535335962E+03  0.67819460275E+03  0.00000000000E+00 0. -1.
         21    1    1    2  505  506 -0.43545253990E+02  0.15735178121E+02  0.30382205834E+03  0.30732983602E+03  0.00000000000E+00 0.  1.
         21    1    1    2  506  503  0.75636953174E+02 -0.82821129034E+02  0.59764744017E+02  0.12709096241E+03  0.00000000000E+00 0.  1.
<scales pt_clust_3="34.03055" pt_clust_4="75.55888" pt_clust_5="46.28597" pt_clust_6="14000.00000"></scales>
<clustering>
<clus scale="   34.031">  2  3  1 -1</clus>
<clus scale="   46.286">  1  5  2 -1</clus>
<clus scale="   75.559">  2  4  1 -1</clus>
<clus scale="   46.286">  1  3  2 -1</clus>
</clustering>
</event>
<event>
 6    0  0.4469832E+002  0.1858318E+03  0.7546771E-02  0.1162275E+00
         21   -1    0    0  505  501  0.00000000000E+00  0.00000000000E+00  0.55737415919E+03  0.55737415919E+03  0.00000000000E+00 0. -1.
         21   -1    0    0  506  502 -0.00000000000E+00 -0.00000000000E+00 -0.81819426077E+03  0.81819426077E+03  0.00000000000E+00 0.  1.
         21    1    1    2  503  502 -0.18550816523E+03 -0.35338361916E+02 -0.72295129095E+03  0.74720857080E+03  0.00000000000E+00 0.  1.
         21    1    1    2  504  503  0.15094979305E+03  0.68232046296E+02  0.27960788897E+02  0.16799779130E+03  0.00000000000E+00 0. -1.
         21    1    1    2  505  504 -0.52836841238E+02 -0.38488508613E+02  0.17648094423E+03  0.18819835483E+03  0.00000000000E+00 0. -1.
         21    1    1    2  506  501  0.87395213418E+02  0.55948242334E+01  0.25768945624E+03  0.27216370303E+03  0.00000000000E+00 0. -1.
<scales pt_clust_3="14000.00000" pt_clust_4="185.83175" pt_clust_5="65.36893" pt_clust_6="54.52878"></scales>
<clustering>
<clus scale="   65.369">  1  5  2 -1</clus>
<clus scale="   54.529">  1  6  2 -1</clus>
<clus scale="  185.832">  1  4  2 -1</clus>
<clus scale="   65.369">  1  3  2 -1</clus>
</clustering>
</event>
<event>
 6    0  0.4469832E+002  0.1203043E+03  0.7546771E-02  0.1242596E+00
         21   -1    0    0  506  501  0.00000000000E+00  0.00000000000E+00  0.11403190668E+03  0.11403190668E+03  0.00000000000E+00 0.  1.
         21   -1    0    0  503  502 -0.00000000000E+00 -0.00000000000E+00 -0.45352834986E+03  0.45352834986E+03  0.00000000000E+00 0.  1.
         21    1    1    2  503  505 -0.61850284719E+02 -0.28946188330E+02 -0.29098978530E+03  0.29889529050E+03  0.00000000000E+00 0.  1.
         21    1    1    2  504  501 -0.41154222281E+02  0.18113217473E+02 -0.25865651177E+02  0.51872830746E+02  0.00000000000E+00 0. -1.
         21    1    1    2  505  504 -0.21688488405E+02  0.38246589823E+02 -0.68277712965E+02  0.81209840846E+02  0.00000000000E+00 0.  1.
         21    1    1    2  506  502  0.12469299540E+03 -0.27413618967E+02  0.45636706254E+02  0.13558229444E+03  0.00000000000E+00 0.  1.
<scales pt_clust_3="68.28865" pt_clust_4="41.03951" pt_clust_5="41.03951" pt_clust_6="112.91916"></scales>
<clustering>
<clus scale="   41.040">  4  5 -1 -1</clus>
<clus scale="   68.289">  2  3  1 -1</clus>
<clus scale="  112.919">  1  6  2 -1</clus>
<clus scale="  112.919">  1  3  2 -1</clus>
</clustering>
</event>
<event>
 6    0  0.4469832E+002  0.1144221E+03  0.7546771E-02  0.1252593E+00
         21   -1    0    0  503  501  0.00000000000E+00  0.00000000000E+00  0.10597837372E+04  0.10597837372E+04  0.00000000000E+00 0. -1.
         21   -1    0    0  505  502 -0.00000000000E+00 -0.00000000000E+00 -0.74413389574E+02  0.74413389574E+02  0.00000000000E+00 0. -1.
         21    1    1    2  503  504 -0.12182008608E+03  0.22496594239E+01  0.75026853040E+03  0.76009740300E+03  0.00000000000E+00 0. -1.
         21    1    1    2  504  502 -0.10616508037E+02  0.73031433395E+02  0.16841919149E+03  0.18387855929E+03  0.00000000000E+00 0. -1.
         21    1    1    2  505  506  0.62670559946E+02  0.11275956236E+00 -0.80585139723E+01  0.63186639775E+02  0.00000000000E+00 0. -1.
         21    1    1    2  506  501  0.69766034168E+02 -0.75393852381E+02  0.74741139697E+02  0.12703452469E+03  0.00000000000E+00 0. -1.
<scales pt_clust_3="114.42214" pt_clust_4="73.07787" pt_clust_5="62.67066" pt_clust_6="14000.00000"></scales>
<clustering>
<clus scale="   62.671">  2  5  1 -1</clus>
<clus scale="   73.078">  2  4  1 -1</clus>
<clus scale="  114.422">  1  3  2 -1</clus>
<clus scale="  114.422">  1  3  2 -1</clus>
</clustering>
</event>
<event>
 6    0  0.4469832E+002  0.1171303E+03  0.7546771E-02  0.1247908E+00
         21   -1    0    0  504  501  0.00000000000E+00  0.00000000000E+00  0.16898494738E+02  0.16898494738E+02  0.00000000000E+00 0. -1.
         21   -1    0    0  503  502 -0.00000000000E+00 -0.00000000000E+00 -0.25286608271E+04  0.25286608271E+04  0.00000000000E+00 0. -1.
         21    1    1    2  503  505 -0.16687053957E+03 -0.20005090894E+02 -0.74343574391E+03  0.76219596297E+03  0.00000000000E+00 0. -1.
         21    1    1    2  504  506  0.32768653217E+02 -0.21836365294E+02 -0.57398731499E+03  0.57533646612E+03  0.00000000000E+00 0. -1.
         21    1    1    2  505  501  0.89368692428E+02  0.28763045520E+02 -0.34909865557E+03  0.36150234757E+03  0.00000000000E+00 0. -1.
         21    1    1    2  506  502  0.44733193922E+02  0.13078410668E+02 -0.84524061792E+03  0.84652454521E+03  0.00000000000E+00 0. -1.
<scales pt_clust_3="117.13035" pt_clust_4="34.36313" pt_clust_5="14000.00000" pt_clust_6="86.49168"></scales>
<clustering>
<clus scale="   34.363">  4  6 -1 -1</clus>
<clus scale="   86.492">  2  4  1 -1</clus>
<clus scale="  117.130">  2  3  1 -1</clus>
<clus scale="  117.130">  1  3  2 -1</clus>
</clustering>
</event>
<event>
 6    0  0.4469832E+002  0.1458555E+03  0.7546771E-02  0.1205660E+00
         21   -1    0    0  504  501  0.00000000000E+00  0.00000000000E+00  0.62612010117E+03  0.62612010117E+03  0.00000000000E+00 0. -1.
         21   -1    0    0  506  502 -0.00000000000E+00 -0.00000000000E+00 -0.55687443647E+02  0.55687443647E+02  0.00000000000E+00 0.  1.
         21    1    1    2  503  505  0.63238952094E+02 -0.25787906595E+02  0.85024421227E+02  0.10905656052E+03  0.00000000000E+00 0.  1.
         21    1    1    2  504  502 -0.38936950813E+00 -0.40350275132E+02  0.33778647862E+02  0.52624075889E+02  0.00000000000E+00 0.  1.
         21    1    1    2  505  501 -0.10965865158E+03  0.82896401795E+02  0.44984108972E+03  0.47037627416E+03  0.00000000000E+00 0. -1.
         21    1    1    2  506  503  0.46809068997E+02 -0.16758220069E+02  0.17884987244E+01  0.49750634246E+02  0.00000000000E+00 0.  1.
<scales pt_clust_3="55.64853" pt_clust_4="40.35215" pt_clust_5="132.33031" pt_clust_6="55.64853"></scales>
<clustering>
<clus scale="   40.352">  2  4  1 -1</clus>
<clus scale="   55.649">  3  6 -1 -1</clus>
<clus scale="  132.330">  1  5  2 -1</clus>
<clus scale="  132.330">  1  3  2 -1</clus>
</clustering>
</event>
<event>
 6    0  0.4469832E+002  0.8129397E+02  0.7546771E-02  0.1325419E+00
         21   -1    0    0  506  501  0.00000000000E+00  0.00000000000E+00  0.28103542389E+03  0.28103542389E+03  0.00000000000E+00 0. -1.
         21   -1    0    0  503  502 -0.00000000000E+00 -0.00000000000E+00 -0.24088908595E+03  0.24088908595E+03  0.00000000000E+00 0.  1.
         21    1    1    2  503  505 -0.25082483006E+02 -0.18594351069E+02 -0.49006413645E+01  0.31605333904E+02  0.00000000000E+00 0. -1.
         21    1    1    2  504  501 -0.47576200237E+02  0.66563737621E+02  0.12557485697E+03  0.14987751898E+03  0.00000000000E+00 0. -1.
         21    1    1    2  505  504  0.61202857895E+01 -0.87649968166E+02  0.10646293682E+03  0.13803742874E+03  0.00000000000E+00 0. -1.
         21    1    1    2  506  502  0.66538397454E+02  0.39680581614E+02 -0.18699081449E+03  0.20240422821E+03  0.00000000000E+00 0.  1.
<scales pt_clust_3="31.22308" pt_clust_4="81.29397" pt_clust_5="14000.00000" pt_clust_6="50.37810"></scales>
<clustering>
<clus scale="   31.223">  2  3  1 -1</clus>
<clus scale="   50.378">  2  6  1 -1</clus>
<clus scale="   81.294">  1  4  2 -1</clus>
<clus scale="   81.294">  1  3  2 -1</clus>
</clustering>
</event>
<event>
 6    0  0.4469832E+002  0.2851449E+03  0.7546771E-02  0.1092912E+00
         21   -1    0    0  502  501  0.00000000000E+00  0.00000000000E+00  0.72421087116E+03  0.72421087116E+03  0.00000000000E+00 0.  1.
         21   -1    0    0  503  502 -0.00000000000E+00 -0.00000000000E+00 -0.24547757781E+03  0.24547757781E+03  0.00000000000E+00 0. -1.
         21    1    1    2  503  504  0.13755178789E+03  0.66607645269E+02 -0.52360937005E+02  0.16155104606E+03  0.00000000000E+00 0.  1.
         21    1    1    2  504  505  0.82416746862E+02  0.91860743299E+02 -0.70683154791E+02  0.14222174480E+03  0.00000000000E+00 0. -1.
         21    1    1    2  505  506 -0.15724583883E+03 -0.14487651238E+03  0.39172848377E+03  0.44628092349E+03  0.00000000000E+00 0.  1.
         21    1    1    2  506  501 -0.62722695918E+02 -0.13591876186E+02  0.21004890137E+03  0.21963473462E+03  0.00000000000E+00 0.  1.
<scales pt_clust_3="277.73739" pt_clust_4="54.21358" pt_clust_5="48.41542" pt_clust_6="48.41542"></scales>
<clustering>
<clus scale="   48.415">  5  6 -1 -1</clus>
<clus scale="   54.214">  3  4 -1 -1</clus>
<clus scale="  277.737">  2  3  1 -1</clus>
<clus scale="  285.145">  1  3  2 -1</clus>
</clustering>
</event>
<event>
 6    0  0.4469832E+002  0.8056210E+02  0.7546771E-02  0.1327464E+00
         21   -1    0    0  503  501  0.00000000000E+00  0.00000000000E+00  0.16330868005E+04  0.16330868005E+04  0.00000000000E+00 0. -1.
         21   -1    0    0  504  502 -0.00000000000E+00 -0.00000000000E+00 -0.11192774566E+03  0.11192774566E+03  0.00000000000E+00 0. -1.
         21    1    1    2  503  502 -0.13699359744E+02 -0.88370968478E+02 -0.67520959372E+02  0.11205436396E+03  0.00000000000E+00 0. -1.
         21    1    1    2  504  506 -0.16286631272E+02  0.61471718086E+02  0.33974032309E+02  0.72098969160E+02  0.00000000000E+00 0.  1.
         21    1    1    2  505  501 -0.42415275618E+02  0.82076461478E+01  0.10242667313E+04  0.10251774275E+04  0.00000000000E+00 0. -1.
         21    1    1    2  506  505  0.72401266634E+02  0.18691604244E+02  0.53043925057E+03  0.53568378548E+03  0.00000000000E+00 0. -1.
<scales pt_clust_3="80.56210" pt_clust_4="14000.00000" pt_clust_5="43.20210" pt_clust_6="43.72106"></scales>
<clustering>
<clus scale="   43.202">  1  5  2 -1</clus>
<clus scale="   43.721">  1  6  2 -1</clus>
<clus scale="   80.562">  2  3  1 -1</clus>
<clus scale="   43.202">  1  3  2 -1</clus>
</clustering>
</event>
<event>
 6    0  0.4469832E+002  0.1113361E+03  0.7546771E-02  0.1258116E+00
         21   -1    0    0  505  501  0.00000000000E+00  0.00000000000E+00  0.93051572126E+03  0.93051572126E+03  0.00000000000E+00 0.  1.
         21   -1    0    0  503  502 -0.00000000000E+00 -0.00000000000E+00 -0.16131007123E+03  0.16131007123E+03  0.00000000000E+00 0.  1.
         21    1    1    2  503  506  0.71796205725E+02  0.13888839020E+02 -0.11500737991E+03  0.13628753589E+03  0.00000000000E+00 0.  1.
         21    1    1    2  504  502  0.40534841349E+02 -0.14009400479E+02 -0.11460516790E+02  0.44392342922E+02  0.00000000000E+00 0.  1.
         21    1    1    2  505  504 -0.13442383032E+03 -0.20454714013E+02  0.69014226745E+03  0.70340920580E+03  0.00000000000E+00 0.  1.
         21    1    1    2  506  501  0.22092783247E+02  0.20575275471E+02  0.20553127929E+03  0.20773670788E+03  0.00000000000E+00 0. -1.
<scales pt_clust_3="111.33607" pt_clust_4="43.21383" pt_clust_5="14000.00000" pt_clust_6="30.18995"></scales>
<clustering>
<clus scale="   30.190">  1  6  2 -1</clus>
<clus scale="   43.214">  2  4  1 -1</clus>
<clus scale="  111.336">  2  3  1 -1</clus>
<clus scale="   30.190">  1  3  2 -1</clus>
</clustering>
</event>
<event>
 6    0  0.4469832E+002  0.7832765E+02  0.7546771E-02  0.1333865E+00
         21   -1    0    0  503  501  0.00000000000E+00  0.00000000000E+00  0.12082595040E+03  0.12082595040E+03  0.00000000000E+00 0.  1.
         21   -1    0    0  505  502 -0.00000000000E+00 -0.00000000000E+00 -0.16154240532E+03  0.16154240532E+03  0.00000000000E+00 0.  1.
         21    1    1    2  503  504 -0.69853937842E+02  0.39521429560E+02 -0.31004522010E+02  0.86039504947E+02  0.00000000000E+00 0.  1.
         21    1    1    2  504  502  0.35990397258E+01  0.32323377216E+02 -0.68570191383E+01  0.33238118374E+02  0.00000000000E+00 0. -1.
         21    1    1    2  505  506  0.65331208661E+01 -0.96563993525E+02 -0.13035102631E+02  0.97658591093E+02  0.00000000000E+00 0.  1.
         21    1    1    2  506  501  0.59721777250E+02  0.24719186749E+02  0.10180188862E+02  0.65432141312E+02  0.00000000000E+00 0.  1.
<scales pt_clust_3="78.32765" pt_clust_4="32.52313" pt_clust_5="14000.00000" pt_clust_6="67.92632"></scales>
<clustering>
<clus scale="   32.523">  2  4  1 -1</clus>
<clus scale="   67.926">  1  6  2 -1</clus>
<clus scale="   78.328">  2  3  1 -1</clus>
<clus scale="   67.926">  1  3  2 -1</clus>
</clustering>
</event>
<event>
 6    0  0.4469832E+002  0.1872885E+03  0.7546771E-02  0.1160930E+00
         21   -1    0    0  503  501  0.00000000000E+00  0.00000000000E+00  0.18860332426E+04  0.18860332426E+04  0.00000000000E+00 0.  1.
         21   -1    0    0  504  502 -0.00000000000E+00 -0.00000000000E+00 -0.18234123562E+03  0.18234123562E+03  0.00000000000E+00 0.  1.
         21    1    1    2  503  506 -0.43651009481E+02  0.51346067117E+02  0.14342103915E+04  0.14357929086E+04  0.00000000000E+00 0.  1.
         21    1    1    2  504  501  0.12750994359E+03  0.10411087776E+03  0.37911448053E+03  0.41331059741E+03  0.00000000000E+00 0.  1.
         21    1    1    2  505  502 -0.87847286290E+02 -0.96643793001E+02 -0.69350963374E+02  0.14787401582E+03  0.00000000000E+00 0.  1.
         21    1    1    2  506  505  0.39883521818E+01 -0.58813151881E+02 -0.40281901652E+02  0.71396956433E+02  0.00000000000E+00 0.  1.
<scales pt_clust_3="67.39309" pt_clust_4="173.82685" pt_clust_5="46.84151" pt_clust_6="46.84151"></scales>
<clustering>
<clus scale="   46.842">  5  6 -1 -1</clus>
<clus scale="   67.393">  1  3  2 -1</clus>
<clus scale="  173.827">  1  4  2 -1</clus>
<clus scale="   67.393">  1  3  2 -1</clus>
</clustering>
</event>
<event>
 6    0  0.4469832E+002  0.1226499E+03  0.7546771E-02  0.1238788E+00
         21   -1    0    0  504  501  0.00000000000E+00  0.00000000000E+00  0.65994904166E+03  0.65994904166E+03  0.00000000000E+00 0. -1.
         21   -1    0    0  506  502 -0.00000000000E+00 -0.00000000000E+00 -0.82904232282E+02  0.82904232282E+02  0.00000000000E+00 0. -1.
         21    1    1    2  503  505 -0.86172479553E+01 -0.70474514267E+02 -0.13455705923E+02  0.72263200492E+02  0.00000000000E+00 0.  1.
         21    1    1    2  504  502  0.89029095167E+02 -0.41264866831E+02  0.16532891132E+03  0.19225664602E+03  0.00000000000E+00 0. -1.
         21    1    1    2  505  501 -0.11131883418E+03  0.97831517512E+02  0.41826646711E+03  0.44374511397E+03  0.00000000000E+00 0. -1.
         21    1    1    2  506  503  0.30906986967E+02  0.13907863586E+02  0.69051368700E+01  0.34588313461E+02  0.00000000000E+00 0.  1.
<scales pt_clust_3="62.73911" pt_clust_4="122.64992" pt_clust_5="14000.00000" pt_clust_6="33.89204"></scales>
<clustering>
<clus scale="   33.892">  2  6  1 -1</clus>
<clus scale="   62.739">  2  3  1 -1</clus>
<clus scale="  122.650">  2  4  1 -1</clus>
<clus scale="  122.650">  1  3  2 -1</clus>
</clustering>
</event>
<event>
 6    0  0.4469832E+002  0.8840327E+02  0.7546771E-02  0.1306765E+00
         21   -1    0    0  504  501  0.00000000000E+00  0.00000000000E+00  0.92340263718E+02  0.92340263718E+02  0.00000000000E+00 0. -1.
         21   -1    0    0  506  502 -0.00000000000E+00 -0.00000000000E+00 -0.79895327554E+03  0.79895327554E+03  0.00000000000E+00 0. -1.
         21    1    1    2  503  502  0.48062963617E+02  0.33309976556E+02 -0.23189191453E+03  0.23915154826E+03  0.00000000000E+00 0. -1.
         21    1    1    2  504  505  0.46720191004E+02 -0.19670186164E+02  0.34204305961E+02  0.61152489871E+02  0.00000000000E+00 0. -1.
         21    1    1    2  505  503  0.40433205322E+02  0.47963511315E+02 -0.20304186022E+01  0.62765158408E+02  0.00000000000E+00 0. -1.
         21    1    1    2  506  501 -0.13521635994E+03 -0.61603301708E+02 -0.50689498464E+03  0.52822434271E+03  0.00000000000E+00 0. -1.
<scales pt_clust_3="60.78712" pt_clust_4="50.69213" pt_clust_5="14000.00000" pt_clust_6="88.40327"></scales>
<clustering>
<clus scale="   50.692">  1  4  2 -1</clus>
<clus scale="   60.787">  2  3  1 -1</clus>
<clus scale="   88.403">  2  6  1 -1</clus>
<clus scale="   50.692">  1  3  2 -1</clus>
</clustering>
</event>
<event>
 6    0  0.4469832E+002  0.1084604E+03  0.7546771E-02  0.1263448E+00
         21   -1    0    0  506  501  0.00000000000E+00  0.00000000000E+00  0.16621208893E+04  0.16621208893E+04  0.00000000000E+00 0.  1.
         21   -1    0    0  503  502 -0.00000000000E+00 -0.00000000000E+00 -0.30923752377E+03  0.30923752377E+03  0.00000000000E+00 0. -1.
         21    1    1    2  503  501  0.93107131310E+02  0.24653266600E+02 -0.25897721683E+03  0.27630765514E+03  0.00000000000E+00 0. -1.
         21    1    1    2  504  505 -0.41073031693E+02 -0.99182257261E+02  0.24505485639E+03  0.26753690723E+03  0.00000000000E+00 0.  1.
         21    1    1    2  505  502  0.82425595057E+00  0.34682660310E+02 -0.19386722856E+02  0.39741808554E+02  0.00000000000E+00 0.  1.
         21    1    1    2  506  504 -0.52858355567E+02  0.39846330351E+02  0.13861924488E+04  0.13877720422E+04  0.00000000000E+00 0.  1.
<scales pt_clust_3="108.46038" pt_clust_4="14000.00000" pt_clust_5="34.69245" pt_clust_6="66.25183"></scales>
<clustering>
<clus scale="   34.692">  2  5  1 -1</clus>
<clus scale="   66.252">  1  6  2 -1</clus>
<clus scale="  108.460">  2  3  1 -1</clus>
<clus scale="   66.252">  1  3  2 -1</clus>
</clustering>
</event>
<event>
 6    0  0.4469832E+002  0.9490903E+02  0.7546771E-02  0.1291381E+00
         21   -1    0    0  504  501  0.00000000000E+00  0.00000000000E+00  0.61261128584E+03  0.61261128584E+03  0.00000000000E+00 0. -1.
         21   -1    0    0  503  502 -0.00000000000E+00 -0.00000000000E+00 -0.70565388779E+03  0.70565388779E+03  0.00000000000E+00 0. -1.
         21    1    1    2  503  505 -0.40940414861E+01  0.44723560361E+02 -0.15962766990E+03  0.16582506151E+03  0.00000000000E+00 0. -1.
         21    1    1    2  504  502  0.67050223768E+02  0.19935963561E+02 -0.27956513211E+03  0.28818368837E+03  0.00000000000E+00 0. -1.
         21    1    1    2  505  506 -0.10346535431E+03 -0.10157731992E+03 -0.23737956640E+03  0.27815839014E+03  0.00000000000E+00 0. -1.
         21    1    1    2  506  501  0.40509172029E+02  0.36917795997E+02  0.58352976644E+03  0.58609803361E+03  0.00000000000E+00 0. -1.
<scales pt_clust_3="44.91056" pt_clust_4="94.90903" pt_clust_5="14000.00000" pt_clust_6="54.87216"></scales>
<clustering>
<clus scale="   44.911">  2  3  1 -1</clus>
<clus scale="   54.872">  1  6  2 -1</clus>
<clus scale="   94.909">  2  4  1 -1</clus>
<clus scale="   54.872">  1  3  2 -1</clus>
</clustering>
</event>
<event>
 6    0  0.4469832E+002  0.9861006E+02  0.7546771E-02  0.1283246E+00
         21   -1    0    0  504  501  0.00000000000E+00  0.00000000000E+00  0.11713255400E+03  0.11713255400E+03  0.00000000000E+00 0.  1.
         21   -1    0    0  505  502 -0.00000000000E+00 -0.00000000000E+00 -0.96100156226E+03  0.96100156226E+03  0.00000000000E+00 0.  1.
         21    1    1    2  503  506 -0.73038659207E+02 -0.22154184556E+02 -0.23564182798E+02  0.79879436297E+02  0.00000000000E+00 0.  1.
         21    1    1    2  504  503 -0.32963453648E+02 -0.20225082960E+02  0.77258836616E+02  0.86397749348E+02  0.00000000000E+00 0.  1.
         21    1    1    2  505  501  0.36881840678E+02  0.64795665375E+02 -0.27015103248E+03  0.28025047506E+03  0.00000000000E+00 0.  1.
         21    1    1    2  506  502  0.69120272177E+02 -0.22416397859E+02 -0.62741262960E+03  0.63160645555E+03  0.00000000000E+00 0.  1.
<scales pt_clust_3="98.61006" pt_clust_4="38.67355" pt_clust_5="69.76150" pt_clust_6="14000.00000"></scales>
<clustering>
<clus scale="   38.674">  1  4  2 -1</clus>
<clus scale="   69.761">  2  5  1 -1</clus>
<clus scale="   98.610">  1  3  2 -1</clus>
<clus scale="   38.674">  1  3  2 -1</clus>
</clustering>
</event>
<event>
 6    0  0.4469832E+002  0.7959522E+02  0.7546771E-02  0.1330204E+00
         21   -1    0    0  503  501  0.00000000000E+00  0.00000000000E+00  0.51507972371E+03  0.51507972371E+03  0.00000000000E+00 0. -1.
         21   -1    0    0  505  502 -0.00000000000E+00 -0.00000000000E+00 -0.96662524571E+02  0.96662524571E+02  0.00000000000E+00 0. -1.
         21    1    1    2  503  502  0.13144208822E+02 -0.46248887508E+02 -0.78824091095E+01  0.48722296689E+02  0.00000000000E+00 0. -1.
         21    1    1    2  504  506  0.34786952224E+02  0.10636093097E+03  0.63843939463E+02  0.12883644007E+03  0.00000000000E+00 0. -1.
         21    1    1    2  505  504 -0.59247661496E+02 -0.25601152613E+02 -0.51878248163E+01  0.64750428062E+02  0.00000000000E+00 0. -1.
         21    1    1    2  506  501  0.11316500450E+02 -0.34510890852E+02  0.36764349360E+03  0.36943308346E+03  0.00000000000E+00 0. -1.
<scales pt_clust_3="53.13769" pt_clust_4="14000.00000" pt_clust_5="79.59522" pt_clust_6="36.31893"></scales>
<clustering>
<clus scale="   36.319">  1  6  2 -1</clus>
<clus scale="   53.138">  2  3  1 -1</clus>
<clus scale="   79.595">  2  5  1 -1</clus>
<clus scale="   36.319">  1  3  2 -1</clus>
</clustering>
</event>
<event>
 6    0  0.4469832E+002  0.8849230E+02  0.7546771E-02  0.1306544E+00
         21   -1    0    0  504  501  0.00000000000E+00  0.00000000000E+00  0.25263195509E+02  0.25263195509E+02  0.00000000000E+00 0. -1.
         21   -1    0    0  503  502 -0.00000000000E+00 -0.00000000000E+00 -0.75349299168E+03  0.75349299168E+03  0.00000000000E+00 0. -1.
         21    1    1    2  503  505  0.16791026500E+02 -0.10455823497E+03 -0.19729305483E+03  0.22391720022E+03  0.00000000000E+00 0. -1.
         21    1    1    2  504  506 -0.26098477405E+02  0.70886173685E+02 -0.33671120396E+03  0.34508030227E+03  0.00000000000E+00 0. -1.
         21    1    1    2  505  501 -0.28348648013E+02  0.14318975923E+02 -0.48227913472E+02  0.57746086911E+02  0.00000000000E+00 0. -1.
         21    1    1    2  506  502  0.37656098919E+02  0.19353085359E+02 -0.14599762392E+03  0.15201259779E+03  0.00000000000E+00 0. -1.
<scales pt_clust_3="88.49230" pt_clust_4="14000.00000" pt_clust_5="31.75971" pt_clust_6="39.77892"></scales>
<clustering>
<clus scale="   31.760">  1  5  2 -1</clus>
<clus scale="   39.779">  2  6  1 -1</clus>
<clus scale="   88.492">  1  3  2 -1</clus>
<clus scale="   31.760">  1  3  2 -1</clus>
</clustering>
</event>
<event>
 6    0  0.4469832E+002  0.1592598E+03  0.7546771E-02  0.1189535E+00
         21   -1    0    0  503  501  0.00000000000E+00  0.00000000000E+00  0.16990981754E+04  0.16990981754E+04  0.00000000000E+00 0.  1.
         21   -1    0    0  506  502 -0.00000000000E+00 -0.00000000000E+00 -0.22658117966E+03  0.22658117966E+03  0.00000000000E+00 0.  1.
         21    1    1    2  503  502 -0.59579185937E+01  0.39917528109E+02  0.37851814944E+02  0.55332320924E+02  0.00000000000E+00 0.  1.
         21    1    1    2  504  505 -0.38452595232E+02  0.27715344581E+02 -0.59861351979E+02  0.76355247796E+02  0.00000000000E+00 0.  1.
         21    1    1    2  505  501  0.14208450162E+03 -0.43339545464E+02  0.16235624110E+04  0.16303438975E+04  0.00000000000E+00 0.  1.
         21    1    1    2  506  504 -0.97673987795E+02 -0.24293327226E+02 -0.12903587823E+03  0.16364788881E+03  0.00000000000E+00 0.  1.
<scales pt_clust_3="40.35971" pt_clust_4="39.88039" pt_clust_5="148.27848" pt_clust_6="39.88039"></scales>
<clustering>
<clus scale="   39.880">  4  6 -1 -1</clus>
<clus scale="   40.360">  2  3  1 -1</clus>
<clus scale="  148.278">  1  5  2 -1</clus>
<clus scale="  148.278">  1  3  2 -1</clus>
</clustering>
</event>
<event>
 6    0  0.4469832E+002  0.1234871E+03  0.7546771E-02  0.1237453E+00
         21   -1    0    0  505  501  0.00000000000E+00  0.00000000000E+00  0.11596010336E+03  0.11596010336E+03  0.00000000000E+00 0. -1.
         21   -1    0    0  503  502 -0.00000000000E+00 -0.00000000000E+00 -0.18906675223E+04  0.18906675223E+04  0.00000000000E+00 0. -1.
         21    1    1    2  503  506 -0.58067553923E+02  0.11497526375E+03 -0.18038379965E+04  0.18084309966E+04  0.00000000000E+00 0. -1.
         21    1    1    2  504  502  0.44336134415E+02 -0.61895794981E+02 -0.48845076388E+02  0.90457856146E+02  0.00000000000E+00 0. -1.
         21    1    1    2  505  504 -0.18860834613E+02 -0.24968798916E+02  0.31767974692E+02  0.44591212336E+02  0.00000000000E+00 0. -1.
         21    1    1    2  506  501  0.32592254121E+02 -0.28110669852E+02  0.46207679203E+02  0.63147560567E+02  0.00000000000E+00 0. -1.
<scales pt_clust_3="123.48707" pt_clust_4="14000.00000" pt_clust_5="31.29172" pt_clust_6="49.58733"></scales>
<clustering>
<clus scale="   31.292">  1  5  2 -1</clus>
<clus scale="   49.587">  1  6  2 -1</clus>
<clus scale="  123.487">  2  3  1 -1</clus>
<clus scale="   31.292">  1  3  2 -1</clus>
</clustering>
</event>
<event>
 6    0  0.4469832E+002  0.2229763E+03  0.7546771E-02  0.1131683E+00
         21   -1    0    0  504  501  0.00000000000E+00  0.00000000000E+00  0.17552475086E+04  0.17552475086E+04  0.00000000000E+00 0.  1.
         21   -1    0    0  503  502 -0.00000000000E+00 -0.00000000000E+00 -0.45549134010E+03  0.45549134010E+03  0.00000000000E+00 0.  1.
         21    1    1    2  503  505 -0.15177273839E+03 -0.11501340714E+03 -0.22844164122E+03  0.29740314622E+03  0.00000000000E+00 0.  1.
         21    1    1    2  504  506 -0.20316563462E+03  0.82122111737E+02  0.14998675823E+04  0.15157912392E+04  0.00000000000E+00 0.  1.
         21    1    1    2  505  501  0.35054596966E+03  0.71203416433E+02  0.29880691282E+02  0.35895021810E+03  0.00000000000E+00 0.  1.
         21    1    1    2  506  502  0.43924033461E+01 -0.38312121030E+02 -0.15504638669E+01  0.38594245208E+02  0.00000000000E+00 0.  1.
<scales pt_clust_3="203.27738" pt_clust_4="14000.00000" pt_clust_5="222.97626" pt_clust_6="38.56309"></scales>
<clustering>
<clus scale="   38.563">  2  6  1 -1</clus>
<clus scale="  203.277">  2  3  1 -1</clus>
<clus scale="  222.976">  2  5  1 -1</clus>
<clus scale="  222.976">  1  3  2 -1</clus>
</clustering>
</event>
<event>
 6    0  0.4469832E+002  0.9996642E+02  0.7546771E-02  0.1280367E+00
         21   -1    0    0  503  501  0.00000000000E+00  0.00000000000E+00  0.64260035022E+03  0.64260035022E+03  0.00000000000E+00 0.  1.
         21   -1    0    0  505  502 -0.00000000000E+00 -0.00000000000E+00 -0.80188729643E+02  0.80188729643E+02  0.00000000000E+00 0.  1.
         21    1    1    2  503  506  0.47297227227E+02  0.56458933630E+02  0.34537796621E+03  0.35314384949E+03  0.00000000000E+00 0.  1.
         21    1    1    2  504  501 -0.78917341079E+02 -0.10714949228E+02  0.10142432088E+03  0.12895599919E+03  0.00000000000E+00 0.  1.
         21    1    1    2  505  504 -0.82629471397E+01 -0.11624340129E+03  0.25064202073E+02  0.11920158919E+03  0.00000000000E+00 0.  1.
         21    1    1    2  506  502  0.39883060992E+02  0.70499416889E+02  0.90545131407E+02  0.12148764199E+03  0.00000000000E+00 0. -1.
<scales pt_clust_3="73.65215" pt_clust_4="61.42214" pt_clust_5="99.96642" pt_clust_6="14000.00000"></scales>
<clustering>
<clus scale="   73.652">  1  3  2 -1</clus>
<clus scale="   61.422">  1  4  2 -1</clus>
<clus scale="   99.966">  2  5  1 -1</clus>
<clus scale="   73.652">  1  3  2 -1</clus>
</clustering>
</event>
<event>
 6    0  0.4469832E+002  0.7195094E+02  0.7546771E-02  0.1353582E+00
         21   -1    0    0  503  501  0.00000000000E+00  0.00000000000E+00  0.74733772034E+02  0.74733772034E+02  0.00000000000E+00 0. -1.
         21   -1    0    0  506  502 -0.00000000000E+00 -0.00000000000E+00 -0.11753001629E+04  0.11753001629E+04  0.00000000000E+00 0. -1.
         21    1    1    2  503  504  0.82757401070E+02 -0.14233096083E+02  0.56784185643E+01  0.84164201970E+02  0.00000000000E+00 0. -1.
         21    1    1    2  504  502 -0.52313745218E+02 -0.50803706825E+02 -0.10147099768E+04  0.10173269295E+04  0.00000000000E+00 0. -1.
         21    1    1    2  505  501 -0.48683979549E+02 -0.77937503936E+00 -0.38457935637E+02  0.62046354475E+02  0.00000000000E+00 0. -1.
         21    1    1    2  506  505  0.18240323697E+02  0.65816177947E+02 -0.53076897041E+02  0.86496448988E+02  0.00000000000E+00 0. -1.
<scales pt_clust_3="50.23687" pt_clust_4="71.95094" pt_clust_5="48.69022" pt_clust_6="14000.00000"></scales>
<clustering>
<clus scale="   48.690">  1  5  2 -1</clus>
<clus scale="   50.237">  1  3  2 -1</clus>
<clus scale="   71.951">  2  4  1 -1</clus>
<clus scale="   48.690">  1  3  2 -1</clus>
</clustering>
</event>
<event>
 6    0  0.4469832E+002  0.1060134E+03  0.7546771E-02  0.1268136E+00
         21   -1    0    0  504  501  0.00000000000E+00  0.00000000000E+00  0.50349492976E+03  0.50349492976E+03  0.00000000000E+00 0.  1.
         21   -1    0    0  505  502 -0.00000000000E+00 -0.00000000000E+00 -0.61778040961E+03  0.61778040961E+03  0.00000000000E+00 0.  1.
         21    1    1    2  503  501  0.59398990880E+02 -0.12150932292E+03 -0.74941235954E+02  0.15462517428E+03  0.00000000000E+00 0.  1.
         21    1    1    2  504  506 -0.37353624276E+02 -0.18328104893E+02  0.37289889272E+03  0.37521300200E+03  0.00000000000E+00 0.  1.
         21    1    1    2  505  503  0.19464907193E+01  0.10374715215E+03 -0.49083781100E+03  0.50168617393E+03  0.00000000000E+00 0.  1.
         21    1    1    2  506  502 -0.23991857324E+02  0.36090275659E+02  0.78594674387E+02  0.89750989170E+02  0.00000000000E+00 0.  1.
<scales pt_clust_3="106.01342" pt_clust_4="41.60784" pt_clust_5="14000.00000" pt_clust_6="53.99513"></scales>
<clustering>
<clus scale="   41.608">  1  4  2 -1</clus>
<clus scale="   53.995">  1  6  2 -1</clus>
<clus scale="  106.013">  1  3  2 -1</clus>
<clus scale="   41.608">  1  3  2 -1</clus>
</clustering>
</event>
<event>
 6    0  0.4469832E+002  0.1015548E+03  0.7546771E-02  0.1277060E+00
         21   -1    0    0  503  501  0.00000000000E+00  0.00000000000E+00  0.19753413776E+03  0.19753413776E+03  0.00000000000E+00 0. -1.
         21   -1    0    0  505  502 -0.00000000000E+00 -0.00000000000E+00 -0.56090271817E+03  0.56090271817E+03  0.00000000000E+00 0.  1.
         21    1    1    2  503  502  0.21391030532E+02 -0.32603974299E+02  0.22516967096E+02  0.45028981052E+02  0.00000000000E+00 0. -1.
         21    1    1    2  504  501 -0.19201040448E+02  0.12253593194E+03  0.13473771135E+03  0.18313379107E+03  0.00000000000E+00 0. -1.
         21    1    1    2  505  506  0.14736812426E+02 -0.42492994018E+02 -0.33236448089E+03  0.33539376312E+03  0.00000000000E+00 0.  1.
         21    1    1    2  506  504 -0.16926802510E+02 -0.47438963622E+02 -0.18825877797E+03  0.19488032070E+03  0.00000000000E+00 0. -1.
<scales pt_clust_3="38.99481" pt_clust_4="90.90605" pt_clust_5="42.74226" pt_clust_6="42.74226"></scales>
<clustering>
<clus scale="   38.995">  1  3  2 -1</clus>
<clus scale="   42.742">  5  6 -1 -1</clus>
<clus scale="   90.906">  1  4  2 -1</clus>
<clus scale="   38.995">  1  3  2 -1</clus>
</clustering>
</event>
<event>
 6    0  0.4469832E+002  0.1781204E+03  0.7546771E-02  0.1169635E+00
         21   -1    0    0  503  501  0.00000000000E+00  0.00000000000E+00  0.69048207707E+03  0.69048207707E+03  0.00000000000E+00 0.  1.
         21   -1    0    0  506  502 -0.00000000000E+00 -0.00000000000E+00 -0.76916734789E+03  0.76916734789E+03  0.00000000000E+00 0. -1.
         21    1    1    2  503  505  0.37248155338E+02 -0.76231483287E+01  0.21174572077E+02  0.43518961031E+02  0.00000000000E+00 0. -1.
         21    1    1    2  504  501  0.60883742486E+01 -0.81666859036E+02  0.55380026990E+03  0.55982254608E+03  0.00000000000E+00 0.  1.
         21    1    1    2  505  502  0.10272868641E+03  0.15252626463E+03 -0.67142540800E+03  0.69615337600E+03  0.00000000000E+00 0. -1.
         21    1    1    2  506  504 -0.14606521599E+03 -0.63236257266E+02  0.17765295207E+02  0.16015454183E+03  0.00000000000E+00 0.  1.
<scales pt_clust_3="38.02022" pt_clust_4="95.80398" pt_clust_5="14000.00000" pt_clust_6="178.12043"></scales>
<clustering>
<clus scale="   38.020">  1  3  2 -1</clus>
<clus scale="   95.804">  1  4  2 -1</clus>
<clus scale="  178.120">  1  6  2 -1</clus>
<clus scale="   38.020">  1  3  2 -1</clus>
</clustering>
</event>
<event>
 6    0  0.4469832E+002  0.1084478E+03  0.7546771E-02  0.1263472E+00
         21   -1    0    0  506  501  0.00000000000E+00  0.00000000000E+00  0.39956551919E+02  0.39956551919E+02  0.00000000000E+00 0.  1.
         21   -1    0    0  501  502 -0.00000000000E+00 -0.00000000000E+00 -0.11022508972E+04  0.11022508972E+04  0.00000000000E+00 0. -1.
         21    1    1    2  503  504  0.13579814088E+02 -0.45873097010E+02 -0.15671303156E+03  0.16385275902E+03  0.00000000000E+00 0. -1.
         21    1    1    2  504  502  0.29989583031E+02  0.11309792736E+03 -0.67547468786E+03  0.68553378488E+03  0.00000000000E+00 0. -1.
         21    1    1    2  505  503 -0.91759321073E+01 -0.45082491924E+02 -0.24500529001E+03  0.24928742636E+03  0.00000000000E+00 0. -1.
         21    1    1    2  506  505 -0.34393465012E+02 -0.22142338430E+02  0.14898664161E+02  0.43533478846E+02  0.00000000000E+00 0.  1.
<scales pt_clust_3="31.24071" pt_clust_4="103.66307" pt_clust_5="31.24071" pt_clust_6="40.90469"></scales>
<clustering>
<clus scale="   31.241">  3  5 -1 -1</clus>
<clus scale="   40.905">  1  6  2 -1</clus>
<clus scale="  103.663">  2  4  1 -1</clus>
<clus scale="   40.905">  1  3  2 -1</clus>
</clustering>
</event>
<event>
 6    0  0.4469832E+002  0.9188846E+02  0.7546771E-02  0.1298342E+00
         21   -1    0    0  505  501  0.00000000000E+00  0.00000000000E+00  0.26401549639E+04  0.26401549639E+04  0.00000000000E+00 0. -1.
         21   -1    0    0  504  502 -0.00000000000E+00 -0.00000000000E+00 -0.13908482053E+02  0.13908482053E+02  0.00000000000E+00 0. -1.
         21    1    1    2  503  501  0.11761846980E+02 -0.53643730688E+02  0.10179929776E+04  0.10194732430E+04  0.00000000000E+00 0. -1.
         21    1    1    2  504  503  0.74215613918E+02  0.35640400734E+00  0.12763989914E+04  0.12785548364E+04  0.00000000000E+00 0. -1.
         21    1    1    2  505  506 -0.92444888037E+02  0.19517185505E+02  0.24955011555E+03  0.26683747492E+03  0.00000000000E+00 0. -1.
         21    1    1    2  506  502  0.64674271383E+01  0.33770141175E+02  0.82304397311E+02  0.89197891598E+02  0.00000000000E+00 0. -1.
<scales pt_clust_3="52.69106" pt_clust_4="14000.00000" pt_clust_5="91.88846" pt_clust_6="34.38386"></scales>
<clustering>
<clus scale="   34.384">  2  6  1 -1</clus>
<clus scale="   52.691">  1  3  2 -1</clus>
<clus scale="   91.888">  2  5  1 -1</clus>
<clus scale="   52.691">  1  3  2 -1</clus>
</clustering>
</event>
<event>
 6    0  0.4469832E+002  0.1563811E+03  0.7546771E-02  0.1192844E+00
         21   -1    0    0  504  501  0.00000000000E+00  0.00000000000E+00  0.13179686422E+04  0.13179686422E+04  0.00000000000E+00 0.  1.
         21   -1    0    0  505  502 -0.00000000000E+00 -0.00000000000E+00 -0.33280166364E+03  0.33280166364E+03  0.00000000000E+00 0. -1.
         21    1    1    2  503  501 -0.19682351412E+02  0.29149549381E+02  0.12477655488E+04  0.12482611730E+04  0.00000000000E+00 0.  1.
         21    1    1    2  504  502  0.14994192304E+03 -0.50372602662E+02 -0.16767406744E+03  0.23050937568E+03  0.00000000000E+00 0. -1.
         21    1    1    2  505  506 -0.50581864620E+02  0.26938915049E+02 -0.15533985571E+02  0.59376214768E+02  0.00000000000E+00 0. -1.
         21    1    1    2  506  503 -0.79677707009E+02 -0.57158617682E+01 -0.79390517257E+02  0.11262354239E+03  0.00000000000E+00 0. -1.
<scales pt_clust_3="35.17231" pt_clust_4="145.94441" pt_clust_5="50.15038" pt_clust_6="50.15038"></scales>
<clustering>
<clus scale="   35.172">  1  3  2 -1</clus>
<clus scale="   50.150">  5  6 -1 -1</clus>
<clus scale="  145.944">  2  4  1 -1</clus>
<clus scale="   35.172">  1  3  2 -1</clus>
</clustering>
</event>
<event>
 6    0  0.4469832E+002  0.8152925E+02  0.7546771E-02  0.1324767E+00
         21   -1    0    0  505  501  0.00000000000E+00  0.00000000000E+00  0.31902949413E+02  0.31902949413E+02  0.00000000000E+00 0.  1.
         21   -1    0    0  503  502 -0.00000000000E+00 -0.00000000000E+00 -0.14020802274E+04  0.14020802274E+04  0.00000000000E+00 0.  1.
         21    1    1    2  503  506  0.10804763911E+02 -0.80113575434E+02 -0.55737736738E+03  0.56320907091E+03  0.00000000000E+00 0.  1.
         21    1    1    2  504  502  0.41845824353E+02  0.79517727167E+02 -0.75402749496E+03  0.75936263083E+03  0.00000000000E+00 0.  1.
         21    1    1    2  505  504  0.54575518524E+00  0.30883986502E+02 -0.80692076325E+01  0.31925390879E+02  0.00000000000E+00 0.  1.
         21    1    1    2  506  501 -0.53196343450E+02 -0.30288138234E+02 -0.50703207970E+02  0.79486084144E+02  0.00000000000E+00 0.  1.
<scales pt_clust_3="81.52925" pt_clust_4="14000.00000" pt_clust_5="30.88881" pt_clust_6="53.41127"></scales>
<clustering>
<clus scale="   30.889">  1  5  2 -1</clus>
<clus scale="   53.411">  1  6  2 -1</clus>
<clus scale="   81.529">  1  3  2 -1</clus>
<clus scale="   30.889">  1  3  2 -1</clus>
</clustering>
</event>
<event>
 6    0  0.4469832E+002  0.1212857E+03  0.7546771E-02  0.1240991E+00
         21   -1    0    0  506  501  0.00000000000E+00  0.00000000000E+00  0.26932879775E+03  0.26932879775E+03  0.00000000000E+00 0.  1.
         21   -1    0    0  505  502 -0.00000000000E+00 -0.00000000000E+00 -0.17052803894E+03  0.17052803894E+03  0.00000000000E+00 0. -1.
         21    1    1    2  503  501  0.39661308788E+02  0.26863382119E+02  0.18722950215E+02  0.51431600971E+02  0.00000000000E+00 0. -1.
         21    1    1    2  504  502  0.49738699262E+02  0.22911342287E+02 -0.59531113123E+02  0.80887707592E+02  0.00000000000E+00 0. -1.
         21    1    1    2  505  503 -0.14581979931E+03 -0.26622355195E+02  0.18091099270E+03  0.23388234424E+03  0.00000000000E+00 0.  1.
         21    1    1    2  506  504  0.56419791263E+02 -0.23152369211E+02 -0.41302070979E+02  0.73655183887E+02  0.00000000000E+00 0. -1.
<scales pt_clust_3="47.90262" pt_clust_4="46.87033" pt_clust_5="110.74169" pt_clust_6="46.87033"></scales>
<clustering>
<clus scale="   46.870">  4  6 -1 -1</clus>
<clus scale="   47.903">  1  3  2 -1</clus>
<clus scale="  110.742">  1  5  2 -1</clus>
<clus scale="   47.903">  1  3  2 -1</clus>
</clustering>
</event>
<event>
 6    0  0.4469832E+002  0.1083754E+03  0.7546771E-02  0.1263608E+00
         21   -1    0    0  505  501  0.00000000000E+00  0.00000000000E+00  0.66900536101E+03  0.66900536101E+03  0.00000000000E+00 0.  1.
         21   -1    0    0  503  502 -0.00000000000E+00 -0.00000000000E+00 -0.80524400163E+02  0.80524400163E+02  0.00000000000E+00 0.  1.
         21    1    1    2  503  501  0.49787011451E+02 -0.14155141140E+02  0.46905899055E+02  0.69851828151E+02  0.00000000000E+00 0.  1.
         21    1    1    2  504  502  0.57506471317E+02  0.60784753124E+02 -0.15963050978E+02  0.85185676333E+02  0.00000000000E+00 0.  1.
         21    1    1    2  505  506 -0.35981388350E+02  0.64729319111E+02  0.19475507434E+03  0.20836046660E+03  0.00000000000E+00 0.  1.
         21    1    1    2  506  504 -0.71312094419E+02 -0.11135893110E+03  0.36278303842E+03  0.38613179008E+03  0.00000000000E+00 0.  1.
<scales pt_clust_3="51.76016" pt_clust_4="108.37544" pt_clust_5="70.54821" pt_clust_6="14000.00000"></scales>
<clustering>
<clus scale="   51.760">  2  3  1 -1</clus>
<clus scale="   70.548">  1  5  2 -1</clus>
<clus scale="  108.375">  2  4  1 -1</clus>
<clus scale="   70.548">  1  3  2 -1</clus>
</clustering>
</event>
<event>
 6    0  0.4469832E+002  0.1269697E+03  0.7546771E-02  0.1232023E+00
         21   -1    0    0  504  501  0.00000000000E+00  0.00000000000E+00  0.93922948315E+03  0.93922948315E+03  0.00000000000E+00 0.  1.
         21   -1    0    0  506  502 -0.00000000000E+00 -0.00000000000E+00 -0.11086690322E+04  0.11086690322E+04  0.00000000000E+00 0. -1.
         21    1    1    2  503  505  0.11053841717E+03 -0.65907096752E+02 -0.25068176440E+02  0.13111407454E+03  0.00000000000E+00 0. -1.
         21    1    1    2  504  503  0.38767260270E+02  0.12412875232E+03  0.10591865182E+03  0.16771883742E+03  0.00000000000E+00 0. -1.
         21    1    1    2  505  502 -0.12667529806E+03 -0.26019660119E+02 -0.99497368642E+03  0.10033425589E+04  0.00000000000E+00 0. -1.
         21    1    1    2  506  501 -0.22630379382E+02 -0.32201995452E+02  0.74468366201E+03  0.74572304446E+03  0.00000000000E+00 0.  1.
<scales pt_clust_3="126.96972" pt_clust_4="103.95454" pt_clust_5="14000.00000" pt_clust_6="39.35864"></scales>
<clustering>
<clus scale="   39.359">  1  6  2 -1</clus>
<clus scale="  103.955">  1  4  2 -1</clus>
<clus scale="  126.970">  1  3  2 -1</clus>
<clus scale="   39.359">  1  3  2 -1</clus>
</clustering>
</event>
<event>
 6    0  0.4469832E+002  0.8365164E+02  0.7546771E-02  0.1318997E+00
         21   -1    0    0  504  501  0.00000000000E+00  0.00000000000E+00  0.11318548008E+03  0.11318548008E+03  0.00000000000E+00 0.  1.
         21   -1    0    0  506  502 -0.00000000000E+00 -0.00000000000E+00 -0.20677647789E+03  0.20677647789E+03  0.00000000000E+00 0.  1.
         21    1    1    2  503  505 -0.11496293426E+02 -0.11499180621E+03 -0.10930285746E+02  0.11608079688E+03  0.00000000000E+00 0.  1.
         21    1    1    2  504  503 -0.29997596082E+02  0.25980365132E+02  0.23672288856E+02  0.46208358581E+02  0.00000000000E+00 0. -1.
         21    1    1    2  505  502  0.50677590048E+01  0.37071330858E+02 -0.81255200507E+02  0.89455985615E+02  0.00000000000E+00 0.  1.
         21    1    1    2  506  501  0.36426130503E+02  0.51940110222E+02 -0.25077800413E+02  0.68216816892E+02  0.00000000000E+00 0.  1.
<scales pt_clust_3="83.65164" pt_clust_4="41.68256" pt_clust_5="37.41612" pt_clust_6="14000.00000"></scales>
<clustering>
<clus scale="   37.416">  2  5  1 -1</clus>
<clus scale="   41.683">  1  4  2 -1</clus>
<clus scale="   83.652">  1  3  2 -1</clus>
<clus scale="   41.683">  1  3  2 -1</clus>
</clustering>
</event>
<event>
 6    0  0.4469832E+002  0.7800121E+02  0.7546771E-02  0.1334821E+00
         21   -1    0    0  505  501  0.00000000000E+00  0.00000000000E+00  0.11652277953E+04  0.11652277953E+04  0.00000000000E+00 0.  1.
         21   -1    0    0  506  502 -0.00000000000E+00 -0.00000000000E+00 -0.77707122919E+02  0.77707122919E+02  0.00000000000E+00 0.  1.
         21    1    1    2  503  504 -0.29377812255E+02 -0.56781023519E+02  0.26267738658E+02  0.69116818351E+02  0.00000000000E+00 0.  1.
         21    1    1    2  504  501  0.71408261353E+02 -0.14511903380E+02  0.98984799469E+03  0.99252646701E+03  0.00000000000E+00 0.  1.
         21    1    1    2  505  502 -0.58501548221E+02  0.10595338949E+03  0.75577721807E+02  0.14269037782E+03  0.00000000000E+00 0.  1.
         21    1    1    2  506  503  0.16471099124E+02 -0.34660462594E+02 -0.41727827779E+01  0.38601255028E+02  0.00000000000E+00 0.  1.
<scales pt_clust_3="78.00121" pt_clust_4="73.41952" pt_clust_5="14000.00000" pt_clust_6="38.37505"></scales>
<clustering>
<clus scale="   38.375">  2  6  1 -1</clus>
<clus scale="   73.420">  1  4  2 -1</clus>
<clus scale="   78.001">  2  3  1 -1</clus>
<clus scale="   73.420">  1  3  2 -1</clus>
</clustering>
</event>
<event>
 6    0  0.4469832E+002  0.1335286E+03  0.7546771E-02  0.1222312E+00
         21   -1    0    0  504  501  0.00000000000E+00  0.00000000000E+00  0.12237074157E+03  0.12237074157E+03  0.00000000000E+00 0.  1.
         21   -1    0    0  506  502 -0.00000000000E+00 -0.00000000000E+00 -0.42277170788E+03  0.42277170788E+03  0.00000000000E+00 0.  1.
         21    1    1    2  503  502  0.49948953118E+02 -0.13823928513E+02 -0.49162847023E+02  0.71435176521E+02  0.00000000000E+00 0.  1.
         21    1    1    2  504  503  0.72327042010E+02  0.31102023907E+02 -0.76629441601E+02  0.10986631976E+03  0.00000000000E+00 0.  1.
         21    1    1    2  505  501 -0.70346251288E+02 -0.12608251117E+03  0.84740922914E+01  0.14462781522E+03  0.00000000000E+00 0.  1.
         21    1    1    2  506  505 -0.51929743840E+02  0.10880441578E+03 -0.18308276998E+03  0.21921313796E+03  0.00000000000E+00 0.  1.
<scales pt_clust_3="34.38964" pt_clust_4="34.38964" pt_clust_5="126.62266" pt_clust_6="120.56160"></scales>
<clustering>
<clus scale="   34.390">  3  4 -1 -1</clus>
<clus scale="  120.562">  2  6  1 -1</clus>
<clus scale="  126.623">  1  5  2 -1</clus>
<clus scale="  126.623">  1  3  2 -1</clus>
</clustering>
</event>
<event>
 6    0  0.4469832E+002  0.7043732E+02  0.7546771E-02  0.1358612E+00
         21   -1    0    0  505  501  0.00000000000E+00  0.00000000000E+00  0.79438072233E+02  0.79438072233E+02  0.00000000000E+00 0.  1.
         21   -1    0    0  504  502 -0.00000000000E+00 -0.00000000000E+00 -0.59783141484E+03  0.59783141484E+03  0.00000000000E+00 0. -1.
         21    1    1    2  503  502  0.47203115130E+02 -0.24004715542E+02 -0.38294373380E+03  0.38658797666E+03  0.00000000000E+00 0. -1.
         21    1    1    2  504  506 -0.13541746622E+01 -0.37263252093E+02 -0.89585253426E+02  0.97035567587E+02  0.00000000000E+00 0. -1.
         21    1    1    2  505  503 -0.97033126004E+02  0.14099176047E+02  0.17403472244E+02  0.99584613035E+02  0.00000000000E+00 0.  1.
         21    1    1    2  506  501  0.51184185536E+02  0.47168791588E+02 -0.63267827631E+02  0.94061329791E+02  0.00000000000E+00 0. -1.
<scales pt_clust_3="14000.00000" pt_clust_4="37.28785" pt_clust_5="70.43732" pt_clust_6="65.64142"></scales>
<clustering>
<clus scale="   37.288">  2  4  1 -1</clus>
<clus scale="   65.641">  1  6  2 -1</clus>
<clus scale="   70.437">  1  5  2 -1</clus>
<clus scale="   65.641">  1  3  2 -1</clus>
</clustering>
</event>
<event>
 6    0  0.4469832E+002  0.1299445E+03  0.7546771E-02  0.1227538E+00
         21   -1    0    0  505  501  0.00000000000E+00  0.00000000000E+00  0.45904917931E+03  0.45904917931E+03  0.00000000000E+00 0.  1.
         21   -1    0    0  506  502 -0.00000000000E+00 -0.00000000000E+00 -0.17111790512E+04  0.17111790512E+04  0.00000000000E+00 0. -1.
         21    1    1    2  503  502  0.91718568325E+02  0.95395333533E+02 -0.15990915607E+04  0.16045580030E+04  0.00000000000E+00 0. -1.
         21    1    1    2  504  501 -0.39002264138E+02 -0.28087930769E+02  0.32632021024E+03  0.32984085265E+03  0.00000000000E+00 0.  1.
         21    1    1    2  505  503  0.22727926353E+02 -0.63812342547E+02  0.10351188564E+03  0.12370644351E+03  0.00000000000E+00 0.  1.
         21    1    1    2  506  504 -0.75444230541E+02 -0.34950602171E+01 -0.82870407034E+02  0.11212293133E+03  0.00000000000E+00 0. -1.
<scales pt_clust_3="129.94452" pt_clust_4="48.06359" pt_clust_5="14000.00000" pt_clust_6="80.07501"></scales>
<clustering>
<clus scale="   48.064">  1  4  2 -1</clus>
<clus scale="   80.075">  1  6  2 -1</clus>
<clus scale="  129.945">  2  3  1 -1</clus>
<clus scale="   48.064">  1  3  2 -1</clus>
</clustering>
</event>
<event>
 6    0  0.4469832E+002  0.1301582E+03  0.7546771E-02  0.1227221E+00
         21   -1    0    0  505  501  0.00000000000E+00  0.00000000000E+00  0.71647210335E+03  0.71647210335E+03  0.00000000000E+00 0.  1.
         21   -1    0    0  503  502 -0.00000000000E+00 -0.00000000000E+00 -0.20585840449E+03  0.20585840449E+03  0.00000000000E+00 0.  1.
         21    1    1    2  503  501 -0.66412428186E+02  0.10783916235E+03 -0.82232410650E+02  0.15100352617E+03  0.00000000000E+00 0.  1.
         21    1    1    2  504  502 -0.43856777016E+01 -0.35994372315E+02 -0.32791777957E+02  0.48888952830E+02  0.00000000000E+00 0.  1.
         21    1    1    2  505  506  0.12124562599E+03 -0.51228351710E+02  0.64967533349E+03  0.66287471273E+03  0.00000000000E+00 0.  1.
         21    1    1    2  506  504 -0.50447520102E+02 -0.20616438328E+02 -0.24037446027E+02  0.59563316104E+02  0.00000000000E+00 0.  1.
<scales pt_clust_3="14000.00000" pt_clust_4="36.26057" pt_clust_5="130.15817" pt_clust_6="59.51798"></scales>
<clustering>
<clus scale="   36.261">  2  4  1 -1</clus>
<clus scale="   59.518">  2  6  1 -1</clus>
<clus scale="  130.158">  1  5  2 -1</clus>
<clus scale="  130.158">  1  3  2 -1</clus>
</clustering>
</event>
<event>
 6    0  0.4469832E+002  0.2067414E+03  0.7546771E-02  0.1144173E+00
         21   -1    0    0  506  501  0.00000000000E+00  0.00000000000E+00  0.21107879608E+03  0.21107879608E+03  0.00000000000E+00 0. -1.
         21   -1    0    0  503  502 -0.00000000000E+00 -0.00000000000E+00 -0.12683594023E+04  0.12683594023E+04  0.00000000000E+00 0. -1.
         21    1    1    2  503  504 -0.67846546380E+02 -0.21928417601E+03 -0.39881350416E+03  0.46015314277E+03  0.00000000000E+00 0.  1.
         21    1    1    2  504  501  0.12953674189E+02  0.64915428841E+02 -0.20432021299E+02  0.69276822033E+02  0.00000000000E+00 0. -1.
         21    1    1    2  505  502  0.12585703414E+03  0.15758064202E+03 -0.77225244542E+03  0.79815129595E+03  0.00000000000E+00 0. -1.
         21    1    1    2  506  505 -0.70964161946E+02 -0.32118948510E+01  0.13421736462E+03  0.15185693766E+03  0.00000000000E+00 0. -1.
<scales pt_clust_3="206.74140" pt_clust_4="66.19525" pt_clust_5="14000.00000" pt_clust_6="76.75263"></scales>
<clustering>
<clus scale="   66.195">  1  4  2 -1</clus>
<clus scale="   76.753">  1  6  2 -1</clus>
<clus scale="  206.741">  1  3  2 -1</clus>
<clus scale="   66.195">  1  3  2 -1</clus>
</clustering>
</event>
<event>
 6    0  0.4469832E+002  0.9667290E+02  0.7546771E-02  0.1287452E+00
         21   -1    0    0  504  501  0.00000000000E+00  0.00000000000E+00  0.17041950314E+04  0.17041950314E+04  0.00000000000E+00 0.  1.
         21   -1    0    0  503  502 -0.00000000000E+00 -0.00000000000E+00 -0.22967389731E+03  0.22967389731E+03  0.00000000000E+00 0. -1.
         21    1    1    2  503  505 -0.13046641357E+02 -0.35754875092E+02  0.27097145790E+02  0.46721314767E+02  0.00000000000E+00 0. -1.
         21    1    1    2  504  506 -0.73771304000E+02 -0.27025957569E+02  0.22244830082E+03  0.23591493004E+03  0.00000000000E+00 0. -1.
         21    1    1    2  505  501  0.10221244207E+03  0.55183753464E+01  0.14321175313E+04  0.14357710330E+04  0.00000000000E+00 0.  1.
         21    1    1    2  506  502 -0.15394496717E+02  0.57262457315E+02 -0.20714184382E+03  0.21546165090E+03  0.00000000000E+00 0. -1.
<scales pt_clust_3="38.06082" pt_clust_4="14000.00000" pt_clust_5="96.67290" pt_clust_6="36.12004"></scales>
<clustering>
<clus scale="   38.061">  2  3  1 -1</clus>
<clus scale="   36.120">  2  6  1 -1</clus>
<clus scale="   96.673">  1  5  2 -1</clus>
<clus scale="   96.673">  1  3  2 -1</clus>
</clustering>
</event>
<event>
 6    0  0.4469832E+002  0.2059787E+03  0.7546771E-02  0.1144791E+00
         21   -1    0    0  503  501  0.00000000000E+00  0.00000000000E+00  0.13190506322E+04  0.13190506322E+04  0.00000000000E+00 0.  1.
         21   -1    0    0  504  502 -0.00000000000E+00 -0.00000000000E+00 -0.28643670297E+03  0.28643670297E+03  0.00000000000E+00 0.  1.
         21    1    1    2  503  506  0.14849356736E+03 -0.12006043321E+03  0.12605468221E+04  0.12749286795E+04  0.00000000000E+00 0.  1.
         21    1    1    2  504  501  0.17519772370E+02  0.24865378917E+02 -0.14687939371E+02  0.33778174249E+02  0.00000000000E+00 0.  1.
         21    1    1    2  505  502 -0.40432864421E+02  0.68832269878E+00 -0.13537302733E+02  0.42644447220E+02  0.00000000000E+00 0.  1.
         21    1    1    2  506  505 -0.12558047530E+03  0.94506731594E+02 -0.19970765077E+03  0.25413603418E+03  0.00000000000E+00 0.  1.
<scales pt_clust_3="190.90441" pt_clust_4="30.41759" pt_clust_5="38.02091" pt_clust_6="38.02091"></scales>
<clustering>
<clus scale="   30.418">  2  4  1 -1</clus>
<clus scale="   38.021">  5  6 -1 -1</clus>
<clus scale="  190.904">  1  3  2 -1</clus>
<clus scale="  190.904">  1  3  2 -1</clus>
</clustering>
</event>
<event>
 6    0  0.4469832E+002  0.7905313E+02  0.7546771E-02  0.1331760E+00
         21   -1    0    0  504  501  0.00000000000E+00  0.00000000000E+00  0.53554163906E+03  0.53554163906E+03  0.00000000000E+00 0.  1.
         21   -1    0    0  503  502 -0.00000000000E+00 -0.00000000000E+00 -0.33983454708E+03  0.33983454708E+03  0.00000000000E+00 0.  1.
         21    1    1    2  503  505 -0.31469534106E+02 -0.72400225716E+02 -0.31403977802E+03  0.32381029391E+03  0.00000000000E+00 0.  1.
         21    1    1    2  504  506 -0.22172559520E+02 -0.40958132997E+02  0.11994558858E+03  0.12867064651E+03  0.00000000000E+00 0.  1.
         21    1    1    2  505  501  0.13928886063E+02  0.35277175833E+02  0.20034888614E+02  0.42893936209E+02  0.00000000000E+00 0.  1.
         21    1    1    2  506  502  0.39713207563E+02  0.78081182880E+02  0.36976639281E+03  0.38000130951E+03  0.00000000000E+00 0.  1.
<scales pt_clust_3="79.05313" pt_clust_4="37.30570" pt_clust_5="37.92747" pt_clust_6="14000.00000"></scales>
<clustering>
<clus scale="   37.927">  1  5  2 -1</clus>
<clus scale="   37.306">  1  4  2 -1</clus>
<clus scale="   79.053">  2  3  1 -1</clus>
<clus scale="   37.927">  1  3  2 -1</clus>
</clustering>
</event>
<event>
 6    0  0.4469832E+002  0.1048508E+03  0.7546771E-02  0.1270414E+00
         21   -1    0    0  506  501  0.00000000000E+00  0.00000000000E+00  0.38611865698E+03  0.38611865698E+03  0.00000000000E+00 0. -1.
         21   -1    0    0  505  502 -0.00000000000E+00 -0.00000000000E+00 -0.86003692651E+02  0.86003692651E+02  0.00000000000E+00 0. -1.
         21    1    1    2  503  502  0.98231422775E+02 -0.66342017850E+02  0.11487277814E+03  0.16506492938E+03  0.00000000000E+00 0.  1.
         21    1    1    2  504  501 -0.23212183340E+02  0.39108838792E+02  0.47390738136E+02  0.65682484638E+02  0.00000000000E+00 0.  1.
         21    1    1    2  505  504 -0.10259555211E+03  0.11598362948E+02  0.34723821034E+01  0.10330743813E+03  0.00000000000E+00 0. -1.
         21    1    1    2  506  503  0.27576312678E+02  0.15634816110E+02  0.13437906595E+03  0.13806749748E+03  0.00000000000E+00 0. -1.
<scales pt_clust_3="14000.00000" pt_clust_4="45.89968" pt_clust_5="104.85077" pt_clust_6="31.70017"></scales>
<clustering>
<clus scale="   31.700">  1  6  2 -1</clus>
<clus scale="   45.900">  1  4  2 -1</clus>
<clus scale="  104.851">  2  5  1 -1</clus>
<clus scale="   31.700">  1  3  2 -1</clus>
</clustering>
</event>
<event>
 6    0  0.4469832E+002  0.1200172E+03  0.7546771E-02  0.1243069E+00
         21   -1    0    0  504  501  0.00000000000E+00  0.00000000000E+00  0.61371870298E+03  0.61371870298E+03  0.00000000000E+00 0. -1.
         21   -1    0    0  505  502 -0.00000000000E+00 -0.00000000000E+00 -0.10866882312E+03  0.10866882312E+03  0.00000000000E+00 0. -1.
         21    1    1    2  503  501 -0.16661970445E+02  0.11119978271E+03  0.46612220276E+03  0.47949235744E+03  0.00000000000E+00 0. -1.
         21    1    1    2  504  502 -0.28887185066E+02 -0.12154027613E+02  0.10239904721E+03  0.10708760301E+03  0.00000000000E+00 0.  1.
         21    1    1    2  505  506  0.35955813333E+02 -0.22874311766E+02 -0.15867255336E+02  0.45473337717E+02  0.00000000000E+00 0.  1.
         21    1    1    2  506  503  0.95933421767E+01 -0.76171443333E+02 -0.47604114777E+02  0.90334227939E+02  0.00000000000E+00 0. -1.
<scales pt_clust_3="108.96711" pt_clust_4="31.33991" pt_clust_5="37.16256" pt_clust_6="37.16256"></scales>
<clustering>
<clus scale="   31.340">  1  4  2 -1</clus>
<clus scale="   37.163">  5  6 -1 -1</clus>
<clus scale="  108.967">  1  3  2 -1</clus>
<clus scale="   31.340">  1  3  2 -1</clus>
</clustering>
</event>
<event>
 6    0  0.4469832E+002  0.1170704E+03  0.7546771E-02  0.1248010E+00
         21   -1    0    0  506  501  0.00000000000E+00  0.00000000000E+00  0.19825501387E+03  0.19825501387E+03  0.00000000000E+00 0.  1.
         21   -1    0    0  503  502 -0.00000000000E+00 -0.00000000000E+00 -0.18084634753E+04  0.18084634753E+04  0.00000000000E+00 0.  1.
         21    1    1    2  503  505 -0.34948875809E+02  0.85144077534E+01 -0.62348508361E+02  0.71980938828E+02  0.00000000000E+00 0.  1.
         21    1    1    2  504  502 -0.87682072313E+02  0.21831667897E+02 -0.15666334746E+04  0.15692371431E+04  0.00000000000E+00 0.  1.
         21    1    1    2  505  501  0.12322451984E+02 -0.43045505411E+02  0.17117774904E+03  0.17693665569E+03  0.00000000000E+00 0.  1.
         21    1    1    2  506  504  0.11030849614E+03  0.12699429761E+02 -0.15240422748E+03  0.18856375153E+03  0.00000000000E+00 0.  1.
<scales pt_clust_3="35.97109" pt_clust_4="14000.00000" pt_clust_5="44.74512" pt_clust_6="117.07039"></scales>
<clustering>
<clus scale="   35.971">  2  3  1 -1</clus>
<clus scale="   44.745">  1  5  2 -1</clus>
<clus scale="  117.070">  1  6  2 -1</clus>
<clus scale="   44.745">  1  3  2 -1</clus>
</clustering>
</event>
<event>
 6    0  0.4469832E+002  0.6711913E+02  0.7546771E-02  0.1370173E+00
         21   -1    0    0  505  501  0.00000000000E+00  0.00000000000E+00  0.62704785324E+03  0.62704785324E+03  0.00000000000E+00 0.  1.
         21   -1    0    0  506  502 -0.00000000000E+00 -0.00000000000E+00 -0.18169758729E+03  0.18169758729E+03  0.00000000000E+00 0. -1.
         21    1    1    2  503  501 -0.40995635522E+02  0.35069903601E+01  0.11163539280E+03  0.11897647683E+03  0.00000000000E+00 0.  1.
         21    1    1    2  504  502 -0.70311976805E+02 -0.46204580057E+02 -0.74253363141E+02  0.11221496887E+03  0.00000000000E+00 0. -1.
         21    1    1    2  505  504  0.48849201913E+02  0.47766527530E+02  0.47841558501E+03  0.48326944624E+03  0.00000000000E+00 0.  1.
         21    1    1    2  506  503  0.62458410413E+02 -0.50689378328E+01 -0.70447348727E+02  0.94284548600E+02  0.00000000000E+00 0. -1.
<scales pt_clust_3="41.14537" pt_clust_4="14000.00000" pt_clust_5="52.09597" pt_clust_6="67.11913"></scales>
<clustering>
<clus scale="   41.145">  1  3  2 -1</clus>
<clus scale="   52.096">  1  5  2 -1</clus>
<clus scale="   67.119">  2  6  1 -1</clus>
<clus scale="   41.145">  1  3  2 -1</clus>
</clustering>
</event>
<event>
 6    0  0.4469832E+002  0.8647085E+02  0.7546771E-02  0.1311630E+00
         21   -1    0    0  506  501  0.00000000000E+00  0.00000000000E+00  0.68085514075E+03  0.68085514075E+03  0.00000000000E+00 0. -1.
         21   -1    0    0  504  502 -0.00000000000E+00 -0.00000000000E+00 -0.11835055130E+03  0.11835055130E+03  0.00000000000E+00 0. -1.
         21    1    1    2  503  505  0.61888078549E+02 -0.95472635160E+02  0.46265818205E+02  0.12282379356E+03  0.00000000000E+00 0. -1.
         21    1    1    2  504  501 -0.17097668568E+02  0.47875905747E+02  0.27296389175E+02  0.57702040550E+02  0.00000000000E+00 0. -1.
         21    1    1    2  505  502 -0.78709430377E+02  0.27109986431E+02 -0.37104925692E+02  0.91142203754E+02  0.00000000000E+00 0. -1.
         21    1    1    2  506  503  0.33919020397E+02  0.20486742982E+02  0.52604730776E+03  0.52753765419E+03  0.00000000000E+00 0. -1.
<scales pt_clust_3="86.47085" pt_clust_4="54.08414" pt_clust_5="14000.00000" pt_clust_6="39.62583"></scales>
<clustering>
<clus scale="   39.626">  1  6  2 -1</clus>
<clus scale="   54.084">  1  4  2 -1</clus>
<clus scale="   86.471">  1  3  2 -1</clus>
<clus scale="   39.626">  1  3  2 -1</clus>
</clustering>
</event>
<event>
 6    0  0.4469832E+002  0.1107920E+03  0.7546771E-02  0.1259110E+00
         21   -1    0    0  504  501  0.00000000000E+00  0.00000000000E+00  0.32799089356E+03  0.32799089356E+03  0.00000000000E+00 0. -1.
         21   -1    0    0  506  502 -0.00000000000E+00 -0.00000000000E+00 -0.19569842029E+03  0.19569842029E+03  0.00000000000E+00 0. -1.
         21    1    1    2  503  501 -0.43885470476E+02  0.11969840222E+02  0.93107733573E+02  0.10362558393E+03  0.00000000000E+00 0. -1.
         21    1    1    2  504  505  0.41968470435E+02 -0.15508005703E+03  0.55045121776E+02  0.16982680009E+03  0.00000000000E+00 0. -1.
         21    1    1    2  505  502  0.22197158033E+02  0.10165466023E+03 -0.10627164213E+03  0.14872809315E+03  0.00000000000E+00 0. -1.
         21    1    1    2  506  503 -0.20280157993E+02  0.41455556577E+02  0.90411260046E+02  0.10150883667E+03  0.00000000000E+00 0. -1.
<scales pt_clust_3="37.53551" pt_clust_4="14000.00000" pt_clust_5="110.79205" pt_clust_6="91.65648"></scales>
<clustering>
<clus scale="   37.536">  3  6 -1 -1</clus>
<clus scale="   91.656">  1  3  2 -1</clus>
<clus scale="  110.792">  2  5  1 -1</clus>
<clus scale="   91.656">  1  3  2 -1</clus>
</clustering>
</event>
<event>
 6    0  0.4469832E+002  0.8203539E+02  0.7546771E-02  0.1323373E+00
         21   -1    0    0  503  501  0.00000000000E+00  0.00000000000E+00  0.22376400086E+03  0.22376400086E+03  0.00000000000E+00 0. -1.
         21   -1    0    0  504  502 -0.00000000000E+00 -0.00000000000E+00 -0.53971323779E+03  0.53971323779E+03  0.00000000000E+00 0. -1.
         21    1    1    2  503  502  0.27668978980E+02 -0.15358867392E+02 -0.23569332330E+03  0.23780834690E+03  0.00000000000E+00 0. -1.
         21    1    1    2  504  506 -0.70165886302E+02  0.79113110170E+02 -0.25363155886E+03  0.27479283734E+03  0.00000000000E+00 0. -1.
         21    1    1    2  505  501 -0.52870735183E+02  0.14462940203E+02  0.32866992285E+02  0.63911896075E+02  0.00000000000E+00 0. -1.
         21    1    1    2  506  505  0.95367642505E+02 -0.78217182982E+02  0.14050865295E+03  0.18696415834E+03  0.00000000000E+00 0. -1.
<scales pt_clust_3="31.64597" pt_clust_4="82.03539" pt_clust_5="53.23960" pt_clust_6="14000.00000"></scales>
<clustering>
<clus scale="   31.646">  2  3  1 -1</clus>
<clus scale="   53.240">  1  5  2 -1</clus>
<clus scale="   82.035">  2  4  1 -1</clus>
<clus scale="   53.240">  1  3  2 -1</clus>
</clustering>
</event>
<event>
 6    0  0.4469832E+002  0.7806253E+02  0.7546771E-02  0.1334641E+00
         21   -1    0    0  503  501  0.00000000000E+00  0.00000000000E+00  0.29472796313E+03  0.29472796313E+03  0.00000000000E+00 0.  1.
         21   -1    0    0  504  502 -0.00000000000E+00 -0.00000000000E+00 -0.18333784056E+03  0.18333784056E+03  0.00000000000E+00 0. -1.
         21    1    1    2  503  505 -0.73080183730E+02 -0.76133265329E+02  0.19292367301E+03  0.21990118452E+03  0.00000000000E+00 0.  1.
         21    1    1    2  504  506  0.73877524008E+01  0.34251374938E+02 -0.48870736085E+01  0.35378228604E+02  0.00000000000E+00 0. -1.
         21    1    1    2  505  502  0.27736640581E+01  0.48409542885E+02 -0.13081094808E+03  0.13950871368E+03  0.00000000000E+00 0. -1.
         21    1    1    2  506  501  0.62918767271E+02 -0.65276524942E+01  0.54164471250E+02  0.83277676888E+02  0.00000000000E+00 0. -1.
<scales pt_clust_3="14000.00000" pt_clust_4="35.03906" pt_clust_5="78.06253" pt_clust_6="63.67247"></scales>
<clustering>
<clus scale="   35.039">  2  4  1 -1</clus>
<clus scale="   63.672">  1  6  2 -1</clus>
<clus scale="   78.063">  2  5  1 -1</clus>
<clus scale="   63.672">  1  3  2 -1</clus>
</clustering>
</event>
<event>
 6    0  0.4469832E+002  0.1158130E+03  0.7546771E-02  0.1250169E+00
         21   -1    0    0  506  501  0.00000000000E+00  0.00000000000E+00  0.23624356233E+03  0.23624356233E+03  0.00000000000E+00 0.  1.
         21   -1    0    0  504  502 -0.00000000000E+00 -0.00000000000E+00 -0.56285036143E+03  0.56285036143E+03  0.00000000000E+00 0. -1.
         21    1    1    2  503  502  0.17299274569E+02  0.25993571865E+02 -0.44139754317E+02  0.54067074917E+02  0.00000000000E+00 0. -1.
         21    1    1    2  504  505 -0.12963550792E+03  0.21352232867E+02 -0.48131061302E+03  0.49892002262E+03  0.00000000000E+00 0. -1.
         21    1    1    2  505  501  0.40900661166E+02 -0.59400209342E+02  0.10890055248E+03  0.13061615246E+03  0.00000000000E+00 0.  1.
         21    1    1    2  506  503  0.71435572185E+02  0.12054404610E+02  0.89943015754E+02  0.11549067377E+03  0.00000000000E+00 0. -1.
<scales pt_clust_3="31.22388" pt_clust_4="115.81301" pt_clust_5="71.87717" pt_clust_6="14000.00000"></scales>
<clustering>
<clus scale="   31.224">  2  3  1 -1</clus>
<clus scale="   71.877">  1  5  2 -1</clus>
<clus scale="  115.813">  2  4  1 -1</clus>
<clus scale="   71.877">  1  3  2 -1</clus>
</clustering>
</event>
<event>
 6    0  0.4469832E+002  0.1088434E+03  0.7546771E-02  0.1262727E+00
         21   -1    0    0  506  501  0.00000000000E+00  0.00000000000E+00  0.20276638451E+03  0.20276638451E+03  0.00000000000E+00 0. -1.
         21   -1    0    0  504  502 -0.00000000000E+00 -0.00000000000E+00 -0.10246723311E+04  0.10246723311E+04  0.00000000000E+00 0.  1.
         21    1    1    2  503  502  0.40075963886E+02 -0.13952426181E+02 -0.12402478192E+03  0.13108355964E+03  0.00000000000E+00 0.  1.
         21    1    1    2  504  501  0.14271230581E+02  0.30091994706E+02 -0.51576768738E+02  0.61395107632E+02  0.00000000000E+00 0.  1.
         21    1    1    2  505  503 -0.19337679526E+02  0.87556563474E+02 -0.82259001310E+03  0.82746264406E+03  0.00000000000E+00 0.  1.
         21    1    1    2  506  505 -0.35009514942E+02 -0.10369613200E+03  0.17628561721E+03  0.20749740423E+03  0.00000000000E+00 0. -1.
<scales pt_clust_3="43.12860" pt_clust_4="33.30460" pt_clust_5="108.84337" pt_clust_6="14000.00000"></scales>
<clustering>
<clus scale="   33.305">  2  4  1 -1</clus>
<clus scale="   43.129">  2  3  1 -1</clus>
<clus scale="  108.843">  2  5  1 -1</clus>
<clus scale="  108.843">  1  3  2 -1</clus>
</clustering>
</event>
<event>
 6    0  0.4469832E+002  0.8174901E+02  0.7546771E-02  0.1324160E+00
         21   -1    0    0  504  501  0.00000000000E+00  0.00000000000E+00  0.12789567318E+04  0.12789567318E+04  0.00000000000E+00 0.  1.
         21   -1    0    0  503  502 -0.00000000000E+00 -0.00000000000E+00 -0.16999479470E+02  0.16999479470E+02  0.00000000000E+00 0.  1.
         21    1    1    2  503  506 -0.63124500384E+02 -0.48966142327E+02  0.14658665317E+03  0.16694320151E+03  0.00000000000E+00 0.  1.
         21    1    1    2  504  502 -0.37634376089E+02 -0.11101529628E+02  0.19180113252E+03  0.19577350347E+03  0.00000000000E+00 0. -1.
         21    1    1    2  505  501  0.10004093286E+02  0.35536387313E+02  0.35935293655E+03  0.36124430752E+03  0.00000000000E+00 0.  1.
         21    1    1    2  506  505  0.90754783187E+02  0.24531284642E+02  0.56421653011E+03  0.57199519880E+03  0.00000000000E+00 0.  1.
<scales pt_clust_3="81.74901" pt_clust_4="35.70653" pt_clust_5="36.91770" pt_clust_6="14000.00000"></scales>
<clustering>
<clus scale="   36.918">  1  5  2 -1</clus>
<clus scale="   35.707">  1  4  2 -1</clus>
<clus scale="   81.749">  2  3  1 -1</clus>
<clus scale="   36.918">  1  3  2 -1</clus>
</clustering>
</event>
<event>
 6    0  0.4469832E+002  0.1288386E+03  0.7546771E-02  0.1229189E+00
         21   -1    0    0  505  501  0.00000000000E+00  0.00000000000E+00  0.30681385455E+02  0.30681385455E+02  0.00000000000E+00 0.  1.
         21   -1    0    0  504  502 -0.00000000000E+00 -0.00000000000E+00 -0.10162877961E+04  0.10162877961E+04  0.00000000000E+00 0.  1.
         21    1    1    2  503  501 -0.22484758067E+02  0.29837731251E+02 -0.53333925289E+02  0.65118063072E+02  0.00000000000E+00 0. -1.
         21    1    1    2  504  503 -0.12313726351E+03 -0.20557281004E+02 -0.47767885540E+03  0.49372307660E+03  0.00000000000E+00 0.  1.
         21    1    1    2  505  506  0.14010463624E+03 -0.40351730777E+02 -0.35975088088E+03  0.38817298665E+03  0.00000000000E+00 0.  1.
         21    1    1    2  506  502  0.55173853375E+01  0.31071280530E+02 -0.94842749052E+02  0.99955055212E+02  0.00000000000E+00 0.  1.
<scales pt_clust_3="38.77512" pt_clust_4="128.83864" pt_clust_5="14000.00000" pt_clust_6="31.55734"></scales>
<clustering>
<clus scale="   31.557">  2  6  1 -1</clus>
<clus scale="   38.775">  1  3  2 -1</clus>
<clus scale="  128.839">  2  4  1 -1</clus>
<clus scale="   38.775">  1  3  2 -1</clus>
</clustering>
</event>
<event>
 6    0  0.4469832E+002  0.9026440E+02  0.7546771E-02  0.1302213E+00
         21   -1    0    0  504  501  0.00000000000E+00  0.00000000000E+00  0.80922025980E+03  0.80922025980E+03  0.00000000000E+00 0. -1.
         21   -1    0    0  501  502 -0.00000000000E+00 -0.00000000000E+00 -0.18270702938E+03  0.18270702938E+03  0.00000000000E+00 0.  1.
         21    1    1    2  503  502 -0.61886234497E+01  0.37989592919E+02 -0.12485221754E+02  0.40464663506E+02  0.00000000000E+00 0.  1.
         21    1    1    2  504  505 -0.58379699669E+02 -0.33998549007E+02  0.67012792971E+03  0.67352470842E+03  0.00000000000E+00 0. -1.
         21    1    1    2  505  506 -0.34607764940E+02  0.63423518077E+02  0.84619949871E+02  0.11126893527E+03  0.00000000000E+00 0.  1.
         21    1    1    2  506  503  0.99176088058E+02 -0.67414561990E+02 -0.11574942741E+03  0.16666898199E+03  0.00000000000E+00 0.  1.
<scales pt_clust_3="38.49037" pt_clust_4="67.40949" pt_clust_5="14000.00000" pt_clust_6="90.26440"></scales>
<clustering>
<clus scale="   38.490">  2  3  1 -1</clus>
<clus scale="   67.409">  1  4  2 -1</clus>
<clus scale="   90.264">  2  6  1 -1</clus>
<clus scale="   67.409">  1  3  2 -1</clus>
</clustering>
</event>
<event>
 6    0  0.4469832E+002  0.8766612E+02  0.7546771E-02  0.1308604E+00
         21   -1    0    0  503  501  0.00000000000E+00  0.00000000000E+00  0.76436366296E+02  0.76436366296E+02  0.00000000000E+00 0. -1.
         21   -1    0    0  505  502 -0.00000000000E+00 -0.00000000000E+00 -0.49890402752E+03  0.49890402752E+03  0.00000000000E+00 0.  1.
         21    1    1    2  503  504 -0.32244858912E+01  0.63459618167E+02 -0.55237757421E+02  0.84194597760E+02  0.00000000000E+00 0.  1.
         21    1    1    2  504  502  0.17765037319E+02  0.34434686761E+02 -0.13207345184E+03  0.13763989568E+03  0.00000000000E+00 0.  1.
         21    1    1    2  505  506 -0.80694149775E+02  0.19896852558E+02 -0.19593190813E+03  0.21283031544E+03  0.00000000000E+00 0.  1.
         21    1    1    2  506  501  0.66153598347E+02 -0.11779115749E+03 -0.39224543839E+02  0.14067558493E+03  0.00000000000E+00 0. -1.
<scales pt_clust_3="70.05419" pt_clust_4="38.74718" pt_clust_5="87.66612" pt_clust_6="14000.00000"></scales>
<clustering>
<clus scale="   38.747">  2  4  1 -1</clus>
<clus scale="   70.054">  1  3  2 -1</clus>
<clus scale="   87.666">  2  5  1 -1</clus>
<clus scale="   70.054">  1  3  2 -1</clus>
</clustering>
</event>
<event>
 6    0  0.4469832E+002  0.2314945E+03  0.7546771E-02  0.1125592E+00
         21   -1    0    0  505  501  0.00000000000E+00  0.00000000000E+00  0.15070885948E+04  0.15070885948E+04  0.00000000000E+00 0.  1.
         21   -1    0    0  506  502 -0.00000000000E+00 -0.00000000000E+00 -0.45454194717E+03  0.45454194717E+03  0.00000000000E+00 0.  1.
         21    1    1    2  503  504 -0.29053556223E+01 -0.88185478425E+02 -0.17711684114E+03  0.19787747500E+03  0.00000000000E+00 0.  1.
         21    1    1    2  504  501  0.46416698151E+02 -0.37132560723E-01  0.12447931860E+04  0.12456582947E+04  0.00000000000E+00 0.  1.
         21    1    1    2  505  502  0.17135391592E+02  0.21631139937E+03  0.17653158651E+03  0.27972780372E+03  0.00000000000E+00 0. -1.
         21    1    1    2  506  503 -0.60646734121E+02 -0.12808878838E+03 -0.19166128367E+03  0.23836696862E+03  0.00000000000E+00 0.  1.
<scales pt_clust_3="46.94509" pt_clust_4="46.41671" pt_clust_5="223.81073" pt_clust_6="46.94509"></scales>
<clustering>
<clus scale="   46.417">  1  4  2 -1</clus>
<clus scale="   46.945">  3  6 -1 -1</clus>
<clus scale="  223.811">  1  5  2 -1</clus>
<clus scale="   46.417">  1  3  2 -1</clus>
</clustering>
</event>
<event>
 6    0  0.4469832E+002  0.1537346E+03  0.7546771E-02  0.1195958E+00
         21   -1    0    0  506  501  0.00000000000E+00  0.00000000000E+00  0.68037954252E+02  0.68037954252E+02  0.00000000000E+00 0.  1.
         21   -1    0    0  503  502 -0.00000000000E+00 -0.00000000000E+00 -0.80993552407E+03  0.80993552407E+03  0.00000000000E+00 0. -1.
         21    1    1    2  503  504  0.10537142431E+03  0.12916261286E+03 -0.40212886778E+03  0.43530879147E+03  0.00000000000E+00 0.  1.
         21    1    1    2  504  501 -0.14305669942E+03 -0.50504575773E+02 -0.29261708463E+03  0.32960687135E+03  0.00000000000E+00 0. -1.
         21    1    1    2  505  502  0.47237775324E+02 -0.38392100447E+02 -0.22552231244E+02  0.64915051632E+02  0.00000000000E+00 0.  1.
         21    1    1    2  506  505 -0.95525002094E+01 -0.40265936642E+02 -0.24599386159E+02  0.48142763873E+02  0.00000000000E+00 0.  1.
<scales pt_clust_3="14000.00000" pt_clust_4="153.73455" pt_clust_5="69.08129" pt_clust_6="41.38352"></scales>
<clustering>
<clus scale="   41.384">  1  6  2 -1</clus>
<clus scale="   69.081">  1  5  2 -1</clus>
<clus scale="  153.735">  1  4  2 -1</clus>
<clus scale="   41.384">  1  3  2 -1</clus>
</clustering>
</event>
<event>
 6    0  0.4469832E+002  0.6977297E+02  0.7546771E-02  0.1360867E+00
         21   -1    0    0  504  501  0.00000000000E+00  0.00000000000E+00  0.13498271142E+04  0.13498271142E+04  0.00000000000E+00 0. -1.
         21   -1    0    0  503  502 -0.00000000000E+00 -0.00000000000E+00 -0.16812624706E+03  0.16812624706E+03  0.00000000000E+00 0.  1.
         21    1    1    2  503  505 -0.70478416312E+02  0.35031307964E+02 -0.14026700390E+03  0.16083914973E+03  0.00000000000E+00 0.  1.
         21    1    1    2  504  506  0.97055789448E+02 -0.48275262225E+02  0.56497780518E+03  0.57528275443E+03  0.00000000000E+00 0. -1.
         21    1    1    2  505  501 -0.48768952333E+02  0.36283599813E+02  0.74529806067E+03  0.74777276599E+03  0.00000000000E+00 0. -1.
         21    1    1    2  506  502  0.22191579197E+02 -0.23039645553E+02  0.11692005201E+02  0.34058691110E+02  0.00000000000E+00 0. -1.
<scales pt_clust_3="50.86126" pt_clust_4="69.77297" pt_clust_5="14000.00000" pt_clust_6="31.98893"></scales>
<clustering>
<clus scale="   31.989">  2  6  1 -1</clus>
<clus scale="   50.861">  2  3  1 -1</clus>
<clus scale="   69.773">  2  4  1 -1</clus>
<clus scale="   69.773">  1  3  2 -1</clus>
</clustering>
</event>
<event>
 6    0  0.4469832E+002  0.1761837E+03  0.7546771E-02  0.1171548E+00
         21   -1    0    0  502  501  0.00000000000E+00  0.00000000000E+00  0.45785849696E+03  0.45785849696E+03  0.00000000000E+00 0. -1.
         21   -1    0    0  503  502 -0.00000000000E+00 -0.00000000000E+00 -0.13655650357E+03  0.13655650357E+03  0.00000000000E+00 0. -1.
         21    1    1    2  503  504  0.42038944792E+01 -0.45321304557E+02 -0.10114451486E+02  0.46626124698E+02  0.00000000000E+00 0.  1.
         21    1    1    2  504  506  0.85081295692E+02 -0.85795442933E+02 -0.77955166872E+01  0.12108036581E+03  0.00000000000E+00 0. -1.
         21    1    1    2  505  501  0.31885714360E+02 -0.31692503241E+02  0.11914540730E+03  0.12734497094E+03  0.00000000000E+00 0. -1.
         21    1    1    2  506  505 -0.12117090453E+03  0.16280925073E+03  0.22006655426E+03  0.29936353909E+03  0.00000000000E+00 0. -1.
<scales pt_clust_3="31.54282" pt_clust_4="31.54282" pt_clust_5="44.95680" pt_clust_6="168.52136"></scales>
<clustering>
<clus scale="   31.543">  3  4 -1 -1</clus>
<clus scale="   44.957">  1  5  2 -1</clus>
<clus scale="  168.521">  1  6  2 -1</clus>
<clus scale="   44.957">  1  3  2 -1</clus>
</clustering>
</event>
<event>
 6    0  0.4469832E+002  0.4411500E+03  0.7546771E-02  0.1030395E+00
         21   -1    0    0  504  501  0.00000000000E+00  0.00000000000E+00  0.22539350168E+03  0.22539350168E+03  0.00000000000E+00 0. -1.
         21   -1    0    0  503  502 -0.00000000000E+00 -0.00000000000E+00 -0.11570126665E+04  0.11570126665E+04  0.00000000000E+00 0. -1.
         21    1    1    2  503  506 -0.53226673000E+01  0.61843686995E+02 -0.80273032742E+02  0.10147281505E+03  0.00000000000E+00 0. -1.
         21    1    1    2  504  502  0.27070329899E+03 -0.32622345507E+03 -0.68616463197E+03  0.80655063132E+03  0.00000000000E+00 0. -1.
         21    1    1    2  505  501  0.12556533808E+02  0.31999281196E+02  0.44162245004E+02  0.55963599081E+02  0.00000000000E+00 0. -1.
         21    1    1    2  506  505 -0.27793716550E+03  0.23238048688E+03 -0.20934374511E+03  0.41841912272E+03  0.00000000000E+00 0. -1.
<scales pt_clust_3="58.26376" pt_clust_4="418.33908" pt_clust_5="34.37471" pt_clust_6="58.26376"></scales>
<clustering>
<clus scale="   34.375">  1  5  2 -1</clus>
<clus scale="   58.264">  3  6 -1 -1</clus>
<clus scale="  418.339">  2  4  1 -1</clus>
<clus scale="   34.375">  1  3  2 -1</clus>
</clustering>
</event>
<event>
 6    0  0.4469832E+002  0.1035524E+03  0.7546771E-02  0.1272998E+00
         21   -1    0    0  505  501  0.00000000000E+00  0.00000000000E+00  0.25745991706E+03  0.25745991706E+03  0.00000000000E+00 0. -1.
         21   -1    0    0  504  502 -0.00000000000E+00 -0.00000000000E+00 -0.10135933797E+04  0.10135933797E+04  0.00000000000E+00 0. -1.
         21    1    1    2  503  501  0.99019220311E+02 -0.26887000103E+00  0.68026037393E+02  0.12013500758E+03  0.00000000000E+00 0.  1.
         21    1    1    2  504  503 -0.41115283978E+02  0.73838837940E+02 -0.51468422274E+03  0.52157692597E+03  0.00000000000E+00 0. -1.
         21    1    1    2  505  506 -0.89795205017E+02 -0.81690040598E+02  0.13620333298E+03  0.18244941625E+03  0.00000000000E+00 0. -1.
         21    1    1    2  506  502  0.31891268684E+02  0.81200726587E+01 -0.44567861022E+03  0.44689194691E+03  0.00000000000E+00 0. -1.
<scales pt_clust_3="14000.00000" pt_clust_4="82.13466" pt_clust_5="103.55240" pt_clust_6="32.90879"></scales>
<clustering>
<clus scale="   32.909">  2  6  1 -1</clus>
<clus scale="   82.135">  2  4  1 -1</clus>
<clus scale="  103.552">  1  5  2 -1</clus>
<clus scale="  103.552">  1  3  2 -1</clus>
</clustering>
</event>
<event>
 6    0  0.4469832E+002  0.1151612E+03  0.7546771E-02  0.1251300E+00
         21   -1    0    0  504  501  0.00000000000E+00  0.00000000000E+00  0.30817512732E+03  0.30817512732E+03  0.00000000000E+00 0.  1.
         21   -1    0    0  506  502 -0.00000000000E+00 -0.00000000000E+00 -0.18014808557E+04  0.18014808557E+04  0.00000000000E+00 0.  1.
         21    1    1    2  503  505  0.29676692613E+02 -0.12340702397E+03  0.15933621979E+03  0.20371065408E+03  0.00000000000E+00 0.  1.
         21    1    1    2  504  503  0.30404795114E+02  0.24862786001E+02  0.11347221728E+03  0.12007728257E+03  0.00000000000E+00 0. -1.
         21    1    1    2  505  502  0.29500901490E+02  0.10871884433E+03 -0.15127881488E+04  0.15169766225E+04  0.00000000000E+00 0.  1.
         21    1    1    2  506  501 -0.89582389216E+02 -0.10174606359E+02 -0.25332601668E+03  0.26889142381E+03  0.00000000000E+00 0.  1.
<scales pt_clust_3="14000.00000" pt_clust_4="39.27607" pt_clust_5="115.16123" pt_clust_6="88.82005"></scales>
<clustering>
<clus scale="   39.276">  1  4  2 -1</clus>
<clus scale="   88.820">  2  6  1 -1</clus>
<clus scale="  115.161">  2  5  1 -1</clus>
<clus scale="   39.276">  1  3  2 -1</clus>
</clustering>
</event>
<event>
 6    0  0.4469832E+002  0.7597037E+02  0.7546771E-02  0.1340892E+00
         21   -1    0    0  506  501  0.00000000000E+00  0.00000000000E+00  0.10176778412E+04  0.10176778412E+04  0.00000000000E+00 0. -1.
         21   -1    0    0  504  502 -0.00000000000E+00 -0.00000000000E+00 -0.14734015396E+03  0.14734015396E+03  0.00000000000E+00 0.  1.
         21    1    1    2  503  501  0.64133882656E+02 -0.88218954173E+02  0.65813942577E+03  0.66711561407E+03  0.00000000000E+00 0.  1.
         21    1    1    2  504  503 -0.48150252567E+02  0.72937384408E+02 -0.89817440702E+02  0.12532151260E+03  0.00000000000E+00 0.  1.
         21    1    1    2  505  502 -0.15463663150E+02 -0.33844567416E+02 -0.23084825352E+02  0.43789140013E+02  0.00000000000E+00 0.  1.
         21    1    1    2  506  505 -0.51996693968E+00  0.49126137181E+02  0.32510052748E+03  0.32879172844E+03  0.00000000000E+00 0. -1.
<scales pt_clust_3="14000.00000" pt_clust_4="75.97037" pt_clust_5="37.20994" pt_clust_6="48.58386"></scales>
<clustering>
<clus scale="   37.210">  2  5  1 -1</clus>
<clus scale="   48.584">  1  6  2 -1</clus>
<clus scale="   75.970">  2  4  1 -1</clus>
<clus scale="   48.584">  1  3  2 -1</clus>
</clustering>
</event>
<event>
 6    0  0.4469832E+002  0.9289681E+02  0.7546771E-02  0.1295984E+00
         21   -1    0    0  505  501  0.00000000000E+00  0.00000000000E+00  0.20508918935E+02  0.20508918935E+02  0.00000000000E+00 0. -1.
         21   -1    0    0  504  502 -0.00000000000E+00 -0.00000000000E+00 -0.11538709407E+04  0.11538709407E+04  0.00000000000E+00 0. -1.
         21    1    1    2  503  501  0.48720420508E+02  0.10714649489E+02 -0.53247150049E+03  0.53480312445E+03  0.00000000000E+00 0. -1.
         21    1    1    2  504  503  0.28493597130E+02  0.18465774537E+02 -0.16028696059E+03  0.16384376595E+03  0.00000000000E+00 0. -1.
         21    1    1    2  505  506 -0.19140847122E+02  0.64612300074E+02 -0.13625508317E+03  0.15200845056E+03  0.00000000000E+00 0. -1.
         21    1    1    2  506  502 -0.58073170516E+02 -0.93792724100E+02 -0.30434847748E+03  0.32372451865E+03  0.00000000000E+00 0. -1.
<scales pt_clust_3="30.64448" pt_clust_4="30.64448" pt_clust_5="67.38784" pt_clust_6="85.14768"></scales>
<clustering>
<clus scale="   30.644">  3  4 -1 -1</clus>
<clus scale="   67.388">  1  5  2 -1</clus>
<clus scale="   85.148">  1  6  2 -1</clus>
<clus scale="   67.388">  1  3  2 -1</clus>
</clustering>
</event>
<event>
 6    0  0.4469832E+002  0.1237253E+03  0.7546771E-02  0.1237075E+00
         21   -1    0    0  502  501  0.00000000000E+00  0.00000000000E+00  0.49023815846E+03  0.49023815846E+03  0.00000000000E+00 0.  1.
         21   -1    0    0  503  502 -0.00000000000E+00 -0.00000000000E+00 -0.98562262589E+03  0.98562262589E+03  0.00000000000E+00 0.  1.
         21    1    1    2  503  505  0.81502047627E+02  0.18791502932E+01 -0.78334384122E+03  0.78757456063E+03  0.00000000000E+00 0.  1.
         21    1    1    2  504  506 -0.77793549358E+02  0.37787878814E+02  0.20528427939E+03  0.22275860359E+03  0.00000000000E+00 0.  1.
         21    1    1    2  505  504  0.29945013807E+02  0.22374818692E+02 -0.18498176415E+03  0.18872093003E+03  0.00000000000E+00 0. -1.
         21    1    1    2  506  501 -0.33653512077E+02 -0.62041847799E+02  0.26765685855E+03  0.27680669010E+03  0.00000000000E+00 0.  1.
<scales pt_clust_3="33.78759" pt_clust_4="113.21767" pt_clust_5="33.78759" pt_clust_6="70.58151"></scales>
<clustering>
<clus scale="   33.788">  3  5 -1 -1</clus>
<clus scale="   70.582">  1  6  2 -1</clus>
<clus scale="  113.218">  1  4  2 -1</clus>
<clus scale="   70.582">  1  3  2 -1</clus>
</clustering>
</event>
<event>
 6    0  0.4469832E+002  0.7365879E+02  0.7546771E-02  0.1348075E+00
         21   -1    0    0  505  501  0.00000000000E+00  0.00000000000E+00  0.64299263384E+02  0.64299263384E+02  0.00000000000E+00 0. -1.
         21   -1    0    0  504  502 -0.00000000000E+00 -0.00000000000E+00 -0.10774464070E+04  0.10774464070E+04  0.00000000000E+00 0. -1.
         21    1    1    2  503  502 -0.42160432266E+02 -0.69934700174E+02 -0.82631853191E+03  0.83034371228E+03  0.00000000000E+00 0. -1.
         21    1    1    2  504  501  0.74729521255E+02 -0.10766948977E+01 -0.17757722752E+03  0.19266378060E+03  0.00000000000E+00 0. -1.
         21    1    1    2  505  506  0.30727043349E+02  0.18958473343E+02 -0.68706299346E+01  0.36752965325E+02  0.00000000000E+00 0. -1.
         21    1    1    2  506  503 -0.63296132338E+02  0.52052921729E+02 -0.23807542664E+01  0.81985212206E+02  0.00000000000E+00 0. -1.
<scales pt_clust_3="14000.00000" pt_clust_4="73.65879" pt_clust_5="36.10505" pt_clust_6="77.57860"></scales>
<clustering>
<clus scale="   36.105">  1  5  2 -1</clus>
<clus scale="   77.579">  1  6  2 -1</clus>
<clus scale="   73.659">  1  4  2 -1</clus>
<clus scale="   36.105">  1  3  2 -1</clus>
</clustering>
</event>
<event>
 6    0  0.4469832E+002  0.2404561E+03  0.7546771E-02  0.1119489E+00
         21   -1    0    0  505  501  0.00000000000E+00  0.00000000000E+00  0.36832373876E+03  0.36832373876E+03  0.00000000000E+00 0. -1.
         21   -1    0    0  504  502 -0.00000000000E+00 -0.00000000000E+00 -0.52256125181E+03  0.52256125181E+03  0.00000000000E+00 0. -1.
         21    1    1    2  503  506 -0.49640625424E+02 -0.82255707398E+01 -0.56942709336E+02  0.75988971917E+02  0.00000000000E+00 0.  1.
         21    1    1    2  504  503 -0.17870929589E+03  0.41342564320E+02 -0.37485190957E+03  0.41732502222E+03  0.00000000000E+00 0. -1.
         21    1    1    2  505  502  0.24550795579E+03 -0.60006864329E+02  0.24512028916E+03  0.35207802585E+03  0.00000000000E+00 0. -1.
         21    1    1    2  506  501 -0.17158034476E+02  0.26889870748E+02  0.32436816692E+02  0.45492970589E+02  0.00000000000E+00 0. -1.
<scales pt_clust_3="31.73643" pt_clust_4="31.73643" pt_clust_5="232.69607" pt_clust_6="31.89770"></scales>
<clustering>
<clus scale="   31.736">  3  4 -1 -1</clus>
<clus scale="   31.898">  1  6  2 -1</clus>
<clus scale="  232.696">  1  5  2 -1</clus>
<clus scale="   31.898">  1  3  2 -1</clus>
</clustering>
</event>
<event>
 6    0  0.4469832E+002  0.7553446E+02  0.7546771E-02  0.1342224E+00
         21   -1    0    0  504  501  0.00000000000E+00  0.00000000000E+00  0.10079343136E+04  0.10079343136E+04  0.00000000000E+00 0.  1.
         21   -1    0    0  503  502 -0.00000000000E+00 -0.00000000000E+00 -0.26199516017E+03  0.26199516017E+03  0.00000000000E+00 0. -1.
         21    1    1    2  503  505  0.22434530633E+02  0.20516495939E+02 -0.10076797207E+03  0.10525406864E+03  0.00000000000E+00 0. -1.
         21    1    1    2  504  502  0.59558865254E+02 -0.43142110675E+01  0.90103694230E+03  0.90301353381E+03  0.00000000000E+00 0.  1.
         21    1    1    2  505  506  0.51765276205E+02 -0.93245741491E+01 -0.10581891766E+03  0.11817036362E+03  0.00000000000E+00 0. -1.
         21    1    1    2  506  501 -0.13375867209E+03 -0.68777107220E+01  0.51489100815E+02  0.14349150765E+03  0.00000000000E+00 0. -1.
<scales pt_clust_3="30.40123" pt_clust_4="59.84495" pt_clust_5="14000.00000" pt_clust_6="75.53446"></scales>
<clustering>
<clus scale="   30.401">  2  3  1 -1</clus>
<clus scale="   59.845">  1  4  2 -1</clus>
<clus scale="   75.534">  1  6  2 -1</clus>
<clus scale="   59.845">  1  3  2 -1</clus>
</clustering>
</event>
<event>
 6    0  0.4469832E+002  0.2723495E+03  0.7546771E-02  0.1099942E+00
         21   -1    0    0  503  501  0.00000000000E+00  0.00000000000E+00  0.26318246041E+03  0.26318246041E+03  0.00000000000E+00 0.  1.
         21   -1    0    0  505  502 -0.00000000000E+00 -0.00000000000E+00 -0.53172480875E+03  0.53172480875E+03  0.00000000000E+00 0. -1.
         21    1    1    2  503  502  0.43113985027E+02 -0.46548847804E+02 -0.66310112008E+02  0.91774952418E+02  0.00000000000E+00 0.  1.
         21    1    1    2  504  506 -0.18636393307E+03 -0.92210360899E+02 -0.25396261688E+03  0.32822443081E+03  0.00000000000E+00 0. -1.
         21    1    1    2  505  504 -0.77476220577E+02  0.16976643437E+02 -0.59713650778E+02  0.99279863349E+02  0.00000000000E+00 0.  1.
         21    1    1    2  506  501  0.22072616862E+03  0.12178256527E+03  0.11144403133E+03  0.27562802258E+03  0.00000000000E+00 0.  1.
<scales pt_clust_3="63.44770" pt_clust_4="58.90191" pt_clust_5="58.90191" pt_clust_6="255.10565"></scales>
<clustering>
<clus scale="   58.902">  4  5 -1 -1</clus>
<clus scale="   63.448">  2  3  1 -1</clus>
<clus scale="  255.106">  1  6  2 -1</clus>
<clus scale="  255.106">  1  3  2 -1</clus>
</clustering>
</event>
<event>
 6    0  0.4469832E+002  0.9066121E+02  0.7546771E-02  0.1301258E+00
         21   -1    0    0  506  501  0.00000000000E+00  0.00000000000E+00  0.83181847833E+02  0.83181847833E+02  0.00000000000E+00 0. -1.
         21   -1    0    0  504  502 -0.00000000000E+00 -0.00000000000E+00 -0.20932180125E+04  0.20932180125E+04  0.00000000000E+00 0. -1.
         21    1    1    2  503  501 -0.97118192916E+01  0.48455169890E+02  0.39573236391E+02  0.63310851846E+02  0.00000000000E+00 0. -1.
         21    1    1    2  504  505 -0.60171321269E+02 -0.70342996868E+02 -0.10277444005E+04  0.10319046845E+04  0.00000000000E+00 0. -1.
         21    1    1    2  505  503  0.94181067972E+02 -0.11234293323E+02 -0.47725583618E+02  0.10617916106E+03  0.00000000000E+00 0. -1.
         21    1    1    2  506  502 -0.24297927411E+02  0.33122120301E+02 -0.97413941686E+03  0.97500516286E+03  0.00000000000E+00 0. -1.
<scales pt_clust_3="49.81443" pt_clust_4="14000.00000" pt_clust_5="90.66121" pt_clust_6="41.07876"></scales>
<clustering>
<clus scale="   41.079">  2  6  1 -1</clus>
<clus scale="   49.814">  1  3  2 -1</clus>
<clus scale="   90.661">  1  5  2 -1</clus>
<clus scale="   49.814">  1  3  2 -1</clus>
</clustering>
</event>
<event>
 6    0  0.4469832E+002  0.1345926E+03  0.7546771E-02  0.1220796E+00
         21   -1    0    0  505  501  0.00000000000E+00  0.00000000000E+00  0.89119908893E+02  0.89119908893E+02  0.00000000000E+00 0.  1.
         21   -1    0    0  506  502 -0.00000000000E+00 -0.00000000000E+00 -0.62236806256E+03  0.62236806256E+03  0.00000000000E+00 0.  1.
         21    1    1    2  503  501 -0.24761568879E+02 -0.17415075292E+02  0.12627537378E+02  0.32800531108E+02  0.00000000000E+00 0.  1.
         21    1    1    2  504  502 -0.92088912758E+01 -0.30827827006E+02 -0.24145604145E+03  0.24359018566E+03  0.00000000000E+00 0.  1.
         21    1    1    2  505  504  0.26882283335E+01 -0.90653933350E+02 -0.27519287377E+03  0.28975244602E+03  0.00000000000E+00 0.  1.
         21    1    1    2  506  503  0.31282231821E+02  0.13889683565E+03 -0.29226775828E+02  0.14534480866E+03  0.00000000000E+00 0.  1.
<scales pt_clust_3="30.27243" pt_clust_4="30.97572" pt_clust_5="30.97572" pt_clust_6="124.04535"></scales>
<clustering>
<clus scale="   30.272">  1  3  2 -1</clus>
<clus scale="   30.976">  4  5 -1 -1</clus>
<clus scale="  124.045">  1  6  2 -1</clus>
<clus scale="   30.272">  1  3  2 -1</clus>
</clustering>
</event>
<event>
 6    0  0.4469832E+002  0.1047863E+03  0.7546771E-02  0.1270541E+00
         21   -1    0    0  505  501  0.00000000000E+00  0.00000000000E+00  0.56504683021E+02  0.56504683021E+02  0.00000000000E+00 0.  1.
         21   -1    0    0  504  502 -0.00000000000E+00 -0.00000000000E+00 -0.22295103245E+04  0.22295103245E+04  0.00000000000E+00 0.  1.
         21    1    1    2  503  502  0.13372176955E+03 -0.65707597025E+02 -0.15381484964E+04  0.15453477915E+04  0.00000000000E+00 0.  1.
         21    1    1    2  504  506 -0.49668938538E+02  0.94999170010E+01 -0.57552428695E+03  0.57774168687E+03  0.00000000000E+00 0.  1.
         21    1    1    2  505  503 -0.10591302093E+03  0.33621395193E+02 -0.68055017944E+02  0.13030522508E+03  0.00000000000E+00 0.  1.
         21    1    1    2  506  501  0.21860189913E+02  0.22586284831E+02  0.87221597524E+01  0.32620304049E+02  0.00000000000E+00 0.  1.
<scales pt_clust_3="14000.00000" pt_clust_4="50.04285" pt_clust_5="104.78629" pt_clust_6="31.43260"></scales>
<clustering>
<clus scale="   31.433">  1  6  2 -1</clus>
<clus scale="   50.043">  2  4  1 -1</clus>
<clus scale="  104.786">  1  5  2 -1</clus>
<clus scale="   31.433">  1  3  2 -1</clus>
</clustering>
</event>
<event>
 6    0  0.4469832E+002  0.1583359E+03  0.7546771E-02  0.1190588E+00
         21   -1    0    0  503  501  0.00000000000E+00  0.00000000000E+00  0.22110433357E+03  0.22110433357E+03  0.00000000000E+00 0.  1.
         21   -1    0    0  505  502 -0.00000000000E+00 -0.00000000000E+00 -0.17973714057E+04  0.17973714057E+04  0.00000000000E+00 0.  1.
         21    1    1    2  503  504 -0.61314610308E+02 -0.14756305005E+03  0.17437404713E+03  0.23651774456E+03  0.00000000000E+00 0.  1.
         21    1    1    2  504  506  0.31281677809E+02  0.13893143116E+03 -0.36785156780E+03  0.39445565259E+03  0.00000000000E+00 0.  1.
         21    1    1    2  505  501 -0.85086155974E+01  0.48457408508E+02 -0.37840898623E+03  0.38159386505E+03  0.00000000000E+00 0.  1.
         21    1    1    2  506  502  0.38541548096E+02 -0.39825789613E+02 -0.10043805653E+04  0.10059084771E+04  0.00000000000E+00 0.  1.
<scales pt_clust_3="158.33593" pt_clust_4="14000.00000" pt_clust_5="49.19875" pt_clust_6="32.96318"></scales>
<clustering>
<clus scale="   49.199">  2  5  1 -1</clus>
<clus scale="   32.963">  2  6  1 -1</clus>
<clus scale="  158.336">  1  3  2 -1</clus>
<clus scale="  158.336">  1  3  2 -1</clus>
</clustering>
</event>
<event>
 6    0  0.4469832E+002  0.1329579E+03  0.7546771E-02  0.1223132E+00
         21   -1    0    0  502  501  0.00000000000E+00  0.00000000000E+00  0.53106365038E+03  0.53106365038E+03  0.00000000000E+00 0.  1.
         21   -1    0    0  504  502 -0.00000000000E+00 -0.00000000000E+00 -0.12453064517E+04  0.12453064517E+04  0.00000000000E+00 0. -1.
         21    1    1    2  503  505  0.35073900524E+02  0.11519364267E+03  0.14101175158E+03  0.18542941485E+03  0.00000000000E+00 0.  1.
         21    1    1    2  504  506  0.84550460685E+01 -0.42483020087E+02 -0.24690146570E+03  0.25067235301E+03  0.00000000000E+00 0. -1.
         21    1    1    2  505  501  0.34614221693E+02 -0.24852769351E+00  0.36221589626E+03  0.36386613144E+03  0.00000000000E+00 0.  1.
         21    1    1    2  506  503 -0.78143168285E+02 -0.72462094886E+02 -0.97056898346E+03  0.97640220278E+03  0.00000000000E+00 0. -1.
<scales pt_clust_3="132.95789" pt_clust_4="43.39644" pt_clust_5="34.61511" pt_clust_6="14000.00000"></scales>
<clustering>
<clus scale="   34.615">  1  5  2 -1</clus>
<clus scale="   43.396">  2  4  1 -1</clus>
<clus scale="  132.958">  1  3  2 -1</clus>
<clus scale="   34.615">  1  3  2 -1</clus>
</clustering>
</event>
<event>
 6    0  0.4469832E+002  0.7153444E+02  0.7546771E-02  0.1354952E+00
         21   -1    0    0  505  501  0.00000000000E+00  0.00000000000E+00  0.27194432097E+03  0.27194432097E+03  0.00000000000E+00 0. -1.
         21   -1    0    0  506  502 -0.00000000000E+00 -0.00000000000E+00 -0.53585192427E+03  0.53585192427E+03  0.00000000000E+00 0.  1.
         21    1    1    2  503  501  0.38371629032E+02 -0.54153782838E+02 -0.20674486726E+03  0.21713694814E+03  0.00000000000E+00 0.  1.
         21    1    1    2  504  502  0.56455847246E+02  0.75228987763E+02 -0.20554314092E+03  0.22604124859E+03  0.00000000000E+00 0.  1.
         21    1    1    2  505  504 -0.68940662338E+02  0.20749987732E+02  0.24545329461E+03  0.25579424690E+03  0.00000000000E+00 0. -1.
         21    1    1    2  506  503 -0.25886813940E+02 -0.41825192657E+02 -0.97072889723E+02  0.10882380161E+03  0.00000000000E+00 0.  1.
<scales pt_clust_3="71.53444" pt_clust_4="69.67039" pt_clust_5="14000.00000" pt_clust_6="49.18815"></scales>
<clustering>
<clus scale="   49.188">  2  6  1 -1</clus>
<clus scale="   69.670">  2  4  1 -1</clus>
<clus scale="   71.534">  2  3  1 -1</clus>
<clus scale="   71.534">  1  3  2 -1</clus>
</clustering>
</event>
<event>
 6    0  0.4469832E+002  0.1155812E+03  0.7546771E-02  0.1250570E+00
         21   -1    0    0  503  501  0.00000000000E+00  0.00000000000E+00  0.11301449662E+04  0.11301449662E+04  0.00000000000E+00 0.  1.
         21   -1    0    0  505  502 -0.00000000000E+00 -0.00000000000E+00 -0.24848536811E+02  0.24848536811E+02  0.00000000000E+00 0.  1.
         21    1    1    2  503  504  0.97074810148E+02 -0.25161737664E+02  0.42365049456E+03  0.43535775329E+03  0.00000000000E+00 0.  1.
         21    1    1    2  504  506  0.30371985081E+02 -0.12893476866E+02  0.51285758357E+02  0.60983015944E+02  0.00000000000E+00 0.  1.
         21    1    1    2  505  501 -0.82143098444E+02  0.39891724323E+02  0.59275144820E+03  0.59974421017E+03  0.00000000000E+00 0.  1.
         21    1    1    2  506  502 -0.45303696785E+02 -0.18365097926E+01  0.37608728259E+02  0.58908523593E+02  0.00000000000E+00 0.  1.
<scales pt_clust_3="31.93101" pt_clust_4="31.93101" pt_clust_5="101.29255" pt_clust_6="45.34091"></scales>
<clustering>
<clus scale="   31.931">  3  4 -1 -1</clus>
<clus scale="   45.341">  2  6  1 -1</clus>
<clus scale="  101.293">  1  5  2 -1</clus>
<clus scale="  101.293">  1  3  2 -1</clus>
</clustering>
</event>
<event>
 6    0  0.4469832E+002  0.1012755E+03  0.7546771E-02  0.1277636E+00
         21   -1    0    0  506  501  0.00000000000E+00  0.00000000000E+00  0.39246227329E+03  0.39246227329E+03  0.00000000000E+00 0. -1.
         21   -1    0    0  505  502 -0.00000000000E+00 -0.00000000000E+00 -0.11639561359E+03  0.11639561359E+03  0.00000000000E+00 0. -1.
         21    1    1    2  503  504  0.43526323070E+02  0.83728530110E+01 -0.18973401104E+02  0.48214473107E+02  0.00000000000E+00 0. -1.
         21    1    1    2  504  501  0.33134207292E+02  0.17985593249E+02  0.13686272673E+03  0.14196042838E+03  0.00000000000E+00 0. -1.
         21    1    1    2  505  503  0.36716155879E+02  0.35040177103E+02 -0.51646671072E+02  0.72410418772E+02  0.00000000000E+00 0. -1.
         21    1    1    2  506  502 -0.11337668624E+03 -0.61398623362E+02  0.20982400515E+03  0.24627256662E+03  0.00000000000E+00 0. -1.
<scales pt_clust_3="32.90289" pt_clust_4="37.70089" pt_clust_5="32.90289" pt_clust_6="94.95847"></scales>
<clustering>
<clus scale="   32.903">  3  5 -1 -1</clus>
<clus scale="   37.701">  1  4  2 -1</clus>
<clus scale="   94.958">  1  6  2 -1</clus>
<clus scale="   37.701">  1  3  2 -1</clus>
</clustering>
</event>
<event>
 6    0  0.7603897E+002  0.1619403E+03  0.7546771E-02  0.1186523E+00
         21   -1    0    0  503  501  0.00000000000E+00  0.00000000000E+00  0.11357940621E+04  0.11357940621E+04  0.00000000000E+00 0. -1.
         21   -1    0    0  505  502 -0.00000000000E+00 -0.00000000000E+00 -0.12809234932E+04  0.12809234932E+04  0.00000000000E+00 0. -1.
         21    1    1    2  503  506  0.60288959550E+02 -0.14971125882E+02 -0.79356530943E+01  0.62624818114E+02  0.00000000000E+00 0. -1.
         21    1    1    2  504  502 -0.13113207961E+03  0.85555337102E+02 -0.11889725683E+04  0.11992377188E+04  0.00000000000E+00 0. -1.
         21    1    1    2  505  501  0.36049591703E+02 -0.13066102252E+02  0.10809111084E+04  0.10815910134E+04  0.00000000000E+00 0. -1.
         21    1    1    2  506  504  0.34793528358E+02 -0.57518108968E+02 -0.29132318130E+02  0.73264005040E+02  0.00000000000E+00 0. -1.
<scales pt_clust_3="52.43205" pt_clust_4="153.06302" pt_clust_5="38.34444" pt_clust_6="52.43205"></scales>
<clustering>
<clus scale="   38.344">  1  5  2 -1</clus>
<clus scale="   52.432">  3  6 -1 -1</clus>
<clus scale="  153.063">  2  4  1 -1</clus>
<clus scale="   38.344">  1  3  2 -1</clus>
</clustering>
</event>
<event>
 6    0  0.4469832E+002  0.8992229E+02  0.7546771E-02  0.1303040E+00
         21   -1    0    0  503  501  0.00000000000E+00  0.00000000000E+00  0.50530600799E+02  0.50530600799E+02  0.00000000000E+00 0. -1.
         21   -1    0    0  505  502 -0.00000000000E+00 -0.00000000000E+00 -0.93037873929E+03  0.93037873929E+03  0.00000000000E+00 0.  1.
         21    1    1    2  503  504  0.30278551318E+02 -0.48016535346E+02 -0.16266677145E+02  0.59050682654E+02  0.00000000000E+00 0. -1.
         21    1    1    2  504  502  0.84116554085E+01 -0.58002946743E+02 -0.60955503929E+03  0.61236626597E+03  0.00000000000E+00 0.  1.
         21    1    1    2  505  506 -0.42142994745E+02  0.13755338612E+03 -0.19307219876E+03  0.24077757366E+03  0.00000000000E+00 0. -1.
         21    1    1    2  506  501  0.34527880186E+01 -0.31533904036E+02 -0.60954223296E+02  0.68714817808E+02  0.00000000000E+00 0. -1.
<scales pt_clust_3="14000.00000" pt_clust_4="59.56495" pt_clust_5="89.92229" pt_clust_6="31.72237"></scales>
<clustering>
<clus scale="   31.722">  1  6  2 -1</clus>
<clus scale="   59.565">  2  4  1 -1</clus>
<clus scale="   89.922">  2  5  1 -1</clus>
<clus scale="   31.722">  1  3  2 -1</clus>
</clustering>
</event>
<event>
 6    0  0.7247969E+002  0.1197309E+03  0.7546771E-02  0.1243542E+00
         21   -1    0    0  505  501  0.00000000000E+00  0.00000000000E+00  0.12732827603E+04  0.12732827603E+04  0.00000000000E+00 0. -1.
         21   -1    0    0  506  502 -0.00000000000E+00 -0.00000000000E+00 -0.33372233958E+03  0.33372233958E+03  0.00000000000E+00 0.  1.
         21    1    1    2  503  504  0.18767240253E+02  0.36545694592E+02  0.61345707730E+00  0.41087387718E+02  0.00000000000E+00 0.  1.
         21    1    1    2  504  502  0.46198984225E+02  0.15306975474E+02 -0.18126723406E+02  0.51934841321E+02  0.00000000000E+00 0.  1.
         21    1    1    2  505  503  0.61700863645E+02 -0.28699721119E+02  0.12196426745E+04  0.12215395712E+04  0.00000000000E+00 0. -1.
         21    1    1    2  506  501 -0.12666708812E+03 -0.23152948947E+02 -0.26256898752E+03  0.29244329957E+03  0.00000000000E+00 0.  1.
<scales pt_clust_3="34.82972" pt_clust_4="34.82972" pt_clust_5="68.04903" pt_clust_6="113.57105"></scales>
<clustering>
<clus scale="   34.830">  3  4 -1 -1</clus>
<clus scale="   68.049">  1  5  2 -1</clus>
<clus scale="  113.571">  2  6  1 -1</clus>
<clus scale="   68.049">  1  3  2 -1</clus>
</clustering>
</event>
<event>
 6    0  0.4469832E+002  0.1509476E+03  0.7546771E-02  0.1199313E+00
         21   -1    0    0  505  501  0.00000000000E+00  0.00000000000E+00  0.38728976761E+03  0.38728976761E+03  0.00000000000E+00 0. -1.
         21   -1    0    0  504  502 -0.00000000000E+00 -0.00000000000E+00 -0.76333210846E+03  0.76333210846E+03  0.00000000000E+00 0.  1.
         21    1    1    2  503  506 -0.68467879274E+02 -0.32519221051E+02  0.15062292546E+03  0.16861973759E+03  0.00000000000E+00 0.  1.
         21    1    1    2  504  501  0.95308854320E+02  0.42424994648E+02 -0.67296186577E+03  0.68100024278E+03  0.00000000000E+00 0.  1.
         21    1    1    2  505  503 -0.56455249569E+02 -0.48160178293E+02  0.20901291657E+03  0.22179494420E+03  0.00000000000E+00 0. -1.
         21    1    1    2  506  502  0.29614274523E+02  0.38254404696E+02 -0.62716317121E+02  0.79206951509E+02  0.00000000000E+00 0. -1.
<scales pt_clust_3="30.82771" pt_clust_4="147.69716" pt_clust_5="30.82771" pt_clust_6="48.37773"></scales>
<clustering>
<clus scale="   30.828">  3  5 -1 -1</clus>
<clus scale="   48.378">  2  6  1 -1</clus>
<clus scale="  147.697">  2  4  1 -1</clus>
<clus scale="  150.948">  1  3  2 -1</clus>
</clustering>
</event>
<event>
 6    0  0.4469832E+002  0.1184809E+03  0.7546771E-02  0.1245624E+00
         21   -1    0    0  504  501  0.00000000000E+00  0.00000000000E+00  0.43483333158E+03  0.43483333158E+03  0.00000000000E+00 0.  1.
         21   -1    0    0  506  502 -0.00000000000E+00 -0.00000000000E+00 -0.14805100481E+03  0.14805100481E+03  0.00000000000E+00 0.  1.
         21    1    1    2  503  501 -0.35553842876E+02  0.58942801030E+02  0.24324091088E+03  0.25279333508E+03  0.00000000000E+00 0.  1.
         21    1    1    2  504  502 -0.32653590526E+02 -0.31030271331E+02  0.21741476214E+02  0.50018261675E+02  0.00000000000E+00 0.  1.
         21    1    1    2  505  503  0.15374199397E+03 -0.18250116255E+02  0.81842211678E+02  0.17512228603E+03  0.00000000000E+00 0.  1.
         21    1    1    2  506  505 -0.85534560566E+02 -0.96624134443E+01 -0.60042272002E+02  0.10495045361E+03  0.00000000000E+00 0.  1.
<scales pt_clust_3="68.50735" pt_clust_4="45.04592" pt_clust_5="118.48090" pt_clust_6="14000.00000"></scales>
<clustering>
<clus scale="   45.046">  2  4  1 -1</clus>
<clus scale="   68.507">  1  3  2 -1</clus>
<clus scale="  118.481">  1  5  2 -1</clus>
<clus scale="   68.507">  1  3  2 -1</clus>
</clustering>
</event>
<event>
 6    0  0.4469832E+002  0.3178816E+03  0.7546771E-02  0.1076628E+00
         21   -1    0    0  505  501  0.00000000000E+00  0.00000000000E+00  0.19760480952E+04  0.19760480952E+04  0.00000000000E+00 0. -1.
         21   -1    0    0  503  502 -0.00000000000E+00 -0.00000000000E+00 -0.32825515948E+03  0.32825515948E+03  0.00000000000E+00 0.  1.
         21    1    1    2  503  506  0.23185376917E+03 -0.16322956694E+03 -0.61751511179E+02  0.29019529792E+03  0.00000000000E+00 0.  1.
         21    1    1    2  504  502 -0.23435768382E+03  0.41218802680E+03  0.28048802898E+03  0.55090473569E+03  0.00000000000E+00 0.  1.
         21    1    1    2  505  504 -0.34551342668E+02  0.17664650165E+02  0.10225592490E+03  0.10937142828E+03  0.00000000000E+00 0. -1.
         21    1    1    2  506  501  0.37055257325E+02 -0.26662311002E+03  0.13268004930E+04  0.13538317927E+04  0.00000000000E+00 0. -1.
<scales pt_clust_3="317.88159" pt_clust_4="14000.00000" pt_clust_5="38.80509" pt_clust_6="254.26100"></scales>
<clustering>
<clus scale="   38.805">  1  5  2 -1</clus>
<clus scale="  254.261">  1  6  2 -1</clus>
<clus scale="  317.882">  2  3  1 -1</clus>
<clus scale="   38.805">  1  3  2 -1</clus>
</clustering>
</event>
<event>
 6    0  0.4469832E+002  0.1021059E+03  0.7546771E-02  0.1275929E+00
         21   -1    0    0  506  501  0.00000000000E+00  0.00000000000E+00  0.28073094095E+03  0.28073094095E+03  0.00000000000E+00 0.  1.
         21   -1    0    0  504  502 -0.00000000000E+00 -0.00000000000E+00 -0.58656398523E+03  0.58656398523E+03  0.00000000000E+00 0.  1.
         21    1    1    2  503  505  0.36500672238E+02  0.14148324904E+03 -0.21647245164E+03  0.26117069352E+03  0.00000000000E+00 0.  1.
         21    1    1    2  504  503 -0.20427261075E+02 -0.56451146516E+02 -0.29706543945E+03  0.30307075123E+03  0.00000000000E+00 0.  1.
         21    1    1    2  505  501  0.17286206908E+02 -0.48734321190E+02  0.23908608077E+03  0.24461398372E+03  0.00000000000E+00 0.  1.
         21    1    1    2  506  502 -0.33359618071E+02 -0.36297781333E+02 -0.31381233958E+02  0.58439497707E+02  0.00000000000E+00 0.  1.
<scales pt_clust_3="102.10591" pt_clust_4="14000.00000" pt_clust_5="51.82739" pt_clust_6="49.29902"></scales>
<clustering>
<clus scale="   49.299">  2  6  1 -1</clus>
<clus scale="   51.827">  1  5  2 -1</clus>
<clus scale="  102.106">  1  3  2 -1</clus>
<clus scale="   51.827">  1  3  2 -1</clus>
</clustering>
</event>
<event>
 6    0  0.4469832E+002  0.1598760E+03  0.7546771E-02  0.1188837E+00
         21   -1    0    0  504  501  0.00000000000E+00  0.00000000000E+00  0.12634341417E+04  0.12634341417E+04  0.00000000000E+00 0. -1.
         21   -1    0    0  503  502 -0.00000000000E+00 -0.00000000000E+00 -0.37590214617E+02  0.37590214617E+02  0.00000000000E+00 0. -1.
         21    1    1    2  503  505  0.13238645760E+03  0.81686603715E+02  0.31266024302E+03  0.34922099443E+03  0.00000000000E+00 0. -1.
         21    1    1    2  504  506 -0.10479591996E+03 -0.10863406034E+02  0.34751237331E+03  0.36313227347E+03  0.00000000000E+00 0. -1.
         21    1    1    2  505  501  0.28313473964E+02 -0.82427563623E+02  0.46355327211E+03  0.47167530372E+03  0.00000000000E+00 0. -1.
         21    1    1    2  506  502 -0.55904011607E+02  0.11604365942E+02  0.10211803866E+03  0.11699578473E+03  0.00000000000E+00 0. -1.
<scales pt_clust_3="151.75607" pt_clust_4="37.03105" pt_clust_5="87.15478" pt_clust_6="37.03105"></scales>
<clustering>
<clus scale="   37.031">  4  6 -1 -1</clus>
<clus scale="   87.155">  1  5  2 -1</clus>
<clus scale="  151.756">  2  3  1 -1</clus>
<clus scale="   87.155">  1  3  2 -1</clus>
</clustering>
</event>
<event>
 6    0  0.4469832E+002  0.1651623E+03  0.7546771E-02  0.1182989E+00
         21   -1    0    0  504  501  0.00000000000E+00  0.00000000000E+00  0.53076553940E+03  0.53076553940E+03  0.00000000000E+00 0.  1.
         21   -1    0    0  503  502 -0.00000000000E+00 -0.00000000000E+00 -0.23871447647E+03  0.23871447647E+03  0.00000000000E+00 0.  1.
         21    1    1    2  503  506 -0.55517664137E+02 -0.21728108564E+02 -0.86368215038E+02  0.10494660691E+03  0.00000000000E+00 0.  1.
         21    1    1    2  504  502  0.17700302268E+03 -0.14482584272E+02  0.36462714864E+03  0.40557708615E+03  0.00000000000E+00 0.  1.
         21    1    1    2  505  501 -0.19575257132E+02  0.25982621963E+02  0.11225976673E+03  0.11687832375E+03  0.00000000000E+00 0.  1.
         21    1    1    2  506  505 -0.10191010141E+03  0.10228070873E+02 -0.98467637397E+02  0.14207799906E+03  0.00000000000E+00 0.  1.
<scales pt_clust_3="33.48032" pt_clust_4="159.17752" pt_clust_5="32.53133" pt_clust_6="33.48032"></scales>
<clustering>
<clus scale="   32.531">  1  5  2 -1</clus>
<clus scale="   33.480">  3  6 -1 -1</clus>
<clus scale="  159.178">  1  4  2 -1</clus>
<clus scale="   32.531">  1  3  2 -1</clus>
</clustering>
</event>
<event>
 6    0  0.4469832E+002  0.2875945E+03  0.7546771E-02  0.1091612E+00
         21   -1    0    0  505  501  0.00000000000E+00  0.00000000000E+00  0.26297668794E+03  0.26297668794E+03  0.00000000000E+00 0.  1.
         21   -1    0    0  506  502 -0.00000000000E+00 -0.00000000000E+00 -0.54029865875E+03  0.54029865875E+03  0.00000000000E+00 0.  1.
         21    1    1    2  503  501  0.38053368676E+01  0.66592727915E+02  0.81153045571E+02  0.10504707899E+03  0.00000000000E+00 0.  1.
         21    1    1    2  504  502 -0.10108590182E+03  0.11866686097E+03 -0.23075152341E+03  0.27847163051E+03  0.00000000000E+00 0.  1.
         21    1    1    2  505  504 -0.57321746212E+02  0.76560594242E+02 -0.35536519922E+02  0.10203014960E+03  0.00000000000E+00 0.  1.
         21    1    1    2  506  503  0.15460231117E+03 -0.26182018313E+03 -0.92186973052E+02  0.31772648758E+03  0.00000000000E+00 0.  1.
<scales pt_clust_3="66.70136" pt_clust_4="83.32134" pt_clust_5="83.32134" pt_clust_6="268.41213"></scales>
<clustering>
<clus scale="   66.701">  1  3  2 -1</clus>
<clus scale="   83.321">  4  5 -1 -1</clus>
<clus scale="  268.412">  1  6  2 -1</clus>
<clus scale="   66.701">  1  3  2 -1</clus>
</clustering>
</event>
<event>
 6    0  0.4469832E+002  0.1016701E+03  0.7546771E-02  0.1276823E+00
         21   -1    0    0  504  501  0.00000000000E+00  0.00000000000E+00  0.25347713916E+03  0.25347713916E+03  0.00000000000E+00 0.  1.
         21   -1    0    0  501  502 -0.00000000000E+00 -0.00000000000E+00 -0.21180603693E+04  0.21180603693E+04  0.00000000000E+00 0.  1.
         21    1    1    2  503  505 -0.18644346636E+02  0.50773703850E+02  0.52830967084E+02  0.75608807339E+02  0.00000000000E+00 0.  1.
         21    1    1    2  504  503 -0.37550039901E+02  0.31210301904E+01  0.18026553989E+03  0.18416137271E+03  0.00000000000E+00 0.  1.
         21    1    1    2  505  506  0.13471426981E+03 -0.79991838970E+02 -0.11780404908E+04  0.11884132391E+04  0.00000000000E+00 0.  1.
         21    1    1    2  506  502 -0.78519883278E+02  0.26097104930E+02 -0.91963924625E+03  0.92335408928E+03  0.00000000000E+00 0.  1.
<scales pt_clust_3="75.00627" pt_clust_4="37.67952" pt_clust_5="14000.00000" pt_clust_6="101.67013"></scales>
<clustering>
<clus scale="   37.680">  1  4  2 -1</clus>
<clus scale="   75.006">  1  3  2 -1</clus>
<clus scale="  101.670">  2  6  1 -1</clus>
<clus scale="   37.680">  1  3  2 -1</clus>
</clustering>
</event>
<event>
 6    0  0.4469832E+002  0.1041944E+03  0.7546771E-02  0.1271715E+00
         21   -1    0    0  503  501  0.00000000000E+00  0.00000000000E+00  0.21621240094E+03  0.21621240094E+03  0.00000000000E+00 0.  1.
         21   -1    0    0  506  502 -0.00000000000E+00 -0.00000000000E+00 -0.20888930972E+03  0.20888930972E+03  0.00000000000E+00 0.  1.
         21    1    1    2  503  504  0.11543680267E+03 -0.91542238899E+02  0.39917575669E+02  0.15264026258E+03  0.00000000000E+00 0.  1.
         21    1    1    2  504  505 -0.84518598464E+02 -0.32811219311E+01 -0.19503242223E+02  0.86801703351E+02  0.00000000000E+00 0.  1.
         21    1    1    2  505  502 -0.65011543750E+01  0.57800885885E+02 -0.83911203969E+02  0.10209944941E+03  0.00000000000E+00 0.  1.
         21    1    1    2  506  501 -0.24417049832E+02  0.37022474945E+02  0.70819961742E+02  0.83560295324E+02  0.00000000000E+00 0.  1.
<scales pt_clust_3="14000.00000" pt_clust_4="104.19443" pt_clust_5="60.76478" pt_clust_6="44.34925"></scales>
<clustering>
<clus scale="   44.349">  1  6  2 -1</clus>
<clus scale="   60.765">  2  5  1 -1</clus>
<clus scale="  104.194">  2  4  1 -1</clus>
<clus scale="   44.349">  1  3  2 -1</clus>
</clustering>
</event>
<event>
 6    0  0.4469832E+002  0.1130368E+03  0.7546771E-02  0.1255047E+00
         21   -1    0    0  506  501  0.00000000000E+00  0.00000000000E+00  0.39763439687E+03  0.39763439687E+03  0.00000000000E+00 0.  1.
         21   -1    0    0  505  502 -0.00000000000E+00 -0.00000000000E+00 -0.22815896364E+03  0.22815896364E+03  0.00000000000E+00 0.  1.
         21    1    1    2  503  501  0.21900274428E+02  0.42288798809E+02  0.29228315650E+02  0.55877177456E+02  0.00000000000E+00 0.  1.
         21    1    1    2  504  502  0.79326259329E+02  0.27557056232E+02 -0.10515812767E+03  0.13457443510E+03  0.00000000000E+00 0.  1.
         21    1    1    2  505  503 -0.13678194790E+03 -0.12498128765E+03  0.41538895075E+01  0.18532910816E+03  0.00000000000E+00 0.  1.
         21    1    1    2  506  504  0.35555414144E+02  0.55135432610E+02  0.24125135575E+03  0.25001263979E+03  0.00000000000E+00 0.  1.
<scales pt_clust_3="47.62315" pt_clust_4="85.41898" pt_clust_5="14000.00000" pt_clust_6="113.03676"></scales>
<clustering>
<clus scale="   47.623">  1  3  2 -1</clus>
<clus scale="   85.419">  2  4  1 -1</clus>
<clus scale="  113.037">  1  6  2 -1</clus>
<clus scale="   47.623">  1  3  2 -1</clus>
</clustering>
</event>
<event>
 6    0  0.4469832E+002  0.8547399E+02  0.7546771E-02  0.1314198E+00
         21   -1    0    0  503  501  0.00000000000E+00  0.00000000000E+00  0.10105710092E+04  0.10105710092E+04  0.00000000000E+00 0.  1.
         21   -1    0    0  506  502 -0.00000000000E+00 -0.00000000000E+00 -0.70664855489E+02  0.70664855489E+02  0.00000000000E+00 0. -1.
         21    1    1    2  503  504  0.14265904947E+03 -0.49101287197E+01  0.54499201418E+03  0.56337554906E+03  0.00000000000E+00 0.  1.
         21    1    1    2  504  502 -0.33725495953E+02  0.72445336200E+01  0.70633782799E+01  0.35210561730E+02  0.00000000000E+00 0. -1.
         21    1    1    2  505  501 -0.68382982233E+02 -0.21855615946E+01  0.42329702299E+03  0.42879059995E+03  0.00000000000E+00 0.  1.
         21    1    1    2  506  505 -0.40550571281E+02 -0.14884330572E+00 -0.35446261776E+02  0.53859153906E+02  0.00000000000E+00 0. -1.
<scales pt_clust_3="14000.00000" pt_clust_4="34.49482" pt_clust_5="85.47399" pt_clust_6="67.39166"></scales>
<clustering>
<clus scale="   34.495">  2  4  1 -1</clus>
<clus scale="   67.392">  2  6  1 -1</clus>
<clus scale="   85.474">  1  5  2 -1</clus>
<clus scale="   85.474">  1  3  2 -1</clus>
</clustering>
</event>
<event>
 6    0  0.4469832E+002  0.8909453E+02  0.7546771E-02  0.1305059E+00
         21   -1    0    0  505  501  0.00000000000E+00  0.00000000000E+00  0.68491888031E+03  0.68491888031E+03  0.00000000000E+00 0. -1.
         21   -1    0    0  504  502 -0.00000000000E+00 -0.00000000000E+00 -0.16610178891E+04  0.16610178891E+04  0.00000000000E+00 0. -1.
         21    1    1    2  503  502  0.47523785743E+02 -0.52219736957E+02 -0.71918653580E+03  0.72264423088E+03  0.00000000000E+00 0. -1.
         21    1    1    2  504  506 -0.56569245056E+02 -0.17231071255E+02 -0.91192111941E+03  0.91383648282E+03  0.00000000000E+00 0. -1.
         21    1    1    2  505  503  0.79648025467E+02  0.75419290620E+01  0.44062072601E+02  0.91335397829E+02  0.00000000000E+00 0.  1.
         21    1    1    2  506  501 -0.70602566154E+02  0.61908879150E+02  0.61094657382E+03  0.61812065790E+03  0.00000000000E+00 0. -1.
<scales pt_clust_3="69.17754" pt_clust_4="59.13535" pt_clust_5="14000.00000" pt_clust_6="89.09453"></scales>
<clustering>
<clus scale="   59.135">  2  4  1 -1</clus>
<clus scale="   69.178">  2  3  1 -1</clus>
<clus scale="   89.095">  1  6  2 -1</clus>
<clus scale="   89.095">  1  3  2 -1</clus>
</clustering>
</event>
<event>
 6    0  0.4469832E+002  0.1356960E+03  0.7546771E-02  0.1219241E+00
         21   -1    0    0  503  501  0.00000000000E+00  0.00000000000E+00  0.37355457342E+03  0.37355457342E+03  0.00000000000E+00 0.  1.
         21   -1    0    0  504  502 -0.00000000000E+00 -0.00000000000E+00 -0.16402257313E+03  0.16402257313E+03  0.00000000000E+00 0.  1.
         21    1    1    2  503  505 -0.15543533999E+03  0.50304298008E+02  0.27035557222E+03  0.31588416033E+03  0.00000000000E+00 0.  1.
         21    1    1    2  504  506  0.90519550090E+01 -0.32751293547E+02 -0.11554484345E+02  0.35889987837E+02  0.00000000000E+00 0.  1.
         21    1    1    2  505  502  0.11512313785E+03 -0.22186538471E+02 -0.79831429690E+02  0.14184017952E+03  0.00000000000E+00 0.  1.
         21    1    1    2  506  501  0.31260247123E+02  0.46335340095E+01  0.30562342111E+02  0.43962818869E+02  0.00000000000E+00 0. -1.
<scales pt_clust_3="135.69600" pt_clust_4="34.13777" pt_clust_5="14000.00000" pt_clust_6="31.60178"></scales>
<clustering>
<clus scale="   31.602">  1  6  2 -1</clus>
<clus scale="   34.138">  2  4  1 -1</clus>
<clus scale="  135.696">  1  3  2 -1</clus>
<clus scale="   31.602">  1  3  2 -1</clus>
</clustering>
</event>
<event>
 6    0  0.4469832E+002  0.1543958E+03  0.7546771E-02  0.1195173E+00
         21   -1    0    0  505  501  0.00000000000E+00  0.00000000000E+00  0.10227038046E+04  0.10227038046E+04  0.00000000000E+00 0. -1.
         21   -1    0    0  503  502 -0.00000000000E+00 -0.00000000000E+00 -0.12537628229E+03  0.12537628229E+03  0.00000000000E+00 0. -1.
         21    1    1    2  503  506  0.26271612004E+02  0.17895102424E+02 -0.37550859353E+02  0.49198570368E+02  0.00000000000E+00 0.  1.
         21    1    1    2  504  502 -0.34491139695E+02  0.63905801339E+00  0.48320530526E+02  0.59371043303E+02  0.00000000000E+00 0.  1.
         21    1    1    2  505  504 -0.14889610781E+03 -0.39724355601E+02  0.86604729811E+03  0.87965106600E+03  0.00000000000E+00 0. -1.
         21    1    1    2  506  501  0.15711563550E+03  0.21190195163E+02  0.20510553018E+02  0.15985940722E+03  0.00000000000E+00 0. -1.
<scales pt_clust_3="31.78730" pt_clust_4="32.77293" pt_clust_5="14000.00000" pt_clust_6="154.39580"></scales>
<clustering>
<clus scale="   31.787">  2  3  1 -1</clus>
<clus scale="   32.773">  2  4  1 -1</clus>
<clus scale="  154.396">  2  6  1 -1</clus>
<clus scale="  154.396">  1  3  2 -1</clus>
</clustering>
</event>
<event>
 6    0  0.4469832E+002  0.9457167E+02  0.7546771E-02  0.1292144E+00
         21   -1    0    0  503  501  0.00000000000E+00  0.00000000000E+00  0.16761843570E+03  0.16761843570E+03  0.00000000000E+00 0.  1.
         21   -1    0    0  505  502 -0.00000000000E+00 -0.00000000000E+00 -0.25821419151E+04  0.25821419151E+04  0.00000000000E+00 0. -1.
         21    1    1    2  503  502 -0.11304307094E+02  0.34989654451E+02 -0.79741916054E+03  0.79826648488E+03  0.00000000000E+00 0. -1.
         21    1    1    2  504  501 -0.25450500820E+02 -0.92985093432E+02  0.14905611634E+03  0.17751529909E+03  0.00000000000E+00 0.  1.
         21    1    1    2  505  506  0.63807108774E+02 -0.19258888902E+01 -0.14314292119E+04  0.14328519271E+04  0.00000000000E+00 0. -1.
         21    1    1    2  506  504 -0.27052300860E+02  0.59921327871E+02 -0.33473122330E+03  0.34112663978E+03  0.00000000000E+00 0.  1.
<scales pt_clust_3="36.77041" pt_clust_4="94.57167" pt_clust_5="60.66333" pt_clust_6="14000.00000"></scales>
<clustering>
<clus scale="   36.770">  2  3  1 -1</clus>
<clus scale="   60.663">  2  5  1 -1</clus>
<clus scale="   94.572">  1  4  2 -1</clus>
<clus scale="   94.572">  1  3  2 -1</clus>
</clustering>
</event>
<event>
 6    0  0.4469832E+002  0.1189392E+03  0.7546771E-02  0.1244857E+00
         21   -1    0    0  503  501  0.00000000000E+00  0.00000000000E+00  0.11641020413E+04  0.11641020413E+04  0.00000000000E+00 0.  1.
         21   -1    0    0  505  502 -0.00000000000E+00 -0.00000000000E+00 -0.41459248437E+03  0.41459248437E+03  0.00000000000E+00 0.  1.
         21    1    1    2  503  506 -0.27239130321E+02  0.25316119826E+02  0.94175480524E+03  0.94248872107E+03  0.00000000000E+00 0.  1.
         21    1    1    2  504  502  0.92110096882E+02 -0.30898082392E+01 -0.37524693658E+03  0.38639886164E+03  0.00000000000E+00 0.  1.
         21    1    1    2  505  501  0.29883175808E+02 -0.83699228827E+01 -0.11430651612E+02  0.33071431806E+02  0.00000000000E+00 0. -1.
         21    1    1    2  506  504 -0.94754142369E+02 -0.13856388704E+02  0.19443233993E+03  0.21673551119E+03  0.00000000000E+00 0.  1.
<scales pt_clust_3="37.16124" pt_clust_4="118.93916" pt_clust_5="31.03320" pt_clust_6="14000.00000"></scales>
<clustering>
<clus scale="   31.033">  2  5  1 -1</clus>
<clus scale="   37.161">  1  3  2 -1</clus>
<clus scale="  118.939">  2  4  1 -1</clus>
<clus scale="   37.161">  1  3  2 -1</clus>
</clustering>
</event>
<event>
 6    0  0.4469832E+002  0.1561067E+03  0.7546771E-02  0.1193164E+00
         21   -1    0    0  506  501  0.00000000000E+00  0.00000000000E+00  0.36689960594E+03  0.36689960594E+03  0.00000000000E+00 0.  1.
         21   -1    0    0  503  502 -0.00000000000E+00 -0.00000000000E+00 -0.15955482491E+03  0.15955482491E+03  0.00000000000E+00 0.  1.
         21    1    1    2  503  505  0.32034462251E+02 -0.33172220315E+02 -0.19657608913E+01  0.46156984176E+02  0.00000000000E+00 0.  1.
         21    1    1    2  504  501 -0.51382242191E+02  0.52154945238E+02  0.63252198766E+02  0.96752848920E+02  0.00000000000E+00 0.  1.
         21    1    1    2  505  504  0.14603102278E+03  0.33349003632E+02 -0.37542287286E+02  0.15442357006E+03  0.00000000000E+00 0.  1.
         21    1    1    2  506  502 -0.12668324284E+03 -0.52331728555E+02  0.18360063044E+03  0.22912102769E+03  0.00000000000E+00 0.  1.
<scales pt_clust_3="46.11511" pt_clust_4="67.51323" pt_clust_5="14000.00000" pt_clust_6="156.10672"></scales>
<clustering>
<clus scale="   46.115">  2  3  1 -1</clus>
<clus scale="   67.513">  1  4  2 -1</clus>
<clus scale="  156.107">  1  6  2 -1</clus>
<clus scale="   67.513">  1  3  2 -1</clus>
</clustering>
</event>
<event>
 6    0  0.4469832E+002  0.8317098E+02  0.7546771E-02  0.1320286E+00
         21   -1    0    0  505  501  0.00000000000E+00  0.00000000000E+00  0.18004301394E+04  0.18004301394E+04  0.00000000000E+00 0. -1.
         21   -1    0    0  503  502 -0.00000000000E+00 -0.00000000000E+00 -0.40317479623E+03  0.40317479623E+03  0.00000000000E+00 0. -1.
         21    1    1    2  503  506  0.64310084210E+02  0.77388386907E+02 -0.19694896757E+03  0.22116429455E+03  0.00000000000E+00 0. -1.
         21    1    1    2  504  501 -0.25576407442E+02 -0.61880934617E+02  0.17555506753E+04  0.17568271333E+04  0.00000000000E+00 0. -1.
         21    1    1    2  505  502  0.38748319884E+02 -0.44360731520E+02 -0.11886565516E+03  0.13265877571E+03  0.00000000000E+00 0. -1.
         21    1    1    2  506  504 -0.77481996653E+02  0.28853279230E+02 -0.42480709470E+02  0.92954732019E+02  0.00000000000E+00 0. -1.
<scales pt_clust_3="83.17098" pt_clust_4="67.01859" pt_clust_5="58.90082" pt_clust_6="14000.00000"></scales>
<clustering>
<clus scale="   58.901">  2  5  1 -1</clus>
<clus scale="   67.019">  1  4  2 -1</clus>
<clus scale="   83.171">  2  3  1 -1</clus>
<clus scale="   67.019">  1  3  2 -1</clus>
</clustering>
</event>
<event>
 6    0  0.4469832E+002  0.1320764E+03  0.7546771E-02  0.1224407E+00
         21   -1    0    0  505  501  0.00000000000E+00  0.00000000000E+00  0.46057950215E+02  0.46057950215E+02  0.00000000000E+00 0. -1.
         21   -1    0    0  504  502 -0.00000000000E+00 -0.00000000000E+00 -0.53887581041E+03  0.53887581041E+03  0.00000000000E+00 0. -1.
         21    1    1    2  503  501 -0.13153757653E+02 -0.29336151999E+02 -0.78950918253E+01  0.33105341403E+02  0.00000000000E+00 0. -1.
         21    1    1    2  504  503  0.54414901324E+02 -0.97198377786E+02 -0.13799780080E+03  0.17734683294E+03  0.00000000000E+00 0. -1.
         21    1    1    2  505  506 -0.46031460630E+02  0.69217980663E+02 -0.21792324438E+03  0.23323928626E+03  0.00000000000E+00 0. -1.
         21    1    1    2  506  502  0.47703169591E+01  0.57316549122E+02 -0.12900172320E+03  0.14124230003E+03  0.00000000000E+00 0. -1.
<scales pt_clust_3="32.15013" pt_clust_4="123.60469" pt_clust_5="37.65414" pt_clust_6="37.65414"></scales>
<clustering>
<clus scale="   32.150">  1  3  2 -1</clus>
<clus scale="   37.654">  5  6 -1 -1</clus>
<clus scale="  123.605">  1  4  2 -1</clus>
<clus scale="   32.150">  1  3  2 -1</clus>
</clustering>
</event>
<event>
 6    0  0.4469832E+002  0.6616096E+02  0.7546771E-02  0.1373657E+00
         21   -1    0    0  505  501  0.00000000000E+00  0.00000000000E+00  0.19806969460E+03  0.19806969460E+03  0.00000000000E+00 0. -1.
         21   -1    0    0  504  502 -0.00000000000E+00 -0.00000000000E+00 -0.61707591149E+03  0.61707591149E+03  0.00000000000E+00 0. -1.
         21    1    1    2  503  501  0.38294625116E+02  0.22952582721E+02  0.87212968538E+02  0.97976534168E+02  0.00000000000E+00 0. -1.
         21    1    1    2  504  503 -0.28047620973E+02  0.91927580267E+02 -0.55440268421E+03  0.56267191623E+03  0.00000000000E+00 0. -1.
         21    1    1    2  505  506 -0.65403958971E+01 -0.79338971114E+02  0.75346794639E+02  0.10961107872E+03  0.00000000000E+00 0. -1.
         21    1    1    2  506  502 -0.37066082464E+01 -0.35541191874E+02 -0.27163295864E+02  0.44886076981E+02  0.00000000000E+00 0. -1.
<scales pt_clust_3="44.44849" pt_clust_4="66.16096" pt_clust_5="14000.00000" pt_clust_6="35.73395"></scales>
<clustering>
<clus scale="   35.734">  2  6  1 -1</clus>
<clus scale="   44.448">  1  3  2 -1</clus>
<clus scale="   66.161">  2  4  1 -1</clus>
<clus scale="   44.448">  1  3  2 -1</clus>
</clustering>
</event>
<event>
 6    0  0.4469832E+002  0.8303942E+02  0.7546771E-02  0.1320641E+00
         21   -1    0    0  504  501  0.00000000000E+00  0.00000000000E+00  0.35276142411E+02  0.35276142411E+02  0.00000000000E+00 0.  1.
         21   -1    0    0  505  502 -0.00000000000E+00 -0.00000000000E+00 -0.85416032916E+03  0.85416032916E+03  0.00000000000E+00 0.  1.
         21    1    1    2  503  502  0.37172950658E+02 -0.11992340763E+02 -0.13302300819E+03  0.13863897434E+03  0.00000000000E+00 0.  1.
         21    1    1    2  504  503 -0.10974820329E+03  0.65700523358E+01 -0.52956979373E+03  0.54086227465E+03  0.00000000000E+00 0.  1.
         21    1    1    2  505  506  0.75351983784E-01 -0.31366431581E+02 -0.11411335293E+03  0.11834574781E+03  0.00000000000E+00 0.  1.
         21    1    1    2  506  501  0.72499900647E+02  0.36788720009E+02 -0.42178031904E+02  0.91589474772E+02  0.00000000000E+00 0.  1.
<scales pt_clust_3="41.21273" pt_clust_4="14000.00000" pt_clust_5="31.36652" pt_clust_6="83.03942"></scales>
<clustering>
<clus scale="   31.367">  2  5  1 -1</clus>
<clus scale="   41.213">  2  3  1 -1</clus>
<clus scale="   83.039">  1  6  2 -1</clus>
<clus scale="   83.039">  1  3  2 -1</clus>
</clustering>
</event>
<event>
 6    0  0.4469832E+002  0.1056463E+03  0.7546771E-02  0.1268851E+00
         21   -1    0    0  505  501  0.00000000000E+00  0.00000000000E+00  0.39322797386E+02  0.39322797386E+02  0.00000000000E+00 0.  1.
         21   -1    0    0  503  502 -0.00000000000E+00 -0.00000000000E+00 -0.53364263178E+03  0.53364263178E+03  0.00000000000E+00 0.  1.
         21    1    1    2  503  504  0.55503342340E+02  0.28106596251E+02 -0.18136465029E+03  0.19173872363E+03  0.00000000000E+00 0.  1.
         21    1    1    2  504  506  0.29212737690E+02 -0.32244348719E+02 -0.95457640018E+02  0.10490587736E+03  0.00000000000E+00 0.  1.
         21    1    1    2  505  502 -0.11922936236E+03  0.32477727900E+02 -0.17807838586E+03  0.21675413530E+03  0.00000000000E+00 0.  1.
         21    1    1    2  506  501  0.34513282331E+02 -0.28339975432E+02 -0.39419158226E+02  0.59566692874E+02  0.00000000000E+00 0.  1.
<scales pt_clust_3="62.21416" pt_clust_4="33.15126" pt_clust_5="100.16550" pt_clust_6="33.15126"></scales>
<clustering>
<clus scale="   33.151">  4  6 -1 -1</clus>
<clus scale="   62.214">  2  3  1 -1</clus>
<clus scale="  100.165">  2  5  1 -1</clus>
<clus scale="  105.646">  1  3  2 -1</clus>
</clustering>
</event>
<event>
 6    0  0.4469832E+002  0.1103714E+03  0.7546771E-02  0.1259884E+00
         21   -1    0    0  505  501  0.00000000000E+00  0.00000000000E+00  0.94474106126E+03  0.94474106126E+03  0.00000000000E+00 0. -1.
         21   -1    0    0  504  502 -0.00000000000E+00 -0.00000000000E+00 -0.17241895151E+03  0.17241895151E+03  0.00000000000E+00 0.  1.
         21    1    1    2  503  506  0.50896255667E+02 -0.47887061503E+02 -0.14786508070E+02  0.71429967949E+02  0.00000000000E+00 0.  1.
         21    1    1    2  504  501 -0.81392118460E+02 -0.15890526075E+02  0.22957878358E+03  0.24409752894E+03  0.00000000000E+00 0. -1.
         21    1    1    2  505  503 -0.11168034427E+02  0.10298853806E+03  0.66866127689E+03  0.67663820996E+03  0.00000000000E+00 0. -1.
         21    1    1    2  506  502  0.41663897220E+02 -0.39210950480E+02 -0.11113144264E+03  0.12499430592E+03  0.00000000000E+00 0.  1.
<scales pt_clust_3="14000.00000" pt_clust_4="78.71606" pt_clust_5="110.37137" pt_clust_6="57.21345"></scales>
<clustering>
<clus scale="   57.213">  2  6  1 -1</clus>
<clus scale="   78.716">  1  4  2 -1</clus>
<clus scale="  110.371">  1  5  2 -1</clus>
<clus scale="   78.716">  1  3  2 -1</clus>
</clustering>
</event>
<event>
 6    0  0.4469832E+002  0.1633563E+03  0.7546771E-02  0.1184959E+00
         21   -1    0    0  503  501  0.00000000000E+00  0.00000000000E+00  0.54911244525E+03  0.54911244525E+03  0.00000000000E+00 0.  1.
         21   -1    0    0  505  502 -0.00000000000E+00 -0.00000000000E+00 -0.19113866848E+03  0.19113866848E+03  0.00000000000E+00 0.  1.
         21    1    1    2  503  506  0.65311832249E+00  0.36480982071E+02  0.47950529205E+02  0.60253978022E+02  0.00000000000E+00 0. -1.
         21    1    1    2  504  501 -0.83690599121E+02 -0.34829465689E+02  0.45177987963E+02  0.10128306205E+03  0.00000000000E+00 0.  1.
         21    1    1    2  505  504  0.27601274286E+02  0.16218265992E+03 -0.87405084631E+02  0.18629195994E+03  0.00000000000E+00 0.  1.
         21    1    1    2  506  502  0.55436206512E+02 -0.16383417630E+03  0.35225034424E+03  0.39242211372E+03  0.00000000000E+00 0.  1.
<scales pt_clust_3="36.48683" pt_clust_4="88.62409" pt_clust_5="163.35631" pt_clust_6="14000.00000"></scales>
<clustering>
<clus scale="   36.487">  1  3  2 -1</clus>
<clus scale="   88.624">  1  4  2 -1</clus>
<clus scale="  163.356">  2  5  1 -1</clus>
<clus scale="   36.487">  1  3  2 -1</clus>
</clustering>
</event>
<event>
 6    0  0.4469832E+002  0.1480566E+03  0.7546771E-02  0.1202882E+00
         21   -1    0    0  505  501  0.00000000000E+00  0.00000000000E+00  0.13198478192E+04  0.13198478192E+04  0.00000000000E+00 0. -1.
         21   -1    0    0  506  502 -0.00000000000E+00 -0.00000000000E+00 -0.40698140606E+02  0.40698140606E+02  0.00000000000E+00 0.  1.
         21    1    1    2  503  502 -0.37421545260E+02 -0.14846113553E+03  0.98084927156E+03  0.99272673699E+03  0.00000000000E+00 0. -1.
         21    1    1    2  504  501  0.11895039225E+02  0.54809848605E+02  0.86070943689E+02  0.10273178091E+03  0.00000000000E+00 0.  1.
         21    1    1    2  505  503 -0.17314388831E+02  0.25208184067E+02  0.17232927298E+03  0.17502176702E+03  0.00000000000E+00 0. -1.
         21    1    1    2  506  504  0.42840894865E+02  0.68443102859E+02  0.39900190371E+02  0.90065674891E+02  0.00000000000E+00 0.  1.
<scales pt_clust_3="137.13469" pt_clust_4="47.03123" pt_clust_5="30.58170" pt_clust_6="47.03123"></scales>
<clustering>
<clus scale="   30.582">  1  5  2 -1</clus>
<clus scale="   47.031">  4  6 -1 -1</clus>
<clus scale="  137.135">  1  3  2 -1</clus>
<clus scale="   30.582">  1  3  2 -1</clus>
</clustering>
</event>
<event>
 6    0  0.4469832E+002  0.1451524E+03  0.7546771E-02  0.1206559E+00
         21   -1    0    0  506  501  0.00000000000E+00  0.00000000000E+00  0.46363621007E+03  0.46363621007E+03  0.00000000000E+00 0. -1.
         21   -1    0    0  505  502 -0.00000000000E+00 -0.00000000000E+00 -0.87564522704E+02  0.87564522704E+02  0.00000000000E+00 0. -1.
         21    1    1    2  503  504  0.12007554108E+02 -0.12100349950E+03  0.58880228846E+02  0.13510332933E+03  0.00000000000E+00 0. -1.
         21    1    1    2  504  502 -0.24619425824E+02 -0.35428688505E+02 -0.30360870692E+01  0.43249577128E+02  0.00000000000E+00 0. -1.
         21    1    1    2  505  501 -0.15697313133E+02  0.56041195899E+02  0.22224360530E+03  0.22973733126E+03  0.00000000000E+00 0. -1.
         21    1    1    2  506  503  0.28309184850E+02  0.10039099210E+03  0.97983940290E+02  0.14311049506E+03  0.00000000000E+00 0. -1.
<scales pt_clust_3="37.95890" pt_clust_4="37.95890" pt_clust_5="58.19812" pt_clust_6="130.41518"></scales>
<clustering>
<clus scale="   37.959">  3  4 -1 -1</clus>
<clus scale="   58.198">  1  5  2 -1</clus>
<clus scale="  130.415">  1  6  2 -1</clus>
<clus scale="   58.198">  1  3  2 -1</clus>
</clustering>
</event>
<event>
 6    0  0.4469832E+002  0.5560773E+02  0.7546771E-02  0.1417247E+00
         21   -1    0    0  505  501  0.00000000000E+00  0.00000000000E+00  0.13343006850E+04  0.13343006850E+04  0.00000000000E+00 0. -1.
         21   -1    0    0  503  502 -0.00000000000E+00 -0.00000000000E+00 -0.24206484043E+03  0.24206484043E+03  0.00000000000E+00 0.  1.
         21    1    1    2  503  504  0.38226592281E+02  0.40302641729E+02 -0.21328098178E+03  0.22039589941E+03  0.00000000000E+00 0.  1.
         21    1    1    2  504  501 -0.97531429528E+02  0.89006753591E+01  0.32687872814E+03  0.34123496990E+03  0.00000000000E+00 0. -1.
         21    1    1    2  505  506  0.56597130015E+01 -0.51291485080E+02  0.95446287976E+03  0.95585680813E+03  0.00000000000E+00 0. -1.
         21    1    1    2  506  502  0.53645124245E+02  0.20881679922E+01  0.24175218470E+02  0.58877848033E+02  0.00000000000E+00 0. -1.
<scales pt_clust_3="14000.00000" pt_clust_4="55.60773" pt_clust_5="51.60280" pt_clust_6="54.37969"></scales>
<clustering>
<clus scale="   51.603">  1  5  2 -1</clus>
<clus scale="   54.380">  1  6  2 -1</clus>
<clus scale="   55.608">  1  4  2 -1</clus>
<clus scale="   51.603">  1  3  2 -1</clus>
</clustering>
</event>
<event>
 6    0  0.4469832E+002  0.1047590E+03  0.7546771E-02  0.1270595E+00
         21   -1    0    0  505  501  0.00000000000E+00  0.00000000000E+00  0.75511905972E+03  0.75511905972E+03  0.00000000000E+00 0. -1.
         21   -1    0    0  503  502 -0.00000000000E+00 -0.00000000000E+00 -0.27295000691E+03  0.27295000691E+03  0.00000000000E+00 0.  1.
         21    1    1    2  503  504 -0.31198694050E+02  0.96596149355E+01 -0.90414136719E+02  0.96132111127E+02  0.00000000000E+00 0.  1.
         21    1    1    2  504  506 -0.58650250301E+02 -0.66082194235E+02 -0.15680619458E+03  0.17998580754E+03  0.00000000000E+00 0.  1.
         21    1    1    2  505  502  0.12178362240E+03  0.45150838989E+01  0.48379953571E+03  0.49891244464E+03  0.00000000000E+00 0. -1.
         21    1    1    2  506  501 -0.31934678047E+02  0.51907495401E+02  0.24558984840E+03  0.25303870332E+03  0.00000000000E+00 0. -1.
<scales pt_clust_3="32.65986" pt_clust_4="104.75898" pt_clust_5="14000.00000" pt_clust_6="61.45536"></scales>
<clustering>
<clus scale="   32.660">  2  3  1 -1</clus>
<clus scale="   61.455">  1  6  2 -1</clus>
<clus scale="  104.759">  2  4  1 -1</clus>
<clus scale="   61.455">  1  3  2 -1</clus>
</clustering>
</event>
<event>
 6    0  0.4469832E+002  0.1548112E+03  0.7546771E-02  0.1194683E+00
         21   -1    0    0  504  501  0.00000000000E+00  0.00000000000E+00  0.25570594126E+03  0.25570594126E+03  0.00000000000E+00 0. -1.
         21   -1    0    0  505  502 -0.00000000000E+00 -0.00000000000E+00 -0.59005454369E+03  0.59005454369E+03  0.00000000000E+00 0.  1.
         21    1    1    2  503  501  0.89233646610E+02 -0.70611967164E+02 -0.20486805312E+03  0.23434933920E+03  0.00000000000E+00 0.  1.
         21    1    1    2  504  506 -0.36257026237E+02  0.14037539922E+03  0.18711892864E+03  0.23671357822E+03  0.00000000000E+00 0. -1.
         21    1    1    2  505  503  0.53608335692E+02 -0.21588050129E+02 -0.20515384465E+03  0.21313844688E+03  0.00000000000E+00 0. -1.
         21    1    1    2  506  502 -0.10658495607E+03 -0.48175381926E+02 -0.11144563330E+03  0.16155912065E+03  0.00000000000E+00 0.  1.
<scales pt_clust_3="40.45627" pt_clust_4="144.02712" pt_clust_5="40.45627" pt_clust_6="116.96675"></scales>
<clustering>
<clus scale="   40.456">  3  5 -1 -1</clus>
<clus scale="  116.967">  2  6  1 -1</clus>
<clus scale="  144.027">  1  4  2 -1</clus>
<clus scale="  144.027">  1  3  2 -1</clus>
</clustering>
</event>
<event>
 6    0  0.4469832E+002  0.1128335E+03  0.7546771E-02  0.1255411E+00
         21   -1    0    0  505  501  0.00000000000E+00  0.00000000000E+00  0.99089360304E+02  0.99089360304E+02  0.00000000000E+00 0.  1.
         21   -1    0    0  504  502 -0.00000000000E+00 -0.00000000000E+00 -0.10162626318E+04  0.10162626318E+04  0.00000000000E+00 0.  1.
         21    1    1    2  503  501  0.12082276713E+02  0.32263632085E+02  0.41727830545E+02  0.54112246376E+02  0.00000000000E+00 0.  1.
         21    1    1    2  504  503  0.29817546240E+02  0.46238967741E+02 -0.19677069356E+03  0.20431797289E+03  0.00000000000E+00 0.  1.
         21    1    1    2  505  506 -0.11245187863E+03  0.21950284706E+02 -0.35430792072E+02  0.11992739901E+03  0.00000000000E+00 0.  1.
         21    1    1    2  506  502  0.70552055676E+02 -0.10045288453E+03 -0.72669961640E+03  0.73699437383E+03  0.00000000000E+00 0.  1.
<scales pt_clust_3="34.45175" pt_clust_4="57.50445" pt_clust_5="14000.00000" pt_clust_6="112.83346"></scales>
<clustering>
<clus scale="   34.452">  1  3  2 -1</clus>
<clus scale="   57.504">  2  4  1 -1</clus>
<clus scale="  112.833">  2  6  1 -1</clus>
<clus scale="   34.452">  1  3  2 -1</clus>
</clustering>
</event>
<event>
 6    0  0.4469832E+002  0.2046609E+03  0.7546771E-02  0.1145865E+00
         21   -1    0    0  504  501  0.00000000000E+00  0.00000000000E+00  0.66890219017E+03  0.66890219017E+03  0.00000000000E+00 0.  1.
         21   -1    0    0  503  502 -0.00000000000E+00 -0.00000000000E+00 -0.14661376003E+03  0.14661376003E+03  0.00000000000E+00 0.  1.
         21    1    1    2  503  501  0.10428153268E+03  0.23088421118E+03  0.31073121926E+03  0.40091900386E+03  0.00000000000E+00 0.  1.
         21    1    1    2  504  505  0.90779562124E+01 -0.87308445124E+02  0.20540971809E+03  0.22337933245E+03  0.00000000000E+00 0.  1.
         21    1    1    2  505  506 -0.85434878745E+02 -0.68213239573E+02 -0.79752887547E+01  0.10961646678E+03  0.00000000000E+00 0.  1.
         21    1    1    2  506  502 -0.27924610152E+02 -0.75362526487E+02  0.14122781545E+02  0.81601147107E+02  0.00000000000E+00 0.  1.
<scales pt_clust_3="197.03830" pt_clust_4="87.77912" pt_clust_5="47.44472" pt_clust_6="47.44472"></scales>
<clustering>
<clus scale="   47.445">  5  6 -1 -1</clus>
<clus scale="   87.779">  1  4  2 -1</clus>
<clus scale="  197.038">  1  3  2 -1</clus>
<clus scale="   87.779">  1  3  2 -1</clus>
</clustering>
</event>
<event>
 6    0  0.4469832E+002  0.1013905E+03  0.7546771E-02  0.1277399E+00
         21   -1    0    0  504  501  0.00000000000E+00  0.00000000000E+00  0.30926288137E+03  0.30926288137E+03  0.00000000000E+00 0. -1.
         21   -1    0    0  506  502 -0.00000000000E+00 -0.00000000000E+00 -0.94404705191E+03  0.94404705191E+03  0.00000000000E+00 0. -1.
         21    1    1    2  503  501 -0.31763647444E+02  0.43375572402E+01  0.23480506417E+03  0.23698346326E+03  0.00000000000E+00 0. -1.
         21    1    1    2  504  505 -0.29372119135E+02 -0.69998681810E+02  0.27606985235E+02  0.80775506631E+02  0.00000000000E+00 0. -1.
         21    1    1    2  505  502 -0.28888216158E+01  0.10324562567E+03 -0.82684727974E+03  0.83327332162E+03  0.00000000000E+00 0. -1.
         21    1    1    2  506  503  0.64024588195E+02 -0.37584501105E+02 -0.70348940194E+02  0.10227764176E+03  0.00000000000E+00 0. -1.
<scales pt_clust_3="32.05844" pt_clust_4="101.39052" pt_clust_5="14000.00000" pt_clust_6="67.85607"></scales>
<clustering>
<clus scale="   32.058">  1  3  2 -1</clus>
<clus scale="   67.856">  1  6  2 -1</clus>
<clus scale="  101.391">  1  4  2 -1</clus>
<clus scale="   32.058">  1  3  2 -1</clus>
</clustering>
</event>
<event>
 6    0  0.4469832E+002  0.1575238E+03  0.7546771E-02  0.1191521E+00
         21   -1    0    0  503  501  0.00000000000E+00  0.00000000000E+00  0.13099733228E+03  0.13099733228E+03  0.00000000000E+00 0. -1.
         21   -1    0    0  504  502 -0.00000000000E+00 -0.00000000000E+00 -0.68935576769E+03  0.68935576769E+03  0.00000000000E+00 0. -1.
         21    1    1    2  503  502  0.11080087891E+03  0.84314174521E+02 -0.50042151961E+03  0.51942989140E+03  0.00000000000E+00 0. -1.
         21    1    1    2  504  506 -0.13108096353E+03 -0.69118647087E+02 -0.10224880501E+03  0.18004006360E+03  0.00000000000E+00 0. -1.
         21    1    1    2  505  501  0.38598612188E+02  0.25216841046E+02  0.58329681197E+02  0.74351150924E+02  0.00000000000E+00 0. -1.
         21    1    1    2  506  505 -0.18318527570E+02 -0.40412368480E+02 -0.14017791984E+02  0.46531994054E+02  0.00000000000E+00 0. -1.
<scales pt_clust_3="145.99323" pt_clust_4="32.37108" pt_clust_5="46.10577" pt_clust_6="32.37108"></scales>
<clustering>
<clus scale="   32.371">  4  6 -1 -1</clus>
<clus scale="   46.106">  1  5  2 -1</clus>
<clus scale="  145.993">  2  3  1 -1</clus>
<clus scale="   46.106">  1  3  2 -1</clus>
</clustering>
</event>
<event>
 6    0  0.4469832E+002  0.1012051E+03  0.7546771E-02  0.1277782E+00
         21   -1    0    0  506  501  0.00000000000E+00  0.00000000000E+00  0.10681173657E+04  0.10681173657E+04  0.00000000000E+00 0.  1.
         21   -1    0    0  505  502 -0.00000000000E+00 -0.00000000000E+00 -0.83140843095E+02  0.83140843095E+02  0.00000000000E+00 0. -1.
         21    1    1    2  503  501  0.10173078333E+03 -0.36031543282E+02  0.54994127107E+03  0.56043092885E+03  0.00000000000E+00 0.  1.
         21    1    1    2  504  503 -0.96623805189E+02 -0.42244123332E+02  0.52157582467E+02  0.11764837055E+03  0.00000000000E+00 0. -1.
         21    1    1    2  505  504 -0.53534777251E+01  0.37534757507E+02 -0.36024646926E+02  0.52300028021E+02  0.00000000000E+00 0. -1.
         21    1    1    2  506  502  0.24649958696E+00  0.40740909107E+02  0.41890231601E+03  0.42087888139E+03  0.00000000000E+00 0.  1.
<scales pt_clust_3="101.20511" pt_clust_4="14000.00000" pt_clust_5="37.91461" pt_clust_6="41.69273"></scales>
<clustering>
<clus scale="   37.915">  2  5  1 -1</clus>
<clus scale="   41.693">  1  6  2 -1</clus>
<clus scale="  101.205">  1  3  2 -1</clus>
<clus scale="   41.693">  1  3  2 -1</clus>
</clustering>
</event>
<event>
 6    0  0.4469832E+002  0.9298309E+02  0.7546771E-02  0.1295784E+00
         21   -1    0    0  502  501  0.00000000000E+00  0.00000000000E+00  0.39164242385E+02  0.39164242385E+02  0.00000000000E+00 0.  1.
         21   -1    0    0  505  502 -0.00000000000E+00 -0.00000000000E+00 -0.18062841824E+04  0.18062841824E+04  0.00000000000E+00 0. -1.
         21    1    1    2  503  506  0.40075390401E+02  0.80555465179E+02 -0.95214605587E+03  0.95638764714E+03  0.00000000000E+00 0.  1.
         21    1    1    2  504  501  0.69101906826E+01  0.31288189453E+02 -0.24295158483E+02  0.40211394656E+02  0.00000000000E+00 0.  1.
         21    1    1    2  505  503  0.30228358497E+02 -0.21701304356E+02 -0.69607326595E+03  0.69706720755E+03  0.00000000000E+00 0. -1.
         21    1    1    2  506  504 -0.77213939581E+02 -0.90142350275E+02 -0.94605459738E+02  0.15178217547E+03  0.00000000000E+00 0.  1.
<scales pt_clust_3="14000.00000" pt_clust_4="32.04218" pt_clust_5="37.01334" pt_clust_6="92.98309"></scales>
<clustering>
<clus scale="   32.042">  1  4  2 -1</clus>
<clus scale="   37.013">  2  5  1 -1</clus>
<clus scale="   92.983">  1  6  2 -1</clus>
<clus scale="   32.042">  1  3  2 -1</clus>
</clustering>
</event>
<event>
 6    0  0.4469832E+002  0.9576621E+02  0.7546771E-02  0.1289460E+00
         21   -1    0    0  506  501  0.00000000000E+00  0.00000000000E+00  0.39417845940E+02  0.39417845940E+02  0.00000000000E+00 0. -1.
         21   -1    0    0  504  502 -0.00000000000E+00 -0.00000000000E+00 -0.13898760938E+04  0.13898760938E+04  0.00000000000E+00 0. -1.
         21    1    1    2  503  502 -0.56637278931E+02  0.28937930685E+02 -0.51889397070E+03  0.52277733121E+03  0.00000000000E+00 0. -1.
         21    1    1    2  504  505 -0.50522822031E+02 -0.65179841086E+01 -0.18330723299E+03  0.19025399162E+03  0.00000000000E+00 0. -1.
         21    1    1    2  505  501  0.55597533604E+02  0.66205222330E+02 -0.59400015664E+03  0.60025861368E+03  0.00000000000E+00 0. -1.
         21    1    1    2  506  503  0.51562567358E+02 -0.88625168907E+02 -0.54256887499E+02  0.11600400320E+03  0.00000000000E+00 0. -1.
<scales pt_clust_3="14000.00000" pt_clust_4="50.94153" pt_clust_5="69.97724" pt_clust_6="95.76621"></scales>
<clustering>
<clus scale="   50.942">  2  4  1 -1</clus>
<clus scale="   69.977">  2  5  1 -1</clus>
<clus scale="   95.766">  1  6  2 -1</clus>
<clus scale="   95.766">  1  3  2 -1</clus>
</clustering>
</event>
<event>
 6    0  0.4469832E+002  0.3532877E+03  0.7546771E-02  0.1061274E+00
         21   -1    0    0  505  501  0.00000000000E+00  0.00000000000E+00  0.73923970357E+03  0.73923970357E+03  0.00000000000E+00 0.  1.
         21   -1    0    0  503  502 -0.00000000000E+00 -0.00000000000E+00 -0.52863948216E+03  0.52863948216E+03  0.00000000000E+00 0.  1.
         21    1    1    2  503  506 -0.39456231525E+01 -0.30195098503E+02 -0.41309644106E+02  0.51320547658E+02  0.00000000000E+00 0.  1.
         21    1    1    2  504  502 -0.34916903588E+03  0.10779392076E+03 -0.29934659917E+03  0.47238430478E+03  0.00000000000E+00 0.  1.
         21    1    1    2  505  504  0.35383228625E+03  0.18616454563E+02  0.54196262623E+03  0.64750856937E+03  0.00000000000E+00 0.  1.
         21    1    1    2  506  501 -0.71762722096E+00 -0.96215276817E+02  0.92938384604E+01  0.96665763925E+02  0.00000000000E+00 0. -1.
<scales pt_clust_3="30.45180" pt_clust_4="353.28768" pt_clust_5="14000.00000" pt_clust_6="98.95600"></scales>
<clustering>
<clus scale="   30.452">  2  3  1 -1</clus>
<clus scale="   98.956">  2  6  1 -1</clus>
<clus scale="  353.288">  2  4  1 -1</clus>
<clus scale="  353.288">  1  3  2 -1</clus>
</clustering>
</event>
<event>
 6    0  0.4469832E+002  0.2106984E+03  0.7546771E-02  0.1141014E+00
         21   -1    0    0  503  501  0.00000000000E+00  0.00000000000E+00  0.25488425776E+03  0.25488425776E+03  0.00000000000E+00 0. -1.
         21   -1    0    0  504  502 -0.00000000000E+00 -0.00000000000E+00 -0.38387704406E+03  0.38387704406E+03  0.00000000000E+00 0. -1.
         21    1    1    2  503  506  0.14489266439E+03  0.31258426229E+02 -0.93523819072E+02  0.17526459465E+03  0.00000000000E+00 0. -1.
         21    1    1    2  504  505 -0.13136015645E+03 -0.19155544678E+03 -0.53346766563E+02  0.23831671657E+03  0.00000000000E+00 0. -1.
         21    1    1    2  505  501 -0.66859983410E+02  0.15706202848E+03  0.82972296560E+01  0.17090225918E+03  0.00000000000E+00 0. -1.
         21    1    1    2  506  502  0.53327475472E+02  0.32349920690E+01  0.95805696780E+01  0.54277731431E+02  0.00000000000E+00 0. -1.
<scales pt_clust_3="43.13492" pt_clust_4="198.06976" pt_clust_5="170.70073" pt_clust_6="43.13492"></scales>
<clustering>
<clus scale="   43.135">  3  6 -1 -1</clus>
<clus scale="  170.701">  1  5  2 -1</clus>
<clus scale="  198.070">  1  4  2 -1</clus>
<clus scale="  170.701">  1  3  2 -1</clus>
</clustering>
</event>
<event>
 6    0  0.4469832E+002  0.1445418E+03  0.7546771E-02  0.1207345E+00
         21   -1    0    0  502  501  0.00000000000E+00  0.00000000000E+00  0.11270892883E+04  0.11270892883E+04  0.00000000000E+00 0. -1.
         21   -1    0    0  504  502 -0.00000000000E+00 -0.00000000000E+00 -0.43085540203E+02  0.43085540203E+02  0.00000000000E+00 0. -1.
         21    1    1    2  503  501  0.55126005393E+02  0.85869875856E+02  0.45085591198E+03  0.46225919723E+03  0.00000000000E+00 0. -1.
         21    1    1    2  504  506 -0.35026619311E+02  0.42080129906E+02  0.86300515091E+02  0.10220264330E+03  0.00000000000E+00 0. -1.
         21    1    1    2  505  503  0.67056812490E+02 -0.14599316578E+03  0.42853651387E+03  0.45766162640E+03  0.00000000000E+00 0. -1.
         21    1    1    2  506  505 -0.87156198571E+02  0.18043160021E+02  0.11831080711E+03  0.14805136154E+03  0.00000000000E+00 0. -1.
<scales pt_clust_3="102.04172" pt_clust_4="36.93614" pt_clust_5="136.65471" pt_clust_6="36.93614"></scales>
<clustering>
<clus scale="   36.936">  4  6 -1 -1</clus>
<clus scale="  102.042">  1  3  2 -1</clus>
<clus scale="  136.655">  1  5  2 -1</clus>
<clus scale="  102.042">  1  3  2 -1</clus>
</clustering>
</event>
<event>
 6    0  0.4469832E+002  0.1764680E+03  0.7546771E-02  0.1171266E+00
         21   -1    0    0  504  501  0.00000000000E+00  0.00000000000E+00  0.98856449228E+03  0.98856449228E+03  0.00000000000E+00 0.  1.
         21   -1    0    0  503  502 -0.00000000000E+00 -0.00000000000E+00 -0.12346210034E+03  0.12346210034E+03  0.00000000000E+00 0.  1.
         21    1    1    2  503  505 -0.13745433629E+01 -0.46095392076E+02 -0.36974728964E+02  0.59108418369E+02  0.00000000000E+00 0.  1.
         21    1    1    2  504  502 -0.10556248171E+03 -0.85976174039E+02  0.32970294803E+01  0.13618447213E+03  0.00000000000E+00 0.  1.
         21    1    1    2  505  506  0.29669832153E+02  0.36579458123E+02  0.13144153737E+03  0.13962533239E+03  0.00000000000E+00 0.  1.
         21    1    1    2  506  501  0.77267192916E+02  0.95492107992E+02  0.76733855404E+03  0.77710836973E+03  0.00000000000E+00 0.  1.
<scales pt_clust_3="46.11588" pt_clust_4="165.60302" pt_clust_5="37.74992" pt_clust_6="37.74992"></scales>
<clustering>
<clus scale="   37.750">  5  6 -1 -1</clus>
<clus scale="   46.116">  2  3  1 -1</clus>
<clus scale="  165.603">  2  4  1 -1</clus>
<clus scale="  176.468">  1  3  2 -1</clus>
</clustering>
</event>
<event>
 6    0  0.4469832E+002  0.2111492E+03  0.7546771E-02  0.1140659E+00
         21   -1    0    0  505  501  0.00000000000E+00  0.00000000000E+00  0.11036887700E+04  0.11036887700E+04  0.00000000000E+00 0. -1.
         21   -1    0    0  503  502 -0.00000000000E+00 -0.00000000000E+00 -0.52397801769E+02  0.52397801769E+02  0.00000000000E+00 0. -1.
         21    1    1    2  503  506  0.21072145674E+02 -0.63720864781E+02  0.11189429912E+03  0.13047880329E+03  0.00000000000E+00 0. -1.
         21    1    1    2  504  502  0.24104038694E+02  0.17369873823E+03  0.29564046057E+03  0.34373760090E+03  0.00000000000E+00 0. -1.
         21    1    1    2  505  504  0.27183815229E+02  0.41829255630E+02  0.22792149491E+03  0.23331706813E+03  0.00000000000E+00 0. -1.
         21    1    1    2  506  501 -0.72359999597E+02 -0.15180712907E+03  0.41583471367E+03  0.44855309950E+03  0.00000000000E+00 0. -1.
<scales pt_clust_3="58.09493" pt_clust_4="192.05908" pt_clust_5="49.88634" pt_clust_6="58.09493"></scales>
<clustering>
<clus scale="   49.886">  1  5  2 -1</clus>
<clus scale="   58.095">  3  6 -1 -1</clus>
<clus scale="  192.059">  2  4  1 -1</clus>
<clus scale="   49.886">  1  3  2 -1</clus>
</clustering>
</event>
<event>
 6    0  0.4469832E+002  0.8070523E+02  0.7546771E-02  0.1327062E+00
         21   -1    0    0  506  501  0.00000000000E+00  0.00000000000E+00  0.95431330984E+03  0.95431330984E+03  0.00000000000E+00 0. -1.
         21   -1    0    0  504  502 -0.00000000000E+00 -0.00000000000E+00 -0.22639186519E+02  0.22639186519E+02  0.00000000000E+00 0. -1.
         21    1    1    2  503  502 -0.35034320971E+02  0.22272059190E+02  0.37522236183E+02  0.55958613945E+02  0.00000000000E+00 0. -1.
         21    1    1    2  504  505 -0.19428449792E+02 -0.79737347782E+02  0.22741551084E+03  0.24177122216E+03  0.00000000000E+00 0. -1.
         21    1    1    2  505  501  0.33508811489E+02 -0.26629250425E+02  0.20431422909E+03  0.20874927937E+03  0.00000000000E+00 0. -1.
         21    1    1    2  506  503  0.20953959275E+02  0.84094539018E+02  0.46242214719E+03  0.47047338088E+03  0.00000000000E+00 0. -1.
<scales pt_clust_3="41.51443" pt_clust_4="14000.00000" pt_clust_5="35.98717" pt_clust_6="80.70523"></scales>
<clustering>
<clus scale="   41.514">  2  3  1 -1</clus>
<clus scale="   35.987">  1  5  2 -1</clus>
<clus scale="   80.705">  1  6  2 -1</clus>
<clus scale="   35.987">  1  3  2 -1</clus>
</clustering>
</event>
<event>
 6    0  0.4469832E+002  0.8195582E+02  0.7546771E-02  0.1323591E+00
         21   -1    0    0  503  501  0.00000000000E+00  0.00000000000E+00  0.13981731493E+03  0.13981731493E+03  0.00000000000E+00 0. -1.
         21   -1    0    0  506  502 -0.00000000000E+00 -0.00000000000E+00 -0.26780353189E+04  0.26780353189E+04  0.00000000000E+00 0.  1.
         21    1    1    2  503  505 -0.77176607023E+02  0.22030878054E+02  0.41433267304E+02  0.90323329759E+02  0.00000000000E+00 0. -1.
         21    1    1    2  504  501  0.29604709338E+02 -0.10863841683E+02  0.67507049613E+02  0.74509486769E+02  0.00000000000E+00 0. -1.
         21    1    1    2  505  502  0.44951250067E+02  0.73150077360E+02 -0.16788032338E+04  0.16809972774E+04  0.00000000000E+00 0.  1.
         21    1    1    2  506  504  0.26206476171E+01 -0.84317113731E+02 -0.96835508705E+03  0.97202253990E+03  0.00000000000E+00 0. -1.
<scales pt_clust_3="50.19858" pt_clust_4="31.53509" pt_clust_5="14000.00000" pt_clust_6="81.95582"></scales>
<clustering>
<clus scale="   31.535">  1  4  2 -1</clus>
<clus scale="   50.199">  1  3  2 -1</clus>
<clus scale="   81.956">  1  6  2 -1</clus>
<clus scale="   31.535">  1  3  2 -1</clus>
</clustering>
</event>
<event>
 6    0  0.4469832E+002  0.1426896E+03  0.7546771E-02  0.1209755E+00
         21   -1    0    0  506  501  0.00000000000E+00  0.00000000000E+00  0.13358425766E+04  0.13358425766E+04  0.00000000000E+00 0. -1.
         21   -1    0    0  501  502 -0.00000000000E+00 -0.00000000000E+00 -0.37428173471E+02  0.37428173471E+02  0.00000000000E+00 0. -1.
         21    1    1    2  503  504 -0.15694371456E+03  0.30260395507E+02  0.31754617735E+03  0.35550329932E+03  0.00000000000E+00 0. -1.
         21    1    1    2  504  505  0.61525223799E+02  0.60667719740E+02  0.17291101754E+03  0.19329807389E+03  0.00000000000E+00 0.  1.
         21    1    1    2  505  502  0.47522940518E+02 -0.68411138085E+00  0.12174420381E+03  0.13069257456E+03  0.00000000000E+00 0.  1.
         21    1    1    2  506  503  0.47895550246E+02 -0.90244003866E+02  0.68621300443E+03  0.69377680230E+03  0.00000000000E+00 0. -1.
<scales pt_clust_3="133.04742" pt_clust_4="38.24180" pt_clust_5="38.24180" pt_clust_6="102.16635"></scales>
<clustering>
<clus scale="   38.242">  4  5 -1 -1</clus>
<clus scale="  102.166">  1  6  2 -1</clus>
<clus scale="  133.047">  1  3  2 -1</clus>
<clus scale="  102.166">  1  3  2 -1</clus>
</clustering>
</event>
<event>
 6    0  0.4469832E+002  0.6236718E+02  0.7546771E-02  0.1388158E+00
         21   -1    0    0  504  501  0.00000000000E+00  0.00000000000E+00  0.11194006591E+04  0.11194006591E+04  0.00000000000E+00 0. -1.
         21   -1    0    0  503  502 -0.00000000000E+00 -0.00000000000E+00 -0.54687683833E+02  0.54687683833E+02  0.00000000000E+00 0.  1.
         21    1    1    2  503  505  0.66893818951E+01  0.81014683460E+02  0.60855217619E+01  0.81517852900E+02  0.00000000000E+00 0.  1.
         21    1    1    2  504  506  0.30488044647E+02  0.36556412504E+02  0.67455918722E+03  0.67623663700E+03  0.00000000000E+00 0. -1.
         21    1    1    2  505  501 -0.50653723002E+02 -0.85042328498E+02  0.36079615611E+03  0.37412813788E+03  0.00000000000E+00 0.  1.
         21    1    1    2  506  502  0.13476296460E+02 -0.32528767467E+02  0.23272110173E+02  0.42205715147E+02  0.00000000000E+00 0.  1.
<scales pt_clust_3="14000.00000" pt_clust_4="47.30168" pt_clust_5="62.36718" pt_clust_6="35.20982"></scales>
<clustering>
<clus scale="   35.210">  2  6  1 -1</clus>
<clus scale="   47.302">  1  4  2 -1</clus>
<clus scale="   62.367">  1  5  2 -1</clus>
<clus scale="   47.302">  1  3  2 -1</clus>
</clustering>
</event>
<event>
 6    0  0.4469832E+002  0.1101251E+03  0.7546771E-02  0.1260338E+00
         21   -1    0    0  505  501  0.00000000000E+00  0.00000000000E+00  0.89773292796E+03  0.89773292796E+03  0.00000000000E+00 0. -1.
         21   -1    0    0  506  502 -0.00000000000E+00 -0.00000000000E+00 -0.21958821778E+04  0.21958821778E+04  0.00000000000E+00 0. -1.
         21    1    1    2  503  501 -0.81659925139E+02  0.74594288627E+02  0.59413140843E+03  0.60433830074E+03  0.00000000000E+00 0. -1.
         21    1    1    2  504  502  0.59811602129E+02  0.73947423598E+02 -0.22289745609E+03  0.24234051485E+03  0.00000000000E+00 0. -1.
         21    1    1    2  505  504 -0.31527876416E+02 -0.86652571797E+02  0.28053773582E+03  0.29530339722E+03  0.00000000000E+00 0. -1.
         21    1    1    2  506  503  0.53376199425E+02 -0.61889140427E+02 -0.19499209380E+04  0.19516328930E+04  0.00000000000E+00 0. -1.
<scales pt_clust_3="14000.00000" pt_clust_4="110.12513" pt_clust_5="93.43675" pt_clust_6="81.72689"></scales>
<clustering>
<clus scale="   81.727">  2  6  1 -1</clus>
<clus scale="   93.437">  1  5  2 -1</clus>
<clus scale="  110.125">  2  4  1 -1</clus>
<clus scale="   93.437">  1  3  2 -1</clus>
</clustering>
</event>
<event>
 6    0  0.4469832E+002  0.1151088E+03  0.7546771E-02  0.1251391E+00
         21   -1    0    0  506  501  0.00000000000E+00  0.00000000000E+00  0.31299831528E+02  0.31299831528E+02  0.00000000000E+00 0.  1.
         21   -1    0    0  504  502 -0.00000000000E+00 -0.00000000000E+00 -0.95473620599E+03  0.95473620599E+03  0.00000000000E+00 0.  1.
         21    1    1    2  503  501 -0.60473735621E+02  0.57097058552E+02 -0.15222726969E+03  0.17346552520E+03  0.00000000000E+00 0.  1.
         21    1    1    2  504  505  0.88767243594E+02 -0.45109904052E+02 -0.64384071366E+03  0.65149473639E+03  0.00000000000E+00 0.  1.
         21    1    1    2  505  503 -0.37506424713E+02  0.26930475624E+02 -0.28094643926E+02  0.54048972510E+02  0.00000000000E+00 0.  1.
         21    1    1    2  506  502  0.92129167392E+01 -0.38917630125E+02 -0.99273747181E+02  0.10702680341E+03  0.00000000000E+00 0.  1.
<scales pt_clust_3="37.89118" pt_clust_4="103.26627" pt_clust_5="37.89118" pt_clust_6="39.99325"></scales>
<clustering>
<clus scale="   37.891">  3  5 -1 -1</clus>
<clus scale="   39.993">  1  6  2 -1</clus>
<clus scale="  103.266">  2  4  1 -1</clus>
<clus scale="   39.993">  1  3  2 -1</clus>
</clustering>
</event>
<event>
 6    0  0.4469832E+002  0.1420460E+03  0.7546771E-02  0.1210602E+00
         21   -1    0    0  504  501  0.00000000000E+00  0.00000000000E+00  0.22285134536E+04  0.22285134536E+04  0.00000000000E+00 0. -1.
         21   -1    0    0  506  502 -0.00000000000E+00 -0.00000000000E+00 -0.10511235447E+04  0.10511235447E+04  0.00000000000E+00 0. -1.
         21    1    1    2  503  501  0.19605234323E+02 -0.46764714497E+02  0.16261864546E+04  0.16269768556E+04  0.00000000000E+00 0. -1.
         21    1    1    2  504  505  0.10595638085E+03  0.11414110535E+03  0.57923664737E+03  0.59980833625E+03  0.00000000000E+00 0. -1.
         21    1    1    2  505  502 -0.38200423857E+02 -0.41754850273E+02 -0.67812332181E+02  0.88324698131E+02  0.00000000000E+00 0. -1.
         21    1    1    2  506  503 -0.87361191319E+02 -0.25621540578E+02 -0.96022086083E+03  0.96452710830E+03  0.00000000000E+00 0. -1.
<scales pt_clust_3="50.70802" pt_clust_4="14000.00000" pt_clust_5="56.96057" pt_clust_6="142.04600"></scales>
<clustering>
<clus scale="   50.708">  1  3  2 -1</clus>
<clus scale="   56.961">  2  5  1 -1</clus>
<clus scale="  142.046">  2  6  1 -1</clus>
<clus scale="   50.708">  1  3  2 -1</clus>
</clustering>
</event>
<event>
 6    0  0.4469832E+002  0.1124761E+03  0.7546771E-02  0.1256052E+00
         21   -1    0    0  506  501  0.00000000000E+00  0.00000000000E+00  0.34924120650E+02  0.34924120650E+02  0.00000000000E+00 0. -1.
         21   -1    0    0  503  502 -0.00000000000E+00 -0.00000000000E+00 -0.17294932750E+04  0.17294932750E+04  0.00000000000E+00 0. -1.
         21    1    1    2  503  505  0.39102710716E+02  0.11214918397E+02 -0.25959833289E+03  0.26276622846E+03  0.00000000000E+00 0. -1.
         21    1    1    2  504  501 -0.10583808226E+03 -0.55122259326E+02 -0.87519588154E+02  0.14798595015E+03  0.00000000000E+00 0. -1.
         21    1    1    2  505  504  0.36338129237E+02 -0.16505626763E+02 -0.18537536724E+03  0.18962310548E+03  0.00000000000E+00 0. -1.
         21    1    1    2  506  502  0.30397242310E+02  0.60412967692E+02 -0.11620758660E+04  0.11640421115E+04  0.00000000000E+00 0. -1.
<scales pt_clust_3="30.29101" pt_clust_4="108.23893" pt_clust_5="30.29101" pt_clust_6="67.62928"></scales>
<clustering>
<clus scale="   30.291">  3  5 -1 -1</clus>
<clus scale="   67.629">  2  6  1 -1</clus>
<clus scale="  108.239">  1  4  2 -1</clus>
<clus scale="  108.239">  1  3  2 -1</clus>
</clustering>
</event>
<event>
 6    0  0.4469832E+002  0.1252320E+03  0.7546771E-02  0.1234707E+00
         21   -1    0    0  504  501  0.00000000000E+00  0.00000000000E+00  0.32788795552E+03  0.32788795552E+03  0.00000000000E+00 0.  1.
         21   -1    0    0  505  502 -0.00000000000E+00 -0.00000000000E+00 -0.16207218504E+03  0.16207218504E+03  0.00000000000E+00 0.  1.
         21    1    1    2  503  502 -0.24260963533E+02 -0.93158524598E+02 -0.24875161282E+02  0.99427756213E+02  0.00000000000E+00 0.  1.
         21    1    1    2  504  506  0.19370490869E+02  0.42704115475E+02  0.23021649905E+03  0.23494359712E+03  0.00000000000E+00 0.  1.
         21    1    1    2  505  501  0.41223734033E+02  0.85689666877E+02 -0.68319687864E+01  0.95335151202E+02  0.00000000000E+00 0.  1.
         21    1    1    2  506  503 -0.36333261370E+02 -0.35235257755E+02 -0.32693598508E+02  0.60253636024E+02  0.00000000000E+00 0.  1.
<scales pt_clust_3="32.64815" pt_clust_4="46.89198" pt_clust_5="116.85754" pt_clust_6="32.64815"></scales>
<clustering>
<clus scale="   32.648">  3  6 -1 -1</clus>
<clus scale="   46.892">  1  4  2 -1</clus>
<clus scale="  116.858">  2  5  1 -1</clus>
<clus scale="   46.892">  1  3  2 -1</clus>
</clustering>
</event>
<event>
 6    0  0.4469832E+002  0.1414651E+03  0.7546771E-02  0.1211371E+00
         21   -1    0    0  505  501  0.00000000000E+00  0.00000000000E+00  0.37347276557E+03  0.37347276557E+03  0.00000000000E+00 0. -1.
         21   -1    0    0  506  502 -0.00000000000E+00 -0.00000000000E+00 -0.15153407487E+04  0.15153407487E+04  0.00000000000E+00 0.  1.
         21    1    1    2  503  501  0.46615686050E+02 -0.74510234029E+02  0.15334935897E+03  0.17675073708E+03  0.00000000000E+00 0. -1.
         21    1    1    2  504  503 -0.63985819100E+02  0.21358871978E+03  0.14081262136E+03  0.26370915911E+03  0.00000000000E+00 0. -1.
         21    1    1    2  505  502  0.42462606891E+02 -0.10445647288E+03 -0.13180481664E+04  0.13228625011E+04  0.00000000000E+00 0.  1.
         21    1    1    2  506  504 -0.25092473841E+02 -0.34622012875E+02 -0.11798179700E+03  0.12549111698E+03  0.00000000000E+00 0. -1.
<scales pt_clust_3="88.02615" pt_clust_4="141.46509" pt_clust_5="14000.00000" pt_clust_6="42.75881"></scales>
<clustering>
<clus scale="   42.759">  2  6  1 -1</clus>
<clus scale="   88.026">  1  3  2 -1</clus>
<clus scale="  141.465">  1  4  2 -1</clus>
<clus scale="   88.026">  1  3  2 -1</clus>
</clustering>
</event>
<event>
 6    0  0.4469832E+002  0.1363341E+03  0.7546771E-02  0.1218349E+00
         21   -1    0    0  506  501  0.00000000000E+00  0.00000000000E+00  0.10903020136E+04  0.10903020136E+04  0.00000000000E+00 0. -1.
         21   -1    0    0  505  502 -0.00000000000E+00 -0.00000000000E+00 -0.43078938563E+03  0.43078938563E+03  0.00000000000E+00 0.  1.
         21    1    1    2  503  504  0.45335438772E+02  0.46413588806E+02  0.70106556062E+02  0.95521999756E+02  0.00000000000E+00 0.  1.
         21    1    1    2  504  502  0.26944638380E+01 -0.33528422560E+02 -0.31663680033E+03  0.31841840175E+03  0.00000000000E+00 0.  1.
         21    1    1    2  505  501  0.90064064993E+02 -0.24734093167E+02 -0.72877663415E+02  0.11846714731E+03  0.00000000000E+00 0.  1.
         21    1    1    2  506  503 -0.13809396760E+03  0.11848926921E+02  0.97892053562E+03  0.98868385039E+03  0.00000000000E+00 0. -1.
<scales pt_clust_3="62.46582" pt_clust_4="33.63652" pt_clust_5="14000.00000" pt_clust_6="136.33413"></scales>
<clustering>
<clus scale="   33.637">  2  4  1 -1</clus>
<clus scale="   62.466">  2  3  1 -1</clus>
<clus scale="  136.334">  1  6  2 -1</clus>
<clus scale="  136.334">  1  3  2 -1</clus>
</clustering>
</event>
<event>
 6    0  0.4469832E+002  0.1439597E+03  0.7546771E-02  0.1208098E+00
         21   -1    0    0  504  501  0.00000000000E+00  0.00000000000E+00  0.12575556679E+04  0.12575556679E+04  0.00000000000E+00 0. -1.
         21   -1    0    0  505  502 -0.00000000000E+00 -0.00000000000E+00 -0.13663111477E+03  0.13663111477E+03  0.00000000000E+00 0.  1.
         21    1    1    2  503  506  0.89964461616E+02  0.48735447272E+02 -0.85139087803E+02  0.13310677085E+03  0.00000000000E+00 0.  1.
         21    1    1    2  504  503 -0.12041302854E+03 -0.12911181766E+03  0.10628416966E+04  0.10774050450E+04  0.00000000000E+00 0. -1.
         21    1    1    2  505  501  0.13142705328E+02  0.31229339573E+02  0.12333421610E+03  0.12790360126E+03  0.00000000000E+00 0. -1.
         21    1    1    2  506  502  0.17305861594E+02  0.49147030817E+02  0.19887728198E+02  0.55771365560E+02  0.00000000000E+00 0.  1.
<scales pt_clust_3="143.95968" pt_clust_4="14000.00000" pt_clust_5="33.88218" pt_clust_6="53.23530"></scales>
<clustering>
<clus scale="   33.882">  1  5  2 -1</clus>
<clus scale="   53.235">  2  6  1 -1</clus>
<clus scale="  143.960">  2  3  1 -1</clus>
<clus scale="   33.882">  1  3  2 -1</clus>
</clustering>
</event>
<event>
 6    0  0.4469832E+002  0.9765373E+02  0.7546771E-02  0.1285309E+00
         21   -1    0    0  506  501  0.00000000000E+00  0.00000000000E+00  0.18915733881E+03  0.18915733881E+03  0.00000000000E+00 0.  1.
         21   -1    0    0  503  502 -0.00000000000E+00 -0.00000000000E+00 -0.56935314777E+03  0.56935314777E+03  0.00000000000E+00 0. -1.
         21    1    1    2  503  504  0.13944777462E+02  0.10428800446E+03  0.14959514185E+01  0.10522681485E+03  0.00000000000E+00 0. -1.
         21    1    1    2  504  501  0.43473356046E+02  0.22462679430E+02  0.10895583776E+03  0.11943985614E+03  0.00000000000E+00 0.  1.
         21    1    1    2  505  502 -0.19172512267E+02 -0.95057763627E+02 -0.47025618998E+03  0.48015044295E+03  0.00000000000E+00 0. -1.
         21    1    1    2  506  505 -0.38245621241E+02 -0.31692920264E+02 -0.20391408154E+02  0.53693372640E+02  0.00000000000E+00 0. -1.
<scales pt_clust_3="97.65373" pt_clust_4="48.93368" pt_clust_5="14000.00000" pt_clust_6="39.12005"></scales>
<clustering>
<clus scale="   48.934">  1  4  2 -1</clus>
<clus scale="   39.120">  1  6  2 -1</clus>
<clus scale="   97.654">  1  3  2 -1</clus>
<clus scale="   48.934">  1  3  2 -1</clus>
</clustering>
</event>
<event>
 6    0  0.4469832E+002  0.1064913E+03  0.7546771E-02  0.1267209E+00
         21   -1    0    0  505  501  0.00000000000E+00  0.00000000000E+00  0.48042298096E+02  0.48042298096E+02  0.00000000000E+00 0.  1.
         21   -1    0    0  506  502 -0.00000000000E+00 -0.00000000000E+00 -0.78804564411E+03  0.78804564411E+03  0.00000000000E+00 0.  1.
         21    1    1    2  503  502 -0.13785260879E+02  0.47618720206E+02 -0.20654675153E+03  0.21241265617E+03  0.00000000000E+00 0.  1.
         21    1    1    2  504  501 -0.36514871886E+02  0.42846006299E+02 -0.37831839160E+02  0.67825984540E+02  0.00000000000E+00 0.  1.
         21    1    1    2  505  503 -0.40863902162E+02 -0.12685040713E+03 -0.17153604902E+03  0.21722223736E+03  0.00000000000E+00 0.  1.
         21    1    1    2  506  504  0.91164034927E+02  0.36385680622E+02 -0.32408870631E+03  0.33862706415E+03  0.00000000000E+00 0.  1.
<scales pt_clust_3="49.57394" pt_clust_4="60.44937" pt_clust_5="14000.00000" pt_clust_6="106.49135"></scales>
<clustering>
<clus scale="   49.574">  2  3  1 -1</clus>
<clus scale="   60.449">  1  4  2 -1</clus>
<clus scale="  106.491">  2  6  1 -1</clus>
<clus scale="   60.449">  1  3  2 -1</clus>
</clustering>
</event>
<event>
 6    0  0.4469832E+002  0.7402769E+02  0.7546771E-02  0.1346909E+00
         21   -1    0    0  506  501  0.00000000000E+00  0.00000000000E+00  0.37945329595E+02  0.37945329595E+02  0.00000000000E+00 0.  1.
         21   -1    0    0  504  502 -0.00000000000E+00 -0.00000000000E+00 -0.19612060907E+04  0.19612060907E+04  0.00000000000E+00 0. -1.
         21    1    1    2  503  501  0.50598876690E+02  0.96633049446E+02 -0.63860335239E+02  0.12639752760E+03  0.00000000000E+00 0.  1.
         21    1    1    2  504  503  0.22375217658E+02 -0.61200238655E+02 -0.67188339560E+03  0.67503586338E+03  0.00000000000E+00 0. -1.
         21    1    1    2  505  502 -0.33704197707E+02 -0.13882638966E+02 -0.10877004459E+04  0.10883110588E+04  0.00000000000E+00 0. -1.
         21    1    1    2  506  505 -0.39269896642E+02 -0.21550171825E+02 -0.99816584296E+02  0.10940697047E+03  0.00000000000E+00 0. -1.
<scales pt_clust_3="74.02769" pt_clust_4="14000.00000" pt_clust_5="36.45135" pt_clust_6="49.13676"></scales>
<clustering>
<clus scale="   36.451">  2  5  1 -1</clus>
<clus scale="   49.137">  1  6  2 -1</clus>
<clus scale="   74.028">  1  3  2 -1</clus>
<clus scale="   49.137">  1  3  2 -1</clus>
</clustering>
</event>
<event>
 6    0  0.4469832E+002  0.7256882E+02  0.7546771E-02  0.1351569E+00
         21   -1    0    0  503  501  0.00000000000E+00  0.00000000000E+00  0.10957023822E+04  0.10957023822E+04  0.00000000000E+00 0.  1.
         21   -1    0    0  504  502 -0.00000000000E+00 -0.00000000000E+00 -0.61339842400E+03  0.61339842400E+03  0.00000000000E+00 0.  1.
         21    1    1    2  503  506 -0.34472296508E+02 -0.21873446706E+02  0.97226819861E+03  0.97312498526E+03  0.00000000000E+00 0.  1.
         21    1    1    2  504  505 -0.80162886275E+01 -0.50704437004E+02 -0.37861690608E+03  0.38208109399E+03  0.00000000000E+00 0.  1.
         21    1    1    2  505  501  0.87559021261E+02  0.71138972510E+02  0.92021822151E+02  0.14558623344E+03  0.00000000000E+00 0.  1.
         21    1    1    2  506  502 -0.45070436125E+02  0.14389112005E+01 -0.20336915647E+03  0.20830849354E+03  0.00000000000E+00 0.  1.
<scales pt_clust_3="40.82630" pt_clust_4="14000.00000" pt_clust_5="72.56882" pt_clust_6="45.77348"></scales>
<clustering>
<clus scale="   40.826">  1  3  2 -1</clus>
<clus scale="   45.773">  2  6  1 -1</clus>
<clus scale="   72.569">  1  5  2 -1</clus>
<clus scale="   40.826">  1  3  2 -1</clus>
</clustering>
</event>
<event>
 6    0  0.4469832E+002  0.1875006E+03  0.7546771E-02  0.1160735E+00
         21   -1    0    0  503  501  0.00000000000E+00  0.00000000000E+00  0.10661315049E+04  0.10661315049E+04  0.00000000000E+00 0. -1.
         21   -1    0    0  505  502 -0.00000000000E+00 -0.00000000000E+00 -0.71355291474E+02  0.71355291474E+02  0.00000000000E+00 0. -1.
         21    1    1    2  503  502  0.14324559254E+03  0.15256220369E+03  0.36367865537E+03  0.41959109874E+03  0.00000000000E+00 0. -1.
         21    1    1    2  504  506 -0.10242353246E+03 -0.14699409980E+03  0.23982042076E+03  0.29935209969E+03  0.00000000000E+00 0. -1.
         21    1    1    2  505  504 -0.25275589553E+02  0.48712831488E+02  0.55497693624E+02  0.78049915928E+02  0.00000000000E+00 0. -1.
         21    1    1    2  506  501 -0.15546470525E+02 -0.54280935370E+02  0.33577944373E+03  0.34049368206E+03  0.00000000000E+00 0. -1.
<scales pt_clust_3="187.50056" pt_clust_4="14000.00000" pt_clust_5="54.87983" pt_clust_6="54.91904"></scales>
<clustering>
<clus scale="   54.880">  2  5  1 -1</clus>
<clus scale="   54.919">  1  6  2 -1</clus>
<clus scale="  187.501">  1  3  2 -1</clus>
<clus scale="   54.919">  1  3  2 -1</clus>
</clustering>
</event>
<event>
 6    0  0.4469832E+002  0.9997055E+02  0.7546771E-02  0.1280358E+00
         21   -1    0    0  505  501  0.00000000000E+00  0.00000000000E+00  0.13233961634E+04  0.13233961634E+04  0.00000000000E+00 0. -1.
         21   -1    0    0  503  502 -0.00000000000E+00 -0.00000000000E+00 -0.15089526364E+03  0.15089526364E+03  0.00000000000E+00 0. -1.
         21    1    1    2  503  506  0.45061493847E+02  0.13571407637E+02 -0.65098065139E+02  0.80327326719E+02  0.00000000000E+00 0. -1.
         21    1    1    2  504  502 -0.33815538252E+02  0.84941782845E+02 -0.41381575576E+02  0.10035453102E+03  0.00000000000E+00 0. -1.
         21    1    1    2  505  504 -0.33311105326E+01  0.41247413524E+02  0.53331646599E+03  0.53491952508E+03  0.00000000000E+00 0. -1.
         21    1    1    2  506  501 -0.79148450622E+01 -0.13976060401E+03  0.74566407448E+03  0.75869004420E+03  0.00000000000E+00 0. -1.
<scales pt_clust_3="47.14643" pt_clust_4="99.97055" pt_clust_5="41.38170" pt_clust_6="14000.00000"></scales>
<clustering>
<clus scale="   41.382">  1  5  2 -1</clus>
<clus scale="   47.146">  2  3  1 -1</clus>
<clus scale="   99.971">  2  4  1 -1</clus>
<clus scale="   41.382">  1  3  2 -1</clus>
</clustering>
</event>
<event>
 6    0  0.4469832E+002  0.1024426E+03  0.7546771E-02  0.1275242E+00
         21   -1    0    0  504  501  0.00000000000E+00  0.00000000000E+00  0.33369538837E+03  0.33369538837E+03  0.00000000000E+00 0.  1.
         21   -1    0    0  503  502 -0.00000000000E+00 -0.00000000000E+00 -0.41253220540E+03  0.41253220540E+03  0.00000000000E+00 0.  1.
         21    1    1    2  503  506 -0.69559710249E+01 -0.38385029336E+02 -0.27486942884E+03  0.27762384430E+03  0.00000000000E+00 0.  1.
         21    1    1    2  504  505 -0.77682783380E+02 -0.64375678152E+02  0.20798946455E+03  0.23116760183E+03  0.00000000000E+00 0.  1.
         21    1    1    2  505  502  0.29957798016E+02  0.58464711919E+01 -0.94228647252E+02  0.99048921500E+02  0.00000000000E+00 0.  1.
         21    1    1    2  506  501  0.54680956389E+02  0.96914236296E+02  0.82271794506E+02  0.13838722614E+03  0.00000000000E+00 0.  1.
<scales pt_clust_3="38.43565" pt_clust_4="14000.00000" pt_clust_5="30.52296" pt_clust_6="102.44260"></scales>
<clustering>
<clus scale="   30.523">  2  5  1 -1</clus>
<clus scale="   38.436">  2  3  1 -1</clus>
<clus scale="  102.443">  2  6  1 -1</clus>
<clus scale="  102.443">  1  3  2 -1</clus>
</clustering>
</event>
<event>
 6    0  0.1066095E+003  0.1391382E+03  0.7546771E-02  0.1214493E+00
         21   -1    0    0  506  501  0.00000000000E+00  0.00000000000E+00  0.12314455936E+04  0.12314455936E+04  0.00000000000E+00 0. -1.
         21   -1    0    0  501  502 -0.00000000000E+00 -0.00000000000E+00 -0.17633595372E+04  0.17633595372E+04  0.00000000000E+00 0.  1.
         21    1    1    2  503  504  0.10812572948E+03 -0.21478293795E+02 -0.53515823815E+02  0.12254155980E+03  0.00000000000E+00 0. -1.
         21    1    1    2  504  502 -0.14061169588E+03  0.17624385247E+02 -0.16452692091E+04  0.16513609655E+04  0.00000000000E+00 0.  1.
         21    1    1    2  505  503  0.12568847257E+02  0.40796712064E+02 -0.95409305442E+01  0.43742164925E+02  0.00000000000E+00 0.  1.
         21    1    1    2  506  505  0.19917119140E+02 -0.36942803516E+02  0.11764120199E+04  0.11771604406E+04  0.00000000000E+00 0. -1.
<scales pt_clust_3="139.13821" pt_clust_4="14000.00000" pt_clust_5="34.76139" pt_clust_6="41.96978"></scales>
<clustering>
<clus scale="   41.970">  1  6  2 -1</clus>
<clus scale="   34.761">  1  5  2 -1</clus>
<clus scale="  139.138">  1  3  2 -1</clus>
<clus scale="   41.970">  1  3  2 -1</clus>
</clustering>
</event>
<event>
 6    0  0.4469832E+002  0.2465814E+03  0.7546771E-02  0.1115485E+00
         21   -1    0    0  506  501  0.00000000000E+00  0.00000000000E+00  0.53235412812E+03  0.53235412812E+03  0.00000000000E+00 0. -1.
         21   -1    0    0  504  502 -0.00000000000E+00 -0.00000000000E+00 -0.15577137834E+04  0.15577137834E+04  0.00000000000E+00 0. -1.
         21    1    1    2  503  505  0.98501305445E+02  0.20335299956E+02 -0.36933099287E+03  0.38278115666E+03  0.00000000000E+00 0. -1.
         21    1    1    2  504  501 -0.23287113140E+03  0.10555056769E+03  0.41669946753E+03  0.48888478440E+03  0.00000000000E+00 0. -1.
         21    1    1    2  505  502  0.12572205854E+03 -0.51552842674E+01 -0.10890248394E+04  0.10962699092E+04  0.00000000000E+00 0. -1.
         21    1    1    2  506  503  0.86477674107E+01 -0.12073058338E+03  0.16296709484E+02  0.12213206125E+03  0.00000000000E+00 0. -1.
<scales pt_clust_3="90.66520" pt_clust_4="224.76346" pt_clust_5="90.66520" pt_clust_6="121.03990"></scales>
<clustering>
<clus scale="   90.665">  3  5 -1 -1</clus>
<clus scale="  121.040">  1  6  2 -1</clus>
<clus scale="  224.763">  1  4  2 -1</clus>
<clus scale="  121.040">  1  3  2 -1</clus>
</clustering>
</event>
<event>
 6    0  0.4469832E+002  0.1709830E+03  0.7546771E-02  0.1176827E+00
         21   -1    0    0  504  501  0.00000000000E+00  0.00000000000E+00  0.13285453669E+04  0.13285453669E+04  0.00000000000E+00 0. -1.
         21   -1    0    0  506  502 -0.00000000000E+00 -0.00000000000E+00 -0.29516944067E+03  0.29516944067E+03  0.00000000000E+00 0. -1.
         21    1    1    2  503  502 -0.78411565557E+02  0.96845722218E+02 -0.11188234972E+03  0.16746679583E+03  0.00000000000E+00 0. -1.
         21    1    1    2  504  503  0.85073146566E+02  0.68364614277E+02  0.95903873153E+03  0.96522870312E+03  0.00000000000E+00 0. -1.
         21    1    1    2  505  501 -0.80287492515E+02 -0.24624987191E+03  0.25357398589E+03  0.36247047768E+03  0.00000000000E+00 0. -1.
         21    1    1    2  506  505  0.73625911506E+02  0.81039535419E+02 -0.67354441488E+02  0.12854883093E+03  0.00000000000E+00 0. -1.
<scales pt_clust_3="170.98298" pt_clust_4="109.13826" pt_clust_5="14000.00000" pt_clust_6="118.50145"></scales>
<clustering>
<clus scale="  109.138">  1  4  2 -1</clus>
<clus scale="  118.501">  2  6  1 -1</clus>
<clus scale="  170.983">  2  3  1 -1</clus>
<clus scale="  109.138">  1  3  2 -1</clus>
</clustering>
</event>
<event>
 6    0  0.4469832E+002  0.1387421E+03  0.7546771E-02  0.1215032E+00
         21   -1    0    0  504  501  0.00000000000E+00  0.00000000000E+00  0.16346033704E+03  0.16346033704E+03  0.00000000000E+00 0. -1.
         21   -1    0    0  506  502 -0.00000000000E+00 -0.00000000000E+00 -0.39675443656E+03  0.39675443656E+03  0.00000000000E+00 0.  1.
         21    1    1    2  503  501  0.57788783611E+02 -0.25803735610E+02 -0.11025130680E+03  0.12712484782E+03  0.00000000000E+00 0.  1.
         21    1    1    2  504  505 -0.23269312155E+02 -0.21048361481E+02  0.80088653082E+02  0.86015619290E+02  0.00000000000E+00 0. -1.
         21    1    1    2  505  502 -0.90664533118E+02  0.94879126023E+02 -0.33002221960E+00  0.13123343718E+03  0.00000000000E+00 0.  1.
         21    1    1    2  506  503  0.56145061662E+02 -0.48027028932E+02 -0.20280142358E+03  0.21584086931E+03  0.00000000000E+00 0.  1.
<scales pt_clust_3="31.68987" pt_clust_4="31.37665" pt_clust_5="134.37936" pt_clust_6="31.68987"></scales>
<clustering>
<clus scale="   31.377">  1  4  2 -1</clus>
<clus scale="   31.690">  3  6 -1 -1</clus>
<clus scale="  134.379">  1  5  2 -1</clus>
<clus scale="   31.377">  1  3  2 -1</clus>
</clustering>
</event>
<event>
 6    0  0.4469832E+002  0.1301857E+03  0.7546771E-02  0.1227180E+00
         21   -1    0    0  506  501  0.00000000000E+00  0.00000000000E+00  0.11135658052E+04  0.11135658052E+04  0.00000000000E+00 0.  1.
         21   -1    0    0  503  502 -0.00000000000E+00 -0.00000000000E+00 -0.16081388654E+03  0.16081388654E+03  0.00000000000E+00 0.  1.
         21    1    1    2  503  504 -0.10311130572E+03 -0.15017902621E+03 -0.78622844871E+02  0.19841177640E+03  0.00000000000E+00 0.  1.
         21    1    1    2  504  501  0.80158005008E+02  0.15346394758E+02  0.73781435889E+03  0.74231451945E+03  0.00000000000E+00 0.  1.
         21    1    1    2  505  502  0.23061545521E+02  0.36888142391E+02  0.30998404620E+02  0.53417890447E+02  0.00000000000E+00 0. -1.
         21    1    1    2  506  505 -0.10824480892E+00  0.97944489060E+02  0.26256200007E+03  0.28023550548E+03  0.00000000000E+00 0.  1.
<scales pt_clust_3="14000.00000" pt_clust_4="82.06022" pt_clust_5="43.50368" pt_clust_6="130.18574"></scales>
<clustering>
<clus scale="   43.504">  2  5  1 -1</clus>
<clus scale="   82.060">  1  4  2 -1</clus>
<clus scale="  130.186">  1  6  2 -1</clus>
<clus scale="   82.060">  1  3  2 -1</clus>
</clustering>
</event>
<event>
 6    0  0.4469832E+002  0.1009222E+03  0.7546771E-02  0.1278369E+00
         21   -1    0    0  503  501  0.00000000000E+00  0.00000000000E+00  0.19916269356E+03  0.19916269356E+03  0.00000000000E+00 0. -1.
         21   -1    0    0  506  502 -0.00000000000E+00 -0.00000000000E+00 -0.78212686972E+03  0.78212686972E+03  0.00000000000E+00 0. -1.
         21    1    1    2  503  504  0.70886857206E+02 -0.36313369753E+02  0.51783974214E+02  0.95000985956E+02  0.00000000000E+00 0. -1.
         21    1    1    2  504  505 -0.12869992826E+03  0.57422359113E+02  0.81990421082E+02  0.16304425169E+03  0.00000000000E+00 0. -1.
         21    1    1    2  505  502  0.26829689867E+02  0.24502410461E+02 -0.17663077596E+03  0.18032923056E+03  0.00000000000E+00 0.  1.
         21    1    1    2  506  501  0.30983381185E+02 -0.45611399822E+02 -0.54010779549E+03  0.54291509507E+03  0.00000000000E+00 0. -1.
<scales pt_clust_3="14000.00000" pt_clust_4="100.92216" pt_clust_5="36.33456" pt_clust_6="59.90898"></scales>
<clustering>
<clus scale="   36.335">  2  5  1 -1</clus>
<clus scale="   59.909">  2  6  1 -1</clus>
<clus scale="  100.922">  2  4  1 -1</clus>
<clus scale="  100.922">  1  3  2 -1</clus>
</clustering>
</event>
<event>
 6    0  0.4469832E+002  0.7983066E+02  0.7546771E-02  0.1329533E+00
         21   -1    0    0  504  501  0.00000000000E+00  0.00000000000E+00  0.22662561885E+03  0.22662561885E+03  0.00000000000E+00 0.  1.
         21   -1    0    0  503  502 -0.00000000000E+00 -0.00000000000E+00 -0.28217012676E+03  0.28217012676E+03  0.00000000000E+00 0.  1.
         21    1    1    2  503  505  0.74702920001E+02  0.21888676221E+02 -0.10345916948E+03  0.12947370449E+03  0.00000000000E+00 0.  1.
         21    1    1    2  504  502 -0.30154459264E+02 -0.15290218688E+02  0.23467481726E+02  0.41155861060E+02  0.00000000000E+00 0. -1.
         21    1    1    2  505  506 -0.45654221847E+02 -0.86282226750E+02 -0.13106590469E+03  0.16342338265E+03  0.00000000000E+00 0.  1.
         21    1    1    2  506  501  0.11057611095E+01  0.79683769216E+02  0.15551308453E+03  0.17474279741E+03  0.00000000000E+00 0.  1.
<scales pt_clust_3="79.83066" pt_clust_4="33.80950" pt_clust_5="14000.00000" pt_clust_6="71.05477"></scales>
<clustering>
<clus scale="   33.809">  1  4  2 -1</clus>
<clus scale="   71.055">  1  6  2 -1</clus>
<clus scale="   79.831">  2  3  1 -1</clus>
<clus scale="   33.809">  1  3  2 -1</clus>
</clustering>
</event>
<event>
 6    0  0.4469832E+002  0.1772415E+03  0.7546771E-02  0.1170500E+00
         21   -1    0    0  505  501  0.00000000000E+00  0.00000000000E+00  0.25311778232E+04  0.25311778232E+04  0.00000000000E+00 0.  1.
         21   -1    0    0  506  502 -0.00000000000E+00 -0.00000000000E+00 -0.21114363917E+02  0.21114363917E+02  0.00000000000E+00 0.  1.
         21    1    1    2  503  502  0.10297321037E+03  0.47869712006E+02  0.99581393993E+03  0.10022676261E+04  0.00000000000E+00 0.  1.
         21    1    1    2  504  501 -0.16127521845E+02  0.31237544398E+02  0.78148668993E+03  0.78227701467E+03  0.00000000000E+00 0.  1.
         21    1    1    2  505  503  0.56819118327E+02  0.68927270431E+01  0.25953753239E+03  0.26577368684E+03  0.00000000000E+00 0.  1.
         21    1    1    2  506  504 -0.14366480685E+03 -0.85999983447E+02  0.47322529706E+03  0.50197385954E+03  0.00000000000E+00 0.  1.
<scales pt_clust_3="41.16772" pt_clust_4="35.15510" pt_clust_5="41.16772" pt_clust_6="167.10962"></scales>
<clustering>
<clus scale="   35.155">  1  4  2 -1</clus>
<clus scale="   41.168">  3  5 -1 -1</clus>
<clus scale="  167.110">  2  6  1 -1</clus>
<clus scale="   35.155">  1  3  2 -1</clus>
</clustering>
</event>
<event>
 6    0  0.4469832E+002  0.1381947E+03  0.7546771E-02  0.1215779E+00
         21   -1    0    0  506  501  0.00000000000E+00  0.00000000000E+00  0.62515848816E+03  0.62515848816E+03  0.00000000000E+00 0.  1.
         21   -1    0    0  503  502 -0.00000000000E+00 -0.00000000000E+00 -0.11431587473E+03  0.11431587473E+03  0.00000000000E+00 0.  1.
         21    1    1    2  503  504  0.48208061612E+02  0.38084407149E+02 -0.64657033158E+01  0.61775760551E+02  0.00000000000E+00 0.  1.
         21    1    1    2  504  505 -0.75670622285E+01  0.64895655088E+02  0.60134463403E+01  0.65611493025E+02  0.00000000000E+00 0.  1.
         21    1    1    2  505  501  0.26255332772E+02  0.23990359053E+02  0.45740819252E+03  0.45878876883E+03  0.00000000000E+00 0.  1.
         21    1    1    2  506  502 -0.66896332156E+02 -0.12697042129E+03  0.53886677890E+02  0.15329834047E+03  0.00000000000E+00 0.  1.
<scales pt_clust_3="61.76231" pt_clust_4="61.76231" pt_clust_5="35.56515" pt_clust_6="122.99208"></scales>
<clustering>
<clus scale="   35.565">  1  5  2 -1</clus>
<clus scale="   61.762">  3  4 -1 -1</clus>
<clus scale="  122.992">  1  6  2 -1</clus>
<clus scale="   35.565">  1  3  2 -1</clus>
</clustering>
</event>
<event>
 6    0  0.4469832E+002  0.1321264E+03  0.7546771E-02  0.1224334E+00
         21   -1    0    0  506  501  0.00000000000E+00  0.00000000000E+00  0.11919380640E+03  0.11919380640E+03  0.00000000000E+00 0. -1.
         21   -1    0    0  505  502 -0.00000000000E+00 -0.00000000000E+00 -0.43589678020E+03  0.43589678020E+03  0.00000000000E+00 0. -1.
         21    1    1    2  503  501  0.74685371317E+01 -0.78284660774E+02  0.70682187120E+02  0.10573664802E+03  0.00000000000E+00 0. -1.
         21    1    1    2  504  503  0.45603208223E+02  0.35325716970E+02 -0.17786282249E+03  0.18698326797E+03  0.00000000000E+00 0. -1.
         21    1    1    2  505  504  0.28027989828E+01  0.78553764157E+02 -0.16436992640E+03  0.18219775589E+03  0.00000000000E+00 0. -1.
         21    1    1    2  506  502 -0.55874544338E+02 -0.35594820353E+02 -0.45152412032E+02  0.80172914711E+02  0.00000000000E+00 0. -1.
<scales pt_clust_3="116.60910" pt_clust_4="53.22141" pt_clust_5="53.22141" pt_clust_6="66.24920"></scales>
<clustering>
<clus scale="   53.221">  4  5 -1 -1</clus>
<clus scale="   66.249">  1  6  2 -1</clus>
<clus scale="  116.609">  1  3  2 -1</clus>
<clus scale="   66.249">  1  3  2 -1</clus>
</clustering>
</event>
<event>
 6    0  0.4469832E+002  0.1888380E+03  0.7546771E-02  0.1159514E+00
         21   -1    0    0  505  501  0.00000000000E+00  0.00000000000E+00  0.24954949160E+04  0.24954949160E+04  0.00000000000E+00 0.  1.
         21   -1    0    0  503  502 -0.00000000000E+00 -0.00000000000E+00 -0.11337600801E+03  0.11337600801E+03  0.00000000000E+00 0. -1.
         21    1    1    2  503  504 -0.72104463892E+02  0.21541592032E+00 -0.53104671665E+01  0.72300077307E+02  0.00000000000E+00 0. -1.
         21    1    1    2  504  506 -0.83827874555E+02  0.83513272299E+02 -0.15811501416E+02  0.11937999321E+03  0.00000000000E+00 0. -1.
         21    1    1    2  505  502  0.64395882000E+02  0.55620712862E+02  0.11081883499E+04  0.11114503642E+04  0.00000000000E+00 0.  1.
         21    1    1    2  506  501  0.91536456446E+02 -0.13934940108E+03  0.12950525267E+04  0.13057404893E+04  0.00000000000E+00 0.  1.
<scales pt_clust_3="55.03056" pt_clust_4="55.03056" pt_clust_5="85.09109" pt_clust_6="175.18582"></scales>
<clustering>
<clus scale="   55.031">  3  4 -1 -1</clus>
<clus scale="   85.091">  1  5  2 -1</clus>
<clus scale="  175.186">  1  6  2 -1</clus>
<clus scale="   85.091">  1  3  2 -1</clus>
</clustering>
</event>
<event>
 6    0  0.4469832E+002  0.1180612E+03  0.7546771E-02  0.1246330E+00
         21   -1    0    0  506  501  0.00000000000E+00  0.00000000000E+00  0.23913293863E+02  0.23913293863E+02  0.00000000000E+00 0. -1.
         21   -1    0    0  503  502 -0.00000000000E+00 -0.00000000000E+00 -0.19121223314E+04  0.19121223314E+04  0.00000000000E+00 0. -1.
         21    1    1    2  503  504  0.48929896190E+02  0.65411904213E+01 -0.40633857640E+03  0.40932622757E+03  0.00000000000E+00 0. -1.
         21    1    1    2  504  505  0.53115122112E+02  0.16992436492E+02 -0.10005813029E+04  0.10021341741E+04  0.00000000000E+00 0. -1.
         21    1    1    2  505  501  0.25783994705E+02  0.51785209897E+02 -0.10140539310E+03  0.11674577549E+03  0.00000000000E+00 0. -1.
         21    1    1    2  506  502 -0.12782901301E+03 -0.75318836810E+02 -0.37988376510E+03  0.40782944809E+03  0.00000000000E+00 0. -1.
<scales pt_clust_3="40.24719" pt_clust_4="40.24719" pt_clust_5="57.84913" pt_clust_6="110.03887"></scales>
<clustering>
<clus scale="   40.247">  3  4 -1 -1</clus>
<clus scale="   57.849">  1  5  2 -1</clus>
<clus scale="  110.039">  1  6  2 -1</clus>
<clus scale="   57.849">  1  3  2 -1</clus>
</clustering>
</event>
<event>
 6    0  0.4469832E+002  0.1440329E+03  0.7546771E-02  0.1208003E+00
         21   -1    0    0  506  501  0.00000000000E+00  0.00000000000E+00  0.73466020878E+03  0.73466020878E+03  0.00000000000E+00 0.  1.
         21   -1    0    0  505  502 -0.00000000000E+00 -0.00000000000E+00 -0.18843506349E+03  0.18843506349E+03  0.00000000000E+00 0.  1.
         21    1    1    2  503  504  0.65274283824E+02  0.26571482056E+02 -0.49409434318E+02  0.86070134117E+02  0.00000000000E+00 0.  1.
         21    1    1    2  504  501 -0.49886193939E+02 -0.46377343529E+01  0.38889585812E+03  0.39210984352E+03  0.00000000000E+00 0.  1.
         21    1    1    2  505  503  0.46950893540E+02  0.56416963650E+02 -0.98976443375E+02  0.12322173727E+03  0.00000000000E+00 0.  1.
         21    1    1    2  506  502 -0.62338983425E+02 -0.78350711352E+02  0.30571516486E+03  0.32169355737E+03  0.00000000000E+00 0.  1.
<scales pt_clust_3="47.02593" pt_clust_4="50.10131" pt_clust_5="47.02593" pt_clust_6="135.80258"></scales>
<clustering>
<clus scale="   47.026">  3  5 -1 -1</clus>
<clus scale="   50.101">  1  4  2 -1</clus>
<clus scale="  135.803">  1  6  2 -1</clus>
<clus scale="   50.101">  1  3  2 -1</clus>
</clustering>
</event>
<event>
 6    0  0.4469832E+002  0.9403051E+02  0.7546771E-02  0.1293375E+00
         21   -1    0    0  504  501  0.00000000000E+00  0.00000000000E+00  0.34888572579E+03  0.34888572579E+03  0.00000000000E+00 0.  1.
         21   -1    0    0  506  502 -0.00000000000E+00 -0.00000000000E+00 -0.38761465434E+03  0.38761465434E+03  0.00000000000E+00 0. -1.
         21    1    1    2  503  502 -0.32356952431E+02  0.56432311123E+02 -0.26918108838E+03  0.27692965976E+03  0.00000000000E+00 0. -1.
         21    1    1    2  504  503  0.60296054644E+02 -0.89239032344E+02  0.23360167370E+03  0.25723328139E+03  0.00000000000E+00 0.  1.
         21    1    1    2  505  501  0.19096465023E+02  0.35697389782E+02  0.89589655922E+02  0.98312181655E+02  0.00000000000E+00 0.  1.
         21    1    1    2  506  505 -0.47035567235E+02 -0.28906685610E+01 -0.92739169791E+02  0.10402525733E+03  0.00000000000E+00 0.  1.
<scales pt_clust_3="14000.00000" pt_clust_4="94.03051" pt_clust_5="40.48430" pt_clust_6="46.66017"></scales>
<clustering>
<clus scale="   40.484">  1  5  2 -1</clus>
<clus scale="   46.660">  2  6  1 -1</clus>
<clus scale="   94.031">  1  4  2 -1</clus>
<clus scale="   40.484">  1  3  2 -1</clus>
</clustering>
</event>
<event>
 6    0  0.4469832E+002  0.1136153E+03  0.7546771E-02  0.1254018E+00
         21   -1    0    0  503  501  0.00000000000E+00  0.00000000000E+00  0.15608773329E+03  0.15608773329E+03  0.00000000000E+00 0.  1.
         21   -1    0    0  506  502 -0.00000000000E+00 -0.00000000000E+00 -0.50209341685E+03  0.50209341685E+03  0.00000000000E+00 0.  1.
         21    1    1    2  503  502  0.12665756932E+02  0.50353277069E+02  0.30033956522E+02  0.59982601266E+02  0.00000000000E+00 0.  1.
         21    1    1    2  504  505  0.52118302834E+02  0.31589854195E+02 -0.21038296887E+03  0.21903248610E+03  0.00000000000E+00 0.  1.
         21    1    1    2  505  501 -0.11493205071E+03 -0.78526297801E+02  0.57362300707E+02  0.15055294507E+03  0.00000000000E+00 0.  1.
         21    1    1    2  506  504  0.50147990942E+02 -0.34168334633E+01 -0.22301897193E+03  0.22861311770E+03  0.00000000000E+00 0.  1.
<scales pt_clust_3="51.92181" pt_clust_4="32.70927" pt_clust_5="107.75526" pt_clust_6="32.70927"></scales>
<clustering>
<clus scale="   32.709">  4  6 -1 -1</clus>
<clus scale="   51.922">  1  3  2 -1</clus>
<clus scale="  107.755">  1  5  2 -1</clus>
<clus scale="   51.922">  1  3  2 -1</clus>
</clustering>
</event>
<event>
 6    0  0.4469832E+002  0.1105844E+03  0.7546771E-02  0.1259491E+00
         21   -1    0    0  502  501  0.00000000000E+00  0.00000000000E+00  0.54967497630E+03  0.54967497630E+03  0.00000000000E+00 0. -1.
         21   -1    0    0  506  502 -0.00000000000E+00 -0.00000000000E+00 -0.95677325302E+02  0.95677325302E+02  0.00000000000E+00 0.  1.
         21    1    1    2  503  504  0.78984075956E+02 -0.67524735585E+02 -0.18738741009E+02  0.10558984130E+03  0.00000000000E+00 0.  1.
         21    1    1    2  504  505 -0.69551390870E+02  0.61766173190E+02  0.33571237813E+03  0.34836081432E+03  0.00000000000E+00 0. -1.
         21    1    1    2  505  501 -0.36782032668E+02 -0.13334688182E+02  0.15044419120E+03  0.15544834030E+03  0.00000000000E+00 0. -1.
         21    1    1    2  506  503  0.27349347582E+02  0.19093250577E+02 -0.13420177321E+02  0.35953305690E+02  0.00000000000E+00 0.  1.
<scales pt_clust_3="110.58444" pt_clust_4="14000.00000" pt_clust_5="37.99021" pt_clust_6="33.35475"></scales>
<clustering>
<clus scale="   33.355">  2  6  1 -1</clus>
<clus scale="   37.990">  1  5  2 -1</clus>
<clus scale="  110.584">  2  3  1 -1</clus>
<clus scale="   37.990">  1  3  2 -1</clus>
</clustering>
</event>
<event>
 6    0  0.4469832E+002  0.9929296E+02  0.7546771E-02  0.1281790E+00
         21   -1    0    0  506  501  0.00000000000E+00  0.00000000000E+00  0.15844286404E+04  0.15844286404E+04  0.00000000000E+00 0. -1.
         21   -1    0    0  503  502 -0.00000000000E+00 -0.00000000000E+00 -0.67332705311E+02  0.67332705311E+02  0.00000000000E+00 0.  1.
         21    1    1    2  503  504  0.39984949949E+02  0.32148057992E+02 -0.33808801353E+02  0.61443705162E+02  0.00000000000E+00 0.  1.
         21    1    1    2  504  505 -0.27918944214E+02 -0.58641309198E+02  0.68912643138E+02  0.94695422143E+02  0.00000000000E+00 0. -1.
         21    1    1    2  505  501  0.37290350019E+01  0.11315888799E+03  0.86142838861E+03  0.86883698606E+03  0.00000000000E+00 0. -1.
         21    1    1    2  506  502 -0.15795040737E+02 -0.86665636787E+02  0.62056370468E+03  0.62678523233E+03  0.00000000000E+00 0. -1.
<scales pt_clust_3="51.30589" pt_clust_4="37.65223" pt_clust_5="99.29296" pt_clust_6="14000.00000"></scales>
<clustering>
<clus scale="   51.306">  2  3  1 -1</clus>
<clus scale="   37.652">  2  4  1 -1</clus>
<clus scale="   99.293">  2  5  1 -1</clus>
<clus scale="   99.293">  1  3  2 -1</clus>
</clustering>
</event>
<event>
 6    0  0.4469832E+002  0.2255325E+03  0.7546771E-02  0.1129824E+00
         21   -1    0    0  504  501  0.00000000000E+00  0.00000000000E+00  0.12849899945E+03  0.12849899945E+03  0.00000000000E+00 0. -1.
         21   -1    0    0  506  502 -0.00000000000E+00 -0.00000000000E+00 -0.53761409675E+03  0.53761409675E+03  0.00000000000E+00 0. -1.
         21    1    1    2  503  505 -0.28542519820E+02 -0.50013966121E+02 -0.24164454885E+02  0.62449924938E+02  0.00000000000E+00 0. -1.
         21    1    1    2  504  502  0.15648080564E+03  0.16114514830E+03 -0.19960089860E+03  0.30049046586E+03  0.00000000000E+00 0. -1.
         21    1    1    2  505  501 -0.62555371398E+01 -0.34536857494E+02  0.28683556519E+02  0.45328497494E+02  0.00000000000E+00 0. -1.
         21    1    1    2  506  503 -0.12168274868E+03 -0.76594324680E+02 -0.21403330034E+03  0.25784420791E+03  0.00000000000E+00 0. -1.
<scales pt_clust_3="55.94775" pt_clust_4="208.83499" pt_clust_5="35.09881" pt_clust_6="55.94775"></scales>
<clustering>
<clus scale="   35.099">  1  5  2 -1</clus>
<clus scale="   55.948">  3  6 -1 -1</clus>
<clus scale="  208.835">  1  4  2 -1</clus>
<clus scale="   35.099">  1  3  2 -1</clus>
</clustering>
</event>
<event>
 6    0  0.4469832E+002  0.1395390E+03  0.7546771E-02  0.1213951E+00
         21   -1    0    0  504  501  0.00000000000E+00  0.00000000000E+00  0.74454522507E+03  0.74454522507E+03  0.00000000000E+00 0.  1.
         21   -1    0    0  506  502 -0.00000000000E+00 -0.00000000000E+00 -0.75903734602E+02  0.75903734602E+02  0.00000000000E+00 0.  1.
         21    1    1    2  503  505  0.60622467471E+02 -0.90481049261E+01 -0.45196602125E+01  0.61460386376E+02  0.00000000000E+00 0.  1.
         21    1    1    2  504  502  0.19310154863E+02 -0.37047380452E+02  0.40699810666E+02  0.58325509577E+02  0.00000000000E+00 0.  1.
         21    1    1    2  505  501 -0.99257538381E+02  0.89345215917E+02  0.63903330893E+03  0.65283856845E+03  0.00000000000E+00 0.  1.
         21    1    1    2  506  503  0.19324916047E+02 -0.43249730539E+02 -0.65719689195E+01  0.47824495266E+02  0.00000000000E+00 0.  1.
<scales pt_clust_3="47.97460" pt_clust_4="41.77787" pt_clust_5="129.52841" pt_clust_6="47.97460"></scales>
<clustering>
<clus scale="   41.778">  2  4  1 -1</clus>
<clus scale="   47.975">  3  6 -1 -1</clus>
<clus scale="  129.528">  1  5  2 -1</clus>
<clus scale="  129.528">  1  3  2 -1</clus>
</clustering>
</event>
<event>
 6    0  0.4469832E+002  0.1406093E+03  0.7546771E-02  0.1212511E+00
         21   -1    0    0  504  501  0.00000000000E+00  0.00000000000E+00  0.14806883952E+03  0.14806883952E+03  0.00000000000E+00 0.  1.
         21   -1    0    0  503  502 -0.00000000000E+00 -0.00000000000E+00 -0.22339442839E+04  0.22339442839E+04  0.00000000000E+00 0. -1.
         21    1    1    2  503  506  0.15088883470E+03  0.42533009860E+01 -0.20858244915E+04  0.20912793549E+04  0.00000000000E+00 0. -1.
         21    1    1    2  504  502 -0.45110436940E+02  0.51107554301E+02  0.96378525997E+02  0.11804979416E+03  0.00000000000E+00 0.  1.
         21    1    1    2  505  501 -0.24517727999E+02 -0.28636227145E+02  0.71265463117E+01  0.38365872252E+02  0.00000000000E+00 0.  1.
         21    1    1    2  506  505 -0.81260669759E+02 -0.26724628142E+02 -0.10355602528E+03  0.13431810217E+03  0.00000000000E+00 0. -1.
<scales pt_clust_3="140.60929" pt_clust_4="71.24139" pt_clust_5="37.69818" pt_clust_6="14000.00000"></scales>
<clustering>
<clus scale="   37.698">  1  5  2 -1</clus>
<clus scale="   71.241">  1  4  2 -1</clus>
<clus scale="  140.609">  2  3  1 -1</clus>
<clus scale="   37.698">  1  3  2 -1</clus>
</clustering>
</event>
<event>
 6    0  0.4469832E+002  0.9388482E+02  0.7546771E-02  0.1293708E+00
         21   -1    0    0  503  501  0.00000000000E+00  0.00000000000E+00  0.67019441525E+03  0.67019441525E+03  0.00000000000E+00 0.  1.
         21   -1    0    0  504  502 -0.00000000000E+00 -0.00000000000E+00 -0.15910255314E+03  0.15910255314E+03  0.00000000000E+00 0. -1.
         21    1    1    2  503  505  0.43905010651E+02  0.70361017500E+02  0.58779429134E+03  0.59361641796E+03  0.00000000000E+00 0.  1.
         21    1    1    2  504  501  0.51833383308E+02 -0.72349503036E+02 -0.94051608121E+02  0.12948689202E+03  0.00000000000E+00 0. -1.
         21    1    1    2  505  506 -0.56097398982E+02 -0.31514237701E+01 -0.10916836534E+02  0.57236587636E+02  0.00000000000E+00 0. -1.
         21    1    1    2  506  502 -0.39640994977E+02  0.51399093066E+01  0.28266015431E+02  0.48957070774E+02  0.00000000000E+00 0. -1.
<scales pt_clust_3="82.93565" pt_clust_4="83.71413" pt_clust_5="35.84797" pt_clust_6="35.84797"></scales>
<clustering>
<clus scale="   35.848">  5  6 -1 -1</clus>
<clus scale="   82.936">  1  3  2 -1</clus>
<clus scale="   83.714">  2  4  1 -1</clus>
<clus scale="   82.936">  1  3  2 -1</clus>
</clustering>
</event>
<event>
 6    0  0.4469832E+002  0.1316667E+03  0.7546771E-02  0.1225003E+00
         21   -1    0    0  505  501  0.00000000000E+00  0.00000000000E+00  0.41462047828E+03  0.41462047828E+03  0.00000000000E+00 0. -1.
         21   -1    0    0  503  502 -0.00000000000E+00 -0.00000000000E+00 -0.14559653685E+03  0.14559653685E+03  0.00000000000E+00 0.  1.
         21    1    1    2  503  506  0.40084564703E+02  0.44619540044E+02  0.49568624271E+02  0.77812108269E+02  0.00000000000E+00 0. -1.
         21    1    1    2  504  501 -0.21647211918E+02  0.23136629728E+02  0.19823439094E+03  0.20075053965E+03  0.00000000000E+00 0. -1.
         21    1    1    2  505  502 -0.72228280410E+02 -0.10502019464E+03 -0.87609214903E+02  0.15466589899E+03  0.00000000000E+00 0.  1.
         21    1    1    2  506  504  0.53790927625E+02  0.37264024872E+02  0.10883014112E+03  0.12698846822E+03  0.00000000000E+00 0. -1.
<scales pt_clust_3="35.49294" pt_clust_4="31.68447" pt_clust_5="126.49320" pt_clust_6="35.49294"></scales>
<clustering>
<clus scale="   31.684">  1  4  2 -1</clus>
<clus scale="   35.493">  3  6 -1 -1</clus>
<clus scale="  126.493">  2  5  1 -1</clus>
<clus scale="   31.684">  1  3  2 -1</clus>
</clustering>
</event>
<event>
 6    0  0.4469832E+002  0.8705974E+02  0.7546771E-02  0.1310132E+00
         21   -1    0    0  505  501  0.00000000000E+00  0.00000000000E+00  0.17529185940E+03  0.17529185940E+03  0.00000000000E+00 0.  1.
         21   -1    0    0  506  502 -0.00000000000E+00 -0.00000000000E+00 -0.36884551706E+03  0.36884551706E+03  0.00000000000E+00 0. -1.
         21    1    1    2  503  502 -0.26713643114E+02  0.45488790959E+02 -0.10246860301E+03  0.11525043789E+03  0.00000000000E+00 0. -1.
         21    1    1    2  504  501 -0.77711188623E+02 -0.24141533608E+02  0.10434420914E+03  0.13232368066E+03  0.00000000000E+00 0.  1.
         21    1    1    2  505  503 -0.54141515309E+02 -0.40512307482E+00 -0.89893402792E+02  0.10493946670E+03  0.00000000000E+00 0. -1.
         21    1    1    2  506  504  0.15856634705E+03 -0.20942134275E+02 -0.10553586099E+03  0.19162379121E+03  0.00000000000E+00 0. -1.
<scales pt_clust_3="52.75271" pt_clust_4="87.05974" pt_clust_5="66.27393" pt_clust_6="14000.00000"></scales>
<clustering>
<clus scale="   52.753">  2  3  1 -1</clus>
<clus scale="   66.274">  2  5  1 -1</clus>
<clus scale="   87.060">  1  4  2 -1</clus>
<clus scale="   87.060">  1  3  2 -1</clus>
</clustering>
</event>
<event>
 6    0  0.4469832E+002  0.1270404E+03  0.7546771E-02  0.1231915E+00
         21   -1    0    0  506  501  0.00000000000E+00  0.00000000000E+00  0.75237612710E+03  0.75237612710E+03  0.00000000000E+00 0.  1.
         21   -1    0    0  503  502 -0.00000000000E+00 -0.00000000000E+00 -0.63759668539E+03  0.63759668539E+03  0.00000000000E+00 0.  1.
         21    1    1    2  503  504  0.16182334530E+02 -0.61106335240E+02 -0.60749385904E+02  0.87671774506E+02  0.00000000000E+00 0.  1.
         21    1    1    2  504  501 -0.12612810996E+03  0.40162542522E+02  0.42477982605E+03  0.44492609562E+03  0.00000000000E+00 0.  1.
         21    1    1    2  505  502  0.82009229564E+02 -0.21644249386E+02 -0.54789375457E+03  0.55442001548E+03  0.00000000000E+00 0.  1.
         21    1    1    2  506  505  0.27936545870E+02  0.42588042104E+02  0.29864275613E+03  0.30295492687E+03  0.00000000000E+00 0.  1.
<scales pt_clust_3="62.20899" pt_clust_4="127.04036" pt_clust_5="14000.00000" pt_clust_6="50.93321"></scales>
<clustering>
<clus scale="   50.933">  1  6  2 -1</clus>
<clus scale="   62.209">  2  3  1 -1</clus>
<clus scale="  127.040">  1  4  2 -1</clus>
<clus scale="   50.933">  1  3  2 -1</clus>
</clustering>
</event>
<event>
 6    0  0.4469832E+002  0.1279819E+03  0.7546771E-02  0.1230481E+00
         21   -1    0    0  505  501  0.00000000000E+00  0.00000000000E+00  0.40147661300E+02  0.40147661300E+02  0.00000000000E+00 0.  1.
         21   -1    0    0  506  502 -0.00000000000E+00 -0.00000000000E+00 -0.55339385323E+03  0.55339385323E+03  0.00000000000E+00 0.  1.
         21    1    1    2  503  504  0.35165118422E+01  0.68750143055E+02 -0.13402768316E+03  0.15067304961E+03  0.00000000000E+00 0.  1.
         21    1    1    2  504  502 -0.30184409686E+01 -0.12329357594E+03 -0.23822241319E+03  0.26825423575E+03  0.00000000000E+00 0.  1.
         21    1    1    2  505  503  0.32222109098E+02  0.52759162796E+02 -0.12191887230E+03  0.13669676294E+03  0.00000000000E+00 0.  1.
         21    1    1    2  506  501 -0.32720179972E+02  0.17842700935E+01 -0.19077223280E+02  0.37917466229E+02  0.00000000000E+00 0.  1.
<scales pt_clust_3="30.42830" pt_clust_4="123.88852" pt_clust_5="30.42830" pt_clust_6="32.76879"></scales>
<clustering>
<clus scale="   30.428">  3  5 -1 -1</clus>
<clus scale="   32.769">  1  6  2 -1</clus>
<clus scale="  123.889">  2  4  1 -1</clus>
<clus scale="   32.769">  1  3  2 -1</clus>
</clustering>
</event>
<event>
 6    0  0.4469832E+002  0.9727808E+02  0.7546771E-02  0.1286126E+00
         21   -1    0    0  503  501  0.00000000000E+00  0.00000000000E+00  0.69625342046E+03  0.69625342046E+03  0.00000000000E+00 0.  1.
         21   -1    0    0  506  502 -0.00000000000E+00 -0.00000000000E+00 -0.38725108311E+02  0.38725108311E+02  0.00000000000E+00 0.  1.
         21    1    1    2  503  505 -0.32204119930E+02 -0.35946674664E+02  0.17364967840E+03  0.18023173851E+03  0.00000000000E+00 0. -1.
         21    1    1    2  504  501  0.99013707476E+02 -0.18412843903E+02  0.31688988179E+03  0.33250856270E+03  0.00000000000E+00 0.  1.
         21    1    1    2  505  502 -0.94138035535E+02  0.67763178591E+02  0.13702230288E+03  0.17952417551E+03  0.00000000000E+00 0.  1.
         21    1    1    2  506  504  0.27328447989E+02 -0.13403660023E+02  0.29966449086E+02  0.42714052048E+02  0.00000000000E+00 0.  1.
<scales pt_clust_3="47.51659" pt_clust_4="14000.00000" pt_clust_5="97.27808" pt_clust_6="30.43850"></scales>
<clustering>
<clus scale="   30.438">  2  6  1 -1</clus>
<clus scale="   47.517">  1  3  2 -1</clus>
<clus scale="   97.278">  2  5  1 -1</clus>
<clus scale="   47.517">  1  3  2 -1</clus>
</clustering>
</event>
<event>
 6    0  0.4469832E+002  0.1054200E+03  0.7546771E-02  0.1269294E+00
         21   -1    0    0  503  501  0.00000000000E+00  0.00000000000E+00  0.46283389872E+02  0.46283389872E+02  0.00000000000E+00 0. -1.
         21   -1    0    0  504  502 -0.00000000000E+00 -0.00000000000E+00 -0.69580345677E+03  0.69580345677E+03  0.00000000000E+00 0. -1.
         21    1    1    2  503  505  0.19248582366E+02 -0.10275933317E+03 -0.79198372798E+02  0.13115780850E+03  0.00000000000E+00 0. -1.
         21    1    1    2  504  506 -0.18581025885E+02  0.34134450192E+02 -0.16432453807E+03  0.16885783673E+03  0.00000000000E+00 0.  1.
         21    1    1    2  505  502  0.35519326120E+02  0.11184251726E+03 -0.24911379178E+03  0.27536893879E+03  0.00000000000E+00 0. -1.
         21    1    1    2  506  501 -0.36186882601E+02 -0.43217634279E+02 -0.15688336425E+03  0.16670226263E+03  0.00000000000E+00 0. -1.
<scales pt_clust_3="14000.00000" pt_clust_4="38.86406" pt_clust_5="105.41999" pt_clust_6="53.17467"></scales>
<clustering>
<clus scale="   38.864">  2  4  1 -1</clus>
<clus scale="   53.175">  2  6  1 -1</clus>
<clus scale="  105.420">  2  5  1 -1</clus>
<clus scale="  105.420">  1  3  2 -1</clus>
</clustering>
</event>
<event>
 6    0  0.4469832E+002  0.1642199E+03  0.7546771E-02  0.1184013E+00
         21   -1    0    0  506  501  0.00000000000E+00  0.00000000000E+00  0.11908036689E+03  0.11908036689E+03  0.00000000000E+00 0. -1.
         21   -1    0    0  504  502 -0.00000000000E+00 -0.00000000000E+00 -0.49219006727E+03  0.49219006727E+03  0.00000000000E+00 0.  1.
         21    1    1    2  503  501 -0.25662566006E+02  0.17138720167E+02 -0.45122687207E+01  0.31187555082E+02  0.00000000000E+00 0.  1.
         21    1    1    2  504  505 -0.52337920962E+02 -0.29213632140E+02 -0.10007545183E+03  0.11665243389E+03  0.00000000000E+00 0.  1.
         21    1    1    2  505  503 -0.93405371998E+02 -0.28352893766E+02 -0.27022296137E+03  0.28731324188E+03  0.00000000000E+00 0.  1.
         21    1    1    2  506  502  0.17140585897E+03  0.40427805739E+02  0.17009815456E+01  0.17611720331E+03  0.00000000000E+00 0. -1.
<scales pt_clust_3="30.85941" pt_clust_4="30.47363" pt_clust_5="30.47363" pt_clust_6="159.54886"></scales>
<clustering>
<clus scale="   30.474">  4  5 -1 -1</clus>
<clus scale="   30.859">  1  3  2 -1</clus>
<clus scale="  159.549">  1  6  2 -1</clus>
<clus scale="   30.859">  1  3  2 -1</clus>
</clustering>
</event>
<event>
 6    0  0.4469832E+002  0.1916163E+03  0.7546771E-02  0.1157012E+00
         21   -1    0    0  505  501  0.00000000000E+00  0.00000000000E+00  0.95375884950E+03  0.95375884950E+03  0.00000000000E+00 0.  1.
         21   -1    0    0  506  502 -0.00000000000E+00 -0.00000000000E+00 -0.51419562446E+02  0.51419562446E+02  0.00000000000E+00 0.  1.
         21    1    1    2  503  502 -0.78422020396E+01  0.76525376842E+02  0.60532635127E+02  0.97886839509E+02  0.00000000000E+00 0.  1.
         21    1    1    2  504  503  0.27026616317E+02  0.10445610892E+03  0.17253919335E+03  0.20349764108E+03  0.00000000000E+00 0.  1.
         21    1    1    2  505  504 -0.29845726563E+02  0.40940235973E+01  0.13362602602E+03  0.13697971840E+03  0.00000000000E+00 0.  1.
         21    1    1    2  506  501  0.10661312286E+02 -0.18507550936E+03  0.53564143256E+03  0.56681421296E+03  0.00000000000E+00 0.  1.
<scales pt_clust_3="49.51721" pt_clust_4="49.51721" pt_clust_5="30.12521" pt_clust_6="182.56241"></scales>
<clustering>
<clus scale="   30.125">  1  5  2 -1</clus>
<clus scale="   49.517">  3  4 -1 -1</clus>
<clus scale="  182.562">  1  6  2 -1</clus>
<clus scale="   30.125">  1  3  2 -1</clus>
</clustering>
</event>
<event>
 6    0  0.4469832E+002  0.9432171E+02  0.7546771E-02  0.1292711E+00
         21   -1    0    0  503  501  0.00000000000E+00  0.00000000000E+00  0.14657685631E+04  0.14657685631E+04  0.00000000000E+00 0.  1.
         21   -1    0    0  505  502 -0.00000000000E+00 -0.00000000000E+00 -0.31043334789E+02  0.31043334789E+02  0.00000000000E+00 0. -1.
         21    1    1    2  503  502 -0.99362769004E+02 -0.68772187140E+02  0.87556117795E+03  0.88386082045E+03  0.00000000000E+00 0.  1.
         21    1    1    2  504  506  0.35937557018E+02  0.31679572166E+02  0.43018509427E+02  0.64387075182E+02  0.00000000000E+00 0. -1.
         21    1    1    2  505  504  0.40514799489E+02  0.28173663636E+01  0.11461647452E+02  0.42199003462E+02  0.00000000000E+00 0. -1.
         21    1    1    2  506  501  0.22910412496E+02  0.34275248610E+02  0.50468389350E+03  0.50636499882E+03  0.00000000000E+00 0. -1.
<scales pt_clust_3="86.82788" pt_clust_4="33.92349" pt_clust_5="33.92349" pt_clust_6="41.22717"></scales>
<clustering>
<clus scale="   33.923">  4  5 -1 -1</clus>
<clus scale="   41.227">  1  6  2 -1</clus>
<clus scale="   86.828">  1  3  2 -1</clus>
<clus scale="   41.227">  1  3  2 -1</clus>
</clustering>
</event>
<event>
 6    0  0.4469832E+002  0.7846068E+02  0.7546771E-02  0.1333477E+00
         21   -1    0    0  504  501  0.00000000000E+00  0.00000000000E+00  0.35231192935E+02  0.35231192935E+02  0.00000000000E+00 0.  1.
         21   -1    0    0  505  502 -0.00000000000E+00 -0.00000000000E+00 -0.11610602806E+04  0.11610602806E+04  0.00000000000E+00 0.  1.
         21    1    1    2  503  501  0.81842398758E+02 -0.39953583646E+02 -0.53104867463E+03  0.53880159790E+03  0.00000000000E+00 0.  1.
         21    1    1    2  504  506  0.10668635676E+02  0.69577427391E+02 -0.23814501493E+02  0.74309950013E+02  0.00000000000E+00 0.  1.
         21    1    1    2  505  503 -0.21351745632E+02 -0.29545369935E+02 -0.32766155725E+03  0.32968306299E+03  0.00000000000E+00 0.  1.
         21    1    1    2  506  502 -0.71159288801E+02 -0.78473810640E-01 -0.24330435429E+03  0.25349686262E+03  0.00000000000E+00 0.  1.
<scales pt_clust_3="78.46068" pt_clust_4="68.48555" pt_clust_5="36.45306" pt_clust_6="14000.00000"></scales>
<clustering>
<clus scale="   36.453">  2  5  1 -1</clus>
<clus scale="   68.486">  1  4  2 -1</clus>
<clus scale="   78.461">  2  3  1 -1</clus>
<clus scale="   68.486">  1  3  2 -1</clus>
</clustering>
</event>
<event>
 6    0  0.4469832E+002  0.1082025E+03  0.7546771E-02  0.1263935E+00
         21   -1    0    0  504  501  0.00000000000E+00  0.00000000000E+00  0.14000462798E+04  0.14000462798E+04  0.00000000000E+00 0.  1.
         21   -1    0    0  505  502 -0.00000000000E+00 -0.00000000000E+00 -0.13289967240E+03  0.13289967240E+03  0.00000000000E+00 0.  1.
         21    1    1    2  503  502  0.38763744063E+02 -0.26183444455E+02 -0.12484384461E+02  0.48415498270E+02  0.00000000000E+00 0.  1.
         21    1    1    2  504  506 -0.92774277310E+02 -0.21775094530E+02  0.13152934906E+04  0.13187411374E+04  0.00000000000E+00 0.  1.
         21    1    1    2  505  501 -0.86778592180E+01  0.57263635413E+02 -0.72259730771E+02  0.92606143816E+02  0.00000000000E+00 0.  1.
         21    1    1    2  506  503  0.62688392464E+02 -0.93050964274E+01  0.36597232105E+02  0.73183172704E+02  0.00000000000E+00 0.  1.
<scales pt_clust_3="44.25039" pt_clust_4="95.15750" pt_clust_5="57.91743" pt_clust_6="44.25039"></scales>
<clustering>
<clus scale="   44.250">  3  6 -1 -1</clus>
<clus scale="   57.917">  2  5  1 -1</clus>
<clus scale="   95.158">  1  4  2 -1</clus>
<clus scale="   95.158">  1  3  2 -1</clus>
</clustering>
</event>
<event>
 6    0  0.4469832E+002  0.6987474E+02  0.7546771E-02  0.1360520E+00
         21   -1    0    0  504  501  0.00000000000E+00  0.00000000000E+00  0.14386200846E+03  0.14386200846E+03  0.00000000000E+00 0. -1.
         21   -1    0    0  503  502 -0.00000000000E+00 -0.00000000000E+00 -0.43560454390E+03  0.43560454390E+03  0.00000000000E+00 0. -1.
         21    1    1    2  503  505 -0.95781161502E+01 -0.28971173297E+02 -0.17575217089E+03  0.17838131842E+03  0.00000000000E+00 0. -1.
         21    1    1    2  504  506  0.10486376355E+03 -0.90504915529E+01  0.46864163732E+02  0.11521532079E+03  0.00000000000E+00 0. -1.
         21    1    1    2  505  501 -0.47384265808E+02 -0.24031149262E+02  0.41228082302E+02  0.67249680678E+02  0.00000000000E+00 0. -1.
         21    1    1    2  506  502 -0.47901381592E+02  0.62052814112E+02 -0.20408261059E+03  0.21862023247E+03  0.00000000000E+00 0. -1.
<scales pt_clust_3="30.51343" pt_clust_4="69.87474" pt_clust_5="54.22984" pt_clust_6="14000.00000"></scales>
<clustering>
<clus scale="   30.513">  2  3  1 -1</clus>
<clus scale="   54.230">  1  5  2 -1</clus>
<clus scale="   69.875">  1  4  2 -1</clus>
<clus scale="   54.230">  1  3  2 -1</clus>
</clustering>
</event>
<event>
 6    0  0.4469832E+002  0.5915284E+02  0.7546771E-02  0.1401422E+00
         21   -1    0    0  503  501  0.00000000000E+00  0.00000000000E+00  0.15549612940E+03  0.15549612940E+03  0.00000000000E+00 0. -1.
         21   -1    0    0  505  502 -0.00000000000E+00 -0.00000000000E+00 -0.16665172901E+04  0.16665172901E+04  0.00000000000E+00 0.  1.
         21    1    1    2  503  504  0.73454089024E+02 -0.60163332453E+02  0.11662493702E+03  0.15038785091E+03  0.00000000000E+00 0. -1.
         21    1    1    2  504  502 -0.33690830398E+02 -0.33144429071E+02 -0.74854011901E+02  0.88525410640E+02  0.00000000000E+00 0.  1.
         21    1    1    2  505  506  0.51991051660E+01  0.82586250776E+02 -0.15287695773E+04  0.15310074918E+04  0.00000000000E+00 0.  1.
         21    1    1    2  506  501 -0.44962363792E+02  0.10721510748E+02 -0.24022508546E+02  0.52092666157E+02  0.00000000000E+00 0.  1.
<scales pt_clust_3="59.15284" pt_clust_4="48.48370" pt_clust_5="14000.00000" pt_clust_6="46.22299"></scales>
<clustering>
<clus scale="   46.223">  1  6  2 -1</clus>
<clus scale="   48.484">  2  4  1 -1</clus>
<clus scale="   59.153">  1  3  2 -1</clus>
<clus scale="   46.223">  1  3  2 -1</clus>
</clustering>
</event>
<event>
 6    0  0.4469832E+002  0.1602142E+03  0.7546771E-02  0.1188455E+00
         21   -1    0    0  506  501  0.00000000000E+00  0.00000000000E+00  0.53706230044E+03  0.53706230044E+03  0.00000000000E+00 0. -1.
         21   -1    0    0  504  502 -0.00000000000E+00 -0.00000000000E+00 -0.19221896793E+03  0.19221896793E+03  0.00000000000E+00 0.  1.
         21    1    1    2  503  501  0.11959347493E+03 -0.77031351622E+02  0.33280825227E+03  0.36193612856E+03  0.00000000000E+00 0. -1.
         21    1    1    2  504  503  0.17677060202E+02  0.46384535949E+02 -0.20791421698E+02  0.53817161286E+02  0.00000000000E+00 0. -1.
         21    1    1    2  505  502 -0.11695849462E+03  0.90810919346E+02 -0.91401087399E+02  0.17401169879E+03  0.00000000000E+00 0.  1.
         21    1    1    2  506  505 -0.20312040511E+02 -0.60164103673E+02  0.12422758934E+03  0.13951627975E+03  0.00000000000E+00 0.  1.
<scales pt_clust_3="14000.00000" pt_clust_4="49.63873" pt_clust_5="160.21421" pt_clust_6="61.05282"></scales>
<clustering>
<clus scale="   49.639">  2  4  1 -1</clus>
<clus scale="   61.053">  1  6  2 -1</clus>
<clus scale="  160.214">  2  5  1 -1</clus>
<clus scale="   61.053">  1  3  2 -1</clus>
</clustering>
</event>
<event>
 6    0  0.4469832E+002  0.1700901E+03  0.7546771E-02  0.1177754E+00
         21   -1    0    0  504  501  0.00000000000E+00  0.00000000000E+00  0.35776670131E+03  0.35776670131E+03  0.00000000000E+00 0. -1.
         21   -1    0    0  503  502 -0.00000000000E+00 -0.00000000000E+00 -0.18072284775E+04  0.18072284775E+04  0.00000000000E+00 0.  1.
         21    1    1    2  503  505  0.81000672897E+02 -0.14475193225E+03 -0.10281990214E+03  0.19515676564E+03  0.00000000000E+00 0. -1.
         21    1    1    2  504  506 -0.32830918912E+02  0.11956274943E+03 -0.61998342492E+03  0.63225988918E+03  0.00000000000E+00 0.  1.
         21    1    1    2  505  501 -0.34508488268E+02 -0.40188887068E+02  0.30207240105E+03  0.30668178603E+03  0.00000000000E+00 0. -1.
         21    1    1    2  506  502 -0.13661265717E+02  0.65378069885E+02 -0.10287308502E+04  0.10308967379E+04  0.00000000000E+00 0.  1.
<scales pt_clust_3="14000.00000" pt_clust_4="170.09011" pt_clust_5="52.97152" pt_clust_6="66.14084"></scales>
<clustering>
<clus scale="   52.972">  1  5  2 -1</clus>
<clus scale="   66.141">  2  6  1 -1</clus>
<clus scale="  170.090">  2  4  1 -1</clus>
<clus scale="   52.972">  1  3  2 -1</clus>
</clustering>
</event>
<event>
 6    0  0.4469832E+002  0.8791272E+02  0.7546771E-02  0.1307987E+00
         21   -1    0    0  505  501  0.00000000000E+00  0.00000000000E+00  0.79660431391E+02  0.79660431391E+02  0.00000000000E+00 0.  1.
         21   -1    0    0  503  502 -0.00000000000E+00 -0.00000000000E+00 -0.25870606199E+04  0.25870606199E+04  0.00000000000E+00 0.  1.
         21    1    1    2  503  504  0.27121047817E+02 -0.26871985730E+02 -0.41346176143E+03  0.41522076420E+03  0.00000000000E+00 0.  1.
         21    1    1    2  504  506  0.16511898295E+02 -0.45659645733E+02 -0.19013125289E+04  0.19019323801E+04  0.00000000000E+00 0.  1.
         21    1    1    2  505  502 -0.96564196362E+02 -0.18041903525E+01 -0.23114869092E+03  0.25051470303E+03  0.00000000000E+00 0.  1.
         21    1    1    2  506  501  0.52931250250E+02  0.74335821815E+02  0.38522792710E+02  0.99053203967E+02  0.00000000000E+00 0.  1.
<scales pt_clust_3="38.17925" pt_clust_4="80.03547" pt_clust_5="87.91272" pt_clust_6="14000.00000"></scales>
<clustering>
<clus scale="   38.179">  2  3  1 -1</clus>
<clus scale="   80.035">  2  4  1 -1</clus>
<clus scale="   87.913">  2  5  1 -1</clus>
<clus scale="   87.913">  1  3  2 -1</clus>
</clustering>
</event>
<event>
 6    0  0.4469832E+002  0.1812434E+03  0.7546771E-02  0.1166605E+00
         21   -1    0    0  503  501  0.00000000000E+00  0.00000000000E+00  0.25321868664E+03  0.25321868664E+03  0.00000000000E+00 0.  1.
         21   -1    0    0  504  502 -0.00000000000E+00 -0.00000000000E+00 -0.33314737988E+03  0.33314737988E+03  0.00000000000E+00 0.  1.
         21    1    1    2  503  506 -0.26331692041E+02 -0.92735193191E+02 -0.85544174554E+02  0.12888359035E+03  0.00000000000E+00 0. -1.
         21    1    1    2  504  505 -0.20475326714E+02  0.17621409784E+03  0.35518316388E+02  0.18092041919E+03  0.00000000000E+00 0.  1.
         21    1    1    2  505  501  0.45658841755E+02 -0.45039097458E+01  0.10816810210E+03  0.11749618439E+03  0.00000000000E+00 0.  1.
         21    1    1    2  506  502  0.11481770004E+01 -0.78974994899E+02 -0.13807093717E+03  0.15906587259E+03  0.00000000000E+00 0.  1.
<scales pt_clust_3="48.22325" pt_clust_4="173.36835" pt_clust_5="45.88044" pt_clust_6="48.22325"></scales>
<clustering>
<clus scale="   45.880">  1  5  2 -1</clus>
<clus scale="   48.223">  3  6 -1 -1</clus>
<clus scale="  173.368">  1  4  2 -1</clus>
<clus scale="   45.880">  1  3  2 -1</clus>
</clustering>
</event>
<event>
 6    0  0.4469832E+002  0.1356413E+03  0.7546771E-02  0.1219317E+00
         21   -1    0    0  504  501  0.00000000000E+00  0.00000000000E+00  0.14831311934E+03  0.14831311934E+03  0.00000000000E+00 0. -1.
         21   -1    0    0  506  502 -0.00000000000E+00 -0.00000000000E+00 -0.27293101916E+03  0.27293101916E+03  0.00000000000E+00 0. -1.
         21    1    1    2  503  501  0.26780417809E+01  0.58008845846E+02 -0.35371046466E+02  0.67994919165E+02  0.00000000000E+00 0. -1.
         21    1    1    2  504  505  0.11519657197E+01  0.50563410040E+02  0.38171403157E+02  0.63364354955E+02  0.00000000000E+00 0. -1.
         21    1    1    2  505  502  0.27663504741E+01 -0.16390703286E+03 -0.15252165414E+02  0.16463838151E+03  0.00000000000E+00 0. -1.
         21    1    1    2  506  503 -0.65963579747E+01  0.55334776972E+02 -0.11216609109E+03  0.12524648288E+03  0.00000000000E+00 0. -1.
<scales pt_clust_3="49.08646" pt_clust_4="50.57653" pt_clust_5="125.24237" pt_clust_6="49.08646"></scales>
<clustering>
<clus scale="   50.577">  1  4  2 -1</clus>
<clus scale="   49.086">  3  6 -1 -1</clus>
<clus scale="  125.242">  1  5  2 -1</clus>
<clus scale="   50.577">  1  3  2 -1</clus>
</clustering>
</event>
<event>
 6    0  0.4469832E+002  0.8143643E+02  0.7546771E-02  0.1325024E+00
         21   -1    0    0  506  501  0.00000000000E+00  0.00000000000E+00  0.18379430119E+03  0.18379430119E+03  0.00000000000E+00 0. -1.
         21   -1    0    0  504  502 -0.00000000000E+00 -0.00000000000E+00 -0.88842831194E+03  0.88842831194E+03  0.00000000000E+00 0.  1.
         21    1    1    2  503  502 -0.82551948710E+02  0.77271907506E+02 -0.55524079875E+03  0.56663755304E+03  0.00000000000E+00 0.  1.
         21    1    1    2  504  505  0.11460516490E+02 -0.66751663758E+02 -0.29721563310E+03  0.30483480872E+03  0.00000000000E+00 0.  1.
         21    1    1    2  505  501  0.42899981211E+02 -0.25220370844E+02  0.22233162162E+00  0.49764695566E+02  0.00000000000E+00 0. -1.
         21    1    1    2  506  503  0.28191451008E+02  0.14700127096E+02  0.14760008947E+03  0.15098555580E+03  0.00000000000E+00 0. -1.
<scales pt_clust_3="14000.00000" pt_clust_4="81.43643" pt_clust_5="64.97730" pt_clust_6="31.79389"></scales>
<clustering>
<clus scale="   31.794">  1  6  2 -1</clus>
<clus scale="   64.977">  1  5  2 -1</clus>
<clus scale="   81.436">  2  4  1 -1</clus>
<clus scale="   31.794">  1  3  2 -1</clus>
</clustering>
</event>
<event>
 6    0  0.4469832E+002  0.8116420E+02  0.7546771E-02  0.1325780E+00
         21   -1    0    0  506  501  0.00000000000E+00  0.00000000000E+00  0.59961327876E+02  0.59961327876E+02  0.00000000000E+00 0. -1.
         21   -1    0    0  503  502 -0.00000000000E+00 -0.00000000000E+00 -0.79803812358E+03  0.79803812358E+03  0.00000000000E+00 0. -1.
         21    1    1    2  503  504 -0.51508746975E+02 -0.50254864426E+01 -0.35659609811E+03  0.36033204647E+03  0.00000000000E+00 0. -1.
         21    1    1    2  504  501  0.64768835688E+02 -0.10109657688E+03 -0.28657148084E+03  0.31070682896E+03  0.00000000000E+00 0. -1.
         21    1    1    2  505  502  0.53390426209E+01  0.31063651319E+02 -0.10439784416E+03  0.10905212366E+03  0.00000000000E+00 0. -1.
         21    1    1    2  506  505 -0.18599131334E+02  0.75058412007E+02  0.94886274037E+01  0.77908452361E+02  0.00000000000E+00 0. -1.
<scales pt_clust_3="49.98425" pt_clust_4="81.16420" pt_clust_5="31.51913" pt_clust_6="14000.00000"></scales>
<clustering>
<clus scale="   31.519">  2  5  1 -1</clus>
<clus scale="   49.984">  2  3  1 -1</clus>
<clus scale="   81.164">  2  4  1 -1</clus>
<clus scale="   81.164">  1  3  2 -1</clus>
</clustering>
</event>
<event>
 6    0  0.4469832E+002  0.1757117E+03  0.7546771E-02  0.1172019E+00
         21   -1    0    0  504  501  0.00000000000E+00  0.00000000000E+00  0.82064628708E+02  0.82064628708E+02  0.00000000000E+00 0. -1.
         21   -1    0    0  505  502 -0.00000000000E+00 -0.00000000000E+00 -0.11062558565E+04  0.11062558565E+04  0.00000000000E+00 0. -1.
         21    1    1    2  503  506  0.71094271887E+02 -0.38798419571E+02 -0.58503795530E+03  0.59061757677E+03  0.00000000000E+00 0. -1.
         21    1    1    2  504  502  0.46446097828E+02  0.41739820554E+01  0.23751172645E+02  0.52333357733E+02  0.00000000000E+00 0.  1.
         21    1    1    2  505  503  0.40896610099E+02 -0.65266691668E+02 -0.25101760946E+03  0.26256830353E+03  0.00000000000E+00 0. -1.
         21    1    1    2  506  501 -0.15843697981E+03  0.99891129183E+02 -0.21188683564E+03  0.28280124713E+03  0.00000000000E+00 0. -1.
<scales pt_clust_3="73.02912" pt_clust_4="46.63327" pt_clust_5="73.02912" pt_clust_6="159.08760"></scales>
<clustering>
<clus scale="   46.633">  1  4  2 -1</clus>
<clus scale="   73.029">  3  5 -1 -1</clus>
<clus scale="  159.088">  1  6  2 -1</clus>
<clus scale="   46.633">  1  3  2 -1</clus>
</clustering>
</event>
<event>
 6    0  0.4469832E+002  0.1260884E+03  0.7546771E-02  0.1233378E+00
         21   -1    0    0  505  501  0.00000000000E+00  0.00000000000E+00  0.24050859875E+03  0.24050859875E+03  0.00000000000E+00 0.  1.
         21   -1    0    0  503  502 -0.00000000000E+00 -0.00000000000E+00 -0.53065353763E+03  0.53065353763E+03  0.00000000000E+00 0.  1.
         21    1    1    2  503  506 -0.48010641180E+02  0.49956550070E+02 -0.34343894152E+03  0.35035836670E+03  0.00000000000E+00 0.  1.
         21    1    1    2  504  502 -0.25846986201E+02  0.56377612096E+02 -0.87777362824E+02  0.10747728721E+03  0.00000000000E+00 0.  1.
         21    1    1    2  505  504 -0.30515417840E+02  0.29958411892E+02  0.13493630497E+03  0.14155035701E+03  0.00000000000E+00 0.  1.
         21    1    1    2  506  501  0.10437304522E+03 -0.13629257406E+03  0.61350605008E+01  0.17177612546E+03  0.00000000000E+00 0.  1.
<scales pt_clust_3="14000.00000" pt_clust_4="65.88447" pt_clust_5="42.76327" pt_clust_6="126.08841"></scales>
<clustering>
<clus scale="   42.763">  1  5  2 -1</clus>
<clus scale="   65.884">  2  4  1 -1</clus>
<clus scale="  126.088">  1  6  2 -1</clus>
<clus scale="   42.763">  1  3  2 -1</clus>
</clustering>
</event>
<event>
 6    0  0.4469832E+002  0.9377214E+02  0.7546771E-02  0.1293966E+00
         21   -1    0    0  503  501  0.00000000000E+00  0.00000000000E+00  0.16293739361E+03  0.16293739361E+03  0.00000000000E+00 0.  1.
         21   -1    0    0  505  502 -0.00000000000E+00 -0.00000000000E+00 -0.43207830503E+03  0.43207830503E+03  0.00000000000E+00 0.  1.
         21    1    1    2  503  504 -0.22323078919E+02 -0.39396262120E+02  0.12407256517E+03  0.13207719996E+03  0.00000000000E+00 0.  1.
         21    1    1    2  504  506 -0.11531318569E+02  0.10051255576E+03 -0.21285697051E+03  0.23567739618E+03  0.00000000000E+00 0.  1.
         21    1    1    2  505  501  0.75281916482E+02 -0.60909095185E+02 -0.12522404130E+03  0.15829827967E+03  0.00000000000E+00 0.  1.
         21    1    1    2  506  502 -0.41427518994E+02 -0.20719845461E+00 -0.55132464771E+02  0.68962822832E+02  0.00000000000E+00 0.  1.
<scales pt_clust_3="45.50569" pt_clust_4="93.77214" pt_clust_5="14000.00000" pt_clust_6="41.42804"></scales>
<clustering>
<clus scale="   41.428">  2  6  1 -1</clus>
<clus scale="   45.506">  1  3  2 -1</clus>
<clus scale="   93.772">  2  4  1 -1</clus>
<clus scale="   45.506">  1  3  2 -1</clus>
</clustering>
</event>
<event>
 6    0  0.4469832E+002  0.1610291E+03  0.7546771E-02  0.1187540E+00
         21   -1    0    0  504  501  0.00000000000E+00  0.00000000000E+00  0.54415168045E+03  0.54415168045E+03  0.00000000000E+00 0.  1.
         21   -1    0    0  503  502 -0.00000000000E+00 -0.00000000000E+00 -0.11044798222E+03  0.11044798222E+03  0.00000000000E+00 0.  1.
         21    1    1    2  503  501  0.13680367999E+03  0.41696464828E+02 -0.33992658045E+01  0.14305732084E+03  0.00000000000E+00 0.  1.
         21    1    1    2  504  505  0.39485063393E+02 -0.88089096090E+01  0.22278817367E+03  0.22643152927E+03  0.00000000000E+00 0.  1.
         21    1    1    2  505  506 -0.13110369721E+03 -0.12153766182E+00  0.13559164880E+03  0.18860882646E+03  0.00000000000E+00 0.  1.
         21    1    1    2  506  502 -0.45185046170E+02 -0.32766017557E+02  0.78723141560E+02  0.96501986099E+02  0.00000000000E+00 0.  1.
<scales pt_clust_3="150.77242" pt_clust_4="40.45574" pt_clust_5="36.89852" pt_clust_6="36.89852"></scales>
<clustering>
<clus scale="   36.899">  5  6 -1 -1</clus>
<clus scale="   40.456">  1  4  2 -1</clus>
<clus scale="  150.772">  2  3  1 -1</clus>
<clus scale="   40.456">  1  3  2 -1</clus>
</clustering>
</event>
<event>
 6    0  0.4469832E+002  0.1281289E+03  0.7546771E-02  0.1230259E+00
         21   -1    0    0  502  501  0.00000000000E+00  0.00000000000E+00  0.30251360938E+03  0.30251360938E+03  0.00000000000E+00 0.  1.
         21   -1    0    0  506  502 -0.00000000000E+00 -0.00000000000E+00 -0.74930434716E+03  0.74930434716E+03  0.00000000000E+00 0.  1.
         21    1    1    2  503  501 -0.13353796313E+03  0.74245098627E+02  0.18430517392E+03  0.23940158605E+03  0.00000000000E+00 0.  1.
         21    1    1    2  504  503  0.10931708709E+03  0.12003871357E+02  0.51176640392E+02  0.12129866850E+03  0.00000000000E+00 0. -1.
         21    1    1    2  505  504  0.34901119277E+01 -0.51388251352E+02 -0.55848133371E+03  0.56085143609E+03  0.00000000000E+00 0.  1.
         21    1    1    2  506  505  0.20730764113E+02 -0.34860718631E+02 -0.12379121838E+03  0.13026626590E+03  0.00000000000E+00 0. -1.
<scales pt_clust_3="128.12893" pt_clust_4="14000.00000" pt_clust_5="85.65116" pt_clust_6="40.55902"></scales>
<clustering>
<clus scale="   40.559">  2  6  1 -1</clus>
<clus scale="   85.651">  2  5  1 -1</clus>
<clus scale="  128.129">  1  3  2 -1</clus>
<clus scale="  128.129">  1  3  2 -1</clus>
</clustering>
</event>
<event>
 6    0  0.4469832E+002  0.2149381E+03  0.7546771E-02  0.1137714E+00
         21   -1    0    0  503  501  0.00000000000E+00  0.00000000000E+00  0.70269049365E+03  0.70269049365E+03  0.00000000000E+00 0.  1.
         21   -1    0    0  506  502 -0.00000000000E+00 -0.00000000000E+00 -0.21787183194E+03  0.21787183194E+03  0.00000000000E+00 0.  1.
         21    1    1    2  503  504  0.32277498023E+02  0.22764780269E+02  0.14044319783E+02  0.41920341333E+02  0.00000000000E+00 0. -1.
         21    1    1    2  504  502  0.10170572742E+03  0.10916214551E+03 -0.63067685750E+02  0.16198136309E+03  0.00000000000E+00 0.  1.
         21    1    1    2  505  501  0.10973214939E+03 -0.24984791829E+02  0.40617576085E+03  0.42147850851E+03  0.00000000000E+00 0.  1.
         21    1    1    2  506  505 -0.24371537484E+03 -0.10694213395E+03  0.12766626682E+03  0.29518211265E+03  0.00000000000E+00 0.  1.
<scales pt_clust_3="31.78553" pt_clust_4="31.78553" pt_clust_5="112.54059" pt_clust_6="205.86890"></scales>
<clustering>
<clus scale="   31.786">  3  4 -1 -1</clus>
<clus scale="  112.541">  1  5  2 -1</clus>
<clus scale="  205.869">  1  6  2 -1</clus>
<clus scale="  112.541">  1  3  2 -1</clus>
</clustering>
</event>
<event>
 6    0  0.4469832E+002  0.8139110E+02  0.7546771E-02  0.1325149E+00
         21   -1    0    0  503  501  0.00000000000E+00  0.00000000000E+00  0.21402082494E+03  0.21402082494E+03  0.00000000000E+00 0.  1.
         21   -1    0    0  506  502 -0.00000000000E+00 -0.00000000000E+00 -0.11897106039E+03  0.11897106039E+03  0.00000000000E+00 0.  1.
         21    1    1    2  503  504 -0.46616334914E+02  0.10088699602E+02  0.16835105102E+02  0.50579494899E+02  0.00000000000E+00 0.  1.
         21    1    1    2  504  502  0.45549259603E+02 -0.43487656070E+02 -0.43321491360E+02  0.76437313496E+02  0.00000000000E+00 0.  1.
         21    1    1    2  505  501  0.13122743616E+02  0.85850979281E+02  0.12481328129E+03  0.15205575369E+03  0.00000000000E+00 0.  1.
         21    1    1    2  506  505 -0.12055668305E+02 -0.52452022812E+02 -0.32771304875E+01  0.53919323249E+02  0.00000000000E+00 0.  1.
<scales pt_clust_3="47.69554" pt_clust_4="14000.00000" pt_clust_5="81.39110" pt_clust_6="54.31972"></scales>
<clustering>
<clus scale="   47.696">  1  3  2 -1</clus>
<clus scale="   54.320">  2  6  1 -1</clus>
<clus scale="   81.391">  1  5  2 -1</clus>
<clus scale="   47.696">  1  3  2 -1</clus>
</clustering>
</event>
<event>
 6    0  0.4469832E+002  0.1212518E+03  0.7546771E-02  0.1241046E+00
         21   -1    0    0  505  501  0.00000000000E+00  0.00000000000E+00  0.20857444620E+02  0.20857444620E+02  0.00000000000E+00 0.  1.
         21   -1    0    0  503  502 -0.00000000000E+00 -0.00000000000E+00 -0.17085712408E+04  0.17085712408E+04  0.00000000000E+00 0.  1.
         21    1    1    2  503  506  0.28818077648E+02 -0.62291191935E+02 -0.89265799734E+03  0.89529267527E+03  0.00000000000E+00 0.  1.
         21    1    1    2  504  501  0.22156530814E+02  0.42776464473E+02 -0.35769221850E+02  0.60001458335E+02  0.00000000000E+00 0.  1.
         21    1    1    2  505  502 -0.76402615729E+02  0.63823009964E+02 -0.48018866099E+03  0.49039972108E+03  0.00000000000E+00 0.  1.
         21    1    1    2  506  504  0.25428007267E+02 -0.44308282502E+02 -0.27909791596E+03  0.28373483068E+03  0.00000000000E+00 0.  1.
<scales pt_clust_3="45.55293" pt_clust_4="48.17404" pt_clust_5="109.15190" pt_clust_6="45.55293"></scales>
<clustering>
<clus scale="   45.553">  3  6 -1 -1</clus>
<clus scale="   48.174">  1  4  2 -1</clus>
<clus scale="  109.152">  1  5  2 -1</clus>
<clus scale="   48.174">  1  3  2 -1</clus>
</clustering>
</event>
<event>
 6    0  0.4469832E+002  0.8800941E+02  0.7546771E-02  0.1307745E+00
         21   -1    0    0  505  501  0.00000000000E+00  0.00000000000E+00  0.22428010795E+03  0.22428010795E+03  0.00000000000E+00 0. -1.
         21   -1    0    0  503  502 -0.00000000000E+00 -0.00000000000E+00 -0.84823696755E+03  0.84823696755E+03  0.00000000000E+00 0. -1.
         21    1    1    2  503  504 -0.38213124036E+02  0.44384115244E+02 -0.50965701283E+03  0.51301117265E+03  0.00000000000E+00 0. -1.
         21    1    1    2  504  501 -0.87740491919E+01 -0.53936572538E+02 -0.22735338843E+02  0.59186429430E+02  0.00000000000E+00 0. -1.
         21    1    1    2  505  506  0.95714899492E+02  0.23515412028E+02  0.19009931796E+03  0.21413095823E+03  0.00000000000E+00 0. -1.
         21    1    1    2  506  502 -0.48727726264E+02 -0.13962954733E+02 -0.28166382589E+03  0.28618851519E+03  0.00000000000E+00 0.  1.
<scales pt_clust_3="14000.00000" pt_clust_4="56.31227" pt_clust_5="88.00941" pt_clust_6="50.68881"></scales>
<clustering>
<clus scale="   50.689">  2  6  1 -1</clus>
<clus scale="   56.312">  1  4  2 -1</clus>
<clus scale="   88.009">  1  5  2 -1</clus>
<clus scale="   56.312">  1  3  2 -1</clus>
</clustering>
</event>
<event>
 6    0  0.4469832E+002  0.1331457E+03  0.7546771E-02  0.1222861E+00
         21   -1    0    0  504  501  0.00000000000E+00  0.00000000000E+00  0.13987900693E+03  0.13987900693E+03  0.00000000000E+00 0.  1.
         21   -1    0    0  505  502 -0.00000000000E+00 -0.00000000000E+00 -0.32644830101E+03  0.32644830101E+03  0.00000000000E+00 0. -1.
         21    1    1    2  503  501 -0.20131842152E+02  0.52274683675E+02 -0.33038704533E+02  0.65034526361E+02  0.00000000000E+00 0.  1.
         21    1    1    2  504  506  0.10172272669E+02 -0.78161681147E+02  0.61406071895E+02  0.99917111631E+02  0.00000000000E+00 0.  1.
         21    1    1    2  505  503 -0.28041732123E+02  0.10807499434E+03 -0.16117111188E+03  0.19606802505E+03  0.00000000000E+00 0. -1.
         21    1    1    2  506  502  0.38001301606E+02 -0.82187996871E+02 -0.53765549566E+02  0.10530764490E+03  0.00000000000E+00 0.  1.
<scales pt_clust_3="34.87583" pt_clust_4="78.82083" pt_clust_5="34.87583" pt_clust_6="123.70691"></scales>
<clustering>
<clus scale="   34.876">  3  5 -1 -1</clus>
<clus scale="   78.821">  1  4  2 -1</clus>
<clus scale="  123.707">  2  6  1 -1</clus>
<clus scale="   78.821">  1  3  2 -1</clus>
</clustering>
</event>
<event>
 6    0  0.4469832E+002  0.1443739E+03  0.7546771E-02  0.1207562E+00
         21   -1    0    0  504  501  0.00000000000E+00  0.00000000000E+00  0.34378411267E+03  0.34378411267E+03  0.00000000000E+00 0. -1.
         21   -1    0    0  503  502 -0.00000000000E+00 -0.00000000000E+00 -0.87082586667E+03  0.87082586667E+03  0.00000000000E+00 0. -1.
         21    1    1    2  503  506 -0.79870799409E+02 -0.58257757812E+02 -0.71617357743E+03  0.72296466300E+03  0.00000000000E+00 0. -1.
         21    1    1    2  504  505  0.58766755766E+02  0.15499532245E+02  0.30438937607E+02  0.67972759292E+02  0.00000000000E+00 0. -1.
         21    1    1    2  505  502 -0.28903977637E+02 -0.42982702071E+02 -0.11845585696E+03  0.12928550827E+03  0.00000000000E+00 0. -1.
         21    1    1    2  506  501  0.50008021281E+02  0.85740927638E+02  0.27714874278E+03  0.29438704878E+03  0.00000000000E+00 0. -1.
<scales pt_clust_3="144.37393" pt_clust_4="59.80494" pt_clust_5="51.79723" pt_clust_6="14000.00000"></scales>
<clustering>
<clus scale="   51.797">  2  5  1 -1</clus>
<clus scale="   59.805">  1  4  2 -1</clus>
<clus scale="  144.374">  2  3  1 -1</clus>
<clus scale="   59.805">  1  3  2 -1</clus>
</clustering>
</event>
<event>
 6    0  0.4469832E+002  0.1805729E+03  0.7546771E-02  0.1167250E+00
         21   -1    0    0  503  501  0.00000000000E+00  0.00000000000E+00  0.90735089675E+03  0.90735089675E+03  0.00000000000E+00 0.  1.
         21   -1    0    0  505  502 -0.00000000000E+00 -0.00000000000E+00 -0.61407593643E+03  0.61407593643E+03  0.00000000000E+00 0.  1.
         21    1    1    2  503  506  0.28180998335E+02  0.34241412982E+02  0.31051614943E+03  0.31366689670E+03  0.00000000000E+00 0. -1.
         21    1    1    2  504  502 -0.30804284337E+02  0.77282231216E+02 -0.13940085894E+03  0.16233929490E+03  0.00000000000E+00 0.  1.
         21    1    1    2  505  501  0.10192904795E+03 -0.24177676264E+03 -0.41103115233E+03  0.48763935644E+03  0.00000000000E+00 0.  1.
         21    1    1    2  506  504 -0.99305761950E+02  0.13025311844E+03  0.53319082216E+03  0.55778128514E+03  0.00000000000E+00 0.  1.
<scales pt_clust_3="44.34685" pt_clust_4="83.61040" pt_clust_5="14000.00000" pt_clust_6="180.57293"></scales>
<clustering>
<clus scale="   44.347">  1  3  2 -1</clus>
<clus scale="   83.610">  2  4  1 -1</clus>
<clus scale="  180.573">  1  6  2 -1</clus>
<clus scale="   44.347">  1  3  2 -1</clus>
</clustering>
</event>
<event>
 6    0  0.4469832E+002  0.9014640E+02  0.7546771E-02  0.1302498E+00
         21   -1    0    0  504  501  0.00000000000E+00  0.00000000000E+00  0.18686521470E+04  0.18686521470E+04  0.00000000000E+00 0.  1.
         21   -1    0    0  503  502 -0.00000000000E+00 -0.00000000000E+00 -0.18363644542E+03  0.18363644542E+03  0.00000000000E+00 0. -1.
         21    1    1    2  503  506  0.31682960214E+02 -0.10355270674E+02 -0.86078984262E+02  0.92307275608E+02  0.00000000000E+00 0. -1.
         21    1    1    2  504  502 -0.64072148919E+02  0.75313206186E+02  0.22252735721E+03  0.24350717443E+03  0.00000000000E+00 0.  1.
         21    1    1    2  505  501  0.53525242135E+01 -0.91094160039E+02  0.16269662074E+04  0.16295231927E+04  0.00000000000E+00 0.  1.
         21    1    1    2  506  505  0.27036664491E+02  0.26136224527E+02 -0.78398878770E+02  0.86950949688E+02  0.00000000000E+00 0. -1.
<scales pt_clust_3="33.33229" pt_clust_4="14000.00000" pt_clust_5="90.14640" pt_clust_6="57.37042"></scales>
<clustering>
<clus scale="   33.332">  2  3  1 -1</clus>
<clus scale="   57.370">  2  6  1 -1</clus>
<clus scale="   90.146">  1  5  2 -1</clus>
<clus scale="   90.146">  1  3  2 -1</clus>
</clustering>
</event>
<event>
 6    0  0.4469832E+002  0.8577458E+02  0.7546771E-02  0.1313419E+00
         21   -1    0    0  503  501  0.00000000000E+00  0.00000000000E+00  0.42729146708E+03  0.42729146708E+03  0.00000000000E+00 0.  1.
         21   -1    0    0  505  502 -0.00000000000E+00 -0.00000000000E+00 -0.75762058171E+03  0.75762058171E+03  0.00000000000E+00 0.  1.
         21    1    1    2  503  504  0.22414579392E+02 -0.20537743865E+02  0.35544577808E+03  0.35674348410E+03  0.00000000000E+00 0.  1.
         21    1    1    2  504  506  0.50660623347E+02  0.30770711297E+02 -0.27265346391E+02  0.65243655212E+02  0.00000000000E+00 0.  1.
         21    1    1    2  505  501 -0.13048850767E+03 -0.14342044271E+02 -0.33782102110E+02  0.13555137510E+03  0.00000000000E+00 0.  1.
         21    1    1    2  506  502  0.57413304933E+02  0.41090768392E+01 -0.62472744420E+03  0.62737353438E+03  0.00000000000E+00 0.  1.
<scales pt_clust_3="30.40086" pt_clust_4="85.77458" pt_clust_5="14000.00000" pt_clust_6="57.94983"></scales>
<clustering>
<clus scale="   30.401">  1  3  2 -1</clus>
<clus scale="   57.950">  2  6  1 -1</clus>
<clus scale="   85.775">  1  4  2 -1</clus>
<clus scale="   30.401">  1  3  2 -1</clus>
</clustering>
</event>
<event>
 6    0  0.4469832E+002  0.9973060E+02  0.7546771E-02  0.1280863E+00
         21   -1    0    0  506  501  0.00000000000E+00  0.00000000000E+00  0.10036310990E+03  0.10036310990E+03  0.00000000000E+00 0.  1.
         21   -1    0    0  504  502 -0.00000000000E+00 -0.00000000000E+00 -0.32074885494E+03  0.32074885494E+03  0.00000000000E+00 0.  1.
         21    1    1    2  503  505 -0.10555317339E+01  0.63920895044E+02 -0.16510651592E+03  0.17705128232E+03  0.00000000000E+00 0.  1.
         21    1    1    2  504  503  0.25794175176E+02  0.32771761133E+02 -0.79451618142E+02  0.89732309823E+02  0.00000000000E+00 0.  1.
         21    1    1    2  505  501  0.39163944321E+02 -0.72714949535E+02  0.21804092828E+01  0.82619807585E+02  0.00000000000E+00 0.  1.
         21    1    1    2  506  502 -0.63902587763E+02 -0.23977706642E+02  0.21991979736E+02  0.71708565118E+02  0.00000000000E+00 0.  1.
<scales pt_clust_3="30.25693" pt_clust_4="30.25693" pt_clust_5="92.42758" pt_clust_6="68.25299"></scales>
<clustering>
<clus scale="   30.257">  3  4 -1 -1</clus>
<clus scale="   68.253">  1  6  2 -1</clus>
<clus scale="   92.428">  1  5  2 -1</clus>
<clus scale="   68.253">  1  3  2 -1</clus>
</clustering>
</event>
<event>
 6    0  0.4469832E+002  0.1172540E+03  0.7546771E-02  0.1247697E+00
         21   -1    0    0  505  501  0.00000000000E+00  0.00000000000E+00  0.10455560469E+04  0.10455560469E+04  0.00000000000E+00 0.  1.
         21   -1    0    0  503  502 -0.00000000000E+00 -0.00000000000E+00 -0.71939425564E+02  0.71939425564E+02  0.00000000000E+00 0.  1.
         21    1    1    2  503  506  0.48824018422E+02 -0.39297346094E+02  0.43354994814E+02  0.76208410036E+02  0.00000000000E+00 0.  1.
         21    1    1    2  504  502  0.32380797516E+02 -0.36949455715E+02 -0.20516963300E+02  0.53242127197E+02  0.00000000000E+00 0.  1.
         21    1    1    2  505  504  0.84348492810E+02  0.57118777113E+02  0.38263464317E+03  0.39596274205E+03  0.00000000000E+00 0.  1.
         21    1    1    2  506  501 -0.16555330875E+03  0.19128024696E+02  0.56814394669E+03  0.59208219322E+03  0.00000000000E+00 0.  1.
<scales pt_clust_3="85.44030" pt_clust_4="49.13022" pt_clust_5="117.25400" pt_clust_6="14000.00000"></scales>
<clustering>
<clus scale="   49.130">  2  4  1 -1</clus>
<clus scale="   85.440">  2  3  1 -1</clus>
<clus scale="  117.254">  1  5  2 -1</clus>
<clus scale="  117.254">  1  3  2 -1</clus>
</clustering>
</event>
<event>
 6    0  0.4469832E+002  0.1521115E+03  0.7546771E-02  0.1197902E+00
         21   -1    0    0  505  501  0.00000000000E+00  0.00000000000E+00  0.13892507622E+03  0.13892507622E+03  0.00000000000E+00 0.  1.
         21   -1    0    0  503  502 -0.00000000000E+00 -0.00000000000E+00 -0.13335083244E+04  0.13335083244E+04  0.00000000000E+00 0. -1.
         21    1    1    2  503  504 -0.39298164629E+01 -0.81119388732E+02 -0.93927898659E+03  0.94278354533E+03  0.00000000000E+00 0. -1.
         21    1    1    2  504  506 -0.66583122463E+02  0.13025805621E+03  0.70976491876E+02  0.16259808056E+03  0.00000000000E+00 0.  1.
         21    1    1    2  505  502  0.42341345872E+02 -0.90452908884E+02 -0.28569661776E+03  0.30265008788E+03  0.00000000000E+00 0. -1.
         21    1    1    2  506  501  0.28171593054E+02  0.41314241410E+02 -0.40584135694E+02  0.64401686845E+02  0.00000000000E+00 0.  1.
<scales pt_clust_3="80.62723" pt_clust_4="14000.00000" pt_clust_5="152.11151" pt_clust_6="50.00505"></scales>
<clustering>
<clus scale="   50.005">  1  6  2 -1</clus>
<clus scale="   80.627">  2  3  1 -1</clus>
<clus scale="  152.112">  2  5  1 -1</clus>
<clus scale="   50.005">  1  3  2 -1</clus>
</clustering>
</event>
<event>
 6    0  0.4469832E+002  0.1697847E+03  0.7546771E-02  0.1178073E+00
         21   -1    0    0  505  501  0.00000000000E+00  0.00000000000E+00  0.50535385491E+03  0.50535385491E+03  0.00000000000E+00 0.  1.
         21   -1    0    0  503  502 -0.00000000000E+00 -0.00000000000E+00 -0.13486600342E+04  0.13486600342E+04  0.00000000000E+00 0.  1.
         21    1    1    2  503  506 -0.15677670527E+02  0.96793230250E+02  0.11344228111E+03  0.14994622342E+03  0.00000000000E+00 0.  1.
         21    1    1    2  504  502  0.76485888758E+02 -0.10318961826E+03 -0.11548809936E+04  0.11620018494E+04  0.00000000000E+00 0.  1.
         21    1    1    2  505  504  0.85625367677E+01 -0.36101616123E+02 -0.16541594927E+03  0.16952604518E+03  0.00000000000E+00 0.  1.
         21    1    1    2  506  501 -0.69370754998E+02  0.42498004137E+02  0.36354848246E+03  0.37253977117E+03  0.00000000000E+00 0.  1.
<scales pt_clust_3="160.24857" pt_clust_4="30.15163" pt_clust_5="30.15163" pt_clust_6="81.35344"></scales>
<clustering>
<clus scale="   30.152">  4  5 -1 -1</clus>
<clus scale="   81.353">  1  6  2 -1</clus>
<clus scale="  160.249">  1  3  2 -1</clus>
<clus scale="   81.353">  1  3  2 -1</clus>
</clustering>
</event>
<event>
 6    0  0.4469832E+002  0.1004556E+03  0.7546771E-02  0.1279341E+00
         21   -1    0    0  506  501  0.00000000000E+00  0.00000000000E+00  0.11161024338E+03  0.11161024338E+03  0.00000000000E+00 0. -1.
         21   -1    0    0  501  502 -0.00000000000E+00 -0.00000000000E+00 -0.62639056367E+03  0.62639056367E+03  0.00000000000E+00 0. -1.
         21    1    1    2  503  504 -0.42995491000E+02  0.56476411648E+02 -0.68087976228E+02  0.98357357762E+02  0.00000000000E+00 0. -1.
         21    1    1    2  504  502 -0.40609712435E+02  0.49853765135E+02 -0.47480258174E+03  0.47913676364E+03  0.00000000000E+00 0. -1.
         21    1    1    2  505  503  0.68021380011E+02 -0.76751063281E+02  0.56106362544E+02  0.11689977661E+03  0.00000000000E+00 0. -1.
         21    1    1    2  506  505  0.15583823424E+02 -0.29579113502E+02 -0.27996124863E+02  0.43606909033E+02  0.00000000000E+00 0.  1.
<scales pt_clust_3="14000.00000" pt_clust_4="63.61635" pt_clust_5="100.45565" pt_clust_6="33.43321"></scales>
<clustering>
<clus scale="   33.433">  1  6  2 -1</clus>
<clus scale="   63.616">  2  4  1 -1</clus>
<clus scale="  100.456">  1  5  2 -1</clus>
<clus scale="   33.433">  1  3  2 -1</clus>
</clustering>
</event>
<event>
 6    0  0.4469832E+002  0.8984059E+02  0.7546771E-02  0.1303238E+00
         21   -1    0    0  503  501  0.00000000000E+00  0.00000000000E+00  0.57503858198E+03  0.57503858198E+03  0.00000000000E+00 0.  1.
         21   -1    0    0  504  502 -0.00000000000E+00 -0.00000000000E+00 -0.17163334307E+03  0.17163334307E+03  0.00000000000E+00 0. -1.
         21    1    1    2  503  502 -0.70618669380E+02  0.54963924117E+02  0.59959233849E+02  0.10771786826E+03  0.00000000000E+00 0.  1.
         21    1    1    2  504  506 -0.79073550284E+01 -0.44959789265E+02 -0.99891827749E+02  0.10982843969E+03  0.00000000000E+00 0. -1.
         21    1    1    2  505  501  0.85132690483E+02  0.27634138534E+02  0.47259617760E+03  0.48099726370E+03  0.00000000000E+00 0.  1.
         21    1    1    2  506  505 -0.66066660744E+01 -0.37638273386E+02 -0.29258344797E+02  0.48128353394E+02  0.00000000000E+00 0.  1.
<scales pt_clust_3="89.48759" pt_clust_4="32.18547" pt_clust_5="82.66708" pt_clust_6="32.18547"></scales>
<clustering>
<clus scale="   32.185">  4  6 -1 -1</clus>
<clus scale="   89.488">  1  3  2 -1</clus>
<clus scale="   82.667">  1  5  2 -1</clus>
<clus scale="   89.488">  1  3  2 -1</clus>
</clustering>
</event>
<event>
 6    0  0.4469832E+002  0.7703883E+02  0.7546771E-02  0.1337671E+00
         21   -1    0    0  505  501  0.00000000000E+00  0.00000000000E+00  0.46328337207E+03  0.46328337207E+03  0.00000000000E+00 0.  1.
         21   -1    0    0  506  502 -0.00000000000E+00 -0.00000000000E+00 -0.23264506935E+03  0.23264506935E+03  0.00000000000E+00 0. -1.
         21    1    1    2  503  504 -0.45309324682E+02  0.99263180298E+02 -0.16278218918E+03  0.19596978078E+03  0.00000000000E+00 0. -1.
         21    1    1    2  504  502  0.37250550010E+02 -0.26220861292E+02 -0.28895222965E+02  0.53945073483E+02  0.00000000000E+00 0.  1.
         21    1    1    2  505  503 -0.46935133608E+01 -0.10488275902E+03  0.35859677702E+03  0.37364966305E+03  0.00000000000E+00 0.  1.
         21    1    1    2  506  501  0.12752288033E+02  0.31840440015E+02  0.63718937844E+02  0.72363924095E+02  0.00000000000E+00 0.  1.
<scales pt_clust_3="77.03883" pt_clust_4="45.31569" pt_clust_5="14000.00000" pt_clust_6="34.29919"></scales>
<clustering>
<clus scale="   34.299">  1  6  2 -1</clus>
<clus scale="   45.316">  2  4  1 -1</clus>
<clus scale="   77.039">  2  3  1 -1</clus>
<clus scale="   34.299">  1  3  2 -1</clus>
</clustering>
</event>
<event>
 6    0  0.4469832E+002  0.6034855E+02  0.7546771E-02  0.1396375E+00
         21   -1    0    0  503  501  0.00000000000E+00  0.00000000000E+00  0.69197116593E+03  0.69197116593E+03  0.00000000000E+00 0.  1.
         21   -1    0    0  504  502 -0.00000000000E+00 -0.00000000000E+00 -0.14320468414E+03  0.14320468414E+03  0.00000000000E+00 0.  1.
         21    1    1    2  503  506 -0.31683463292E+02 -0.10422627024E+02  0.32173642429E+03  0.32346066178E+03  0.00000000000E+00 0.  1.
         21    1    1    2  504  505 -0.94113873196E+02  0.24422591298E+02 -0.89196607725E+02  0.13194665181E+03  0.00000000000E+00 0.  1.
         21    1    1    2  505  501  0.85580767875E+02  0.20820752489E+02  0.31443950372E+03  0.32654214592E+03  0.00000000000E+00 0.  1.
         21    1    1    2  506  502  0.40216568613E+02 -0.34820716763E+02  0.17871615116E+01  0.53226390571E+02  0.00000000000E+00 0.  1.
<scales pt_clust_3="33.35376" pt_clust_4="60.34855" pt_clust_5="14000.00000" pt_clust_6="51.96442"></scales>
<clustering>
<clus scale="   33.354">  1  3  2 -1</clus>
<clus scale="   51.964">  2  6  1 -1</clus>
<clus scale="   60.349">  2  4  1 -1</clus>
<clus scale="   33.354">  1  3  2 -1</clus>
</clustering>
</event>
<event>
 6    0  0.4469832E+002  0.1251516E+03  0.7546771E-02  0.1234833E+00
         21   -1    0    0  503  501  0.00000000000E+00  0.00000000000E+00  0.11902748284E+04  0.11902748284E+04  0.00000000000E+00 0. -1.
         21   -1    0    0  505  502 -0.00000000000E+00 -0.00000000000E+00 -0.25450697494E+02  0.25450697494E+02  0.00000000000E+00 0. -1.
         21    1    1    2  503  504 -0.48378835058E+02 -0.21875990642E+02  0.26750639171E+03  0.27272466015E+03  0.00000000000E+00 0. -1.
         21    1    1    2  504  506 -0.42844036154E+02 -0.75600414360E+02  0.23432372512E+03  0.24991727079E+03  0.00000000000E+00 0. -1.
         21    1    1    2  505  501  0.47128010884E+02  0.41368242580E+01  0.48514159235E+03  0.48744284522E+03  0.00000000000E+00 0. -1.
         21    1    1    2  506  502  0.44094860328E+02  0.93339580744E+02  0.17785242177E+03  0.20564074978E+03  0.00000000000E+00 0. -1.
<scales pt_clust_3="46.23023" pt_clust_4="46.23023" pt_clust_5="47.30922" pt_clust_6="110.29535"></scales>
<clustering>
<clus scale="   46.230">  3  4 -1 -1</clus>
<clus scale="   47.309">  1  5  2 -1</clus>
<clus scale="  110.295">  2  6  1 -1</clus>
<clus scale="   47.309">  1  3  2 -1</clus>
</clustering>
</event>
<event>
 6    0  0.4469832E+002  0.7658948E+02  0.7546771E-02  0.1339018E+00
         21   -1    0    0  503  501  0.00000000000E+00  0.00000000000E+00  0.99895041314E+03  0.99895041314E+03  0.00000000000E+00 0. -1.
         21   -1    0    0  504  502 -0.00000000000E+00 -0.00000000000E+00 -0.18449468557E+03  0.18449468557E+03  0.00000000000E+00 0. -1.
         21    1    1    2  503  505 -0.11478987723E+03 -0.22758697785E+02  0.37764457520E+03  0.39536072063E+03  0.00000000000E+00 0.  1.
         21    1    1    2  504  506  0.13323428009E+02  0.36710068019E+02  0.61293592592E+01  0.39531150663E+02  0.00000000000E+00 0. -1.
         21    1    1    2  505  502  0.48237044105E+02 -0.58727120646E+02 -0.14764610322E+03  0.16605739646E+03  0.00000000000E+00 0. -1.
         21    1    1    2  506  501  0.53229405120E+02  0.44775750413E+02  0.57832789634E+03  0.58249583095E+03  0.00000000000E+00 0. -1.
<scales pt_clust_3="14000.00000" pt_clust_4="39.05308" pt_clust_5="65.41689" pt_clust_6="76.58948"></scales>
<clustering>
<clus scale="   39.053">  2  4  1 -1</clus>
<clus scale="   65.417">  2  5  1 -1</clus>
<clus scale="   76.589">  1  6  2 -1</clus>
<clus scale="   76.589">  1  3  2 -1</clus>
</clustering>
</event>
<event>
 6    0  0.4469832E+002  0.2146883E+03  0.7546771E-02  0.1137906E+00
         21   -1    0    0  506  501  0.00000000000E+00  0.00000000000E+00  0.13628925717E+03  0.13628925717E+03  0.00000000000E+00 0.  1.
         21   -1    0    0  503  502 -0.00000000000E+00 -0.00000000000E+00 -0.71373519895E+03  0.71373519895E+03  0.00000000000E+00 0.  1.
         21    1    1    2  503  504  0.45871324244E+02 -0.40588475716E+01 -0.13719954624E+03  0.14472169195E+03  0.00000000000E+00 0.  1.
         21    1    1    2  504  505  0.13969164816E+03  0.76644652459E+02 -0.32013747623E+03  0.35759776706E+03  0.00000000000E+00 0.  1.
         21    1    1    2  505  501 -0.22162080608E+03 -0.47842109331E+02 -0.16849848659E+03  0.28248254653E+03  0.00000000000E+00 0.  1.
         21    1    1    2  506  502  0.36057833672E+02 -0.24743695556E+02  0.48389567276E+02  0.65222450583E+02  0.00000000000E+00 0.  1.
<scales pt_clust_3="31.64714" pt_clust_4="31.64714" pt_clust_5="206.45987" pt_clust_6="43.73120"></scales>
<clustering>
<clus scale="   31.647">  3  4 -1 -1</clus>
<clus scale="   43.731">  1  6  2 -1</clus>
<clus scale="  206.460">  1  5  2 -1</clus>
<clus scale="   43.731">  1  3  2 -1</clus>
</clustering>
</event>
<event>
 6    0  0.4469832E+002  0.1161223E+03  0.7546771E-02  0.1249635E+00
         21   -1    0    0  505  501  0.00000000000E+00  0.00000000000E+00  0.28058583431E+03  0.28058583431E+03  0.00000000000E+00 0. -1.
         21   -1    0    0  504  502 -0.00000000000E+00 -0.00000000000E+00 -0.87609099603E+03  0.87609099603E+03  0.00000000000E+00 0. -1.
         21    1    1    2  503  506 -0.58289780165E+02  0.16829413907E+02 -0.17878656112E+03  0.18880032331E+03  0.00000000000E+00 0. -1.
         21    1    1    2  504  503  0.69158514225E+02 -0.52493470370E+02 -0.44217530420E+03  0.45061897893E+03  0.00000000000E+00 0. -1.
         21    1    1    2  505  502  0.99680842980E+02 -0.27664486702E+02  0.24358840979E+03  0.26464487085E+03  0.00000000000E+00 0. -1.
         21    1    1    2  506  501 -0.11054957704E+03  0.63328543164E+02 -0.21813170619E+03  0.25261265726E+03  0.00000000000E+00 0. -1.
<scales pt_clust_3="33.58974" pt_clust_4="86.82433" pt_clust_5="105.42818" pt_clust_6="33.58974"></scales>
<clustering>
<clus scale="   33.590">  3  6 -1 -1</clus>
<clus scale="   86.824">  2  4  1 -1</clus>
<clus scale="  105.428">  1  5  2 -1</clus>
<clus scale="  105.428">  1  3  2 -1</clus>
</clustering>
</event>
<event>
 6    0  0.4469832E+002  0.9734394E+02  0.7546771E-02  0.1285983E+00
         21   -1    0    0  504  501  0.00000000000E+00  0.00000000000E+00  0.13192269785E+02  0.13192269785E+02  0.00000000000E+00 0. -1.
         21   -1    0    0  506  502 -0.00000000000E+00 -0.00000000000E+00 -0.32423569314E+04  0.32423569314E+04  0.00000000000E+00 0.  1.
         21    1    1    2  503  505 -0.37464733980E+02 -0.11970468842E+02 -0.83090377595E+02  0.91928827173E+02  0.00000000000E+00 0. -1.
         21    1    1    2  504  502 -0.50043738961E+02  0.88609731353E+01 -0.23929904497E+04  0.23935300677E+04  0.00000000000E+00 0.  1.
         21    1    1    2  505  501 -0.36322069887E+02 -0.48591437456E+01 -0.18891836616E+03  0.19243973891E+03  0.00000000000E+00 0. -1.
         21    1    1    2  506  503  0.12383054283E+03  0.79686394522E+01 -0.56416546825E+03  0.57765056748E+03  0.00000000000E+00 0. -1.
<scales pt_clust_3="32.71939" pt_clust_4="50.82217" pt_clust_5="32.71939" pt_clust_6="91.25155"></scales>
<clustering>
<clus scale="   32.719">  3  5 -1 -1</clus>
<clus scale="   50.822">  2  4  1 -1</clus>
<clus scale="   91.252">  2  6  1 -1</clus>
<clus scale="   97.344">  1  3  2 -1</clus>
</clustering>
</event>
<event>
 6    0  0.4469832E+002  0.1473468E+03  0.7546771E-02  0.1203772E+00
         21   -1    0    0  503  501  0.00000000000E+00  0.00000000000E+00  0.11123807795E+04  0.11123807795E+04  0.00000000000E+00 0.  1.
         21   -1    0    0  505  502 -0.00000000000E+00 -0.00000000000E+00 -0.27869824100E+03  0.27869824100E+03  0.00000000000E+00 0.  1.
         21    1    1    2  503  502 -0.94492346663E+02 -0.11434957431E+01  0.35356173166E+03  0.36597268922E+03  0.00000000000E+00 0.  1.
         21    1    1    2  504  501  0.20477599680E+03 -0.81979675896E+02  0.71534362142E+03  0.74857890221E+03  0.00000000000E+00 0.  1.
         21    1    1    2  505  506 -0.58246365178E+02  0.62751376112E+02 -0.10993414708E+03  0.13934091630E+03  0.00000000000E+00 0.  1.
         21    1    1    2  506  504 -0.52037284961E+02  0.20371795527E+02 -0.12528866751E+03  0.13718651277E+03  0.00000000000E+00 0.  1.
<scales pt_clust_3="94.49927" pt_clust_4="140.16195" pt_clust_5="36.71904" pt_clust_6="36.71904"></scales>
<clustering>
<clus scale="   36.719">  5  6 -1 -1</clus>
<clus scale="   94.499">  1  3  2 -1</clus>
<clus scale="  140.162">  1  4  2 -1</clus>
<clus scale="   94.499">  1  3  2 -1</clus>
</clustering>
</event>
<event>
 6    0  0.4469832E+002  0.7740659E+02  0.7546771E-02  0.1336577E+00
         21   -1    0    0  503  501  0.00000000000E+00  0.00000000000E+00  0.79858043144E+03  0.79858043144E+03  0.00000000000E+00 0.  1.
         21   -1    0    0  506  502 -0.00000000000E+00 -0.00000000000E+00 -0.44881061776E+03  0.44881061776E+03  0.00000000000E+00 0.  1.
         21    1    1    2  503  502  0.32393047154E+02  0.47781629297E+02 -0.72027137275E+02  0.92305482536E+02  0.00000000000E+00 0.  1.
         21    1    1    2  504  501 -0.34262684938E+02  0.25582461648E+02  0.65722798727E+03  0.65861750749E+03  0.00000000000E+00 0.  1.
         21    1    1    2  505  504  0.58904042766E+02 -0.97093860322E+02  0.10247361320E+03  0.15296321574E+03  0.00000000000E+00 0.  1.
         21    1    1    2  506  505 -0.57034404982E+02  0.23729769377E+02 -0.33790464951E+03  0.34350484344E+03  0.00000000000E+00 0.  1.
<scales pt_clust_3="57.94923" pt_clust_4="42.75972" pt_clust_5="77.40659" pt_clust_6="14000.00000"></scales>
<clustering>
<clus scale="   42.760">  1  4  2 -1</clus>
<clus scale="   57.949">  2  3  1 -1</clus>
<clus scale="   77.407">  1  5  2 -1</clus>
<clus scale="   42.760">  1  3  2 -1</clus>
</clustering>
</event>
<event>
 6    0  0.4469832E+002  0.1620252E+03  0.7546771E-02  0.1186429E+00
         21   -1    0    0  505  501  0.00000000000E+00  0.00000000000E+00  0.93050206869E+03  0.93050206869E+03  0.00000000000E+00 0.  1.
         21   -1    0    0  504  502 -0.00000000000E+00 -0.00000000000E+00 -0.53663991428E+02  0.53663991428E+02  0.00000000000E+00 0.  1.
         21    1    1    2  503  501 -0.37249464668E+02 -0.27670291458E+02  0.80595057404E+02  0.92998553351E+02  0.00000000000E+00 0.  1.
         21    1    1    2  504  506  0.16802439439E+02 -0.38431961313E+02 -0.97541714987E+01  0.43063691006E+02  0.00000000000E+00 0.  1.
         21    1    1    2  505  502  0.13643933576E+03  0.55805315373E+02  0.45855138362E+03  0.48166305338E+03  0.00000000000E+00 0.  1.
         21    1    1    2  506  503 -0.11599231054E+03  0.10296937397E+02  0.34744580773E+03  0.36644076238E+03  0.00000000000E+00 0.  1.
<scales pt_clust_3="40.32423" pt_clust_4="41.94446" pt_clust_5="148.90108" pt_clust_6="40.32423"></scales>
<clustering>
<clus scale="   40.324">  3  6 -1 -1</clus>
<clus scale="   41.944">  2  4  1 -1</clus>
<clus scale="  148.901">  1  5  2 -1</clus>
<clus scale="  148.901">  1  3  2 -1</clus>
</clustering>
</event>
<event>
 6    0  0.4469832E+002  0.1812345E+03  0.7546771E-02  0.1166614E+00
         21   -1    0    0  504  501  0.00000000000E+00  0.00000000000E+00  0.93383188442E+03  0.93383188442E+03  0.00000000000E+00 0. -1.
         21   -1    0    0  505  502 -0.00000000000E+00 -0.00000000000E+00 -0.44135617450E+03  0.44135617450E+03  0.00000000000E+00 0. -1.
         21    1    1    2  503  506  0.10653069997E+03 -0.19212017404E+03 -0.12949556735E+02  0.22006054242E+03  0.00000000000E+00 0. -1.
         21    1    1    2  504  502 -0.48796755168E+02  0.24410533619E+02 -0.36119506570E+01  0.54681291628E+02  0.00000000000E+00 0. -1.
         21    1    1    2  505  503 -0.15090584879E+03  0.33334616212E+02 -0.26638613299E+03  0.30796971228E+03  0.00000000000E+00 0. -1.
         21    1    1    2  506  501  0.93171903991E+02  0.13437502421E+03  0.77542335030E+03  0.79247651259E+03  0.00000000000E+00 0. -1.
<scales pt_clust_3="14000.00000" pt_clust_4="54.56187" pt_clust_5="181.23454" pt_clust_6="163.36014"></scales>
<clustering>
<clus scale="   54.562">  2  4  1 -1</clus>
<clus scale="  163.360">  1  6  2 -1</clus>
<clus scale="  181.235">  2  5  1 -1</clus>
<clus scale="  163.360">  1  3  2 -1</clus>
</clustering>
</event>
<event>
 6    0  0.4469832E+002  0.1115183E+03  0.7546771E-02  0.1257784E+00
         21   -1    0    0  503  501  0.00000000000E+00  0.00000000000E+00  0.26699349005E+03  0.26699349005E+03  0.00000000000E+00 0. -1.
         21   -1    0    0  505  502 -0.00000000000E+00 -0.00000000000E+00 -0.26393167689E+03  0.26393167689E+03  0.00000000000E+00 0. -1.
         21    1    1    2  503  506 -0.25969135965E+02  0.44536134255E+02  0.41795853482E+02  0.66368340686E+02  0.00000000000E+00 0. -1.
         21    1    1    2  504  502 -0.77133719061E+02 -0.48651952423E+02 -0.10523291456E+03  0.13925009658E+03  0.00000000000E+00 0. -1.
         21    1    1    2  505  501  0.12769174233E+03 -0.92643200525E+02  0.13217131723E+03  0.20580865084E+03  0.00000000000E+00 0. -1.
         21    1    1    2  506  504 -0.24588887300E+02  0.96759018693E+02 -0.65672442992E+02  0.11949807884E+03  0.00000000000E+00 0. -1.
<scales pt_clust_3="51.55447" pt_clust_4="91.14513" pt_clust_5="14000.00000" pt_clust_6="111.51830"></scales>
<clustering>
<clus scale="   51.554">  1  3  2 -1</clus>
<clus scale="   91.145">  2  4  1 -1</clus>
<clus scale="  111.518">  2  6  1 -1</clus>
<clus scale="   51.554">  1  3  2 -1</clus>
</clustering>
</event>
<event>
 6    0  0.4469832E+002  0.1398690E+03  0.7546771E-02  0.1213505E+00
         21   -1    0    0  506  501  0.00000000000E+00  0.00000000000E+00  0.72917384882E+03  0.72917384882E+03  0.00000000000E+00 0.  1.
         21   -1    0    0  504  502 -0.00000000000E+00 -0.00000000000E+00 -0.95403725552E+02  0.95403725552E+02  0.00000000000E+00 0. -1.
         21    1    1    2  503  501 -0.36834770410E+02 -0.11939562074E+03  0.12088498514E+03  0.17385423261E+03  0.00000000000E+00 0.  1.
         21    1    1    2  504  503  0.73504308318E+02 -0.77209050014E+02  0.60678288193E+02  0.12266203734E+03  0.00000000000E+00 0.  1.
         21    1    1    2  505  502  0.21020344841E+02  0.16320275509E+03  0.16428131523E+03  0.23251955767E+03  0.00000000000E+00 0. -1.
         21    1    1    2  506  505 -0.57689882749E+02  0.33401915662E+02  0.28792553471E+03  0.29554174677E+03  0.00000000000E+00 0.  1.
<scales pt_clust_3="139.86901" pt_clust_4="93.27983" pt_clust_5="14000.00000" pt_clust_6="66.66191"></scales>
<clustering>
<clus scale="   66.662">  1  6  2 -1</clus>
<clus scale="   93.280">  2  4  1 -1</clus>
<clus scale="  139.869">  1  3  2 -1</clus>
<clus scale="   66.662">  1  3  2 -1</clus>
</clustering>
</event>
<event>
 6    0  0.4469832E+002  0.1068626E+03  0.7546771E-02  0.1266493E+00
         21   -1    0    0  503  501  0.00000000000E+00  0.00000000000E+00  0.63019949392E+02  0.63019949392E+02  0.00000000000E+00 0. -1.
         21   -1    0    0  506  502 -0.00000000000E+00 -0.00000000000E+00 -0.48007208164E+03  0.48007208164E+03  0.00000000000E+00 0. -1.
         21    1    1    2  503  502 -0.20203655205E+02  0.38813057381E+02 -0.34789706183E+02  0.55901384270E+02  0.00000000000E+00 0. -1.
         21    1    1    2  504  501 -0.36240747167E+02 -0.11346937772E+03 -0.34311926249E+02  0.12395966972E+03  0.00000000000E+00 0. -1.
         21    1    1    2  505  504  0.26915779895E+02  0.66015143766E+02 -0.20608804102E+03  0.21807049105E+03  0.00000000000E+00 0. -1.
         21    1    1    2  506  505  0.29528622477E+02  0.86411765731E+01 -0.14186245879E+03  0.14516048599E+03  0.00000000000E+00 0. -1.
<scales pt_clust_3="43.75661" pt_clust_4="96.49846" pt_clust_5="30.15950" pt_clust_6="30.15950"></scales>
<clustering>
<clus scale="   30.159">  5  6 -1 -1</clus>
<clus scale="   43.757">  1  3  2 -1</clus>
<clus scale="   96.498">  1  4  2 -1</clus>
<clus scale="   43.757">  1  3  2 -1</clus>
</clustering>
</event>
<event>
 6    0  0.4469832E+002  0.1134013E+03  0.7546771E-02  0.1254398E+00
         21   -1    0    0  506  501  0.00000000000E+00  0.00000000000E+00  0.20788800258E+03  0.20788800258E+03  0.00000000000E+00 0.  1.
         21   -1    0    0  505  502 -0.00000000000E+00 -0.00000000000E+00 -0.11161659444E+04  0.11161659444E+04  0.00000000000E+00 0. -1.
         21    1    1    2  503  501 -0.20750444941E+02 -0.28382238344E+02  0.22952229312E+02  0.41987346297E+02  0.00000000000E+00 0. -1.
         21    1    1    2  504  503 -0.61300154991E+02  0.36993242902E+02 -0.19280354697E+03  0.20566822007E+03  0.00000000000E+00 0. -1.
         21    1    1    2  505  504 -0.35109537648E+02  0.34404811179E+02 -0.88359119689E+03  0.88495749835E+03  0.00000000000E+00 0. -1.
         21    1    1    2  506  502  0.11716013758E+03 -0.43015815738E+02  0.14516457270E+03  0.19144088228E+03  0.00000000000E+00 0.  1.
<scales pt_clust_3="35.15867" pt_clust_4="14000.00000" pt_clust_5="49.13714" pt_clust_6="113.40126"></scales>
<clustering>
<clus scale="   35.159">  1  3  2 -1</clus>
<clus scale="   49.137">  2  5  1 -1</clus>
<clus scale="  113.401">  1  6  2 -1</clus>
<clus scale="   35.159">  1  3  2 -1</clus>
</clustering>
</event>
<event>
 6    0  0.4469832E+002  0.7954452E+02  0.7546771E-02  0.1330349E+00
         21   -1    0    0  506  501  0.00000000000E+00  0.00000000000E+00  0.26796156838E+04  0.26796156838E+04  0.00000000000E+00 0. -1.
         21   -1    0    0  503  502 -0.00000000000E+00 -0.00000000000E+00 -0.43254791753E+02  0.43254791753E+02  0.00000000000E+00 0.  1.
         21    1    1    2  503  505  0.28649141416E+02  0.25893593931E+02  0.67764997170E+02  0.77995809836E+02  0.00000000000E+00 0.  1.
         21    1    1    2  504  501 -0.85745855439E+02 -0.19879970541E+02  0.18847491654E+04  0.18868033765E+04  0.00000000000E+00 0. -1.
         21    1    1    2  505  504  0.51193816440E+02  0.50179393050E+02  0.69649202622E+03  0.70017135111E+03  0.00000000000E+00 0. -1.
         21    1    1    2  506  502  0.59028975818E+01 -0.56193016440E+02 -0.12645296819E+02  0.57899938067E+02  0.00000000000E+00 0.  1.
<scales pt_clust_3="38.61673" pt_clust_4="79.54452" pt_clust_5="14000.00000" pt_clust_6="45.71058"></scales>
<clustering>
<clus scale="   38.617">  2  3  1 -1</clus>
<clus scale="   45.711">  2  6  1 -1</clus>
<clus scale="   79.545">  1  4  2 -1</clus>
<clus scale="   79.545">  1  3  2 -1</clus>
</clustering>
</event>
<event>
 6    0  0.4469832E+002  0.1014844E+03  0.7546771E-02  0.1277205E+00
         21   -1    0    0  504  501  0.00000000000E+00  0.00000000000E+00  0.13856954571E+04  0.13856954571E+04  0.00000000000E+00 0.  1.
         21   -1    0    0  503  502 -0.00000000000E+00 -0.00000000000E+00 -0.26263290698E+03  0.26263290698E+03  0.00000000000E+00 0. -1.
         21    1    1    2  503  505  0.57402420202E+01  0.38507176414E+02 -0.22591077152E+02  0.45012329208E+02  0.00000000000E+00 0. -1.
         21    1    1    2  504  506  0.95869155065E+02 -0.34532066814E+02  0.13044943332E+04  0.13084681211E+04  0.00000000000E+00 0.  1.
         21    1    1    2  505  501 -0.55830119233E+02 -0.50535569999E+02  0.40205037097E+02  0.85365631589E+02  0.00000000000E+00 0. -1.
         21    1    1    2  506  502 -0.45779277852E+02  0.46560460399E+02 -0.19904574301E+03  0.20948228222E+03  0.00000000000E+00 0. -1.
<scales pt_clust_3="38.93267" pt_clust_4="14000.00000" pt_clust_5="72.37618" pt_clust_6="101.48442"></scales>
<clustering>
<clus scale="   38.933">  2  3  1 -1</clus>
<clus scale="   72.376">  2  5  1 -1</clus>
<clus scale="  101.484">  2  6  1 -1</clus>
<clus scale="  101.484">  1  3  2 -1</clus>
</clustering>
</event>
<event>
 6    0  0.4469832E+002  0.1077474E+03  0.7546771E-02  0.1264799E+00
         21   -1    0    0  506  501  0.00000000000E+00  0.00000000000E+00  0.27292366525E+03  0.27292366525E+03  0.00000000000E+00 0.  1.
         21   -1    0    0  504  502 -0.00000000000E+00 -0.00000000000E+00 -0.12346039658E+04  0.12346039658E+04  0.00000000000E+00 0. -1.
         21    1    1    2  503  505  0.94753201783E+02 -0.54102947739E+01 -0.25413508944E+03  0.27127860996E+03  0.00000000000E+00 0. -1.
         21    1    1    2  504  503 -0.98312204209E+02  0.74691738462E+01 -0.90293476789E+03  0.90830186233E+03  0.00000000000E+00 0. -1.
         21    1    1    2  505  501  0.54583829574E+02  0.11423156333E+02  0.24754468142E+03  0.25374840344E+03  0.00000000000E+00 0.  1.
         21    1    1    2  506  502 -0.51024827148E+02 -0.13482035405E+02 -0.52155124657E+02  0.74198755328E+02  0.00000000000E+00 0. -1.
<scales pt_clust_3="107.74738" pt_clust_4="14000.00000" pt_clust_5="55.62677" pt_clust_6="52.77593"></scales>
<clustering>
<clus scale="   52.776">  2  6  1 -1</clus>
<clus scale="   55.627">  1  5  2 -1</clus>
<clus scale="  107.747">  1  3  2 -1</clus>
<clus scale="   55.627">  1  3  2 -1</clus>
</clustering>
</event>
<event>
 6    0  0.4469832E+002  0.7295184E+02  0.7546771E-02  0.1350333E+00
         21   -1    0    0  503  501  0.00000000000E+00  0.00000000000E+00  0.44459670271E+02  0.44459670271E+02  0.00000000000E+00 0. -1.
         21   -1    0    0  506  502 -0.00000000000E+00 -0.00000000000E+00 -0.51407565158E+03  0.51407565158E+03  0.00000000000E+00 0. -1.
         21    1    1    2  503  504 -0.64653182748E+01  0.36810921783E+02 -0.16448282534E+02  0.40833690762E+02  0.00000000000E+00 0. -1.
         21    1    1    2  504  502 -0.33639389703E+02  0.35703342147E+02 -0.13022937554E+03  0.13916187492E+03  0.00000000000E+00 0. -1.
         21    1    1    2  505  501 -0.29930483048E+02 -0.94682041441E+02 -0.89029703562E+02  0.13336720325E+03  0.00000000000E+00 0. -1.
         21    1    1    2  506  505  0.70035191026E+02  0.22167777511E+02 -0.23390861968E+03  0.24517255291E+03  0.00000000000E+00 0. -1.
<scales pt_clust_3="37.37438" pt_clust_4="53.45221" pt_clust_5="72.95184" pt_clust_6="14000.00000"></scales>
<clustering>
<clus scale="   37.374">  1  3  2 -1</clus>
<clus scale="   53.452">  2  4  1 -1</clus>
<clus scale="   72.952">  1  5  2 -1</clus>
<clus scale="   37.374">  1  3  2 -1</clus>
</clustering>
</event>
<event>
 6    0  0.4469832E+002  0.1858868E+03  0.7546771E-02  0.1162224E+00
         21   -1    0    0  504  501  0.00000000000E+00  0.00000000000E+00  0.67600258893E+03  0.67600258893E+03  0.00000000000E+00 0. -1.
         21   -1    0    0  506  502 -0.00000000000E+00 -0.00000000000E+00 -0.17275898694E+04  0.17275898694E+04  0.00000000000E+00 0. -1.
         21    1    1    2  503  502 -0.76194471040E+01 -0.24714929869E+03 -0.14716503777E+04  0.14922786824E+04  0.00000000000E+00 0. -1.
         21    1    1    2  504  505  0.10429908845E+03  0.25149748527E+02  0.82231407708E+02  0.13517697332E+03  0.00000000000E+00 0.  1.
         21    1    1    2  505  503 -0.10922107515E+03  0.15936411069E+03  0.53503348218E+03  0.56884707091E+03  0.00000000000E+00 0. -1.
         21    1    1    2  506  501  0.12541433807E+02  0.62635439471E+02 -0.19720179267E+03  0.20728973171E+03  0.00000000000E+00 0.  1.
<scales pt_clust_3="185.88684" pt_clust_4="107.75955" pt_clust_5="14000.00000" pt_clust_6="63.87868"></scales>
<clustering>
<clus scale="   63.879">  2  6  1 -1</clus>
<clus scale="  107.760">  1  4  2 -1</clus>
<clus scale="  185.887">  2  3  1 -1</clus>
<clus scale="  107.760">  1  3  2 -1</clus>
</clustering>
</event>
<event>
 6    0  0.4469832E+002  0.1042215E+03  0.7546771E-02  0.1271661E+00
         21   -1    0    0  505  501  0.00000000000E+00  0.00000000000E+00  0.22422269503E+03  0.22422269503E+03  0.00000000000E+00 0.  1.
         21   -1    0    0  506  502 -0.00000000000E+00 -0.00000000000E+00 -0.99677062066E+03  0.99677062066E+03  0.00000000000E+00 0.  1.
         21    1    1    2  503  501 -0.76772953838E+02 -0.24652809858E+02  0.18663968657E+03  0.20331310847E+03  0.00000000000E+00 0.  1.
         21    1    1    2  504  503 -0.44445598287E+02  0.94559468982E+02 -0.15154795944E+03  0.18407522482E+03  0.00000000000E+00 0.  1.
         21    1    1    2  505  502  0.68789133883E+02 -0.24996454767E+02 -0.71145901986E+03  0.71521374751E+03  0.00000000000E+00 0.  1.
         21    1    1    2  506  504  0.52429418242E+02 -0.44910204357E+02 -0.96180632897E+02  0.11839123488E+03  0.00000000000E+00 0.  1.
<scales pt_clust_3="80.29675" pt_clust_4="104.22153" pt_clust_5="14000.00000" pt_clust_6="69.03456"></scales>
<clustering>
<clus scale="   69.035">  2  6  1 -1</clus>
<clus scale="   80.297">  1  3  2 -1</clus>
<clus scale="  104.222">  1  4  2 -1</clus>
<clus scale="   80.297">  1  3  2 -1</clus>
</clustering>
</event>
<event>
 6    0  0.4469832E+002  0.1059944E+03  0.7546771E-02  0.1268173E+00
         21   -1    0    0  503  501  0.00000000000E+00  0.00000000000E+00  0.22346459615E+03  0.22346459615E+03  0.00000000000E+00 0. -1.
         21   -1    0    0  504  502 -0.00000000000E+00 -0.00000000000E+00 -0.10535964193E+04  0.10535964193E+04  0.00000000000E+00 0. -1.
         21    1    1    2  503  506 -0.32699467675E+02  0.13029486861E+02 -0.26606848855E+02  0.44124223734E+02  0.00000000000E+00 0. -1.
         21    1    1    2  504  505  0.13423335323E+03  0.15283457716E+03  0.36917478731E+02  0.20673630869E+03  0.00000000000E+00 0. -1.
         21    1    1    2  505  501 -0.22276576509E+02 -0.99034389757E+02  0.61257509261E+02  0.11856027436E+03  0.00000000000E+00 0. -1.
         21    1    1    2  506  502 -0.79257309043E+02 -0.66829674264E+02 -0.90169996227E+03  0.90764020865E+03  0.00000000000E+00 0. -1.
<scales pt_clust_3="35.19975" pt_clust_4="105.99441" pt_clust_5="100.25318" pt_clust_6="14000.00000"></scales>
<clustering>
<clus scale="   35.200">  1  3  2 -1</clus>
<clus scale="  100.253">  1  5  2 -1</clus>
<clus scale="  105.994">  1  4  2 -1</clus>
<clus scale="   35.200">  1  3  2 -1</clus>
</clustering>
</event>
<event>
 6    0  0.4469832E+002  0.1159991E+03  0.7546771E-02  0.1249847E+00
         21   -1    0    0  506  501  0.00000000000E+00  0.00000000000E+00  0.66082980596E+03  0.66082980596E+03  0.00000000000E+00 0. -1.
         21   -1    0    0  504  502 -0.00000000000E+00 -0.00000000000E+00 -0.10425254935E+03  0.10425254935E+03  0.00000000000E+00 0. -1.
         21    1    1    2  503  502  0.11953641934E+03 -0.31063013750E+02 -0.26400036165E+02  0.12629658856E+03  0.00000000000E+00 0. -1.
         21    1    1    2  504  505 -0.10192348318E+03 -0.42471713849E+02  0.13563982304E+03  0.17490112777E+03  0.00000000000E+00 0. -1.
         21    1    1    2  505  501 -0.49789852504E+02  0.32720249693E+02  0.13949201841E+03  0.15168278529E+03  0.00000000000E+00 0. -1.
         21    1    1    2  506  503  0.32176916341E+02  0.40814477906E+02  0.30784545132E+03  0.31220185369E+03  0.00000000000E+00 0.  1.
<scales pt_clust_3="14000.00000" pt_clust_4="115.99913" pt_clust_5="61.59196" pt_clust_6="51.97283"></scales>
<clustering>
<clus scale="   51.973">  1  6  2 -1</clus>
<clus scale="   61.592">  1  5  2 -1</clus>
<clus scale="  115.999">  1  4  2 -1</clus>
<clus scale="   51.973">  1  3  2 -1</clus>
</clustering>
</event>
<event>
 6    0  0.4469832E+002  0.9788573E+02  0.7546771E-02  0.1284806E+00
         21   -1    0    0  505  501  0.00000000000E+00  0.00000000000E+00  0.34904093644E+04  0.34904093644E+04  0.00000000000E+00 0.  1.
         21   -1    0    0  503  502 -0.00000000000E+00 -0.00000000000E+00 -0.16265536995E+02  0.16265536995E+02  0.00000000000E+00 0.  1.
         21    1    1    2  503  501 -0.91292080975E+02 -0.22666414114E+02  0.19511418670E+03  0.21660460806E+03  0.00000000000E+00 0.  1.
         21    1    1    2  504  506  0.42316870804E+02 -0.30243927271E+02  0.28269031084E+03  0.28743560067E+03  0.00000000000E+00 0.  1.
         21    1    1    2  505  504 -0.37478145280E+01  0.54758349193E+02  0.27571648512E+04  0.27577111052E+04  0.00000000000E+00 0.  1.
         21    1    1    2  506  502  0.52723024699E+02 -0.18480078077E+01  0.23917447865E+03  0.24492358748E+03  0.00000000000E+00 0.  1.
<scales pt_clust_3="92.63176" pt_clust_4="31.41492" pt_clust_5="54.88645" pt_clust_6="31.41492"></scales>
<clustering>
<clus scale="   31.415">  4  6 -1 -1</clus>
<clus scale="   54.886">  1  5  2 -1</clus>
<clus scale="   92.632">  2  3  1 -1</clus>
<clus scale="   54.886">  1  3  2 -1</clus>
</clustering>
</event>
<event>
 6    0  0.4469832E+002  0.1347939E+03  0.7546771E-02  0.1220511E+00
         21   -1    0    0  505  501  0.00000000000E+00  0.00000000000E+00  0.28122735187E+03  0.28122735187E+03  0.00000000000E+00 0. -1.
         21   -1    0    0  506  502 -0.00000000000E+00 -0.00000000000E+00 -0.18914227704E+04  0.18914227704E+04  0.00000000000E+00 0.  1.
         21    1    1    2  503  502  0.38087137422E+02 -0.11049058236E+03 -0.15920130501E+04  0.15962970747E+04  0.00000000000E+00 0.  1.
         21    1    1    2  504  501 -0.94448148813E+02  0.13253622333E+03  0.22322659668E+03  0.27625426110E+03  0.00000000000E+00 0. -1.
         21    1    1    2  505  503  0.50719591439E+01 -0.31677701314E+02  0.17114501372E+02  0.36360798772E+02  0.00000000000E+00 0.  1.
         21    1    1    2  506  504  0.51289052247E+02  0.96320603456E+01 -0.25852346646E+03  0.26373798774E+03  0.00000000000E+00 0.  1.
<scales pt_clust_3="134.79392" pt_clust_4="14000.00000" pt_clust_5="32.08117" pt_clust_6="52.17787"></scales>
<clustering>
<clus scale="   32.081">  1  5  2 -1</clus>
<clus scale="   52.178">  2  6  1 -1</clus>
<clus scale="  134.794">  2  3  1 -1</clus>
<clus scale="   32.081">  1  3  2 -1</clus>
</clustering>
</event>
<event>
 6    0  0.4469832E+002  0.1327342E+03  0.7546771E-02  0.1223454E+00
         21   -1    0    0  505  501  0.00000000000E+00  0.00000000000E+00  0.29751845682E+03  0.29751845682E+03  0.00000000000E+00 0.  1.
         21   -1    0    0  503  502 -0.00000000000E+00 -0.00000000000E+00 -0.64356128943E+03  0.64356128943E+03  0.00000000000E+00 0.  1.
         21    1    1    2  503  504  0.26854254848E+02 -0.13313195978E+03 -0.37649873952E+03  0.40024563780E+03  0.00000000000E+00 0. -1.
         21    1    1    2  504  506  0.47092129837E+02  0.64583472856E+02 -0.17756723262E+03  0.19472754237E+03  0.00000000000E+00 0.  1.
         21    1    1    2  505  502 -0.84216444054E+02  0.21465374228E+02  0.26064514774E+03  0.27475273389E+03  0.00000000000E+00 0.  1.
         21    1    1    2  506  501  0.10270059369E+02  0.47083112695E+02 -0.52622008204E+02  0.71353832188E+02  0.00000000000E+00 0. -1.
<scales pt_clust_3="124.76383" pt_clust_4="35.17657" pt_clust_5="86.90899" pt_clust_6="35.17657"></scales>
<clustering>
<clus scale="   35.177">  4  6 -1 -1</clus>
<clus scale="   86.909">  1  5  2 -1</clus>
<clus scale="  124.764">  2  3  1 -1</clus>
<clus scale="   86.909">  1  3  2 -1</clus>
</clustering>
</event>
<event>
 6    0  0.4469832E+002  0.7068465E+02  0.7546771E-02  0.1357780E+00
         21   -1    0    0  503  501  0.00000000000E+00  0.00000000000E+00  0.42420274851E+02  0.42420274851E+02  0.00000000000E+00 0.  1.
         21   -1    0    0  506  502 -0.00000000000E+00 -0.00000000000E+00 -0.10849335481E+04  0.10849335481E+04  0.00000000000E+00 0.  1.
         21    1    1    2  503  504  0.22354516042E+02  0.50664858132E+02 -0.12641972572E+03  0.13801666308E+03  0.00000000000E+00 0.  1.
         21    1    1    2  504  502  0.44336311641E+02  0.22831503037E+02 -0.41742934903E+03  0.42039772537E+03  0.00000000000E+00 0.  1.
         21    1    1    2  505  501 -0.72515612966E+02  0.16563342526E+02 -0.13681049821E+02  0.75630877052E+02  0.00000000000E+00 0.  1.
         21    1    1    2  506  505  0.58247852837E+01 -0.90059703695E+02 -0.48498314866E+03  0.49330855743E+03  0.00000000000E+00 0.  1.
<scales pt_clust_3="63.38340" pt_clust_4="49.86969" pt_clust_5="14000.00000" pt_clust_6="70.68465"></scales>
<clustering>
<clus scale="   49.870">  2  4  1 -1</clus>
<clus scale="   63.383">  2  3  1 -1</clus>
<clus scale="   70.685">  2  6  1 -1</clus>
<clus scale="   70.685">  1  3  2 -1</clus>
</clustering>
</event>
<event>
 6    0  0.4469832E+002  0.1194832E+03  0.7546771E-02  0.1243952E+00
         21   -1    0    0  506  501  0.00000000000E+00  0.00000000000E+00  0.10228322425E+03  0.10228322425E+03  0.00000000000E+00 0. -1.
         21   -1    0    0  505  502 -0.00000000000E+00 -0.00000000000E+00 -0.26095541224E+03  0.26095541224E+03  0.00000000000E+00 0. -1.
         21    1    1    2  503  502  0.49332754986E+02  0.64117967477E+01 -0.98495038194E+02  0.11034538686E+03  0.00000000000E+00 0. -1.
         21    1    1    2  504  503  0.46531883542E+02  0.34373704672E+02 -0.49809827752E+02  0.76339941705E+02  0.00000000000E+00 0. -1.
         21    1    1    2  505  501 -0.12496618746E+03 -0.29498467336E+02 -0.39003481343E+02  0.13419381186E+03  0.00000000000E+00 0. -1.
         21    1    1    2  506  504  0.29101548932E+02 -0.11287034084E+02  0.28636159293E+02  0.42359496075E+02  0.00000000000E+00 0. -1.
<scales pt_clust_3="41.27296" pt_clust_4="41.27296" pt_clust_5="110.78191" pt_clust_6="31.21374"></scales>
<clustering>
<clus scale="   31.214">  1  6  2 -1</clus>
<clus scale="   41.273">  3  4 -1 -1</clus>
<clus scale="  110.782">  1  5  2 -1</clus>
<clus scale="   31.214">  1  3  2 -1</clus>
</clustering>
</event>
<event>
 6    0  0.4469832E+002  0.9152673E+02  0.7546771E-02  0.1299196E+00
         21   -1    0    0  504  501  0.00000000000E+00  0.00000000000E+00  0.21777477124E+03  0.21777477124E+03  0.00000000000E+00 0.  1.
         21   -1    0    0  505  502 -0.00000000000E+00 -0.00000000000E+00 -0.56517877540E+03  0.56517877540E+03  0.00000000000E+00 0. -1.
         21    1    1    2  503  506  0.57394024869E+02 -0.11342132127E+03 -0.83732975526E+02  0.15221590390E+03  0.00000000000E+00 0.  1.
         21    1    1    2  504  503 -0.66984151543E+02  0.17366280413E+02  0.16886829339E+03  0.18249647878E+03  0.00000000000E+00 0.  1.
         21    1    1    2  505  501  0.19463790459E+02  0.60343958596E+02 -0.37123099844E+03  0.37660680647E+03  0.00000000000E+00 0. -1.
         21    1    1    2  506  502 -0.98736637856E+01  0.35711082259E+02 -0.61308323588E+02  0.71634357496E+02  0.00000000000E+00 0.  1.
<scales pt_clust_3="91.52673" pt_clust_4="69.45316" pt_clust_5="14000.00000" pt_clust_6="37.05092"></scales>
<clustering>
<clus scale="   37.051">  2  6  1 -1</clus>
<clus scale="   69.453">  1  4  2 -1</clus>
<clus scale="   91.527">  1  3  2 -1</clus>
<clus scale="   69.453">  1  3  2 -1</clus>
</clustering>
</event>
<event>
 6    0  0.4469832E+002  0.1388766E+03  0.7546771E-02  0.1214849E+00
         21   -1    0    0  505  501  0.00000000000E+00  0.00000000000E+00  0.11507120500E+03  0.11507120500E+03  0.00000000000E+00 0. -1.
         21   -1    0    0  506  502 -0.00000000000E+00 -0.00000000000E+00 -0.96833191855E+03  0.96833191855E+03  0.00000000000E+00 0.  1.
         21    1    1    2  503  501 -0.55284377414E+01  0.44553013449E+02  0.44905973653E+02  0.63498670073E+02  0.00000000000E+00 0. -1.
         21    1    1    2  504  503  0.12580802527E+03 -0.11400010651E+03 -0.93850388097E+02  0.19398860496E+03  0.00000000000E+00 0. -1.
         21    1    1    2  505  502 -0.64290005491E+02  0.96730269345E+02 -0.63439400038E+03  0.64493852229E+03  0.00000000000E+00 0.  1.
         21    1    1    2  506  504 -0.55989582039E+02 -0.27283176282E+02 -0.16992229873E+03  0.18097732623E+03  0.00000000000E+00 0.  1.
<scales pt_clust_3="44.89471" pt_clust_4="14000.00000" pt_clust_5="138.87658" pt_clust_6="61.08417"></scales>
<clustering>
<clus scale="   44.895">  1  3  2 -1</clus>
<clus scale="   61.084">  2  6  1 -1</clus>
<clus scale="  138.877">  2  5  1 -1</clus>
<clus scale="   44.895">  1  3  2 -1</clus>
</clustering>
</event>
<event>
 6    0  0.4469832E+002  0.9200289E+02  0.7546771E-02  0.1298073E+00
         21   -1    0    0  503  501  0.00000000000E+00  0.00000000000E+00  0.60409440959E+02  0.60409440959E+02  0.00000000000E+00 0.  1.
         21   -1    0    0  504  502 -0.00000000000E+00 -0.00000000000E+00 -0.65092758859E+03  0.65092758859E+03  0.00000000000E+00 0.  1.
         21    1    1    2  503  506  0.31724251566E+02  0.23538742208E+02  0.19072337915E+02  0.43866326444E+02  0.00000000000E+00 0.  1.
         21    1    1    2  504  505 -0.73661193169E+02 -0.72014265355E+02 -0.28326141065E+03  0.30141176579E+03  0.00000000000E+00 0.  1.
         21    1    1    2  505  501  0.32606180533E+02 -0.44566923056E+02 -0.50573953673E+02  0.74880561094E+02  0.00000000000E+00 0.  1.
         21    1    1    2  506  502  0.93307610698E+01  0.93042446204E+02 -0.27575512122E+03  0.29117837622E+03  0.00000000000E+00 0.  1.
<scales pt_clust_3="39.50317" pt_clust_4="92.00289" pt_clust_5="57.55239" pt_clust_6="14000.00000"></scales>
<clustering>
<clus scale="   39.503">  1  3  2 -1</clus>
<clus scale="   57.552">  1  5  2 -1</clus>
<clus scale="   92.003">  1  4  2 -1</clus>
<clus scale="   39.503">  1  3  2 -1</clus>
</clustering>
</event>
<event>
 6    0  0.4469832E+002  0.7885847E+02  0.7546771E-02  0.1332322E+00
         21   -1    0    0  506  501  0.00000000000E+00  0.00000000000E+00  0.10597769489E+04  0.10597769489E+04  0.00000000000E+00 0.  1.
         21   -1    0    0  505  502 -0.00000000000E+00 -0.00000000000E+00 -0.31458381904E+04  0.31458381904E+04  0.00000000000E+00 0. -1.
         21    1    1    2  503  502  0.13349506960E+02  0.45329713713E+02 -0.79583117073E+02  0.92555198690E+02  0.00000000000E+00 0.  1.
         21    1    1    2  504  503 -0.85156551633E+02 -0.62837009126E+02  0.44178150112E+03  0.45428077522E+03  0.00000000000E+00 0.  1.
         21    1    1    2  505  501  0.65297138767E+02 -0.41400904710E+02 -0.30515777271E+04  0.30525570225E+04  0.00000000000E+00 0. -1.
         21    1    1    2  506  504  0.65099059065E+01  0.58908200124E+02  0.60331810155E+03  0.60622214292E+03  0.00000000000E+00 0.  1.
<scales pt_clust_3="47.25455" pt_clust_4="14000.00000" pt_clust_5="78.85847" pt_clust_6="59.28889"></scales>
<clustering>
<clus scale="   47.255">  2  3  1 -1</clus>
<clus scale="   59.289">  1  6  2 -1</clus>
<clus scale="   78.858">  2  5  1 -1</clus>
<clus scale="   59.289">  1  3  2 -1</clus>
</clustering>
</event>
<event>
 6    0  0.4469832E+002  0.1072289E+03  0.7546771E-02  0.1265789E+00
         21   -1    0    0  505  501  0.00000000000E+00  0.00000000000E+00  0.38142573483E+03  0.38142573483E+03  0.00000000000E+00 0. -1.
         21   -1    0    0  501  502 -0.00000000000E+00 -0.00000000000E+00 -0.43837234296E+03  0.43837234296E+03  0.00000000000E+00 0. -1.
         21    1    1    2  503  506 -0.64993538196E+02  0.18916079562E+02  0.15547350950E+03  0.16957001571E+03  0.00000000000E+00 0. -1.
         21    1    1    2  504  502  0.12845103767E+03  0.71909568563E+01 -0.34866777378E+03  0.37164579294E+03  0.00000000000E+00 0. -1.
         21    1    1    2  505  503  0.83227198331E+01 -0.38464313663E+02  0.18616715167E+03  0.19028131662E+03  0.00000000000E+00 0. -1.
         21    1    1    2  506  504 -0.71780219307E+02  0.12357277245E+02 -0.49919495517E+02  0.88300952528E+02  0.00000000000E+00 0. -1.
<scales pt_clust_3="59.52951" pt_clust_4="14000.00000" pt_clust_5="39.35443" pt_clust_6="107.22891"></scales>
<clustering>
<clus scale="   39.354">  1  5  2 -1</clus>
<clus scale="   59.530">  1  3  2 -1</clus>
<clus scale="  107.229">  1  6  2 -1</clus>
<clus scale="   39.354">  1  3  2 -1</clus>
</clustering>
</event>
<event>
 6    0  0.4469832E+002  0.1394877E+03  0.7546771E-02  0.1214020E+00
         21   -1    0    0  505  501  0.00000000000E+00  0.00000000000E+00  0.36492178596E+03  0.36492178596E+03  0.00000000000E+00 0. -1.
         21   -1    0    0  503  502 -0.00000000000E+00 -0.00000000000E+00 -0.16648077558E+03  0.16648077558E+03  0.00000000000E+00 0. -1.
         21    1    1    2  503  506 -0.47893942887E+02  0.14636926949E+03 -0.55749412875E+02  0.16378580480E+03  0.00000000000E+00 0. -1.
         21    1    1    2  504  502  0.19753593433E+02 -0.11681999439E+03  0.38282311495E+02  0.12450964186E+03  0.00000000000E+00 0. -1.
         21    1    1    2  505  504 -0.36635934793E+02 -0.65972591877E+01  0.42051322014E+02  0.56160744565E+02  0.00000000000E+00 0. -1.
         21    1    1    2  506  501  0.64776284247E+02 -0.22952015911E+02  0.17385678974E+03  0.18694637032E+03  0.00000000000E+00 0. -1.
<scales pt_clust_3="139.48771" pt_clust_4="14000.00000" pt_clust_5="37.22520" pt_clust_6="51.34898"></scales>
<clustering>
<clus scale="   37.225">  1  5  2 -1</clus>
<clus scale="   51.349">  1  6  2 -1</clus>
<clus scale="  139.488">  2  3  1 -1</clus>
<clus scale="   37.225">  1  3  2 -1</clus>
</clustering>
</event>
<event>
 6    0  0.4469832E+002  0.9496970E+02  0.7546771E-02  0.1291244E+00
         21   -1    0    0  503  501  0.00000000000E+00  0.00000000000E+00  0.93164821898E+03  0.93164821898E+03  0.00000000000E+00 0.  1.
         21   -1    0    0  506  502 -0.00000000000E+00 -0.00000000000E+00 -0.38675487615E+02  0.38675487615E+02  0.00000000000E+00 0.  1.
         21    1    1    2  503  502 -0.10332472793E+03  0.26304577140E+02  0.52140754854E+03  0.53219710808E+03  0.00000000000E+00 0.  1.
         21    1    1    2  504  501  0.80767749423E+02  0.42252287873E+02  0.21753620927E+03  0.23586158551E+03  0.00000000000E+00 0.  1.
         21    1    1    2  505  504  0.63376423674E+02 -0.24329675312E+02  0.59871576072E+02  0.90515798621E+02  0.00000000000E+00 0.  1.
         21    1    1    2  506  505 -0.40819445171E+02 -0.44227189700E+02  0.94157397488E+02  0.11174921438E+03  0.00000000000E+00 0.  1.
<scales pt_clust_3="14000.00000" pt_clust_4="94.96970" pt_clust_5="63.33553" pt_clust_6="60.18531"></scales>
<clustering>
<clus scale="   60.185">  2  6  1 -1</clus>
<clus scale="   63.336">  2  5  1 -1</clus>
<clus scale="   94.970">  2  4  1 -1</clus>
<clus scale="   94.970">  1  3  2 -1</clus>
</clustering>
</event>
<event>
 6    0  0.4469832E+002  0.1217539E+03  0.7546771E-02  0.1240231E+00
         21   -1    0    0  505  501  0.00000000000E+00  0.00000000000E+00  0.60337580943E+03  0.60337580943E+03  0.00000000000E+00 0. -1.
         21   -1    0    0  503  502 -0.00000000000E+00 -0.00000000000E+00 -0.13813354685E+03  0.13813354685E+03  0.00000000000E+00 0.  1.
         21    1    1    2  503  506 -0.59211016508E+02  0.24509150719E+02 -0.44087196565E+02  0.77783827662E+02  0.00000000000E+00 0.  1.
         21    1    1    2  504  501  0.45906795929E+02  0.39072534572E+02  0.47810170031E+03  0.48188726142E+03  0.00000000000E+00 0. -1.
         21    1    1    2  505  502  0.77642289202E+02 -0.36215003283E+02  0.61691528401E+02  0.10557317941E+03  0.00000000000E+00 0.  1.
         21    1    1    2  506  504 -0.64338068622E+02 -0.27366682009E+02 -0.30463769567E+02  0.76265087783E+02  0.00000000000E+00 0.  1.
<scales pt_clust_3="51.56223" pt_clust_4="60.28347" pt_clust_5="109.19398" pt_clust_6="51.56223"></scales>
<clustering>
<clus scale="   51.562">  3  6 -1 -1</clus>
<clus scale="   60.283">  1  4  2 -1</clus>
<clus scale="  109.194">  1  5  2 -1</clus>
<clus scale="   60.283">  1  3  2 -1</clus>
</clustering>
</event>
<event>
 6    0  0.4469832E+002  0.1250185E+03  0.7546771E-02  0.1235040E+00
         21   -1    0    0  505  501  0.00000000000E+00  0.00000000000E+00  0.80770715068E+02  0.80770715068E+02  0.00000000000E+00 0.  1.
         21   -1    0    0  506  502 -0.00000000000E+00 -0.00000000000E+00 -0.95348271417E+03  0.95348271417E+03  0.00000000000E+00 0.  1.
         21    1    1    2  503  501 -0.63628762865E+01  0.30537899891E+02  0.29684357103E+02  0.43060545526E+02  0.00000000000E+00 0.  1.
         21    1    1    2  504  503  0.54591300119E+02  0.91808818930E+02 -0.43926046538E+02  0.11549271339E+03  0.00000000000E+00 0.  1.
         21    1    1    2  505  502 -0.42898008101E+02  0.48618825435E+01 -0.16010095941E+03  0.16581976422E+03  0.00000000000E+00 0.  1.
         21    1    1    2  506  504 -0.53304157320E+01 -0.12720860136E+03 -0.69836935026E+03  0.70988040611E+03  0.00000000000E+00 0.  1.
<scales pt_clust_3="31.19374" pt_clust_4="14000.00000" pt_clust_5="43.84285" pt_clust_6="125.01848"></scales>
<clustering>
<clus scale="   31.194">  1  3  2 -1</clus>
<clus scale="   43.843">  2  5  1 -1</clus>
<clus scale="  125.018">  2  6  1 -1</clus>
<clus scale="   31.194">  1  3  2 -1</clus>
</clustering>
</event>
<event>
 6    0  0.4469832E+002  0.7540208E+02  0.7546771E-02  0.1342630E+00
         21   -1    0    0  505  501  0.00000000000E+00  0.00000000000E+00  0.14227541329E+04  0.14227541329E+04  0.00000000000E+00 0. -1.
         21   -1    0    0  503  502 -0.00000000000E+00 -0.00000000000E+00 -0.13779094287E+02  0.13779094287E+02  0.00000000000E+00 0. -1.
         21    1    1    2  503  506 -0.39943003351E+02 -0.31201508303E+02  0.15476070641E+03  0.16284917527E+03  0.00000000000E+00 0. -1.
         21    1    1    2  504  502  0.50541178695E+02 -0.61605424480E+02  0.27162695756E+03  0.28307391816E+03  0.00000000000E+00 0. -1.
         21    1    1    2  505  504  0.27738497499E+02  0.73859156415E+02  0.74870322009E+03  0.75284866408E+03  0.00000000000E+00 0. -1.
         21    1    1    2  506  501 -0.38336672843E+02  0.18947776368E+02  0.23388415453E+03  0.23776146966E+03  0.00000000000E+00 0. -1.
<scales pt_clust_3="53.41600" pt_clust_4="75.40208" pt_clust_5="14000.00000" pt_clust_6="42.76352"></scales>
<clustering>
<clus scale="   42.764">  1  6  2 -1</clus>
<clus scale="   53.416">  2  3  1 -1</clus>
<clus scale="   75.402">  2  4  1 -1</clus>
<clus scale="   42.764">  1  3  2 -1</clus>
</clustering>
</event>
<event>
 6    0  0.4469832E+002  0.1167963E+03  0.7546771E-02  0.1248478E+00
         21   -1    0    0  506  501  0.00000000000E+00  0.00000000000E+00  0.54748751697E+03  0.54748751697E+03  0.00000000000E+00 0.  1.
         21   -1    0    0  503  502 -0.00000000000E+00 -0.00000000000E+00 -0.91290239908E+03  0.91290239908E+03  0.00000000000E+00 0. -1.
         21    1    1    2  503  505  0.30957518499E+02  0.10125039604E+02 -0.64397159446E+02  0.72165632564E+02  0.00000000000E+00 0.  1.
         21    1    1    2  504  501 -0.69324411751E+01  0.74905186377E+02  0.52237947966E+03  0.52776809913E+03  0.00000000000E+00 0.  1.
         21    1    1    2  505  504 -0.45681029350E+01  0.79775192225E+02 -0.20060814614E+03  0.21593651187E+03  0.00000000000E+00 0. -1.
         21    1    1    2  506  502 -0.19456974389E+02 -0.16480541821E+03 -0.62278905618E+03  0.64451967249E+03  0.00000000000E+00 0. -1.
<scales pt_clust_3="32.57122" pt_clust_4="75.24843" pt_clust_5="116.79635" pt_clust_6="14000.00000"></scales>
<clustering>
<clus scale="   32.571">  2  3  1 -1</clus>
<clus scale="   75.248">  1  4  2 -1</clus>
<clus scale="  116.796">  1  5  2 -1</clus>
<clus scale="   75.248">  1  3  2 -1</clus>
</clustering>
</event>
<event>
 6    0  0.4469832E+002  0.7322230E+02  0.7546771E-02  0.1349466E+00
         21   -1    0    0  503  501  0.00000000000E+00  0.00000000000E+00  0.12609899691E+03  0.12609899691E+03  0.00000000000E+00 0. -1.
         21   -1    0    0  505  502 -0.00000000000E+00 -0.00000000000E+00 -0.72718028891E+03  0.72718028891E+03  0.00000000000E+00 0. -1.
         21    1    1    2  503  504  0.56952025816E+02 -0.16146553375E+02  0.34246044527E+02  0.68388858714E+02  0.00000000000E+00 0. -1.
         21    1    1    2  504  502 -0.16826883217E+02 -0.41764465483E+02 -0.49983714231E+03  0.50186111964E+03  0.00000000000E+00 0. -1.
         21    1    1    2  505  506  0.23162955910E+02 -0.33284958738E+02 -0.16357514284E+03  0.16852666958E+03  0.00000000000E+00 0. -1.
         21    1    1    2  506  501 -0.63288098510E+02  0.91195977595E+02  0.28084948629E+02  0.11450263788E+03  0.00000000000E+00 0. -1.
<scales pt_clust_3="60.15592" pt_clust_4="14000.00000" pt_clust_5="40.55134" pt_clust_6="73.22230"></scales>
<clustering>
<clus scale="   40.551">  2  5  1 -1</clus>
<clus scale="   60.156">  1  3  2 -1</clus>
<clus scale="   73.222">  1  6  2 -1</clus>
<clus scale="   60.156">  1  3  2 -1</clus>
</clustering>
</event>
<event>
 6    0  0.4469832E+002  0.7999681E+02  0.7546771E-02  0.1329060E+00
         21   -1    0    0  503  501  0.00000000000E+00  0.00000000000E+00  0.43157007876E+02  0.43157007876E+02  0.00000000000E+00 0. -1.
         21   -1    0    0  505  502 -0.00000000000E+00 -0.00000000000E+00 -0.19234125075E+04  0.19234125075E+04  0.00000000000E+00 0.  1.
         21    1    1    2  503  504 -0.37757632922E+02  0.13589399515E+02 -0.19959592766E+02  0.44818477958E+02  0.00000000000E+00 0.  1.
         21    1    1    2  504  502 -0.30225721612E+02  0.28107095552E+02 -0.42023219800E+03  0.42225431117E+03  0.00000000000E+00 0.  1.
         21    1    1    2  505  506 -0.49430508532E+02 -0.34835251378E+02 -0.13500154276E+04  0.13513691297E+04  0.00000000000E+00 0.  1.
         21    1    1    2  506  501  0.11741386307E+03 -0.68612436896E+01 -0.90048281258E+02  0.14812759656E+03  0.00000000000E+00 0. -1.
<scales pt_clust_3="40.12868" pt_clust_4="42.49218" pt_clust_5="79.99681" pt_clust_6="14000.00000"></scales>
<clustering>
<clus scale="   40.129">  1  3  2 -1</clus>
<clus scale="   42.492">  2  4  1 -1</clus>
<clus scale="   79.997">  2  5  1 -1</clus>
<clus scale="   40.129">  1  3  2 -1</clus>
</clustering>
</event>
<event>
 6    0  0.4469832E+002  0.2137477E+03  0.7546771E-02  0.1138632E+00
         21   -1    0    0  506  501  0.00000000000E+00  0.00000000000E+00  0.56193188302E+03  0.56193188302E+03  0.00000000000E+00 0.  1.
         21   -1    0    0  504  502 -0.00000000000E+00 -0.00000000000E+00 -0.37871089422E+03  0.37871089422E+03  0.00000000000E+00 0.  1.
         21    1    1    2  503  501 -0.34797877120E+02 -0.12065974296E+02  0.30408920108E+03  0.30631147905E+03  0.00000000000E+00 0.  1.
         21    1    1    2  504  503 -0.44563207165E+02  0.19958240139E+03  0.17501706433E+03  0.26916535287E+03  0.00000000000E+00 0.  1.
         21    1    1    2  505  502  0.67730313156E+02 -0.94414144616E+02 -0.19799021127E+03  0.22956818112E+03  0.00000000000E+00 0.  1.
         21    1    1    2  506  505  0.11630771129E+02 -0.93102282478E+02 -0.97895065334E+02  0.13559776420E+03  0.00000000000E+00 0.  1.
<scales pt_clust_3="36.83042" pt_clust_4="203.34852" pt_clust_5="59.53025" pt_clust_6="59.53025"></scales>
<clustering>
<clus scale="   36.830">  1  3  2 -1</clus>
<clus scale="   59.530">  5  6 -1 -1</clus>
<clus scale="  203.349">  1  4  2 -1</clus>
<clus scale="   36.830">  1  3  2 -1</clus>
</clustering>
</event>
<event>
 6    0  0.6975234E+002  0.4546235E+03  0.7546771E-02  0.1026352E+00
         21   -1    0    0  504  501  0.00000000000E+00  0.00000000000E+00  0.10416250122E+04  0.10416250122E+04  0.00000000000E+00 0. -1.
         21   -1    0    0  506  502 -0.00000000000E+00 -0.00000000000E+00 -0.12006287632E+04  0.12006287632E+04  0.00000000000E+00 0.  1.
         21    1    1    2  503  501  0.33356612149E+02  0.16957047149E+02  0.48488965195E+03  0.48633134753E+03  0.00000000000E+00 0. -1.
         21    1    1    2  504  505  0.22235246915E+03 -0.71723517631E+02  0.23923916284E+03  0.33439536563E+03  0.00000000000E+00 0. -1.
         21    1    1    2  505  502  0.17632901746E+03 -0.88746748453E+02  0.17866443869E+03  0.26624967495E+03  0.00000000000E+00 0. -1.
         21    1    1    2  506  503 -0.43203809876E+03  0.14351321893E+03 -0.10617970045E+04  0.11552773872E+04  0.00000000000E+00 0.  1.
<scales pt_clust_3="37.41931" pt_clust_4="34.80118" pt_clust_5="34.80118" pt_clust_6="453.04424"></scales>
<clustering>
<clus scale="   34.801">  4  5 -1 -1</clus>
<clus scale="   37.419">  1  3  2 -1</clus>
<clus scale="  453.044">  2  6  1 -1</clus>
<clus scale="   37.419">  1  3  2 -1</clus>
</clustering>
</event>
<event>
 6    0  0.4469832E+002  0.1610612E+03  0.7546771E-02  0.1187504E+00
         21   -1    0    0  506  501  0.00000000000E+00  0.00000000000E+00  0.20839180075E+03  0.20839180075E+03  0.00000000000E+00 0.  1.
         21   -1    0    0  504  502 -0.00000000000E+00 -0.00000000000E+00 -0.11567689392E+04  0.11567689392E+04  0.00000000000E+00 0.  1.
         21    1    1    2  503  501  0.17179799054E+03  0.81481682305E+01  0.14292167698E+03  0.22362367485E+03  0.00000000000E+00 0.  1.
         21    1    1    2  504  505 -0.43536831071E+02  0.24683397223E+02 -0.84021814592E+03  0.84170734730E+03  0.00000000000E+00 0.  1.
         21    1    1    2  505  503 -0.11801896225E+03 -0.22498085424E+00 -0.13742635421E+03  0.18114780954E+03  0.00000000000E+00 0.  1.
         21    1    1    2  506  502 -0.10242197221E+02 -0.32606584600E+02 -0.11365431527E+03  0.11868190824E+03  0.00000000000E+00 0.  1.
<scales pt_clust_3="161.06124" pt_clust_4="51.84090" pt_clust_5="14000.00000" pt_clust_6="34.17736"></scales>
<clustering>
<clus scale="   34.177">  2  6  1 -1</clus>
<clus scale="   51.841">  2  4  1 -1</clus>
<clus scale="  161.061">  1  3  2 -1</clus>
<clus scale="  161.061">  1  3  2 -1</clus>
</clustering>
</event>
<event>
 6    0  0.4469832E+002  0.9005948E+02  0.7546771E-02  0.1302708E+00
         21   -1    0    0  506  501  0.00000000000E+00  0.00000000000E+00  0.32219860487E+03  0.32219860487E+03  0.00000000000E+00 0.  1.
         21   -1    0    0  505  502 -0.00000000000E+00 -0.00000000000E+00 -0.24169290665E+04  0.24169290665E+04  0.00000000000E+00 0.  1.
         21    1    1    2  503  504  0.43592760987E+02 -0.46983055000E+02 -0.11080157768E+04  0.11098678741E+04  0.00000000000E+00 0. -1.
         21    1    1    2  504  501  0.32938236925E+02 -0.59904207260E+02  0.99070613102E+01  0.69076706371E+02  0.00000000000E+00 0.  1.
         21    1    1    2  505  503 -0.92553061019E+01  0.37398994755E+02 -0.12698020577E+04  0.12703864024E+04  0.00000000000E+00 0.  1.
         21    1    1    2  506  502 -0.67275691810E+02  0.69488267506E+02  0.27318031162E+03  0.28979668854E+03  0.00000000000E+00 0.  1.
<scales pt_clust_3="36.29357" pt_clust_4="14000.00000" pt_clust_5="38.52720" pt_clust_6="90.05948"></scales>
<clustering>
<clus scale="   38.527">  2  5  1 -1</clus>
<clus scale="   36.294">  2  3  1 -1</clus>
<clus scale="   90.059">  1  6  2 -1</clus>
<clus scale="   90.059">  1  3  2 -1</clus>
</clustering>
</event>
<event>
 6    0  0.4469832E+002  0.1524076E+03  0.7546771E-02  0.1197545E+00
         21   -1    0    0  503  501  0.00000000000E+00  0.00000000000E+00  0.48140338704E+03  0.48140338704E+03  0.00000000000E+00 0. -1.
         21   -1    0    0  506  502 -0.00000000000E+00 -0.00000000000E+00 -0.23655857753E+03  0.23655857753E+03  0.00000000000E+00 0. -1.
         21    1    1    2  503  504 -0.15125237237E+03 -0.54795150319E+02  0.40738953694E+03  0.43800230987E+03  0.00000000000E+00 0. -1.
         21    1    1    2  504  502  0.69446466569E+02  0.23170367629E+02 -0.13390375102E+03  0.15261026241E+03  0.00000000000E+00 0. -1.
         21    1    1    2  505  501  0.58661385061E+02  0.61336101419E+02 -0.28987160562E+02  0.89685734161E+02  0.00000000000E+00 0. -1.
         21    1    1    2  506  505  0.23144520738E+02 -0.29711318729E+02  0.34618414785E+00  0.37663658137E+02  0.00000000000E+00 0. -1.
<scales pt_clust_3="152.40759" pt_clust_4="14000.00000" pt_clust_5="83.99630" pt_clust_6="37.66207"></scales>
<clustering>
<clus scale="   37.662">  2  6  1 -1</clus>
<clus scale="   83.996">  2  5  1 -1</clus>
<clus scale="  152.408">  1  3  2 -1</clus>
<clus scale="  152.408">  1  3  2 -1</clus>
</clustering>
</event>
<event>
 6    0  0.4469832E+002  0.1072728E+03  0.7546771E-02  0.1265705E+00
         21   -1    0    0  505  501  0.00000000000E+00  0.00000000000E+00  0.11458384037E+04  0.11458384037E+04  0.00000000000E+00 0.  1.
         21   -1    0    0  506  502 -0.00000000000E+00 -0.00000000000E+00 -0.16827979783E+03  0.16827979783E+03  0.00000000000E+00 0.  1.
         21    1    1    2  503  501 -0.11264160251E+02  0.40903516661E+02  0.81152135474E+02  0.91573184249E+02  0.00000000000E+00 0. -1.
         21    1    1    2  504  502  0.96806160275E+01  0.62125189177E+02 -0.12690984662E+03  0.14163107931E+03  0.00000000000E+00 0.  1.
         21    1    1    2  505  504  0.17055251656E+02 -0.14951323235E+03  0.10208271318E+04  0.10318590608E+04  0.00000000000E+00 0.  1.
         21    1    1    2  506  503 -0.15471707432E+02  0.46484526510E+02  0.24891852110E+01  0.49054877217E+02  0.00000000000E+00 0. -1.
<scales pt_clust_3="42.42616" pt_clust_4="107.27284" pt_clust_5="14000.00000" pt_clust_6="50.02231"></scales>
<clustering>
<clus scale="   42.426">  1  3  2 -1</clus>
<clus scale="   50.022">  2  6  1 -1</clus>
<clus scale="  107.273">  2  4  1 -1</clus>
<clus scale="   42.426">  1  3  2 -1</clus>
</clustering>
</event>
<event>
 6    0  0.4469832E+002  0.1277466E+03  0.7546771E-02  0.1230838E+00
         21   -1    0    0  506  501  0.00000000000E+00  0.00000000000E+00  0.78259060089E+03  0.78259060089E+03  0.00000000000E+00 0.  1.
         21   -1    0    0  505  502 -0.00000000000E+00 -0.00000000000E+00 -0.53472513506E+02  0.53472513506E+02  0.00000000000E+00 0.  1.
         21    1    1    2  503  502 -0.13539866062E+03 -0.46325399654E+02  0.11751449401E+03  0.18517153197E+03  0.00000000000E+00 0.  1.
         21    1    1    2  504  503  0.11896464906E+02  0.46623253102E+02  0.79376207405E+02  0.92821527185E+02  0.00000000000E+00 0.  1.
         21    1    1    2  505  501  0.10471422013E+03 -0.48933221693E+02  0.35621490399E+03  0.37449777824E+03  0.00000000000E+00 0.  1.
         21    1    1    2  506  504  0.18787975585E+02  0.48635368246E+02  0.17601248198E+03  0.18357227700E+03  0.00000000000E+00 0.  1.
<scales pt_clust_3="127.74662" pt_clust_4="32.64016" pt_clust_5="14000.00000" pt_clust_6="105.68894"></scales>
<clustering>
<clus scale="   32.640">  4  6 -1 -1</clus>
<clus scale="  105.689">  1  4  2 -1</clus>
<clus scale="  127.747">  2  3  1 -1</clus>
<clus scale="  105.689">  1  3  2 -1</clus>
</clustering>
</event>
<event>
 6    0  0.4469832E+002  0.1351340E+03  0.7546771E-02  0.1220031E+00
         21   -1    0    0  504  501  0.00000000000E+00  0.00000000000E+00  0.31397363869E+03  0.31397363869E+03  0.00000000000E+00 0. -1.
         21   -1    0    0  505  502 -0.00000000000E+00 -0.00000000000E+00 -0.18253151415E+03  0.18253151415E+03  0.00000000000E+00 0. -1.
         21    1    1    2  503  506 -0.45336127242E+02  0.49515227053E+02 -0.28424951503E+02  0.72904732435E+02  0.00000000000E+00 0. -1.
         21    1    1    2  504  502 -0.13430022880E+02 -0.17979695338E+03  0.61555217753E+02  0.19051602241E+03  0.00000000000E+00 0. -1.
         21    1    1    2  505  503  0.28070469115E+02  0.14199844407E+02 -0.39373844418E+02  0.50397286056E+02  0.00000000000E+00 0. -1.
         21    1    1    2  506  501  0.30695681008E+02  0.11608188192E+03  0.13768570271E+03  0.18268711195E+03  0.00000000000E+00 0. -1.
<scales pt_clust_3="64.97655" pt_clust_4="14000.00000" pt_clust_5="31.45770" pt_clust_6="135.13399"></scales>
<clustering>
<clus scale="   31.458">  2  5  1 -1</clus>
<clus scale="   64.977">  2  3  1 -1</clus>
<clus scale="  135.134">  1  6  2 -1</clus>
<clus scale="  135.134">  1  3  2 -1</clus>
</clustering>
</event>
<event>
 6    0  0.3187294E+003  0.1332698E+03  0.7546771E-02  0.1222683E+00
         21   -1    0    0  504  501  0.00000000000E+00  0.00000000000E+00  0.10072640447E+04  0.10072640447E+04  0.00000000000E+00 0. -1.
         21   -1    0    0  505  502 -0.00000000000E+00 -0.00000000000E+00 -0.12526206048E+04  0.12526206048E+04  0.00000000000E+00 0. -1.
         21    1    1    2  503  501  0.47875530653E+01  0.39717679839E+02  0.86739344325E+03  0.86831549575E+03  0.00000000000E+00 0. -1.
         21    1    1    2  504  502 -0.79836728176E+02 -0.13849599899E+03 -0.12072942983E+04  0.12178319127E+04  0.00000000000E+00 0. -1.
         21    1    1    2  505  506  0.29149587728E+02  0.10775884048E+02 -0.68783365402E+01  0.31829697694E+02  0.00000000000E+00 0. -1.
         21    1    1    2  506  503  0.45899587382E+02  0.88002435103E+02  0.10142263144E+03  0.14190754340E+03  0.00000000000E+00 0. -1.
<scales pt_clust_3="40.01049" pt_clust_4="133.26981" pt_clust_5="31.07761" pt_clust_6="14000.00000"></scales>
<clustering>
<clus scale="   31.078">  2  5  1 -1</clus>
<clus scale="   40.010">  1  3  2 -1</clus>
<clus scale="  133.270">  2  4  1 -1</clus>
<clus scale="   40.010">  1  3  2 -1</clus>
</clustering>
</event>
<event>
 6    0  0.4469832E+002  0.1206800E+03  0.7546771E-02  0.1241979E+00
         21   -1    0    0  505  501  0.00000000000E+00  0.00000000000E+00  0.12406057559E+04  0.12406057559E+04  0.00000000000E+00 0. -1.
         21   -1    0    0  504  502 -0.00000000000E+00 -0.00000000000E+00 -0.30518866331E+03  0.30518866331E+03  0.00000000000E+00 0. -1.
         21    1    1    2  503  502 -0.98471090977E+02 -0.21979744541E+02 -0.23472717847E+03  0.25549268725E+03  0.00000000000E+00 0. -1.
         21    1    1    2  504  506 -0.22123678234E+02  0.27607913931E+02 -0.47098494255E+02  0.58906045626E+02  0.00000000000E+00 0. -1.
         21    1    1    2  505  503  0.15097802010E+03  0.86683929844E+01  0.10479043266E+04  0.10587601151E+04  0.00000000000E+00 0. -1.
         21    1    1    2  506  501 -0.30383250888E+02 -0.14296562374E+02  0.16933843868E+03  0.17263557120E+03  0.00000000000E+00 0.  1.
<scales pt_clust_3="120.68002" pt_clust_4="35.42247" pt_clust_5="14000.00000" pt_clust_6="33.57877"></scales>
<clustering>
<clus scale="   33.579">  1  6  2 -1</clus>
<clus scale="   35.422">  2  4  1 -1</clus>
<clus scale="  120.680">  2  3  1 -1</clus>
<clus scale="   33.579">  1  3  2 -1</clus>
</clustering>
</event>
<event>
 6    0  0.4469832E+002  0.1273849E+03  0.7546771E-02  0.1231388E+00
         21   -1    0    0  504  501  0.00000000000E+00  0.00000000000E+00  0.23689139596E+02  0.23689139596E+02  0.00000000000E+00 0.  1.
         21   -1    0    0  505  502 -0.00000000000E+00 -0.00000000000E+00 -0.12852784709E+04  0.12852784709E+04  0.00000000000E+00 0.  1.
         21    1    1    2  503  506 -0.82006838793E+01 -0.55379271659E+02 -0.15049643090E+03  0.16057176172E+03  0.00000000000E+00 0.  1.
         21    1    1    2  504  503  0.26227210996E+02 -0.33547668464E+02 -0.31517646563E+02  0.52978058674E+02  0.00000000000E+00 0.  1.
         21    1    1    2  505  501 -0.52971911574E+02  0.12086679265E+03 -0.90359792922E+03  0.91318345510E+03  0.00000000000E+00 0.  1.
         21    1    1    2  506  502  0.34945384458E+02 -0.31939852531E+02 -0.17597732457E+03  0.18223433496E+03  0.00000000000E+00 0.  1.
<scales pt_clust_3="46.65554" pt_clust_4="42.58301" pt_clust_5="116.77292" pt_clust_6="46.65554"></scales>
<clustering>
<clus scale="   42.583">  1  4  2 -1</clus>
<clus scale="   46.656">  3  6 -1 -1</clus>
<clus scale="  116.773">  2  5  1 -1</clus>
<clus scale="   42.583">  1  3  2 -1</clus>
</clustering>
</event>
<event>
 6    0  0.4469832E+002  0.9939244E+02  0.7546771E-02  0.1281579E+00
         21   -1    0    0  504  501  0.00000000000E+00  0.00000000000E+00  0.13328051138E+04  0.13328051138E+04  0.00000000000E+00 0.  1.
         21   -1    0    0  506  502 -0.00000000000E+00 -0.00000000000E+00 -0.91196218633E+03  0.91196218633E+03  0.00000000000E+00 0.  1.
         21    1    1    2  503  501  0.22506145110E+02  0.33901602220E+02  0.12270806689E+04  0.12277551927E+04  0.00000000000E+00 0.  1.
         21    1    1    2  504  502 -0.12137887472E+03  0.50539754094E+02 -0.62623121994E+03  0.63988486371E+03  0.00000000000E+00 0.  1.
         21    1    1    2  505  503  0.24626389250E+02 -0.72190536912E+02  0.77566846837E+02  0.10878671056E+03  0.00000000000E+00 0.  1.
         21    1    1    2  506  505  0.74246340363E+02 -0.12250819403E+02 -0.25757336836E+03  0.26834053313E+03  0.00000000000E+00 0.  1.
<scales pt_clust_3="40.69208" pt_clust_4="99.39244" pt_clust_5="61.35741" pt_clust_6="14000.00000"></scales>
<clustering>
<clus scale="   40.692">  1  3  2 -1</clus>
<clus scale="   61.357">  1  5  2 -1</clus>
<clus scale="   99.392">  1  4  2 -1</clus>
<clus scale="   40.692">  1  3  2 -1</clus>
</clustering>
</event>
<event>
 6    0  0.4469832E+002  0.3016162E+03  0.7546771E-02  0.1084435E+00
         21   -1    0    0  504  501  0.00000000000E+00  0.00000000000E+00  0.56463397372E+03  0.56463397372E+03  0.00000000000E+00 0. -1.
         21   -1    0    0  506  502 -0.00000000000E+00 -0.00000000000E+00 -0.28506411468E+03  0.28506411468E+03  0.00000000000E+00 0. -1.
         21    1    1    2  503  505 -0.13598180945E+03 -0.17839630560E+03 -0.86838661851E+02  0.24053533534E+03  0.00000000000E+00 0. -1.
         21    1    1    2  504  503  0.12354749721E+03  0.24542290615E+03  0.20232749934E+03  0.34122251380E+03  0.00000000000E+00 0. -1.
         21    1    1    2  505  502 -0.31549301487E+02 -0.79344891940E+02 -0.11823821473E+02  0.86201931855E+02  0.00000000000E+00 0. -1.
         21    1    1    2  506  501  0.43983613727E+02  0.12318291387E+02  0.17590484303E+03  0.18173830741E+03  0.00000000000E+00 0. -1.
<scales pt_clust_3="31.00738" pt_clust_4="297.39973" pt_clust_5="31.00738" pt_clust_6="45.67602"></scales>
<clustering>
<clus scale="   31.007">  3  5 -1 -1</clus>
<clus scale="   45.676">  1  6  2 -1</clus>
<clus scale="  297.400">  1  4  2 -1</clus>
<clus scale="   45.676">  1  3  2 -1</clus>
</clustering>
</event>
<event>
 6    0  0.4469832E+002  0.1135322E+03  0.7546771E-02  0.1254165E+00
         21   -1    0    0  506  501  0.00000000000E+00  0.00000000000E+00  0.22081783494E+03  0.22081783494E+03  0.00000000000E+00 0.  1.
         21   -1    0    0  505  502 -0.00000000000E+00 -0.00000000000E+00 -0.30553786103E+03  0.30553786103E+03  0.00000000000E+00 0.  1.
         21    1    1    2  503  502 -0.12226743437E+03  0.42070800148E+02 -0.19892583992E+03  0.23725675442E+03  0.00000000000E+00 0.  1.
         21    1    1    2  504  501  0.13168944010E+03  0.43410731093E+02  0.12020649055E+03  0.18351076420E+03  0.00000000000E+00 0.  1.
         21    1    1    2  505  504  0.15773931635E+02 -0.52025064010E+02 -0.24710551092E+02  0.59716292079E+02  0.00000000000E+00 0.  1.
         21    1    1    2  506  503 -0.25195937362E+02 -0.33456467231E+02  0.18709874367E+02  0.45871885267E+02  0.00000000000E+00 0.  1.
<scales pt_clust_3="113.53220" pt_clust_4="14000.00000" pt_clust_5="56.74450" pt_clust_6="41.88282"></scales>
<clustering>
<clus scale="   41.883">  1  6  2 -1</clus>
<clus scale="   56.744">  2  5  1 -1</clus>
<clus scale="  113.532">  2  3  1 -1</clus>
<clus scale="   41.883">  1  3  2 -1</clus>
</clustering>
</event>
<event>
 6    0  0.4469832E+002  0.8986776E+02  0.7546771E-02  0.1303172E+00
         21   -1    0    0  506  501  0.00000000000E+00  0.00000000000E+00  0.59774702881E+03  0.59774702881E+03  0.00000000000E+00 0. -1.
         21   -1    0    0  504  502 -0.00000000000E+00 -0.00000000000E+00 -0.71917115639E+02  0.71917115639E+02  0.00000000000E+00 0. -1.
         21    1    1    2  503  501 -0.65827879955E+02  0.75111387733E+01  0.40328560498E+03  0.40869182298E+03  0.00000000000E+00 0. -1.
         21    1    1    2  504  503  0.10985069598E+03 -0.17755305845E+02  0.59843223894E+02  0.12634729019E+03  0.00000000000E+00 0. -1.
         21    1    1    2  505  502 -0.28995851801E+02 -0.26904126750E+02 -0.18807474676E+02  0.43798545199E+02  0.00000000000E+00 0. -1.
         21    1    1    2  506  505 -0.15026964225E+02  0.37148293822E+02  0.81508558971E+02  0.90826486078E+02  0.00000000000E+00 0.  1.
<scales pt_clust_3="89.86776" pt_clust_4="14000.00000" pt_clust_5="39.55492" pt_clust_6="38.69188"></scales>
<clustering>
<clus scale="   39.555">  2  5  1 -1</clus>
<clus scale="   38.692">  1  6  2 -1</clus>
<clus scale="   89.868">  1  3  2 -1</clus>
<clus scale="   38.692">  1  3  2 -1</clus>
</clustering>
</event>
<event>
 6    0  0.4469832E+002  0.2050332E+03  0.7546771E-02  0.1145561E+00
         21   -1    0    0  503  501  0.00000000000E+00  0.00000000000E+00  0.40952376243E+04  0.40952376243E+04  0.00000000000E+00 0. -1.
         21   -1    0    0  505  502 -0.00000000000E+00 -0.00000000000E+00 -0.86223221621E+02  0.86223221621E+02  0.00000000000E+00 0.  1.
         21    1    1    2  503  504 -0.12732908288E+03  0.68507504673E+02  0.14653210120E+03  0.20585827704E+03  0.00000000000E+00 0.  1.
         21    1    1    2  504  502 -0.56312206047E+02 -0.50452251557E+00 -0.39007098186E+02  0.68504545847E+02  0.00000000000E+00 0.  1.
         21    1    1    2  505  506  0.13693566402E+03 -0.55656850407E+02  0.22204074472E+04  0.22253220650E+04  0.00000000000E+00 0. -1.
         21    1    1    2  506  501  0.46705624908E+02 -0.12346131750E+02  0.16810819524E+04  0.16817759580E+04  0.00000000000E+00 0. -1.
<scales pt_clust_3="191.28958" pt_clust_4="56.31447" pt_clust_5="42.19240" pt_clust_6="42.19240"></scales>
<clustering>
<clus scale="   42.192">  5  6 -1 -1</clus>
<clus scale="   56.314">  2  4  1 -1</clus>
<clus scale="  191.290">  2  3  1 -1</clus>
<clus scale="  205.033">  1  3  2 -1</clus>
</clustering>
</event>
<event>
 6    0  0.4469832E+002  0.8864291E+02  0.7546771E-02  0.1306172E+00
         21   -1    0    0  506  501  0.00000000000E+00  0.00000000000E+00  0.30322254647E+03  0.30322254647E+03  0.00000000000E+00 0. -1.
         21   -1    0    0  504  502 -0.00000000000E+00 -0.00000000000E+00 -0.94578340810E+03  0.94578340810E+03  0.00000000000E+00 0. -1.
         21    1    1    2  503  505 -0.40467639057E+02  0.33243761505E+02  0.20377183371E+02  0.56196148373E+02  0.00000000000E+00 0.  1.
         21    1    1    2  504  503  0.25348683432E+02 -0.83921339642E+02 -0.95499210331E+02  0.12963582133E+03  0.00000000000E+00 0.  1.
         21    1    1    2  505  501 -0.33338577293E+02 -0.28512665290E+02  0.24325629956E+03  0.24718021784E+03  0.00000000000E+00 0. -1.
         21    1    1    2  506  502  0.48457532918E+02  0.79190243428E+02 -0.81069513423E+03  0.81599376702E+03  0.00000000000E+00 0. -1.
<scales pt_clust_3="64.11670" pt_clust_4="14000.00000" pt_clust_5="43.86836" pt_clust_6="88.64291"></scales>
<clustering>
<clus scale="   43.868">  1  5  2 -1</clus>
<clus scale="   64.117">  1  3  2 -1</clus>
<clus scale="   88.643">  2  6  1 -1</clus>
<clus scale="   43.868">  1  3  2 -1</clus>
</clustering>
</event>
<event>
 6    0  0.4469832E+002  0.1211146E+03  0.7546771E-02  0.1241269E+00
         21   -1    0    0  503  501  0.00000000000E+00  0.00000000000E+00  0.42333275554E+02  0.42333275554E+02  0.00000000000E+00 0.  1.
         21   -1    0    0  504  502 -0.00000000000E+00 -0.00000000000E+00 -0.60067410198E+03  0.60067410198E+03  0.00000000000E+00 0.  1.
         21    1    1    2  503  502  0.45308133978E+02  0.93672361453E+02 -0.90794330549E+02  0.13809760593E+03  0.00000000000E+00 0.  1.
         21    1    1    2  504  505 -0.13469169028E+01 -0.72971829747E+02 -0.21552181216E+03  0.22754417953E+03  0.00000000000E+00 0.  1.
         21    1    1    2  505  506 -0.21696849589E+02 -0.44808809573E+02 -0.23534571775E+03  0.24055392235E+03  0.00000000000E+00 0.  1.
         21    1    1    2  506  501 -0.22264367486E+02  0.24108277867E+02 -0.16678965964E+02  0.36811669711E+02  0.00000000000E+00 0.  1.
<scales pt_clust_3="115.05541" pt_clust_4="31.24334" pt_clust_5="31.24334" pt_clust_6="32.81632"></scales>
<clustering>
<clus scale="   31.243">  4  5 -1 -1</clus>
<clus scale="   32.816">  1  6  2 -1</clus>
<clus scale="  115.055">  1  3  2 -1</clus>
<clus scale="   32.816">  1  3  2 -1</clus>
</clustering>
</event>
<event>
 6    0  0.4469832E+002  0.7167206E+02  0.7546771E-02  0.1354498E+00
         21   -1    0    0  503  501  0.00000000000E+00  0.00000000000E+00  0.57666840037E+03  0.57666840037E+03  0.00000000000E+00 0.  1.
         21   -1    0    0  505  502 -0.00000000000E+00 -0.00000000000E+00 -0.88683110442E+03  0.88683110442E+03  0.00000000000E+00 0.  1.
         21    1    1    2  503  504 -0.56145634369E+02 -0.68998003914E+02  0.66308645981E+02  0.11094995870E+03  0.00000000000E+00 0. -1.
         21    1    1    2  504  502  0.27381631763E+02  0.29299312654E+02 -0.77120294543E+03  0.77224490061E+03  0.00000000000E+00 0.  1.
         21    1    1    2  505  506  0.50799410977E+02 -0.30946150238E+02 -0.80083313092E+02  0.99757613274E+02  0.00000000000E+00 0.  1.
         21    1    1    2  506  501 -0.22035408371E+02  0.70644841498E+02  0.47481490849E+03  0.48054703222E+03  0.00000000000E+00 0.  1.
<scales pt_clust_3="71.67206" pt_clust_4="40.10241" pt_clust_5="72.63796" pt_clust_6="14000.00000"></scales>
<clustering>
<clus scale="   40.102">  2  4  1 -1</clus>
<clus scale="   72.638">  2  5  1 -1</clus>
<clus scale="   71.672">  2  3  1 -1</clus>
<clus scale="   71.672">  1  3  2 -1</clus>
</clustering>
</event>
<event>
 6    0  0.4469832E+002  0.3538183E+03  0.7546771E-02  0.1061059E+00
         21   -1    0    0  506  501  0.00000000000E+00  0.00000000000E+00  0.62032208355E+03  0.62032208355E+03  0.00000000000E+00 0.  1.
         21   -1    0    0  503  502 -0.00000000000E+00 -0.00000000000E+00 -0.85630161312E+03  0.85630161312E+03  0.00000000000E+00 0.  1.
         21    1    1    2  503  505  0.25472995698E+03  0.20561632710E+03  0.40879901485E+03  0.52371944731E+03  0.00000000000E+00 0.  1.
         21    1    1    2  504  502 -0.62452706737E+02 -0.10498437158E+03 -0.29627547128E+03  0.32047030086E+03  0.00000000000E+00 0.  1.
         21    1    1    2  505  501 -0.24174788438E+01  0.32539739816E+02  0.11209528404E+03  0.11674772621E+03  0.00000000000E+00 0.  1.
         21    1    1    2  506  504 -0.18985977140E+03 -0.13317169534E+03 -0.46059835717E+03  0.51568622229E+03  0.00000000000E+00 0.  1.
<scales pt_clust_3="345.35134" pt_clust_4="55.80396" pt_clust_5="32.62942" pt_clust_6="55.80396"></scales>
<clustering>
<clus scale="   32.629">  1  5  2 -1</clus>
<clus scale="   55.804">  4  6 -1 -1</clus>
<clus scale="  345.351">  1  3  2 -1</clus>
<clus scale="   32.629">  1  3  2 -1</clus>
</clustering>
</event>
<event>
 6    0  0.4469832E+002  0.1631325E+03  0.7546771E-02  0.1185205E+00
         21   -1    0    0  506  501  0.00000000000E+00  0.00000000000E+00  0.10506479749E+04  0.10506479749E+04  0.00000000000E+00 0.  1.
         21   -1    0    0  505  502 -0.00000000000E+00 -0.00000000000E+00 -0.76502809616E+02  0.76502809616E+02  0.00000000000E+00 0.  1.
         21    1    1    2  503  502 -0.10884876667E+03 -0.30070125588E+02  0.73756150959E+03  0.74615631532E+03  0.00000000000E+00 0.  1.
         21    1    1    2  504  501  0.75439795323E+02  0.33666303978E+02  0.73493341007E+01  0.82937298326E+02  0.00000000000E+00 0.  1.
         21    1    1    2  505  504  0.68096993421E+02  0.52304764136E+02  0.34548312297E+02  0.92555792616E+02  0.00000000000E+00 0.  1.
         21    1    1    2  506  503 -0.34688022074E+02 -0.55900942526E+02  0.19468600931E+03  0.20550137827E+03  0.00000000000E+00 0.  1.
<scales pt_clust_3="159.88631" pt_clust_4="31.76205" pt_clust_5="31.76205" pt_clust_6="65.78886"></scales>
<clustering>
<clus scale="   31.762">  4  5 -1 -1</clus>
<clus scale="   65.789">  1  6  2 -1</clus>
<clus scale="  159.886">  1  3  2 -1</clus>
<clus scale="   65.789">  1  3  2 -1</clus>
</clustering>
</event>
<event>
 6    0  0.4469832E+002  0.3405373E+03  0.7546771E-02  0.1066567E+00
         21   -1    0    0  506  501  0.00000000000E+00  0.00000000000E+00  0.21864485445E+03  0.21864485445E+03  0.00000000000E+00 0. -1.
         21   -1    0    0  504  502 -0.00000000000E+00 -0.00000000000E+00 -0.76344447709E+03  0.76344447709E+03  0.00000000000E+00 0. -1.
         21    1    1    2  503  501 -0.28107467609E+02  0.15631566115E+02  0.55225129027E+02  0.63907671454E+02  0.00000000000E+00 0. -1.
         21    1    1    2  504  505 -0.13964586828E+03 -0.13458413832E+03 -0.22870467231E+03  0.29986611338E+03  0.00000000000E+00 0. -1.
         21    1    1    2  505  503 -0.12650451275E+03 -0.62702693289E+02 -0.15848195041E+03  0.21225349961E+03  0.00000000000E+00 0. -1.
         21    1    1    2  506  502  0.29425784864E+03  0.18165526550E+03 -0.21283812895E+03  0.40606204711E+03  0.00000000000E+00 0. -1.
<scales pt_clust_3="32.16171" pt_clust_4="43.69680" pt_clust_5="43.69680" pt_clust_6="336.70573"></scales>
<clustering>
<clus scale="   32.162">  1  3  2 -1</clus>
<clus scale="   43.697">  4  5 -1 -1</clus>
<clus scale="  336.706">  1  6  2 -1</clus>
<clus scale="   32.162">  1  3  2 -1</clus>
</clustering>
</event>
<event>
 6    0  0.4469832E+002  0.2102996E+03  0.7546771E-02  0.1141329E+00
         21   -1    0    0  503  501  0.00000000000E+00  0.00000000000E+00  0.12239125977E+03  0.12239125977E+03  0.00000000000E+00 0.  1.
         21   -1    0    0  504  502 -0.00000000000E+00 -0.00000000000E+00 -0.88248038349E+03  0.88248038349E+03  0.00000000000E+00 0. -1.
         21    1    1    2  503  502  0.93691972988E+02 -0.18354433147E+03 -0.79984317922E+02  0.22105247913E+03  0.00000000000E+00 0.  1.
         21    1    1    2  504  506 -0.62071556354E+02  0.20267478392E+03 -0.62836609665E+03  0.66315450505E+03  0.00000000000E+00 0. -1.
         21    1    1    2  505  501  0.26114471170E+02  0.15944681515E+02  0.67218226075E+01  0.31327007074E+02  0.00000000000E+00 0.  1.
         21    1    1    2  506  505 -0.57734887804E+02 -0.35075133965E+02 -0.58460531762E+02  0.89337652008E+02  0.00000000000E+00 0.  1.
<scales pt_clust_3="14000.00000" pt_clust_4="210.29960" pt_clust_5="30.59736" pt_clust_6="62.98437"></scales>
<clustering>
<clus scale="   30.597">  1  5  2 -1</clus>
<clus scale="   62.984">  1  6  2 -1</clus>
<clus scale="  210.300">  2  4  1 -1</clus>
<clus scale="   30.597">  1  3  2 -1</clus>
</clustering>
</event>
<event>
 6    0  0.4469832E+002  0.1560377E+03  0.7546771E-02  0.1193244E+00
         21   -1    0    0  503  501  0.00000000000E+00  0.00000000000E+00  0.48411887058E+03  0.48411887058E+03  0.00000000000E+00 0. -1.
         21   -1    0    0  506  502 -0.00000000000E+00 -0.00000000000E+00 -0.15763733194E+03  0.15763733194E+03  0.00000000000E+00 0. -1.
         21    1    1    2  503  502 -0.53152305793E+01 -0.42515393368E+02 -0.17191495509E+02  0.46166631534E+02  0.00000000000E+00 0. -1.
         21    1    1    2  504  501 -0.14728475252E+03  0.13864128933E+02  0.39747681076E+03  0.42411416798E+03  0.00000000000E+00 0. -1.
         21    1    1    2  505  504  0.94504882841E+02  0.30997557315E+02 -0.12689344061E+02  0.10026485373E+03  0.00000000000E+00 0. -1.
         21    1    1    2  506  505  0.58095100257E+02 -0.23462928801E+01 -0.41114432552E+02  0.71210549276E+02  0.00000000000E+00 0. -1.
<scales pt_clust_3="42.84636" pt_clust_4="148.14331" pt_clust_5="37.46711" pt_clust_6="37.46711"></scales>
<clustering>
<clus scale="   37.467">  5  6 -1 -1</clus>
<clus scale="   42.846">  2  3  1 -1</clus>
<clus scale="  148.143">  1  4  2 -1</clus>
<clus scale="  148.143">  1  3  2 -1</clus>
</clustering>
</event>
<event>
 6    0  0.4469832E+002  0.1322811E+03  0.7546771E-02  0.1224110E+00
         21   -1    0    0  505  501  0.00000000000E+00  0.00000000000E+00  0.60548217998E+03  0.60548217998E+03  0.00000000000E+00 0.  1.
         21   -1    0    0  504  502 -0.00000000000E+00 -0.00000000000E+00 -0.71622007795E+02  0.71622007795E+02  0.00000000000E+00 0. -1.
         21    1    1    2  503  506 -0.44879312627E+02 -0.14240332486E+02  0.52945774033E+02  0.70853332731E+02  0.00000000000E+00 0.  1.
         21    1    1    2  504  501  0.11799828074E+03  0.10895838272E+03  0.31746311233E+03  0.35577851412E+03  0.00000000000E+00 0.  1.
         21    1    1    2  505  503 -0.63845750477E+02 -0.43544329161E+01  0.14399377708E+03  0.15757362970E+03  0.00000000000E+00 0.  1.
         21    1    1    2  506  502 -0.92732176340E+01 -0.90363617317E+02  0.19457508747E+02  0.92898711221E+02  0.00000000000E+00 0. -1.
<scales pt_clust_3="30.04367" pt_clust_4="127.55977" pt_clust_5="30.04367" pt_clust_6="90.83819"></scales>
<clustering>
<clus scale="   30.044">  3  5 -1 -1</clus>
<clus scale="   90.838">  2  6  1 -1</clus>
<clus scale="  127.560">  2  4  1 -1</clus>
<clus scale="  132.281">  1  3  2 -1</clus>
</clustering>
</event>
<event>
 6    0  0.4469832E+002  0.6530284E+02  0.7546771E-02  0.1376836E+00
         21   -1    0    0  505  501  0.00000000000E+00  0.00000000000E+00  0.25569167379E+03  0.25569167379E+03  0.00000000000E+00 0. -1.
         21   -1    0    0  503  502 -0.00000000000E+00 -0.00000000000E+00 -0.14284457699E+03  0.14284457699E+03  0.00000000000E+00 0.  1.
         21    1    1    2  503  504  0.55819299795E+01 -0.48068016072E+02 -0.53588516437E+02  0.72204024855E+02  0.00000000000E+00 0.  1.
         21    1    1    2  504  501 -0.72332641537E+02 -0.27476257117E+02  0.18388383367E+02  0.79530424240E+02  0.00000000000E+00 0.  1.
         21    1    1    2  505  506  0.73181614211E+01  0.68691388010E+02  0.16966529806E+03  0.18318945286E+03  0.00000000000E+00 0. -1.
         21    1    1    2  506  502  0.59432550136E+02  0.68528851790E+01 -0.21618068186E+02  0.63612348825E+02  0.00000000000E+00 0.  1.
<scales pt_clust_3="48.39103" pt_clust_4="65.30284" pt_clust_5="65.09361" pt_clust_6="14000.00000"></scales>
<clustering>
<clus scale="   48.391">  2  3  1 -1</clus>
<clus scale="   65.094">  1  5  2 -1</clus>
<clus scale="   65.303">  1  4  2 -1</clus>
<clus scale="   65.094">  1  3  2 -1</clus>
</clustering>
</event>
<event>
 6    0  0.4469832E+002  0.1297965E+03  0.7546771E-02  0.1227758E+00
         21   -1    0    0  503  501  0.00000000000E+00  0.00000000000E+00  0.47124703175E+02  0.47124703175E+02  0.00000000000E+00 0. -1.
         21   -1    0    0  504  502 -0.00000000000E+00 -0.00000000000E+00 -0.20591889994E+04  0.20591889994E+04  0.00000000000E+00 0. -1.
         21    1    1    2  503  505 -0.41350276247E+00  0.35316405483E+02 -0.13071896995E+02  0.37660243916E+02  0.00000000000E+00 0. -1.
         21    1    1    2  504  501  0.31130453948E+02  0.74662061381E+01  0.14742539446E+02  0.35244742394E+02  0.00000000000E+00 0. -1.
         21    1    1    2  505  506  0.95437712438E+02  0.28967057755E+02 -0.36765080565E+03  0.38093905324E+03  0.00000000000E+00 0. -1.
         21    1    1    2  506  502 -0.12615466362E+03 -0.71749669377E+02 -0.16460841330E+04  0.16524696630E+04  0.00000000000E+00 0. -1.
<scales pt_clust_3="42.92251" pt_clust_4="32.01327" pt_clust_5="14000.00000" pt_clust_6="129.79647"></scales>
<clustering>
<clus scale="   32.013">  1  4  2 -1</clus>
<clus scale="   42.923">  1  3  2 -1</clus>
<clus scale="  129.796">  2  6  1 -1</clus>
<clus scale="   32.013">  1  3  2 -1</clus>
</clustering>
</event>
<event>
 6    0  0.4469832E+002  0.2796767E+03  0.7546771E-02  0.1095866E+00
         21   -1    0    0  506  501  0.00000000000E+00  0.00000000000E+00  0.20166049807E+03  0.20166049807E+03  0.00000000000E+00 0. -1.
         21   -1    0    0  505  502 -0.00000000000E+00 -0.00000000000E+00 -0.18448940505E+04  0.18448940505E+04  0.00000000000E+00 0.  1.
         21    1    1    2  503  504  0.55605563337E+02  0.88062833513E+02 -0.69970874357E+03  0.70741739246E+03  0.00000000000E+00 0.  1.
         21    1    1    2  504  502  0.13333774125E+03  0.95979028714E+02 -0.54222121746E+03  0.56656400862E+03  0.00000000000E+00 0.  1.
         21    1    1    2  505  501 -0.15080649159E+03 -0.20351965949E+03 -0.55657480125E+03  0.61150499515E+03  0.00000000000E+00 0.  1.
         21    1    1    2  506  503 -0.38136812999E+02  0.19477797264E+02  0.15527120985E+03  0.16106815235E+03  0.00000000000E+00 0. -1.
<scales pt_clust_3="84.98634" pt_clust_4="84.98634" pt_clust_5="259.13593" pt_clust_6="42.82290"></scales>
<clustering>
<clus scale="   42.823">  1  6  2 -1</clus>
<clus scale="   84.986">  3  4 -1 -1</clus>
<clus scale="  259.136">  1  5  2 -1</clus>
<clus scale="   42.823">  1  3  2 -1</clus>
</clustering>
</event>
<event>
 6    0  0.4469832E+002  0.1397560E+03  0.7546771E-02  0.1213658E+00
         21   -1    0    0  506  501  0.00000000000E+00  0.00000000000E+00  0.86004482359E+02  0.86004482359E+02  0.00000000000E+00 0. -1.
         21   -1    0    0  505  502 -0.00000000000E+00 -0.00000000000E+00 -0.64200787605E+03  0.64200787605E+03  0.00000000000E+00 0. -1.
         21    1    1    2  503  504  0.16631666521E+02  0.33635850416E+02 -0.69177745753E+02  0.78699067796E+02  0.00000000000E+00 0.  1.
         21    1    1    2  504  502  0.14130317183E+02  0.31051319478E+02 -0.29102830052E+03  0.29302102656E+03  0.00000000000E+00 0. -1.
         21    1    1    2  505  501  0.12821696871E+03 -0.27961322883E+02 -0.61314319105E+02  0.14484775583E+03  0.00000000000E+00 0. -1.
         21    1    1    2  506  503 -0.15897895242E+03 -0.36725847012E+02 -0.13448302831E+03  0.21144450822E+03  0.00000000000E+00 0. -1.
<scales pt_clust_3="44.72725" pt_clust_4="34.11525" pt_clust_5="139.75598" pt_clust_6="14000.00000"></scales>
<clustering>
<clus scale="   34.115">  2  4  1 -1</clus>
<clus scale="   44.727">  2  3  1 -1</clus>
<clus scale="  139.756">  1  5  2 -1</clus>
<clus scale="  139.756">  1  3  2 -1</clus>
</clustering>
</event>
<event>
 6    0  0.4469832E+002  0.1007596E+03  0.7546771E-02  0.1278707E+00
         21   -1    0    0  503  501  0.00000000000E+00  0.00000000000E+00  0.60587353478E+03  0.60587353478E+03  0.00000000000E+00 0.  1.
         21   -1    0    0  506  502 -0.00000000000E+00 -0.00000000000E+00 -0.65429910495E+03  0.65429910495E+03  0.00000000000E+00 0. -1.
         21    1    1    2  503  505 -0.32544698469E+02 -0.28191631587E+02  0.32362195757E+03  0.32647373081E+03  0.00000000000E+00 0.  1.
         21    1    1    2  504  501  0.63713386405E+02 -0.69255165204E+02  0.25846429322E+03  0.27506265538E+03  0.00000000000E+00 0.  1.
         21    1    1    2  505  502 -0.34543161791E+02  0.26342739023E+02 -0.27449377542E+02  0.51387140933E+02  0.00000000000E+00 0.  1.
         21    1    1    2  506  504  0.33744738552E+01  0.71104057768E+02 -0.60306244342E+03  0.60724911261E+03  0.00000000000E+00 0. -1.
<scales pt_clust_3="43.05724" pt_clust_4="14000.00000" pt_clust_5="43.85272" pt_clust_6="100.75960"></scales>
<clustering>
<clus scale="   43.057">  1  3  2 -1</clus>
<clus scale="   43.853">  2  5  1 -1</clus>
<clus scale="  100.760">  2  6  1 -1</clus>
<clus scale="   43.057">  1  3  2 -1</clus>
</clustering>
</event>
<event>
 6    0  0.4469832E+002  0.1227300E+03  0.7546771E-02  0.1238660E+00
         21   -1    0    0  504  501  0.00000000000E+00  0.00000000000E+00  0.83117728332E+03  0.83117728332E+03  0.00000000000E+00 0.  1.
         21   -1    0    0  506  502 -0.00000000000E+00 -0.00000000000E+00 -0.11831065271E+03  0.11831065271E+03  0.00000000000E+00 0.  1.
         21    1    1    2  503  502 -0.11865593690E+03 -0.10122963780E+03 -0.17906533773E+02  0.15699463329E+03  0.00000000000E+00 0.  1.
         21    1    1    2  504  505  0.49639922451E+02  0.18795487690E+02  0.22744635174E+03  0.23355777696E+03  0.00000000000E+00 0.  1.
         21    1    1    2  505  503  0.88103724607E+02  0.21671328749E+02  0.54981532729E+02  0.10608902733E+03  0.00000000000E+00 0.  1.
         21    1    1    2  506  501 -0.19087710163E+02  0.60762821356E+02  0.44834527992E+03  0.45284649846E+03  0.00000000000E+00 0.  1.
<scales pt_clust_3="122.72998" pt_clust_4="53.07911" pt_clust_5="14000.00000" pt_clust_6="77.03093"></scales>
<clustering>
<clus scale="   53.079">  1  4  2 -1</clus>
<clus scale="   77.031">  1  6  2 -1</clus>
<clus scale="  122.730">  2  3  1 -1</clus>
<clus scale="   53.079">  1  3  2 -1</clus>
</clustering>
</event>
<event>
 6    0  0.4469832E+002  0.1008085E+03  0.7546771E-02  0.1278605E+00
         21   -1    0    0  505  501  0.00000000000E+00  0.00000000000E+00  0.24967045525E+04  0.24967045525E+04  0.00000000000E+00 0.  1.
         21   -1    0    0  506  502 -0.00000000000E+00 -0.00000000000E+00 -0.57780520050E+02  0.57780520050E+02  0.00000000000E+00 0. -1.
         21    1    1    2  503  501 -0.16858659479E+02 -0.16143721717E+03  0.14308054089E+04  0.14399827456E+04  0.00000000000E+00 0.  1.
         21    1    1    2  504  502 -0.33958865590E+02  0.31519428298E+02  0.41962787662E+02  0.62510434815E+02  0.00000000000E+00 0.  1.
         21    1    1    2  505  504 -0.11300298198E+02  0.66922554739E+02  0.96097622243E+03  0.96336993162E+03  0.00000000000E+00 0. -1.
         21    1    1    2  506  503  0.62117823266E+02  0.62995234134E+02  0.51796134623E+01  0.88621960521E+02  0.00000000000E+00 0. -1.
<scales pt_clust_3="100.80851" pt_clust_4="46.33227" pt_clust_5="68.79903" pt_clust_6="14000.00000"></scales>
<clustering>
<clus scale="   46.332">  2  4  1 -1</clus>
<clus scale="   68.799">  1  5  2 -1</clus>
<clus scale="  100.809">  1  3  2 -1</clus>
<clus scale="   68.799">  1  3  2 -1</clus>
</clustering>
</event>
<event>
 6    0  0.4469832E+002  0.7372701E+02  0.7546771E-02  0.1347859E+00
         21   -1    0    0  505  501  0.00000000000E+00  0.00000000000E+00  0.25767230346E+03  0.25767230346E+03  0.00000000000E+00 0.  1.
         21   -1    0    0  506  502 -0.00000000000E+00 -0.00000000000E+00 -0.99724676181E+03  0.99724676181E+03  0.00000000000E+00 0. -1.
         21    1    1    2  503  504  0.63026028276E+02  0.15321456783E+01 -0.12666129622E+03  0.14148396259E+03  0.00000000000E+00 0. -1.
         21    1    1    2  504  502 -0.47448888335E+02  0.64247233028E+01 -0.51732136363E+03  0.51953254695E+03  0.00000000000E+00 0. -1.
         21    1    1    2  505  503 -0.50438749994E+02  0.53879633021E+02  0.23989316775E+03  0.25098966969E+03  0.00000000000E+00 0.  1.
         21    1    1    2  506  501  0.34861610052E+02 -0.61836502002E+02 -0.33548496625E+03  0.34291288605E+03  0.00000000000E+00 0. -1.
<scales pt_clust_3="49.85145" pt_clust_4="47.88188" pt_clust_5="14000.00000" pt_clust_6="73.72701"></scales>
<clustering>
<clus scale="   47.882">  2  4  1 -1</clus>
<clus scale="   49.851">  2  3  1 -1</clus>
<clus scale="   73.727">  2  6  1 -1</clus>
<clus scale="   73.727">  1  3  2 -1</clus>
</clustering>
</event>
<event>
 6    0  0.4469832E+002  0.2282962E+03  0.7546771E-02  0.1127845E+00
         21   -1    0    0  504  501  0.00000000000E+00  0.00000000000E+00  0.88582148161E+03  0.88582148161E+03  0.00000000000E+00 0.  1.
         21   -1    0    0  506  502 -0.00000000000E+00 -0.00000000000E+00 -0.18303649229E+03  0.18303649229E+03  0.00000000000E+00 0.  1.
         21    1    1    2  503  505  0.48820194900E+01  0.11251983683E+03 -0.50548235238E+02  0.12344906593E+03  0.00000000000E+00 0.  1.
         21    1    1    2  504  503 -0.63069603930E+02 -0.29094637340E+02  0.16623751155E+03  0.18016432251E+03  0.00000000000E+00 0.  1.
         21    1    1    2  505  502  0.45362880632E+02  0.11013815455E+03 -0.26233301964E+02  0.12196880814E+03  0.00000000000E+00 0.  1.
         21    1    1    2  506  501  0.12824703808E+02 -0.19356335404E+03  0.61332901498E+03  0.64327577731E+03  0.00000000000E+00 0.  1.
<scales pt_clust_3="45.95364" pt_clust_4="69.45699" pt_clust_5="45.95364" pt_clust_6="223.35121"></scales>
<clustering>
<clus scale="   45.954">  3  5 -1 -1</clus>
<clus scale="   69.457">  1  4  2 -1</clus>
<clus scale="  223.351">  1  6  2 -1</clus>
<clus scale="   69.457">  1  3  2 -1</clus>
</clustering>
</event>
<event>
 6    0  0.4469832E+002  0.1156546E+03  0.7546771E-02  0.1250443E+00
         21   -1    0    0  505  501  0.00000000000E+00  0.00000000000E+00  0.52492561310E+03  0.52492561310E+03  0.00000000000E+00 0.  1.
         21   -1    0    0  501  502 -0.00000000000E+00 -0.00000000000E+00 -0.56939305471E+02  0.56939305471E+02  0.00000000000E+00 0. -1.
         21    1    1    2  503  502 -0.75096566392E+02 -0.12863824114E+02  0.17500727015E+02  0.78174469623E+02  0.00000000000E+00 0. -1.
         21    1    1    2  504  506  0.10874792477E+03 -0.41569778814E+01  0.19455826635E+03  0.22292669336E+03  0.00000000000E+00 0.  1.
         21    1    1    2  505  504 -0.70087144768E+01  0.45758007907E+02  0.22797804746E+03  0.23263040965E+03  0.00000000000E+00 0.  1.
         21    1    1    2  506  503 -0.26642643896E+02 -0.28737205912E+02  0.27949266802E+02  0.48133345948E+02  0.00000000000E+00 0. -1.
<scales pt_clust_3="30.48151" pt_clust_4="107.56180" pt_clust_5="46.29166" pt_clust_6="30.48151"></scales>
<clustering>
<clus scale="   30.482">  3  6 -1 -1</clus>
<clus scale="   46.292">  1  5  2 -1</clus>
<clus scale="  107.562">  1  4  2 -1</clus>
<clus scale="   46.292">  1  3  2 -1</clus>
</clustering>
</event>
<event>
 6    0  0.4469832E+002  0.7928738E+02  0.7546771E-02  0.1331086E+00
         21   -1    0    0  503  501  0.00000000000E+00  0.00000000000E+00  0.11660487847E+03  0.11660487847E+03  0.00000000000E+00 0.  1.
         21   -1    0    0  504  502 -0.00000000000E+00 -0.00000000000E+00 -0.41375720366E+03  0.41375720366E+03  0.00000000000E+00 0.  1.
         21    1    1    2  503  505  0.13654851174E+02 -0.40432097101E+02  0.71376471242E+02  0.83161349697E+02  0.00000000000E+00 0.  1.
         21    1    1    2  504  501  0.93611422067E+02  0.63817812795E+02 -0.10211525953E+03  0.15252323692E+03  0.00000000000E+00 0.  1.
         21    1    1    2  505  506 -0.49287946437E+02 -0.26119166980E+02 -0.68017644116E+02  0.87965404897E+02  0.00000000000E+00 0.  1.
         21    1    1    2  506  502 -0.57978326804E+02  0.27334512858E+01 -0.19839589278E+03  0.20671209062E+03  0.00000000000E+00 0.  1.
<scales pt_clust_3="42.67563" pt_clust_4="79.28738" pt_clust_5="14000.00000" pt_clust_6="56.55589"></scales>
<clustering>
<clus scale="   42.676">  1  3  2 -1</clus>
<clus scale="   56.556">  2  6  1 -1</clus>
<clus scale="   79.287">  2  4  1 -1</clus>
<clus scale="   42.676">  1  3  2 -1</clus>
</clustering>
</event>
<event>
 6    0  0.4469832E+002  0.1629151E+03  0.7546771E-02  0.1185444E+00
         21   -1    0    0  504  501  0.00000000000E+00  0.00000000000E+00  0.21074886214E+03  0.21074886214E+03  0.00000000000E+00 0. -1.
         21   -1    0    0  506  502 -0.00000000000E+00 -0.00000000000E+00 -0.15697073896E+04  0.15697073896E+04  0.00000000000E+00 0. -1.
         21    1    1    2  503  505  0.68055166330E+02  0.87155379849E+02 -0.22247116979E+03  0.24843708920E+03  0.00000000000E+00 0.  1.
         21    1    1    2  504  503 -0.99224395326E+02 -0.13959736126E+03  0.15800378973E+03  0.23301953023E+03  0.00000000000E+00 0. -1.
         21    1    1    2  505  502 -0.17800233438E+02  0.44953509089E+02 -0.36487014699E+03  0.36805962894E+03  0.00000000000E+00 0. -1.
         21    1    1    2  506  501  0.48969462434E+02  0.74884723229E+01 -0.92962100045E+03  0.93094000340E+03  0.00000000000E+00 0. -1.
<scales pt_clust_3="14000.00000" pt_clust_4="162.91508" pt_clust_5="48.34942" pt_clust_6="54.99194"></scales>
<clustering>
<clus scale="   48.349">  2  5  1 -1</clus>
<clus scale="   54.992">  2  6  1 -1</clus>
<clus scale="  162.915">  1  4  2 -1</clus>
<clus scale="  162.915">  1  3  2 -1</clus>
</clustering>
</event>
<event>
 6    0  0.4469832E+002  0.8495704E+02  0.7546771E-02  0.1315545E+00
         21   -1    0    0  504  501  0.00000000000E+00  0.00000000000E+00  0.26617840394E+04  0.26617840394E+04  0.00000000000E+00 0. -1.
         21   -1    0    0  503  502 -0.00000000000E+00 -0.00000000000E+00 -0.13979858384E+02  0.13979858384E+02  0.00000000000E+00 0. -1.
         21    1    1    2  503  506  0.37943559384E+02  0.35059343881E+02  0.70062522009E+02  0.87049573705E+02  0.00000000000E+00 0. -1.
         21    1    1    2  504  505 -0.18066229114E+02  0.51713729380E+02  0.12846775052E+04  0.12858448549E+04  0.00000000000E+00 0. -1.
         21    1    1    2  505  502  0.58478432904E+01 -0.11850171679E+03  0.94748998783E+03  0.95488959110E+03  0.00000000000E+00 0. -1.
         21    1    1    2  506  501 -0.25725173561E+02  0.31728643528E+02  0.34557416598E+03  0.34797987811E+03  0.00000000000E+00 0.  1.
<scales pt_clust_3="51.76912" pt_clust_4="14000.00000" pt_clust_5="84.95704" pt_clust_6="40.84717"></scales>
<clustering>
<clus scale="   40.847">  1  6  2 -1</clus>
<clus scale="   51.769">  2  3  1 -1</clus>
<clus scale="   84.957">  2  5  1 -1</clus>
<clus scale="   40.847">  1  3  2 -1</clus>
</clustering>
</event>
<event>
 6    0  0.4469832E+002  0.1574418E+03  0.7546771E-02  0.1191616E+00
         21   -1    0    0  503  501  0.00000000000E+00  0.00000000000E+00  0.77908306735E+02  0.77908306735E+02  0.00000000000E+00 0. -1.
         21   -1    0    0  504  502 -0.00000000000E+00 -0.00000000000E+00 -0.92811213307E+03  0.92811213307E+03  0.00000000000E+00 0. -1.
         21    1    1    2  503  505  0.77362679774E+02  0.18824383147E+03 -0.24074528915E+03  0.31524437910E+03  0.00000000000E+00 0. -1.
         21    1    1    2  504  506 -0.30500414694E+02 -0.75980638458E+02 -0.34788244518E+03  0.35738708480E+03  0.00000000000E+00 0. -1.
         21    1    1    2  505  502 -0.57683992760E+02  0.24439707035E+02 -0.12515029338E+03  0.13995477210E+03  0.00000000000E+00 0. -1.
         21    1    1    2  506  501  0.10821727680E+02 -0.13670290004E+03 -0.13642579862E+03  0.19343420380E+03  0.00000000000E+00 0. -1.
<scales pt_clust_3="14000.00000" pt_clust_4="85.95322" pt_clust_5="62.64776" pt_clust_6="157.44176"></scales>
<clustering>
<clus scale="   62.648">  2  5  1 -1</clus>
<clus scale="   85.953">  2  4  1 -1</clus>
<clus scale="  157.442">  1  6  2 -1</clus>
<clus scale="  157.442">  1  3  2 -1</clus>
</clustering>
</event>
<event>
 6    0  0.4469832E+002  0.1165921E+03  0.7546771E-02  0.1248827E+00
         21   -1    0    0  506  501  0.00000000000E+00  0.00000000000E+00  0.17463547999E+04  0.17463547999E+04  0.00000000000E+00 0. -1.
         21   -1    0    0  503  502 -0.00000000000E+00 -0.00000000000E+00 -0.49886257537E+02  0.49886257537E+02  0.00000000000E+00 0. -1.
         21    1    1    2  503  504  0.25028802453E+02  0.18139287569E+02  0.15284054201E+02  0.34482996078E+02  0.00000000000E+00 0. -1.
         21    1    1    2  504  505  0.35893838806E+02  0.15884969588E+02  0.75213064338E+02  0.84839289072E+02  0.00000000000E+00 0. -1.
         21    1    1    2  505  501 -0.26135660274E+02 -0.11661408009E+03  0.15787385868E+04  0.15832553306E+04  0.00000000000E+00 0. -1.
         21    1    1    2  506  502 -0.34786980985E+02  0.82589822930E+02  0.27232837029E+02  0.93663441696E+02  0.00000000000E+00 0. -1.
<scales pt_clust_3="30.46889" pt_clust_4="77.76940" pt_clust_5="116.59211" pt_clust_6="14000.00000"></scales>
<clustering>
<clus scale="   30.469">  3  4 -1 -1</clus>
<clus scale="   77.769">  2  3  1 -1</clus>
<clus scale="  116.592">  1  5  2 -1</clus>
<clus scale="  116.592">  1  3  2 -1</clus>
</clustering>
</event>
<event>
 6    0  0.4469832E+002  0.8462837E+02  0.7546771E-02  0.1316407E+00
         21   -1    0    0  503  501  0.00000000000E+00  0.00000000000E+00  0.20353600283E+03  0.20353600283E+03  0.00000000000E+00 0.  1.
         21   -1    0    0  506  502 -0.00000000000E+00 -0.00000000000E+00 -0.57764672202E+03  0.57764672202E+03  0.00000000000E+00 0. -1.
         21    1    1    2  503  502  0.50013728470E+01 -0.36125254662E+02 -0.46572439206E+02  0.59152682512E+02  0.00000000000E+00 0.  1.
         21    1    1    2  504  501 -0.72032019594E+02 -0.97794289434E+01  0.69209628831E+02  0.10037042294E+03  0.00000000000E+00 0.  1.
         21    1    1    2  505  504  0.10213816940E+03  0.12072083309E+02  0.87456997980E+02  0.13500617519E+03  0.00000000000E+00 0.  1.
         21    1    1    2  506  505 -0.35107522656E+02  0.33832600297E+02 -0.48420490680E+03  0.48665344421E+03  0.00000000000E+00 0. -1.
<scales pt_clust_3="36.46982" pt_clust_4="84.62837" pt_clust_5="14000.00000" pt_clust_6="30.48406"></scales>
<clustering>
<clus scale="   36.470">  2  3  1 -1</clus>
<clus scale="   30.484">  2  6  1 -1</clus>
<clus scale="   84.628">  1  4  2 -1</clus>
<clus scale="   84.628">  1  3  2 -1</clus>
</clustering>
</event>
<event>
 6    0  0.4469832E+002  0.1519514E+03  0.7546771E-02  0.1198095E+00
         21   -1    0    0  503  501  0.00000000000E+00  0.00000000000E+00  0.11099451303E+04  0.11099451303E+04  0.00000000000E+00 0.  1.
         21   -1    0    0  506  502 -0.00000000000E+00 -0.00000000000E+00 -0.49267613338E+03  0.49267613338E+03  0.00000000000E+00 0. -1.
         21    1    1    2  503  502 -0.12588747194E+03  0.72618410585E+00 -0.34252135356E+03  0.36492336261E+03  0.00000000000E+00 0. -1.
         21    1    1    2  504  501  0.50577013864E+02 -0.24011143323E+02  0.89131382528E+03  0.89307049244E+03  0.00000000000E+00 0.  1.
         21    1    1    2  505  504  0.95023023943E+02  0.89233547838E+02  0.17474859484E+03  0.21801163395E+03  0.00000000000E+00 0.  1.
         21    1    1    2  506  505 -0.19712565869E+02 -0.65948588621E+02 -0.10627206967E+03  0.12661577464E+03  0.00000000000E+00 0.  1.
<scales pt_clust_3="151.95137" pt_clust_4="55.98722" pt_clust_5="14000.00000" pt_clust_6="69.27796"></scales>
<clustering>
<clus scale="   55.987">  1  4  2 -1</clus>
<clus scale="   69.278">  2  6  1 -1</clus>
<clus scale="  151.951">  2  3  1 -1</clus>
<clus scale="   55.987">  1  3  2 -1</clus>
</clustering>
</event>
<event>
 6    0  0.4469832E+002  0.1555481E+03  0.7546771E-02  0.1193817E+00
         21   -1    0    0  504  501  0.00000000000E+00  0.00000000000E+00  0.64290024054E+03  0.64290024054E+03  0.00000000000E+00 0. -1.
         21   -1    0    0  501  502 -0.00000000000E+00 -0.00000000000E+00 -0.33670664488E+03  0.33670664488E+03  0.00000000000E+00 0. -1.
         21    1    1    2  503  506  0.32246631965E+02  0.98593915235E+02 -0.19652005185E+03  0.22221776746E+03  0.00000000000E+00 0. -1.
         21    1    1    2  504  505 -0.34132977729E+02 -0.34411859832E+02  0.22689766985E+03  0.23201678571E+03  0.00000000000E+00 0. -1.
         21    1    1    2  505  503  0.16979624613E+02 -0.10477896865E+03  0.38950676899E+03  0.40371086561E+03  0.00000000000E+00 0. -1.
         21    1    1    2  506  502 -0.15093278849E+02  0.40596913245E+02 -0.11369079133E+03  0.12166146664E+03  0.00000000000E+00 0. -1.
<scales pt_clust_3="148.39865" pt_clust_4="45.46531" pt_clust_5="45.46531" pt_clust_6="31.34962"></scales>
<clustering>
<clus scale="   31.350">  3  6 -1 -1</clus>
<clus scale="   45.465">  4  5 -1 -1</clus>
<clus scale="  148.399">  2  3  1 -1</clus>
<clus scale="  155.548">  1  3  2 -1</clus>
</clustering>
</event>
<event>
 6    0  0.4469832E+002  0.1037461E+03  0.7546771E-02  0.1272610E+00
         21   -1    0    0  506  501  0.00000000000E+00  0.00000000000E+00  0.25164748647E+03  0.25164748647E+03  0.00000000000E+00 0. -1.
         21   -1    0    0  503  502 -0.00000000000E+00 -0.00000000000E+00 -0.20826527544E+03  0.20826527544E+03  0.00000000000E+00 0. -1.
         21    1    1    2  503  505 -0.37771308176E+02  0.66476858698E+01 -0.10142178343E+03  0.10843081483E+03  0.00000000000E+00 0. -1.
         21    1    1    2  504  502  0.64591784243E+02  0.69517339532E+02  0.11659085311E+03  0.15032693077E+03  0.00000000000E+00 0. -1.
         21    1    1    2  505  501 -0.59449055309E+02 -0.97068966595E+01 -0.60658003210E+02  0.85485714439E+02  0.00000000000E+00 0. -1.
         21    1    1    2  506  504  0.32628579241E+02 -0.66458128742E+02  0.88871144563E+02  0.11566930187E+03  0.00000000000E+00 0. -1.
<scales pt_clust_3="34.52924" pt_clust_4="94.29026" pt_clust_5="34.52924" pt_clust_6="74.03585"></scales>
<clustering>
<clus scale="   34.529">  3  5 -1 -1</clus>
<clus scale="   74.036">  1  6  2 -1</clus>
<clus scale="   94.290">  1  4  2 -1</clus>
<clus scale="   74.036">  1  3  2 -1</clus>
</clustering>
</event>
<event>
 6    0  0.4469832E+002  0.7502426E+02  0.7546771E-02  0.1343796E+00
         21   -1    0    0  504  501  0.00000000000E+00  0.00000000000E+00  0.43997247249E+03  0.43997247249E+03  0.00000000000E+00 0.  1.
         21   -1    0    0  505  502 -0.00000000000E+00 -0.00000000000E+00 -0.33781582130E+03  0.33781582130E+03  0.00000000000E+00 0.  1.
         21    1    1    2  503  501 -0.28760384067E+02 -0.44720487171E+02  0.35326904740E+03  0.35724795523E+03  0.00000000000E+00 0.  1.
         21    1    1    2  504  506 -0.37007368154E+01  0.50181536419E+02  0.39160786248E+02  0.63760875386E+02  0.00000000000E+00 0.  1.
         21    1    1    2  505  503  0.94498799903E+02 -0.37905811754E+02 -0.64804761696E+02  0.12069188409E+03  0.00000000000E+00 0.  1.
         21    1    1    2  506  502 -0.62037679021E+02  0.32444762506E+02 -0.22546842076E+03  0.23608757907E+03  0.00000000000E+00 0.  1.
<scales pt_clust_3="32.16551" pt_clust_4="50.31781" pt_clust_5="75.02426" pt_clust_6="14000.00000"></scales>
<clustering>
<clus scale="   50.318">  1  4  2 -1</clus>
<clus scale="   32.166">  1  3  2 -1</clus>
<clus scale="   75.024">  1  5  2 -1</clus>
<clus scale="   50.318">  1  3  2 -1</clus>
</clustering>
</event>
<event>
 6    0  0.4469832E+002  0.1012918E+03  0.7546771E-02  0.1277603E+00
         21   -1    0    0  504  501  0.00000000000E+00  0.00000000000E+00  0.41998200421E+03  0.41998200421E+03  0.00000000000E+00 0.  1.
         21   -1    0    0  506  502 -0.00000000000E+00 -0.00000000000E+00 -0.22111088033E+03  0.22111088033E+03  0.00000000000E+00 0. -1.
         21    1    1    2  503  505  0.57358220836E+00  0.78737582299E+02 -0.79514853543E+01  0.79140141409E+02  0.00000000000E+00 0.  1.
         21    1    1    2  504  503  0.21402575634E+02 -0.16672360222E+03  0.21091324121E+03  0.26970210437E+03  0.00000000000E+00 0. -1.
         21    1    1    2  505  502  0.34702703920E+02  0.18095229565E+02 -0.13097493968E+03  0.13669729264E+03  0.00000000000E+00 0. -1.
         21    1    1    2  506  501 -0.56678861762E+02  0.69890790357E+02  0.12688430770E+03  0.15555334612E+03  0.00000000000E+00 0.  1.
<scales pt_clust_3="14000.00000" pt_clust_4="101.29184" pt_clust_5="39.13713" pt_clust_6="88.92617"></scales>
<clustering>
<clus scale="   39.137">  2  5  1 -1</clus>
<clus scale="   88.926">  1  6  2 -1</clus>
<clus scale="  101.292">  1  4  2 -1</clus>
<clus scale="   88.926">  1  3  2 -1</clus>
</clustering>
</event>
<event>
 6    0  0.4469832E+002  0.1611302E+03  0.7546771E-02  0.1187427E+00
         21   -1    0    0  505  501  0.00000000000E+00  0.00000000000E+00  0.53906994083E+03  0.53906994083E+03  0.00000000000E+00 0.  1.
         21   -1    0    0  504  502 -0.00000000000E+00 -0.00000000000E+00 -0.30192627821E+03  0.30192627821E+03  0.00000000000E+00 0.  1.
         21    1    1    2  503  502  0.44878917938E+02  0.17146546846E+02 -0.71355502824E+02  0.86021678240E+02  0.00000000000E+00 0.  1.
         21    1    1    2  504  501 -0.15125213028E+03 -0.98608149073E+02  0.37754950782E+03  0.41850257447E+03  0.00000000000E+00 0.  1.
         21    1    1    2  505  506  0.51622539978E+02 -0.16062296674E+02  0.11159834494E+03  0.12400433300E+03  0.00000000000E+00 0.  1.
         21    1    1    2  506  503  0.54750672369E+02  0.97523898901E+02 -0.18064868732E+03  0.21246763333E+03  0.00000000000E+00 0.  1.
<scales pt_clust_3="32.86467" pt_clust_4="153.12917" pt_clust_5="54.06370" pt_clust_6="32.86467"></scales>
<clustering>
<clus scale="   32.865">  3  6 -1 -1</clus>
<clus scale="   54.064">  1  5  2 -1</clus>
<clus scale="  153.129">  1  4  2 -1</clus>
<clus scale="   54.064">  1  3  2 -1</clus>
</clustering>
</event>
<event>
 6    0  0.4469832E+002  0.7824295E+02  0.7546771E-02  0.1334113E+00
         21   -1    0    0  504  501  0.00000000000E+00  0.00000000000E+00  0.22916569303E+03  0.22916569303E+03  0.00000000000E+00 0.  1.
         21   -1    0    0  503  502 -0.00000000000E+00 -0.00000000000E+00 -0.19546951567E+03  0.19546951567E+03  0.00000000000E+00 0. -1.
         21    1    1    2  503  505  0.83182449092E+02 -0.39838889096E+01 -0.14040046740E+02  0.84453029077E+02  0.00000000000E+00 0. -1.
         21    1    1    2  504  506  0.31105963078E+02 -0.18588766677E+02  0.12838683101E+03  0.13340277944E+03  0.00000000000E+00 0.  1.
         21    1    1    2  505  501 -0.53544637171E+02 -0.31860205669E+02  0.30131364472E+02  0.69209825892E+02  0.00000000000E+00 0.  1.
         21    1    1    2  506  502 -0.60743774999E+02  0.54432861256E+02 -0.11078197139E+03  0.13756957429E+03  0.00000000000E+00 0. -1.
<scales pt_clust_3="14000.00000" pt_clust_4="36.23704" pt_clust_5="55.96933" pt_clust_6="78.24295"></scales>
<clustering>
<clus scale="   36.237">  1  4  2 -1</clus>
<clus scale="   55.969">  1  5  2 -1</clus>
<clus scale="   78.243">  2  6  1 -1</clus>
<clus scale="   36.237">  1  3  2 -1</clus>
</clustering>
</event>
<event>
 6    0  0.4469832E+002  0.1988726E+03  0.7546771E-02  0.1150694E+00
         21   -1    0    0  504  501  0.00000000000E+00  0.00000000000E+00  0.94679795287E+03  0.94679795287E+03  0.00000000000E+00 0.  1.
         21   -1    0    0  506  502 -0.00000000000E+00 -0.00000000000E+00 -0.58986311789E+02  0.58986311789E+02  0.00000000000E+00 0.  1.
         21    1    1    2  503  501 -0.24767309825E+02 -0.45675748194E+02  0.17705006213E+03  0.18451671499E+03  0.00000000000E+00 0.  1.
         21    1    1    2  504  505  0.43108229008E+02  0.12993516018E+02  0.16033592103E+03  0.16653755864E+03  0.00000000000E+00 0. -1.
         21    1    1    2  505  502  0.14618418929E+03  0.95243842861E+02  0.32338904167E+03  0.36745296171E+03  0.00000000000E+00 0.  1.
         21    1    1    2  506  503 -0.16452510848E+03 -0.62561610685E+02  0.22703661626E+03  0.28727702932E+03  0.00000000000E+00 0.  1.
<scales pt_clust_3="51.95858" pt_clust_4="30.51792" pt_clust_5="30.51792" pt_clust_6="189.58173"></scales>
<clustering>
<clus scale="   30.518">  4  5 -1 -1</clus>
<clus scale="   51.959">  1  3  2 -1</clus>
<clus scale="  189.582">  2  6  1 -1</clus>
<clus scale="   51.959">  1  3  2 -1</clus>
</clustering>
</event>
<event>
 6    0  0.4469832E+002  0.1267441E+03  0.7546771E-02  0.1232368E+00
         21   -1    0    0  503  501  0.00000000000E+00  0.00000000000E+00  0.22260541423E+04  0.22260541423E+04  0.00000000000E+00 0.  1.
         21   -1    0    0  506  502 -0.00000000000E+00 -0.00000000000E+00 -0.40230858093E+02  0.40230858093E+02  0.00000000000E+00 0.  1.
         21    1    1    2  503  505 -0.35443926599E+02 -0.38172474597E+02  0.27931688781E+03  0.28413259856E+03  0.00000000000E+00 0.  1.
         21    1    1    2  504  502  0.17936333598E+02 -0.53643729352E+02  0.50042889558E+02  0.75522530129E+02  0.00000000000E+00 0.  1.
         21    1    1    2  505  504  0.60146516832E+02 -0.30397559000E+02  0.27009489154E+02  0.72602531530E+02  0.00000000000E+00 0.  1.
         21    1    1    2  506  501 -0.42638923830E+02  0.12221376295E+03  0.18294540177E+04  0.18340273402E+04  0.00000000000E+00 0.  1.
<scales pt_clust_3="52.09040" pt_clust_4="48.85796" pt_clust_5="48.85796" pt_clust_6="114.97819"></scales>
<clustering>
<clus scale="   48.858">  4  5 -1 -1</clus>
<clus scale="   52.090">  1  3  2 -1</clus>
<clus scale="  114.978">  1  6  2 -1</clus>
<clus scale="   52.090">  1  3  2 -1</clus>
</clustering>
</event>
<event>
 6    0  0.1072788E+003  0.7630366E+02  0.7546771E-02  0.1339881E+00
         21   -1    0    0  506  501  0.00000000000E+00  0.00000000000E+00  0.20677417403E+04  0.20677417403E+04  0.00000000000E+00 0. -1.
         21   -1    0    0  505  502 -0.00000000000E+00 -0.00000000000E+00 -0.59659459763E+03  0.59659459763E+03  0.00000000000E+00 0.  1.
         21    1    1    2  503  502 -0.93688865472E+02 -0.21582093345E+02 -0.55680771924E+03  0.56504710111E+03  0.00000000000E+00 0.  1.
         21    1    1    2  504  503  0.51080321097E+02 -0.57657240203E+02  0.14150190427E+03  0.16110973113E+03  0.00000000000E+00 0.  1.
         21    1    1    2  505  501  0.44296942055E+02  0.16284182920E+01 -0.54713252297E+01  0.44663253591E+02  0.00000000000E+00 0. -1.
         21    1    1    2  506  504 -0.16883976800E+01  0.77610915256E+02  0.18919242829E+04  0.18935162521E+04  0.00000000000E+00 0. -1.
<scales pt_clust_3="54.04396" pt_clust_4="14000.00000" pt_clust_5="44.32686" pt_clust_6="76.30366"></scales>
<clustering>
<clus scale="   44.327">  2  5  1 -1</clus>
<clus scale="   54.044">  2  3  1 -1</clus>
<clus scale="   76.304">  1  6  2 -1</clus>
<clus scale="   76.304">  1  3  2 -1</clus>
</clustering>
</event>
<event>
 6    0  0.4469832E+002  0.1174957E+03  0.7546771E-02  0.1247286E+00
         21   -1    0    0  504  501  0.00000000000E+00  0.00000000000E+00  0.16030814104E+02  0.16030814104E+02  0.00000000000E+00 0.  1.
         21   -1    0    0  503  502 -0.00000000000E+00 -0.00000000000E+00 -0.24128554948E+04  0.24128554948E+04  0.00000000000E+00 0.  1.
         21    1    1    2  503  501 -0.44239936124E+02 -0.12068487086E+03 -0.16106732658E+04  0.16157940398E+04  0.00000000000E+00 0.  1.
         21    1    1    2  504  506  0.11755818562E+02  0.35024469938E+02 -0.22742930241E+02  0.43383794676E+02  0.00000000000E+00 0.  1.
         21    1    1    2  505  502  0.32343954962E+01  0.51563143974E+02 -0.47832528467E+03  0.48110736544E+03  0.00000000000E+00 0.  1.
         21    1    1    2  506  505  0.29249722066E+02  0.34097256945E+02 -0.28508319994E+03  0.28860110891E+03  0.00000000000E+00 0. -1.
<scales pt_clust_3="111.98012" pt_clust_4="36.94473" pt_clust_5="33.17482" pt_clust_6="33.17482"></scales>
<clustering>
<clus scale="   33.175">  5  6 -1 -1</clus>
<clus scale="   36.945">  1  4  2 -1</clus>
<clus scale="  111.980">  2  3  1 -1</clus>
<clus scale="   36.945">  1  3  2 -1</clus>
</clustering>
</event>
<event>
 6    0  0.4469832E+002  0.7685546E+02  0.7546771E-02  0.1338220E+00
         21   -1    0    0  504  501  0.00000000000E+00  0.00000000000E+00  0.37163765731E+03  0.37163765731E+03  0.00000000000E+00 0. -1.
         21   -1    0    0  506  502 -0.00000000000E+00 -0.00000000000E+00 -0.12647411685E+03  0.12647411685E+03  0.00000000000E+00 0. -1.
         21    1    1    2  503  502 -0.11108105115E+02  0.31938107860E+02 -0.24509549340E+02  0.41763030802E+02  0.00000000000E+00 0. -1.
         21    1    1    2  504  503 -0.73622038970E+02 -0.11861322207E+02  0.26883535030E+03  0.27898627414E+03  0.00000000000E+00 0. -1.
         21    1    1    2  505  501  0.84575267955E+02  0.44045550756E+02  0.38683071669E+02  0.10290464773E+03  0.00000000000E+00 0. -1.
         21    1    1    2  506  505  0.15487612944E+00 -0.64122336409E+02 -0.37845332166E+02  0.74457821483E+02  0.00000000000E+00 0. -1.
<scales pt_clust_3="33.81468" pt_clust_4="76.85546" pt_clust_5="14000.00000" pt_clust_6="45.38047"></scales>
<clustering>
<clus scale="   33.815">  2  3  1 -1</clus>
<clus scale="   45.380">  2  6  1 -1</clus>
<clus scale="   76.855">  1  4  2 -1</clus>
<clus scale="   76.855">  1  3  2 -1</clus>
</clustering>
</event>
<event>
 6    0  0.4469832E+002  0.1243367E+03  0.7546771E-02  0.1236110E+00
         21   -1    0    0  503  501  0.00000000000E+00  0.00000000000E+00  0.15762377669E+03  0.15762377669E+03  0.00000000000E+00 0.  1.
         21   -1    0    0  506  502 -0.00000000000E+00 -0.00000000000E+00 -0.21291757626E+03  0.21291757626E+03  0.00000000000E+00 0. -1.
         21    1    1    2  503  504  0.32798573195E+02  0.10458048067E+01 -0.33056660343E+01  0.32981321065E+02  0.00000000000E+00 0.  1.
         21    1    1    2  504  502  0.61341213686E+02  0.12834548288E+03 -0.64600287721E+02  0.15623221386E+03  0.00000000000E+00 0. -1.
         21    1    1    2  505  501 -0.63856607847E+02 -0.27155220090E+02  0.25493779728E+02  0.73925673136E+02  0.00000000000E+00 0.  1.
         21    1    1    2  506  505 -0.30283179034E+02 -0.10223606760E+03 -0.12881625540E+02  0.10740214489E+03  0.00000000000E+00 0.  1.
<scales pt_clust_3="32.81524" pt_clust_4="124.33667" pt_clust_5="58.88561" pt_clust_6="14000.00000"></scales>
<clustering>
<clus scale="   32.815">  1  3  2 -1</clus>
<clus scale="   58.886">  1  5  2 -1</clus>
<clus scale="  124.337">  2  4  1 -1</clus>
<clus scale="   32.815">  1  3  2 -1</clus>
</clustering>
</event>
<event>
 6    0  0.4469832E+002  0.1231687E+03  0.7546771E-02  0.1237959E+00
         21   -1    0    0  503  501  0.00000000000E+00  0.00000000000E+00  0.57238895114E+03  0.57238895114E+03  0.00000000000E+00 0.  1.
         21   -1    0    0  505  502 -0.00000000000E+00 -0.00000000000E+00 -0.42812616416E+02  0.42812616416E+02  0.00000000000E+00 0.  1.
         21    1    1    2  503  502 -0.56191783658E+01  0.11119459503E+03  0.14201766383E+03  0.18045728018E+03  0.00000000000E+00 0.  1.
         21    1    1    2  504  506  0.14884345197E+02 -0.53372264961E+02  0.11387853921E+03  0.12664305781E+03  0.00000000000E+00 0.  1.
         21    1    1    2  505  504  0.23067438584E+02 -0.56684198381E+02  0.42120130413E+02  0.74292061856E+02  0.00000000000E+00 0.  1.
         21    1    1    2  506  501 -0.32332605416E+02 -0.11381316905E+01  0.23156000126E+03  0.23380916770E+03  0.00000000000E+00 0.  1.
<scales pt_clust_3="112.62304" pt_clust_4="47.44697" pt_clust_5="47.44697" pt_clust_6="32.35263"></scales>
<clustering>
<clus scale="   32.353">  1  6  2 -1</clus>
<clus scale="   47.447">  4  5 -1 -1</clus>
<clus scale="  112.623">  2  3  1 -1</clus>
<clus scale="   32.353">  1  3  2 -1</clus>
</clustering>
</event>
<event>
 6    0  0.4469832E+002  0.2168534E+03  0.7546771E-02  0.1136251E+00
         21   -1    0    0  505  501  0.00000000000E+00  0.00000000000E+00  0.25886835232E+04  0.25886835232E+04  0.00000000000E+00 0. -1.
         21   -1    0    0  503  502 -0.00000000000E+00 -0.00000000000E+00 -0.55976543800E+03  0.55976543800E+03  0.00000000000E+00 0.  1.
         21    1    1    2  503  506  0.35920499231E+02  0.12289217130E+03 -0.29338242777E+03  0.32010313487E+03  0.00000000000E+00 0.  1.
         21    1    1    2  504  502 -0.11876774800E+03  0.82413104157E+02 -0.22424201689E+03  0.26679988726E+03  0.00000000000E+00 0.  1.
         21    1    1    2  505  504  0.14040990698E+02 -0.50150406072E+02  0.14599362796E+03  0.15500436141E+03  0.00000000000E+00 0.  1.
         21    1    1    2  506  501  0.68806258072E+02 -0.15515486939E+03  0.24005489019E+04  0.24065415777E+04  0.00000000000E+00 0. -1.
<scales pt_clust_3="127.79215" pt_clust_4="216.85337" pt_clust_5="52.07891" pt_clust_6="14000.00000"></scales>
<clustering>
<clus scale="   52.079">  1  5  2 -1</clus>
<clus scale="  127.792">  2  3  1 -1</clus>
<clus scale="  216.853">  2  4  1 -1</clus>
<clus scale="   52.079">  1  3  2 -1</clus>
</clustering>
</event>
<event>
 6    0  0.4469832E+002  0.1188566E+03  0.7546771E-02  0.1244995E+00
         21   -1    0    0  504  501  0.00000000000E+00  0.00000000000E+00  0.29459464345E+03  0.29459464345E+03  0.00000000000E+00 0. -1.
         21   -1    0    0  506  502 -0.00000000000E+00 -0.00000000000E+00 -0.29197160720E+03  0.29197160720E+03  0.00000000000E+00 0.  1.
         21    1    1    2  503  502 -0.56597760577E+02  0.69422724356E+02 -0.14890730398E+03  0.17377055659E+03  0.00000000000E+00 0.  1.
         21    1    1    2  504  505  0.23825683111E+02 -0.10661748807E+03  0.24058868288E+03  0.26423070652E+03  0.00000000000E+00 0. -1.
         21    1    1    2  505  503 -0.39025899036E+02  0.61962478199E+01 -0.40114508547E+02  0.56307975266E+02  0.00000000000E+00 0.  1.
         21    1    1    2  506  501  0.71797976502E+02  0.30998515895E+02 -0.48943834099E+02  0.92257012275E+02  0.00000000000E+00 0.  1.
<scales pt_clust_3="32.16237" pt_clust_4="108.54546" pt_clust_5="32.16237" pt_clust_6="78.20395"></scales>
<clustering>
<clus scale="   32.162">  3  5 -1 -1</clus>
<clus scale="   78.204">  2  6  1 -1</clus>
<clus scale="  108.545">  1  4  2 -1</clus>
<clus scale="  108.545">  1  3  2 -1</clus>
</clustering>
</event>
<event>
 6    0  0.4469832E+002  0.1660405E+03  0.7546771E-02  0.1182041E+00
         21   -1    0    0  503  501  0.00000000000E+00  0.00000000000E+00  0.10603399828E+03  0.10603399828E+03  0.00000000000E+00 0. -1.
         21   -1    0    0  506  502 -0.00000000000E+00 -0.00000000000E+00 -0.58119748795E+03  0.58119748795E+03  0.00000000000E+00 0. -1.
         21    1    1    2  503  504 -0.24593972487E+01 -0.36697175820E+02 -0.68812179491E+01  0.37417676417E+02  0.00000000000E+00 0. -1.
         21    1    1    2  504  505 -0.10374626028E+03 -0.49090740265E+02 -0.35243252346E+03  0.37065060488E+03  0.00000000000E+00 0. -1.
         21    1    1    2  505  502 -0.22398865830E+02 -0.38797418625E+02 -0.86920961706E+02  0.97786514747E+02  0.00000000000E+00 0. -1.
         21    1    1    2  506  501  0.12860452336E+03  0.12458533471E+03 -0.28928786559E+02  0.18137669019E+03  0.00000000000E+00 0. -1.
<scales pt_clust_3="36.77950" pt_clust_4="32.85136" pt_clust_5="32.85136" pt_clust_6="157.49445"></scales>
<clustering>
<clus scale="   32.851">  4  5 -1 -1</clus>
<clus scale="   36.779">  1  3  2 -1</clus>
<clus scale="  157.494">  1  6  2 -1</clus>
<clus scale="   36.779">  1  3  2 -1</clus>
</clustering>
</event>
<event>
 6    0  0.4469832E+002  0.9767538E+02  0.7546771E-02  0.1285262E+00
         21   -1    0    0  503  501  0.00000000000E+00  0.00000000000E+00  0.15099636466E+03  0.15099636466E+03  0.00000000000E+00 0. -1.
         21   -1    0    0  506  502 -0.00000000000E+00 -0.00000000000E+00 -0.84622638873E+03  0.84622638873E+03  0.00000000000E+00 0.  1.
         21    1    1    2  503  504 -0.10132609725E+02 -0.59671842522E+02  0.25288248034E+02  0.65596448520E+02  0.00000000000E+00 0.  1.
         21    1    1    2  504  502 -0.42063007035E+02  0.39299888573E+02 -0.10849710081E+03  0.12282263100E+03  0.00000000000E+00 0. -1.
         21    1    1    2  505  501 -0.63173486605E+02 -0.12196759400E+02  0.82156005141E+02  0.10435161489E+03  0.00000000000E+00 0. -1.
         21    1    1    2  506  505  0.11536910336E+03  0.32568713349E+02 -0.69417717644E+03  0.70445205897E+03  0.00000000000E+00 0.  1.
<scales pt_clust_3="59.66614" pt_clust_4="57.56542" pt_clust_5="14000.00000" pt_clust_6="97.67538"></scales>
<clustering>
<clus scale="   57.565">  2  4  1 -1</clus>
<clus scale="   59.666">  1  3  2 -1</clus>
<clus scale="   97.675">  2  6  1 -1</clus>
<clus scale="   59.666">  1  3  2 -1</clus>
</clustering>
</event>
<event>
 6    0  0.4469832E+002  0.1096063E+03  0.7546771E-02  0.1261301E+00
         21   -1    0    0  503  501  0.00000000000E+00  0.00000000000E+00  0.65892607859E+02  0.65892607859E+02  0.00000000000E+00 0. -1.
         21   -1    0    0  506  502 -0.00000000000E+00 -0.00000000000E+00 -0.55740140841E+03  0.55740140841E+03  0.00000000000E+00 0. -1.
         21    1    1    2  503  504  0.92813682723E+02  0.83862572507E+01 -0.13897459215E+02  0.94222334847E+02  0.00000000000E+00 0. -1.
         21    1    1    2  504  505 -0.57297627465E+02  0.65639098837E+02 -0.16058573398E+03  0.18269999280E+03  0.00000000000E+00 0. -1.
         21    1    1    2  505  502 -0.30305878868E+02  0.19244683999E+02 -0.15721023656E+03  0.16125713205E+03  0.00000000000E+00 0. -1.
         21    1    1    2  506  501 -0.52101763902E+01 -0.93270040087E+02 -0.15981537079E+03  0.18511455658E+03  0.00000000000E+00 0. -1.
<scales pt_clust_3="93.19179" pt_clust_4="31.65917" pt_clust_5="31.65917" pt_clust_6="97.88226"></scales>
<clustering>
<clus scale="   31.659">  4  5 -1 -1</clus>
<clus scale="   93.192">  1  3  2 -1</clus>
<clus scale="   97.882">  1  6  2 -1</clus>
<clus scale="   93.192">  1  3  2 -1</clus>
</clustering>
</event>
<event>
 6    0  0.4469832E+002  0.2135548E+03  0.7546771E-02  0.1138781E+00
         21   -1    0    0  503  501  0.00000000000E+00  0.00000000000E+00  0.17200548923E+04  0.17200548923E+04  0.00000000000E+00 0. -1.
         21   -1    0    0  504  502 -0.00000000000E+00 -0.00000000000E+00 -0.79180609751E+02  0.79180609751E+02  0.00000000000E+00 0. -1.
         21    1    1    2  503  506 -0.50397259631E+02 -0.85277043196E+01  0.82328361689E+03  0.82486878918E+03  0.00000000000E+00 0. -1.
         21    1    1    2  504  501 -0.15347177024E+03  0.44986348377E+02  0.70911275756E+03  0.72692383283E+03  0.00000000000E+00 0. -1.
         21    1    1    2  505  502  0.11801818294E+03 -0.33479954518E+02  0.20308150490E+02  0.12434476199E+03  0.00000000000E+00 0. -1.
         21    1    1    2  506  505  0.85850846939E+02 -0.29786895402E+01  0.88169757608E+02  0.12309811805E+03  0.00000000000E+00 0. -1.
<scales pt_clust_3="51.11365" pt_clust_4="197.57769" pt_clust_5="66.46649" pt_clust_6="66.46649"></scales>
<clustering>
<clus scale="   51.114">  1  3  2 -1</clus>
<clus scale="   66.466">  5  6 -1 -1</clus>
<clus scale="  197.578">  1  4  2 -1</clus>
<clus scale="   51.114">  1  3  2 -1</clus>
</clustering>
</event>
<event>
 6    0  0.4469832E+002  0.1611833E+03  0.7546771E-02  0.1187367E+00
         21   -1    0    0  504  501  0.00000000000E+00  0.00000000000E+00  0.54256848099E+03  0.54256848099E+03  0.00000000000E+00 0.  1.
         21   -1    0    0  505  502 -0.00000000000E+00 -0.00000000000E+00 -0.13793115028E+03  0.13793115028E+03  0.00000000000E+00 0. -1.
         21    1    1    2  503  501 -0.10828130817E+03  0.11251222861E+03  0.24663184454E+03  0.29190942093E+03  0.00000000000E+00 0.  1.
         21    1    1    2  504  506  0.12308910180E+03 -0.11450236771E+03  0.20079565163E+03  0.26187900433E+03  0.00000000000E+00 0. -1.
         21    1    1    2  505  503 -0.43887898266E+02  0.47662266772E+02 -0.28008465468E+02  0.70585504361E+02  0.00000000000E+00 0.  1.
         21    1    1    2  506  502  0.29080104632E+02 -0.45672127672E+02 -0.14781699988E+02  0.56125701653E+02  0.00000000000E+00 0. -1.
<scales pt_clust_3="161.18334" pt_clust_4="14000.00000" pt_clust_5="39.42080" pt_clust_6="54.14421"></scales>
<clustering>
<clus scale="   54.144">  2  6  1 -1</clus>
<clus scale="   39.421">  2  5  1 -1</clus>
<clus scale="  161.183">  1  3  2 -1</clus>
<clus scale="  161.183">  1  3  2 -1</clus>
</clustering>
</event>
<event>
 6    0  0.4469832E+002  0.8078631E+02  0.7546771E-02  0.1326835E+00
         21   -1    0    0  506  501  0.00000000000E+00  0.00000000000E+00  0.10633941649E+04  0.10633941649E+04  0.00000000000E+00 0.  1.
         21   -1    0    0  504  502 -0.00000000000E+00 -0.00000000000E+00 -0.29513929285E+03  0.29513929285E+03  0.00000000000E+00 0. -1.
         21    1    1    2  503  502 -0.54776942787E+02 -0.21421425231E+02 -0.19306846652E+02  0.61904323336E+02  0.00000000000E+00 0.  1.
         21    1    1    2  504  505  0.20759210382E+02  0.72520118159E+02 -0.24136642556E+03  0.25287914849E+03  0.00000000000E+00 0. -1.
         21    1    1    2  505  501  0.26286058341E+02  0.58825273589E+02  0.33738195280E+03  0.34347918678E+03  0.00000000000E+00 0.  1.
         21    1    1    2  506  503  0.77316740641E+01 -0.10992396652E+03  0.69154619146E+03  0.70027079913E+03  0.00000000000E+00 0.  1.
<scales pt_clust_3="58.81659" pt_clust_4="61.04464" pt_clust_5="80.78631" pt_clust_6="14000.00000"></scales>
<clustering>
<clus scale="   58.817">  2  3  1 -1</clus>
<clus scale="   61.045">  2  4  1 -1</clus>
<clus scale="   80.786">  1  5  2 -1</clus>
<clus scale="   80.786">  1  3  2 -1</clus>
</clustering>
</event>
<event>
 6    0  0.4469832E+002  0.7969767E+02  0.7546771E-02  0.1329912E+00
         21   -1    0    0  503  501  0.00000000000E+00  0.00000000000E+00  0.90054006580E+03  0.90054006580E+03  0.00000000000E+00 0.  1.
         21   -1    0    0  505  502 -0.00000000000E+00 -0.00000000000E+00 -0.23659947336E+02  0.23659947336E+02  0.00000000000E+00 0.  1.
         21    1    1    2  503  506  0.19185081948E+02  0.33537813816E+02  0.14469666720E+03  0.14976641087E+03  0.00000000000E+00 0.  1.
         21    1    1    2  504  501 -0.76718837460E+02 -0.41330522653E+02  0.28046368566E+03  0.29369009363E+03  0.00000000000E+00 0.  1.
         21    1    1    2  505  504 -0.32047515529E+02  0.54444256320E+02  0.18891478047E+03  0.19919843016E+03  0.00000000000E+00 0.  1.
         21    1    1    2  506  502  0.89581271040E+02 -0.46651547483E+02  0.26280498514E+03  0.28154507848E+03  0.00000000000E+00 0.  1.
<scales pt_clust_3="38.63745" pt_clust_4="14000.00000" pt_clust_5="68.66049" pt_clust_6="79.69767"></scales>
<clustering>
<clus scale="   38.637">  1  3  2 -1</clus>
<clus scale="   68.660">  2  5  1 -1</clus>
<clus scale="   79.698">  2  6  1 -1</clus>
<clus scale="   38.637">  1  3  2 -1</clus>
</clustering>
</event>
<event>
 6    0  0.4469832E+002  0.1270603E+03  0.7546771E-02  0.1231884E+00
         21   -1    0    0  503  501  0.00000000000E+00  0.00000000000E+00  0.25561232039E+03  0.25561232039E+03  0.00000000000E+00 0. -1.
         21   -1    0    0  504  502 -0.00000000000E+00 -0.00000000000E+00 -0.10971558333E+04  0.10971558333E+04  0.00000000000E+00 0. -1.
         21    1    1    2  503  505  0.31761384902E+02  0.15919289078E+02  0.76917292000E+02  0.84725905980E+02  0.00000000000E+00 0. -1.
         21    1    1    2  504  501 -0.15435022467E+03 -0.55884736645E+02  0.12998078870E+03  0.20938505457E+03  0.00000000000E+00 0. -1.
         21    1    1    2  505  506  0.84649748189E+02  0.17107193610E+01 -0.45780866643E+03  0.46557199388E+03  0.00000000000E+00 0. -1.
         21    1    1    2  506  502  0.37939091578E+02  0.38254728207E+02 -0.59063292722E+03  0.59308519929E+03  0.00000000000E+00 0. -1.
<scales pt_clust_3="35.52759" pt_clust_4="14000.00000" pt_clust_5="127.06031" pt_clust_6="54.11387"></scales>
<clustering>
<clus scale="   35.528">  1  3  2 -1</clus>
<clus scale="   54.114">  2  6  1 -1</clus>
<clus scale="  127.060">  2  5  1 -1</clus>
<clus scale="   35.528">  1  3  2 -1</clus>
</clustering>
</event>
<event>
 6    0  0.4469832E+002  0.1109397E+03  0.7546771E-02  0.1258840E+00
         21   -1    0    0  505  501  0.00000000000E+00  0.00000000000E+00  0.38801118867E+03  0.38801118867E+03  0.00000000000E+00 0. -1.
         21   -1    0    0  506  502 -0.00000000000E+00 -0.00000000000E+00 -0.33644003665E+03  0.33644003665E+03  0.00000000000E+00 0. -1.
         21    1    1    2  503  502 -0.25589654814E+02  0.22559897202E+02 -0.62702024180E+02  0.71381532846E+02  0.00000000000E+00 0. -1.
         21    1    1    2  504  501 -0.30903847894E+02 -0.11932933317E+03  0.32251220188E+03  0.34526606831E+03  0.00000000000E+00 0. -1.
         21    1    1    2  505  503  0.33206097853E+02  0.70584796673E+02  0.17015478058E+02  0.79839745425E+02  0.00000000000E+00 0. -1.
         21    1    1    2  506  504  0.23287404855E+02  0.26184639295E+02 -0.22525450373E+03  0.22796387874E+03  0.00000000000E+00 0. -1.
<scales pt_clust_3="34.11421" pt_clust_4="14000.00000" pt_clust_5="110.93966" pt_clust_6="45.19567"></scales>
<clustering>
<clus scale="   34.114">  2  3  1 -1</clus>
<clus scale="   45.196">  2  6  1 -1</clus>
<clus scale="  110.940">  2  5  1 -1</clus>
<clus scale="  110.940">  1  3  2 -1</clus>
</clustering>
</event>
<event>
 6    0  0.4469832E+002  0.7849263E+02  0.7546771E-02  0.1333384E+00
         21   -1    0    0  504  501  0.00000000000E+00  0.00000000000E+00  0.27414741709E+03  0.27414741709E+03  0.00000000000E+00 0. -1.
         21   -1    0    0  505  502 -0.00000000000E+00 -0.00000000000E+00 -0.13744304044E+03  0.13744304044E+03  0.00000000000E+00 0. -1.
         21    1    1    2  503  502 -0.49728103604E+02  0.10517168391E+01 -0.42733307272E+02  0.65575345571E+02  0.00000000000E+00 0. -1.
         21    1    1    2  504  506 -0.55502824947E+02  0.26599734755E+02  0.89099567569E+02  0.10829054625E+03  0.00000000000E+00 0. -1.
         21    1    1    2  505  501  0.11703665781E+03 -0.83091686132E+02  0.10656110722E+03  0.17876542492E+03  0.00000000000E+00 0. -1.
         21    1    1    2  506  503 -0.11805729256E+02  0.55440234539E+02 -0.16222990869E+02  0.58959140781E+02  0.00000000000E+00 0. -1.
<scales pt_clust_3="49.73922" pt_clust_4="14000.00000" pt_clust_5="78.49263" pt_clust_6="65.57074"></scales>
<clustering>
<clus scale="   49.739">  2  3  1 -1</clus>
<clus scale="   65.571">  2  6  1 -1</clus>
<clus scale="   78.493">  2  5  1 -1</clus>
<clus scale="   78.493">  1  3  2 -1</clus>
</clustering>
</event>
<event>
 6    0  0.4469832E+002  0.2275298E+03  0.7546771E-02  0.1128391E+00
         21   -1    0    0  504  501  0.00000000000E+00  0.00000000000E+00  0.35582866066E+03  0.35582866066E+03  0.00000000000E+00 0. -1.
         21   -1    0    0  506  502 -0.00000000000E+00 -0.00000000000E+00 -0.56059976689E+03  0.56059976689E+03  0.00000000000E+00 0.  1.
         21    1    1    2  503  501  0.21234202892E+03  0.22390905637E+02 -0.17232669857E+03  0.27438473161E+03  0.00000000000E+00 0.  1.
         21    1    1    2  504  505 -0.21075255786E+03 -0.98410338636E+02  0.23671660018E+03  0.33186741961E+03  0.00000000000E+00 0. -1.
         21    1    1    2  505  502 -0.62601020388E+02  0.33727162932E+02 -0.80355759414E+02  0.10730077979E+03  0.00000000000E+00 0.  1.
         21    1    1    2  506  503  0.61011549332E+02  0.42292270067E+02 -0.18880524843E+03  0.20287549653E+03  0.00000000000E+00 0.  1.
<scales pt_clust_3="14000.00000" pt_clust_4="227.52978" pt_clust_5="71.10843" pt_clust_6="66.28064"></scales>
<clustering>
<clus scale="   71.108">  2  5  1 -1</clus>
<clus scale="   66.281">  2  6  1 -1</clus>
<clus scale="  227.530">  1  4  2 -1</clus>
<clus scale="  227.530">  1  3  2 -1</clus>
</clustering>
</event>
<event>
 6    0  0.4469832E+002  0.9028544E+02  0.7546771E-02  0.1302162E+00
         21   -1    0    0  503  501  0.00000000000E+00  0.00000000000E+00  0.99854226910E+03  0.99854226910E+03  0.00000000000E+00 0.  1.
         21   -1    0    0  506  502 -0.00000000000E+00 -0.00000000000E+00 -0.45575114413E+02  0.45575114413E+02  0.00000000000E+00 0.  1.
         21    1    1    2  503  504 -0.68469804992E+02 -0.79823660101E+02  0.19101464949E+03  0.21805166183E+03  0.00000000000E+00 0.  1.
         21    1    1    2  504  502  0.52746498999E+01 -0.33078674787E+02  0.17905372284E+02  0.37981877440E+02  0.00000000000E+00 0.  1.
         21    1    1    2  505  501  0.34005727553E+02  0.18410398948E+02  0.65147101123E+03  0.65261766048E+03  0.00000000000E+00 0.  1.
         21    1    1    2  506  505  0.29189427539E+02  0.94491935940E+02  0.92576121689E+02  0.13546618377E+03  0.00000000000E+00 0.  1.
<scales pt_clust_3="90.28544" pt_clust_4="33.49658" pt_clust_5="38.49366" pt_clust_6="14000.00000"></scales>
<clustering>
<clus scale="   33.497">  2  4  1 -1</clus>
<clus scale="   38.494">  1  5  2 -1</clus>
<clus scale="   90.285">  1  3  2 -1</clus>
<clus scale="   38.494">  1  3  2 -1</clus>
</clustering>
</event>
<event>
 6    0  0.4469832E+002  0.1161758E+03  0.7546771E-02  0.1249542E+00
         21   -1    0    0  503  501  0.00000000000E+00  0.00000000000E+00  0.38524351541E+03  0.38524351541E+03  0.00000000000E+00 0.  1.
         21   -1    0    0  505  502 -0.00000000000E+00 -0.00000000000E+00 -0.24838508926E+03  0.24838508926E+03  0.00000000000E+00 0.  1.
         21    1    1    2  503  504 -0.41154559053E+02  0.26825201074E+02  0.14423159254E+03  0.15236811159E+03  0.00000000000E+00 0.  1.
         21    1    1    2  504  502 -0.72982045448E+01  0.11179878032E+03 -0.12685558066E+03  0.16924706619E+03  0.00000000000E+00 0.  1.
         21    1    1    2  505  506  0.63345786962E+02 -0.83763212372E+01 -0.61402483113E+02  0.88617810939E+02  0.00000000000E+00 0.  1.
         21    1    1    2  506  501 -0.14893023364E+02 -0.13024766016E+03  0.18088489739E+03  0.22339561595E+03  0.00000000000E+00 0.  1.
<scales pt_clust_3="49.12524" pt_clust_4="14000.00000" pt_clust_5="61.36421" pt_clust_6="116.17582"></scales>
<clustering>
<clus scale="   49.125">  1  3  2 -1</clus>
<clus scale="   61.364">  2  5  1 -1</clus>
<clus scale="  116.176">  1  6  2 -1</clus>
<clus scale="   49.125">  1  3  2 -1</clus>
</clustering>
</event>
<event>
 6    0  0.4469832E+002  0.1075817E+03  0.7546771E-02  0.1265115E+00
         21   -1    0    0  504  501  0.00000000000E+00  0.00000000000E+00  0.26168032189E+02  0.26168032189E+02  0.00000000000E+00 0.  1.
         21   -1    0    0  505  502 -0.00000000000E+00 -0.00000000000E+00 -0.12674777574E+04  0.12674777574E+04  0.00000000000E+00 0. -1.
         21    1    1    2  503  502 -0.34279450814E+02 -0.19584160710E+02 -0.29487289679E+03  0.29750402579E+03  0.00000000000E+00 0. -1.
         21    1    1    2  504  503 -0.66759785852E+02  0.10855150615E+03 -0.24701114782E+03  0.27794748720E+03  0.00000000000E+00 0.  1.
         21    1    1    2  505  506  0.56723369547E+02 -0.83214200938E+02 -0.60964253171E+03  0.61790465313E+03  0.00000000000E+00 0. -1.
         21    1    1    2  506  501  0.44315867119E+02 -0.57531445026E+01 -0.89783148863E+02  0.10028962344E+03  0.00000000000E+00 0.  1.
<scales pt_clust_3="39.47936" pt_clust_4="107.58169" pt_clust_5="14000.00000" pt_clust_6="41.67357"></scales>
<clustering>
<clus scale="   39.479">  2  3  1 -1</clus>
<clus scale="   41.674">  1  6  2 -1</clus>
<clus scale="  107.582">  1  4  2 -1</clus>
<clus scale="   41.674">  1  3  2 -1</clus>
</clustering>
</event>
<event>
 6    0  0.4469832E+002  0.8261827E+02  0.7546771E-02  0.1321781E+00
         21   -1    0    0  503  501  0.00000000000E+00  0.00000000000E+00  0.60796290318E+03  0.60796290318E+03  0.00000000000E+00 0. -1.
         21   -1    0    0  505  502 -0.00000000000E+00 -0.00000000000E+00 -0.36586839023E+02  0.36586839023E+02  0.00000000000E+00 0. -1.
         21    1    1    2  503  504  0.43841287608E+02 -0.36673079128E+01  0.26699138346E+03  0.27059177092E+03  0.00000000000E+00 0. -1.
         21    1    1    2  504  502  0.60910936642E+02  0.20205660566E+02  0.10385283992E+03  0.12208121592E+03  0.00000000000E+00 0. -1.
         21    1    1    2  505  506  0.64833346227E+01 -0.38461864023E+02  0.49156341583E+02  0.62751052022E+02  0.00000000000E+00 0. -1.
         21    1    1    2  506  501 -0.11123555887E+03  0.21923511370E+02  0.15137549919E+03  0.18912570334E+03  0.00000000000E+00 0. -1.
<scales pt_clust_3="44.63703" pt_clust_4="14000.00000" pt_clust_5="39.00447" pt_clust_6="82.61827"></scales>
<clustering>
<clus scale="   39.004">  2  5  1 -1</clus>
<clus scale="   44.637">  1  3  2 -1</clus>
<clus scale="   82.618">  1  6  2 -1</clus>
<clus scale="   44.637">  1  3  2 -1</clus>
</clustering>
</event>
<event>
 6    0  0.4469832E+002  0.9891097E+02  0.7546771E-02  0.1282603E+00
         21   -1    0    0  505  501  0.00000000000E+00  0.00000000000E+00  0.24269502361E+03  0.24269502361E+03  0.00000000000E+00 0. -1.
         21   -1    0    0  504  502 -0.00000000000E+00 -0.00000000000E+00 -0.95122245286E+03  0.95122245286E+03  0.00000000000E+00 0. -1.
         21    1    1    2  503  502 -0.88900135656E+02 -0.49614686059E+02 -0.33240633540E+03  0.34764755573E+03  0.00000000000E+00 0. -1.
         21    1    1    2  504  506 -0.51591426144E+01  0.85309237063E+02 -0.57706491461E+03  0.58335940753E+03  0.00000000000E+00 0. -1.
         21    1    1    2  505  503 -0.22647204369E+02 -0.24702114982E+02  0.40405401651E+01  0.33755241298E+02  0.00000000000E+00 0. -1.
         21    1    1    2  506  501  0.11670648264E+03 -0.10992436022E+02  0.19690328059E+03  0.22915527192E+03  0.00000000000E+00 0. -1.
<scales pt_clust_3="98.91097" pt_clust_4="85.13825" pt_clust_5="33.51254" pt_clust_6="14000.00000"></scales>
<clustering>
<clus scale="   33.513">  1  5  2 -1</clus>
<clus scale="   85.138">  2  4  1 -1</clus>
<clus scale="   98.911">  2  3  1 -1</clus>
<clus scale="   33.513">  1  3  2 -1</clus>
</clustering>
</event>
<event>
 6    0  0.4469832E+002  0.1767432E+03  0.7546771E-02  0.1170993E+00
         21   -1    0    0  505  501  0.00000000000E+00  0.00000000000E+00  0.22104424684E+03  0.22104424684E+03  0.00000000000E+00 0. -1.
         21   -1    0    0  506  502 -0.00000000000E+00 -0.00000000000E+00 -0.18885719043E+04  0.18885719043E+04  0.00000000000E+00 0. -1.
         21    1    1    2  503  504 -0.11853996310E+03 -0.14525567094E+03 -0.83899461864E+03  0.85968767753E+03  0.00000000000E+00 0. -1.
         21    1    1    2  504  502  0.32864908844E+02 -0.40424502007E+02 -0.90902499367E+03  0.91051671138E+03  0.00000000000E+00 0. -1.
         21    1    1    2  505  503  0.10062136585E+03  0.14474960636E+03  0.16682275580E+03  0.24270751875E+03  0.00000000000E+00 0. -1.
         21    1    1    2  506  501 -0.14946311593E+02  0.40930566589E+02 -0.86330800954E+02  0.96704243469E+02  0.00000000000E+00 0. -1.
<scales pt_clust_3="176.74321" pt_clust_4="32.06578" pt_clust_5="14000.00000" pt_clust_6="43.57412"></scales>
<clustering>
<clus scale="   43.574">  2  6  1 -1</clus>
<clus scale="   32.066">  2  4  1 -1</clus>
<clus scale="  176.743">  2  3  1 -1</clus>
<clus scale="  176.743">  1  3  2 -1</clus>
</clustering>
</event>
<event>
 6    0  0.4469832E+002  0.9527397E+02  0.7546771E-02  0.1290560E+00
         21   -1    0    0  504  501  0.00000000000E+00  0.00000000000E+00  0.28772920843E+03  0.28772920843E+03  0.00000000000E+00 0.  1.
         21   -1    0    0  506  502 -0.00000000000E+00 -0.00000000000E+00 -0.37482917639E+03  0.37482917639E+03  0.00000000000E+00 0.  1.
         21    1    1    2  503  505  0.44073280159E+02 -0.14965152323E+02 -0.20703006227E+02  0.50941380771E+02  0.00000000000E+00 0.  1.
         21    1    1    2  504  503  0.37505439174E+02  0.88242844759E+02  0.24613678850E+03  0.26415294106E+03  0.00000000000E+00 0.  1.
         21    1    1    2  505  502  0.13602575332E+02 -0.32557477914E+02 -0.29170078376E+02  0.45781141273E+02  0.00000000000E+00 0. -1.
         21    1    1    2  506  501 -0.95181294665E+02 -0.40720214521E+02 -0.28336367186E+03  0.30168292172E+03  0.00000000000E+00 0.  1.
<scales pt_clust_3="82.87293" pt_clust_4="95.27397" pt_clust_5="31.18711" pt_clust_6="14000.00000"></scales>
<clustering>
<clus scale="   31.187">  3  5 -1 -1</clus>
<clus scale="   82.873">  2  3  1 -1</clus>
<clus scale="   95.274">  1  4  2 -1</clus>
<clus scale="   95.274">  1  3  2 -1</clus>
</clustering>
</event>
<event>
 6    0  0.4469832E+002  0.8436104E+02  0.7546771E-02  0.1317112E+00
         21   -1    0    0  506  501  0.00000000000E+00  0.00000000000E+00  0.88608872542E+03  0.88608872542E+03  0.00000000000E+00 0.  1.
         21   -1    0    0  503  502 -0.00000000000E+00 -0.00000000000E+00 -0.44950910094E+03  0.44950910094E+03  0.00000000000E+00 0. -1.
         21    1    1    2  503  504  0.24784552630E+02 -0.54876851642E+02 -0.31841616233E+02  0.68114839936E+02  0.00000000000E+00 0.  1.
         21    1    1    2  504  501 -0.11339977369E+03  0.39003398545E+01  0.58244708180E+03  0.59339643108E+03  0.00000000000E+00 0.  1.
         21    1    1    2  505  502  0.57363684581E+02  0.38441939229E+02 -0.38999986314E+03  0.39606598976E+03  0.00000000000E+00 0. -1.
         21    1    1    2  506  505  0.31251536475E+02  0.12534572558E+02  0.27597402205E+03  0.27802056559E+03  0.00000000000E+00 0.  1.
<scales pt_clust_3="60.26534" pt_clust_4="14000.00000" pt_clust_5="84.36104" pt_clust_6="33.67156"></scales>
<clustering>
<clus scale="   33.672">  1  6  2 -1</clus>
<clus scale="   60.265">  2  3  1 -1</clus>
<clus scale="   84.361">  2  5  1 -1</clus>
<clus scale="   33.672">  1  3  2 -1</clus>
</clustering>
</event>
<event>
 6    0  0.4469832E+002  0.1499241E+03  0.7546771E-02  0.1200566E+00
         21   -1    0    0  504  501  0.00000000000E+00  0.00000000000E+00  0.40439193094E+03  0.40439193094E+03  0.00000000000E+00 0.  1.
         21   -1    0    0  501  502 -0.00000000000E+00 -0.00000000000E+00 -0.39491374086E+03  0.39491374086E+03  0.00000000000E+00 0. -1.
         21    1    1    2  503  506 -0.34831563442E+02  0.22051836450E+02  0.16357881935E+02  0.44352019165E+02  0.00000000000E+00 0. -1.
         21    1    1    2  504  503 -0.17696038845E+02 -0.34097506929E+02  0.31655314264E+03  0.31887565270E+03  0.00000000000E+00 0.  1.
         21    1    1    2  505  502  0.14192568559E+03  0.26551660147E+02 -0.31326849821E+03  0.34494208623E+03  0.00000000000E+00 0. -1.
         21    1    1    2  506  505 -0.89398083300E+02 -0.14505989668E+02 -0.10164336285E+02  0.91135913701E+02  0.00000000000E+00 0. -1.
<scales pt_clust_3="35.88289" pt_clust_4="38.41601" pt_clust_5="140.17336" pt_clust_6="35.88289"></scales>
<clustering>
<clus scale="   35.883">  3  6 -1 -1</clus>
<clus scale="   38.416">  1  4  2 -1</clus>
<clus scale="  140.173">  2  5  1 -1</clus>
<clus scale="   38.416">  1  3  2 -1</clus>
</clustering>
</event>
<event>
 6    0  0.4469832E+002  0.8523618E+02  0.7546771E-02  0.1314816E+00
         21   -1    0    0  505  501  0.00000000000E+00  0.00000000000E+00  0.12853275364E+04  0.12853275364E+04  0.00000000000E+00 0. -1.
         21   -1    0    0  506  502 -0.00000000000E+00 -0.00000000000E+00 -0.44976131936E+02  0.44976131936E+02  0.00000000000E+00 0.  1.
         21    1    1    2  503  502 -0.98671184657E+02 -0.40363802111E+02  0.12017068015E+03  0.16064318090E+03  0.00000000000E+00 0.  1.
         21    1    1    2  504  501 -0.37697539974E+02 -0.14796623705E+02  0.14478269053E+03  0.15033985523E+03  0.00000000000E+00 0. -1.
         21    1    1    2  505  503  0.11303111784E+03  0.16330713313E+02  0.96640961102E+03  0.97313424668E+03  0.00000000000E+00 0. -1.
         21    1    1    2  506  504  0.23337606791E+02  0.38829712503E+02  0.89884227657E+01  0.46186385522E+02  0.00000000000E+00 0.  1.
<scales pt_clust_3="85.23618" pt_clust_4="40.49746" pt_clust_5="14000.00000" pt_clust_6="44.52897"></scales>
<clustering>
<clus scale="   40.497">  1  4  2 -1</clus>
<clus scale="   44.529">  2  6  1 -1</clus>
<clus scale="   85.236">  2  3  1 -1</clus>
<clus scale="   40.497">  1  3  2 -1</clus>
</clustering>
</event>
<event>
 6    0  0.4469832E+002  0.1121478E+03  0.7546771E-02  0.1256643E+00
         21   -1    0    0  504  501  0.00000000000E+00  0.00000000000E+00  0.99607797068E+03  0.99607797068E+03  0.00000000000E+00 0.  1.
         21   -1    0    0  501  502 -0.00000000000E+00 -0.00000000000E+00 -0.11738069718E+04  0.11738069718E+04  0.00000000000E+00 0.  1.
         21    1    1    2  503  502  0.36651763660E+02 -0.20172501784E+02 -0.70303872977E+03  0.70428242713E+03  0.00000000000E+00 0.  1.
         21    1    1    2  504  505  0.37840131456E+02  0.31554437773E+02  0.90097791056E+03  0.90232408446E+03  0.00000000000E+00 0.  1.
         21    1    1    2  505  506 -0.10951374366E+03  0.38361638793E+02  0.54944867242E+02  0.12838930570E+03  0.00000000000E+00 0. -1.
         21    1    1    2  506  503  0.35021848544E+02 -0.49743574782E+02 -0.43061304918E+03  0.43488912522E+03  0.00000000000E+00 0.  1.
<scales pt_clust_3="41.63015" pt_clust_4="49.27026" pt_clust_5="100.28467" pt_clust_6="41.63015"></scales>
<clustering>
<clus scale="   41.630">  3  6 -1 -1</clus>
<clus scale="   49.270">  1  4  2 -1</clus>
<clus scale="  100.285">  1  5  2 -1</clus>
<clus scale="   49.270">  1  3  2 -1</clus>
</clustering>
</event>
<event>
 6    0  0.4469832E+002  0.8614796E+02  0.7546771E-02  0.1312458E+00
         21   -1    0    0  505  501  0.00000000000E+00  0.00000000000E+00  0.60043005958E+02  0.60043005958E+02  0.00000000000E+00 0. -1.
         21   -1    0    0  503  502 -0.00000000000E+00 -0.00000000000E+00 -0.50894098518E+03  0.50894098518E+03  0.00000000000E+00 0. -1.
         21    1    1    2  503  506 -0.42157704046E+01  0.73346637806E+02 -0.23980194886E+03  0.25080366161E+03  0.00000000000E+00 0. -1.
         21    1    1    2  504  502  0.65843577933E+02 -0.31003120527E+01 -0.14547694892E+03  0.15971390471E+03  0.00000000000E+00 0. -1.
         21    1    1    2  505  504 -0.39540116138E+02 -0.94734427327E+02 -0.21344538382E+02  0.10485047365E+03  0.00000000000E+00 0. -1.
         21    1    1    2  506  501 -0.22087691390E+02  0.24488101574E+02 -0.42274543054E+02  0.53615951172E+02  0.00000000000E+00 0. -1.
<scales pt_clust_3="86.14796" pt_clust_4="62.95192" pt_clust_5="14000.00000" pt_clust_6="32.97777"></scales>
<clustering>
<clus scale="   32.978">  1  6  2 -1</clus>
<clus scale="   62.952">  2  4  1 -1</clus>
<clus scale="   86.148">  2  3  1 -1</clus>
<clus scale="   32.978">  1  3  2 -1</clus>
</clustering>
</event>
<event>
 6    0  0.4469832E+002  0.1940249E+03  0.7546771E-02  0.1154880E+00
         21   -1    0    0  505  501  0.00000000000E+00  0.00000000000E+00  0.98773719757E+03  0.98773719757E+03  0.00000000000E+00 0. -1.
         21   -1    0    0  503  502 -0.00000000000E+00 -0.00000000000E+00 -0.34178309610E+03  0.34178309610E+03  0.00000000000E+00 0.  1.
         21    1    1    2  503  504 -0.21892147654E+02 -0.41060662410E+02  0.93243883645E+01  0.47457226476E+02  0.00000000000E+00 0. -1.
         21    1    1    2  504  501 -0.25803069706E+02 -0.19894546158E+03  0.85303436058E+03  0.87630629087E+03  0.00000000000E+00 0. -1.
         21    1    1    2  505  506 -0.19654059271E+02  0.15520745060E+03  0.79353376821E+01  0.15664802697E+03  0.00000000000E+00 0.  1.
         21    1    1    2  506  502  0.67349276631E+02  0.84798673386E+02 -0.22433998515E+03  0.24910874936E+03  0.00000000000E+00 0.  1.
<scales pt_clust_3="46.53218" pt_clust_4="194.02491" pt_clust_5="14000.00000" pt_clust_6="74.97025"></scales>
<clustering>
<clus scale="   46.532">  2  3  1 -1</clus>
<clus scale="   74.970">  2  6  1 -1</clus>
<clus scale="  194.025">  1  4  2 -1</clus>
<clus scale="  194.025">  1  3  2 -1</clus>
</clustering>
</event>
<event>
 6    0  0.4469832E+002  0.1213400E+03  0.7546771E-02  0.1240903E+00
         21   -1    0    0  505  501  0.00000000000E+00  0.00000000000E+00  0.36315661690E+03  0.36315661690E+03  0.00000000000E+00 0.  1.
         21   -1    0    0  506  502 -0.00000000000E+00 -0.00000000000E+00 -0.17783052160E+03  0.17783052160E+03  0.00000000000E+00 0.  1.
         21    1    1    2  503  502  0.77700053231E+02  0.11177438056E+03 -0.10769194382E+03  0.17357524358E+03  0.00000000000E+00 0.  1.
         21    1    1    2  504  503 -0.68844422049E+02 -0.80099967386E+02  0.23986930982E+03  0.26209319910E+03  0.00000000000E+00 0.  1.
         21    1    1    2  505  504 -0.29837710439E+02  0.53158494385E+01  0.54949892659E+02  0.62753788115E+02  0.00000000000E+00 0.  1.
         21    1    1    2  506  501  0.20982079257E+02 -0.36990262613E+02 -0.18011633570E+01  0.42564907701E+02  0.00000000000E+00 0. -1.
<scales pt_clust_3="14000.00000" pt_clust_4="121.34004" pt_clust_5="30.30754" pt_clust_6="41.26067"></scales>
<clustering>
<clus scale="   30.308">  1  5  2 -1</clus>
<clus scale="   41.261">  2  6  1 -1</clus>
<clus scale="  121.340">  1  4  2 -1</clus>
<clus scale="   30.308">  1  3  2 -1</clus>
</clustering>
</event>
<event>
 6    0  0.4469832E+002  0.1622532E+03  0.7546771E-02  0.1186176E+00
         21   -1    0    0  506  501  0.00000000000E+00  0.00000000000E+00  0.37316383109E+04  0.37316383109E+04  0.00000000000E+00 0.  1.
         21   -1    0    0  504  502 -0.00000000000E+00 -0.00000000000E+00 -0.24679515030E+03  0.24679515030E+03  0.00000000000E+00 0.  1.
         21    1    1    2  503  502  0.14245582242E+02 -0.60666101713E+02 -0.91365591059E+02  0.11059377803E+03  0.00000000000E+00 0.  1.
         21    1    1    2  504  505  0.16599654303E+01 -0.69041640037E+02 -0.20641769132E+02  0.72080414657E+02  0.00000000000E+00 0.  1.
         21    1    1    2  505  501 -0.49179444311E+02  0.14842936448E+03  0.36909234151E+04  0.36942340952E+04  0.00000000000E+00 0.  1.
         21    1    1    2  506  503  0.33273896640E+02 -0.18721622725E+02 -0.94072894352E+02  0.10152517327E+03  0.00000000000E+00 0.  1.
<scales pt_clust_3="35.40946" pt_clust_4="69.06159" pt_clust_5="155.81913" pt_clust_6="35.40946"></scales>
<clustering>
<clus scale="   35.409">  3  6 -1 -1</clus>
<clus scale="   69.062">  2  4  1 -1</clus>
<clus scale="  155.819">  1  5  2 -1</clus>
<clus scale="  155.819">  1  3  2 -1</clus>
</clustering>
</event>
<event>
 6    0  0.4469832E+002  0.5473682E+03  0.7546771E-02  0.1002105E+00
         21   -1    0    0  503  501  0.00000000000E+00  0.00000000000E+00  0.13539636473E+04  0.13539636473E+04  0.00000000000E+00 0.  1.
         21   -1    0    0  504  502 -0.00000000000E+00 -0.00000000000E+00 -0.39297407098E+03  0.39297407098E+03  0.00000000000E+00 0.  1.
         21    1    1    2  503  502 -0.29772866936E+02 -0.48631692372E+02  0.29803817924E+03  0.30344393452E+03  0.00000000000E+00 0.  1.
         21    1    1    2  504  505 -0.20824684242E+03 -0.48694993424E+03  0.25124594572E+02  0.53020583841E+03  0.00000000000E+00 0.  1.
         21    1    1    2  505  506  0.29337962102E+03  0.51814518295E+03  0.58715989724E+03  0.83624325263E+03  0.00000000000E+00 0.  1.
         21    1    1    2  506  501 -0.55359911662E+02  0.17436443662E+02  0.50666905288E+02  0.77044692732E+02  0.00000000000E+00 0.  1.
<scales pt_clust_3="57.02162" pt_clust_4="14000.00000" pt_clust_5="547.36822" pt_clust_6="58.97236"></scales>
<clustering>
<clus scale="   57.022">  1  3  2 -1</clus>
<clus scale="   58.972">  1  6  2 -1</clus>
<clus scale="  547.368">  1  5  2 -1</clus>
<clus scale="   57.022">  1  3  2 -1</clus>
</clustering>
</event>
<event>
 6    0  0.4469832E+002  0.1541696E+03  0.7546771E-02  0.1195441E+00
         21   -1    0    0  505  501  0.00000000000E+00  0.00000000000E+00  0.38211848360E+03  0.38211848360E+03  0.00000000000E+00 0.  1.
         21   -1    0    0  506  502 -0.00000000000E+00 -0.00000000000E+00 -0.21396350415E+03  0.21396350415E+03  0.00000000000E+00 0.  1.
         21    1    1    2  503  504 -0.48338155806E+02  0.16527379500E+02  0.29193213295E+02  0.58838552687E+02  0.00000000000E+00 0.  1.
         21    1    1    2  504  502 -0.12484080961E+03  0.21756260413E+02  0.21200710309E+03  0.24699306543E+03  0.00000000000E+00 0.  1.
         21    1    1    2  505  503  0.45105804441E+02  0.11888814001E+02  0.74902028515E+02  0.88239398050E+02  0.00000000000E+00 0.  1.
         21    1    1    2  506  501  0.12807316098E+03 -0.50172453914E+02 -0.14794736545E+03  0.20201097158E+03  0.00000000000E+00 0.  1.
<scales pt_clust_3="39.64491" pt_clust_4="39.64491" pt_clust_5="46.64630" pt_clust_6="140.95911"></scales>
<clustering>
<clus scale="   39.645">  3  4 -1 -1</clus>
<clus scale="   46.646">  1  5  2 -1</clus>
<clus scale="  140.959">  2  6  1 -1</clus>
<clus scale="   46.646">  1  3  2 -1</clus>
</clustering>
</event>
<event>
 6    0  0.4469832E+002  0.1427200E+03  0.7546771E-02  0.1209715E+00
         21   -1    0    0  503  501  0.00000000000E+00  0.00000000000E+00  0.10048933813E+03  0.10048933813E+03  0.00000000000E+00 0. -1.
         21   -1    0    0  506  502 -0.00000000000E+00 -0.00000000000E+00 -0.14544895926E+04  0.14544895926E+04  0.00000000000E+00 0.  1.
         21    1    1    2  503  504 -0.92465885241E+02  0.54368201698E+02  0.52523924952E+02  0.11943451755E+03  0.00000000000E+00 0. -1.
         21    1    1    2  504  502  0.15541838414E+03 -0.81720358269E+02 -0.12272063915E+04  0.12397050530E+04  0.00000000000E+00 0.  1.
         21    1    1    2  505  501 -0.31673125717E+02  0.16875693619E+02 -0.45149666813E+02  0.57675543700E+02  0.00000000000E+00 0. -1.
         21    1    1    2  506  505 -0.31279373186E+02  0.10476462952E+02 -0.13416812109E+03  0.13816381646E+03  0.00000000000E+00 0. -1.
<scales pt_clust_3="142.72000" pt_clust_4="14000.00000" pt_clust_5="37.15768" pt_clust_6="32.98720"></scales>
<clustering>
<clus scale="   32.987">  2  6  1 -1</clus>
<clus scale="   37.158">  1  5  2 -1</clus>
<clus scale="  142.720">  1  3  2 -1</clus>
<clus scale="   37.158">  1  3  2 -1</clus>
</clustering>
</event>
<event>
 6    0  0.4469832E+002  0.1455991E+03  0.7546771E-02  0.1205987E+00
         21   -1    0    0  504  501  0.00000000000E+00  0.00000000000E+00  0.34633729005E+03  0.34633729005E+03  0.00000000000E+00 0. -1.
         21   -1    0    0  506  502 -0.00000000000E+00 -0.00000000000E+00 -0.17880820406E+04  0.17880820406E+04  0.00000000000E+00 0.  1.
         21    1    1    2  503  501 -0.12086322418E+03 -0.35141513744E+01  0.31053874402E+03  0.33324852551E+03  0.00000000000E+00 0. -1.
         21    1    1    2  504  502  0.25115002629E+02  0.13319727081E+03 -0.39753094083E+03  0.42000372049E+03  0.00000000000E+00 0. -1.
         21    1    1    2  505  503  0.15148104594E+03 -0.13475290678E+03 -0.87604474626E+03  0.89919922743E+03  0.00000000000E+00 0.  1.
         21    1    1    2  506  505 -0.55732824387E+02  0.50697873469E+01 -0.47870780752E+03  0.48196785726E+03  0.00000000000E+00 0.  1.
<scales pt_clust_3="121.39675" pt_clust_4="145.59911" pt_clust_5="14000.00000" pt_clust_6="55.96294"></scales>
<clustering>
<clus scale="   55.963">  2  6  1 -1</clus>
<clus scale="  121.397">  1  3  2 -1</clus>
<clus scale="  145.599">  1  4  2 -1</clus>
<clus scale="  121.397">  1  3  2 -1</clus>
</clustering>
</event>
<event>
 6    0  0.4469832E+002  0.1330506E+03  0.7546771E-02  0.1222998E+00
         21   -1    0    0  505  501  0.00000000000E+00  0.00000000000E+00  0.18384100510E+03  0.18384100510E+03  0.00000000000E+00 0. -1.
         21   -1    0    0  504  502 -0.00000000000E+00 -0.00000000000E+00 -0.11476047174E+04  0.11476047174E+04  0.00000000000E+00 0.  1.
         21    1    1    2  503  501  0.21056671068E+02  0.27682244347E+02  0.12616555933E+03  0.13087183963E+03  0.00000000000E+00 0. -1.
         21    1    1    2  504  503  0.84747517770E+02  0.44283122870E+02  0.64777971015E+01  0.95838920040E+02  0.00000000000E+00 0. -1.
         21    1    1    2  505  506 -0.44144629210E+02 -0.39901745131E+02 -0.34244212913E+03  0.34757374664E+03  0.00000000000E+00 0.  1.
         21    1    1    2  506  502 -0.61659559628E+02 -0.32063622086E+02 -0.75396493963E+03  0.75716121622E+03  0.00000000000E+00 0.  1.
<scales pt_clust_3="34.78060" pt_clust_4="125.47961" pt_clust_5="40.65531" pt_clust_6="40.65531"></scales>
<clustering>
<clus scale="   34.781">  1  3  2 -1</clus>
<clus scale="   40.655">  5  6 -1 -1</clus>
<clus scale="  125.480">  1  4  2 -1</clus>
<clus scale="   34.781">  1  3  2 -1</clus>
</clustering>
</event>
<event>
 6    0  0.4469832E+002  0.1101342E+03  0.7546771E-02  0.1260322E+00
         21   -1    0    0  505  501  0.00000000000E+00  0.00000000000E+00  0.87181668611E+02  0.87181668611E+02  0.00000000000E+00 0.  1.
         21   -1    0    0  504  502 -0.00000000000E+00 -0.00000000000E+00 -0.19221292212E+04  0.19221292212E+04  0.00000000000E+00 0.  1.
         21    1    1    2  503  501 -0.31827709839E+02  0.78375110406E+02  0.15617250630E+02  0.86020692639E+02  0.00000000000E+00 0.  1.
         21    1    1    2  504  506 -0.22564298926E+02 -0.38570556383E+02 -0.12058002506E+04  0.12066279790E+04  0.00000000000E+00 0.  1.
         21    1    1    2  505  502  0.10157964017E+03  0.24768754260E+02 -0.48849846174E+02  0.11540460110E+03  0.00000000000E+00 0. -1.
         21    1    1    2  506  503 -0.47187631407E+02 -0.64573308283E+02 -0.59591470640E+03  0.60125761701E+03  0.00000000000E+00 0.  1.
<scales pt_clust_3="83.26964" pt_clust_4="44.68596" pt_clust_5="14000.00000" pt_clust_6="110.13418"></scales>
<clustering>
<clus scale="   44.686">  2  4  1 -1</clus>
<clus scale="   83.270">  1  3  2 -1</clus>
<clus scale="  110.134">  2  6  1 -1</clus>
<clus scale="   83.270">  1  3  2 -1</clus>
</clustering>
</event>
<event>
 6    0  0.4469832E+002  0.1746381E+03  0.7546771E-02  0.1173096E+00
         21   -1    0    0  504  501  0.00000000000E+00  0.00000000000E+00  0.23367787857E+04  0.23367787857E+04  0.00000000000E+00 0. -1.
         21   -1    0    0  503  502 -0.00000000000E+00 -0.00000000000E+00 -0.21565026037E+02  0.21565026037E+02  0.00000000000E+00 0. -1.
         21    1    1    2  503  506  0.39835245219E+02  0.11159222387E+03  0.37379979728E+03  0.39213002899E+03  0.00000000000E+00 0. -1.
         21    1    1    2  504  505 -0.42116210505E+02 -0.80490749476E+01  0.22429199748E+03  0.22835381085E+03  0.00000000000E+00 0. -1.
         21    1    1    2  505  502  0.15806340816E+02 -0.15813782872E+03  0.16006293512E+04  0.16084998394E+04  0.00000000000E+00 0. -1.
         21    1    1    2  506  501 -0.13525375531E+02  0.54594679792E+02  0.11649261372E+03  0.12936013256E+03  0.00000000000E+00 0. -1.
<scales pt_clust_3="39.30807" pt_clust_4="42.87847" pt_clust_5="165.05582" pt_clust_6="39.30807"></scales>
<clustering>
<clus scale="   39.308">  3  6 -1 -1</clus>
<clus scale="   42.878">  1  4  2 -1</clus>
<clus scale="  165.056">  1  5  2 -1</clus>
<clus scale="   42.878">  1  3  2 -1</clus>
</clustering>
</event>
<event>
 6    0  0.4469832E+002  0.1795048E+03  0.7546771E-02  0.1168283E+00
         21   -1    0    0  503  501  0.00000000000E+00  0.00000000000E+00  0.81065036950E+03  0.81065036950E+03  0.00000000000E+00 0. -1.
         21   -1    0    0  506  502 -0.00000000000E+00 -0.00000000000E+00 -0.63313416515E+02  0.63313416515E+02  0.00000000000E+00 0.  1.
         21    1    1    2  503  505 -0.26670865558E+02  0.56555773426E+02  0.18774484451E+03  0.19788384779E+03  0.00000000000E+00 0. -1.
         21    1    1    2  504  502  0.42203287896E+01 -0.51754893162E+02  0.67123472489E+02  0.84864248658E+02  0.00000000000E+00 0. -1.
         21    1    1    2  505  504 -0.90508459855E+02 -0.96839445850E+02  0.82510269637E+02  0.15613328977E+03  0.00000000000E+00 0.  1.
         21    1    1    2  506  501  0.11295899662E+03  0.92038565586E+02  0.40995836636E+03  0.43508239980E+03  0.00000000000E+00 0. -1.
<scales pt_clust_3="62.52912" pt_clust_4="49.13862" pt_clust_5="49.13862" pt_clust_6="161.42590"></scales>
<clustering>
<clus scale="   49.139">  4  5 -1 -1</clus>
<clus scale="   62.529">  1  3  2 -1</clus>
<clus scale="  161.426">  1  6  2 -1</clus>
<clus scale="   62.529">  1  3  2 -1</clus>
</clustering>
</event>
<event>
 6    0  0.4469832E+002  0.1511990E+03  0.7546771E-02  0.1199007E+00
         21   -1    0    0  505  501  0.00000000000E+00  0.00000000000E+00  0.62729790727E+03  0.62729790727E+03  0.00000000000E+00 0.  1.
         21   -1    0    0  506  502 -0.00000000000E+00 -0.00000000000E+00 -0.87170043673E+02  0.87170043673E+02  0.00000000000E+00 0. -1.
         21    1    1    2  503  504 -0.67633863358E+02  0.30147007342E+02  0.29239428852E+02  0.79612346555E+02  0.00000000000E+00 0.  1.
         21    1    1    2  504  502 -0.48623958498E+02  0.53442685119E+02 -0.23343423403E+02  0.75929739555E+02  0.00000000000E+00 0. -1.
         21    1    1    2  505  503  0.28436790447E+01 -0.40867619594E+02  0.17761246059E+03  0.18227571149E+03  0.00000000000E+00 0.  1.
         21    1    1    2  506  501  0.11341414281E+03 -0.42722072867E+02  0.35661939756E+03  0.37665015335E+03  0.00000000000E+00 0.  1.
<scales pt_clust_3="59.84117" pt_clust_4="59.84117" pt_clust_5="40.96644" pt_clust_6="138.58452"></scales>
<clustering>
<clus scale="   40.966">  1  5  2 -1</clus>
<clus scale="   59.841">  3  4 -1 -1</clus>
<clus scale="  138.585">  1  6  2 -1</clus>
<clus scale="   40.966">  1  3  2 -1</clus>
</clustering>
</event>
<event>
 6    0  0.4469832E+002  0.2435706E+03  0.7546771E-02  0.1117437E+00
         21   -1    0    0  503  501  0.00000000000E+00  0.00000000000E+00  0.22708940370E+03  0.22708940370E+03  0.00000000000E+00 0. -1.
         21   -1    0    0  506  502 -0.00000000000E+00 -0.00000000000E+00 -0.22159006247E+04  0.22159006247E+04  0.00000000000E+00 0. -1.
         21    1    1    2  503  504  0.21179844967E+03 -0.12646606718E+03  0.97223235311E+02  0.26515015918E+03  0.00000000000E+00 0. -1.
         21    1    1    2  504  502 -0.29399523536E+03 -0.93013643718E+02 -0.71938239062E+03  0.78268496873E+03  0.00000000000E+00 0. -1.
         21    1    1    2  505  501  0.34859825257E+02  0.17551184931E+03 -0.60876301648E+03  0.63451716045E+03  0.00000000000E+00 0. -1.
         21    1    1    2  506  505  0.47336960437E+02  0.43967861583E+02 -0.75788904916E+03  0.76063774000E+03  0.00000000000E+00 0. -1.
<scales pt_clust_3="243.57059" pt_clust_4="14000.00000" pt_clust_5="201.92780" pt_clust_6="64.60620"></scales>
<clustering>
<clus scale="   64.606">  2  6  1 -1</clus>
<clus scale="  201.928">  2  5  1 -1</clus>
<clus scale="  243.571">  1  3  2 -1</clus>
<clus scale="  243.571">  1  3  2 -1</clus>
</clustering>
</event>
<event>
 6    0  0.4469832E+002  0.1242555E+03  0.7546771E-02  0.1236237E+00
         21   -1    0    0  505  501  0.00000000000E+00  0.00000000000E+00  0.10900870155E+03  0.10900870155E+03  0.00000000000E+00 0. -1.
         21   -1    0    0  503  502 -0.00000000000E+00 -0.00000000000E+00 -0.17291477548E+04  0.17291477548E+04  0.00000000000E+00 0.  1.
         21    1    1    2  503  504  0.37497722909E+02 -0.20210424452E+02 -0.24942594869E+03  0.25303723908E+03  0.00000000000E+00 0. -1.
         21    1    1    2  504  501  0.81941129459E+02  0.52118973156E+02 -0.13442884801E+04  0.13477916210E+04  0.00000000000E+00 0.  1.
         21    1    1    2  505  506  0.46545149316E+02  0.29500542380E+02  0.11588046017E+02  0.56311772624E+02  0.00000000000E+00 0. -1.
         21    1    1    2  506  502 -0.16598400168E+03 -0.61409091084E+02 -0.38012670509E+02  0.18101582362E+03  0.00000000000E+00 0. -1.
<scales pt_clust_3="42.59742" pt_clust_4="124.25548" pt_clust_5="55.42492" pt_clust_6="14000.00000"></scales>
<clustering>
<clus scale="   42.597">  2  3  1 -1</clus>
<clus scale="   55.425">  1  5  2 -1</clus>
<clus scale="  124.255">  2  4  1 -1</clus>
<clus scale="   55.425">  1  3  2 -1</clus>
</clustering>
</event>
<event>
 6    0  0.4469832E+002  0.1271909E+03  0.7546771E-02  0.1231684E+00
         21   -1    0    0  505  501  0.00000000000E+00  0.00000000000E+00  0.85803135588E+02  0.85803135588E+02  0.00000000000E+00 0.  1.
         21   -1    0    0  506  502 -0.00000000000E+00 -0.00000000000E+00 -0.33638880404E+03  0.33638880404E+03  0.00000000000E+00 0.  1.
         21    1    1    2  503  501  0.14977092584E+02 -0.26888573885E+02  0.37327216137E+01  0.31003901665E+02  0.00000000000E+00 0.  1.
         21    1    1    2  504  503 -0.14760681301E+02 -0.59749035349E+02 -0.12433378871E+03  0.13873253386E+03  0.00000000000E+00 0.  1.
         21    1    1    2  505  502 -0.12667498299E+02  0.14336421833E+03 -0.47465272481E+02  0.15154773737E+03  0.00000000000E+00 0.  1.
         21    1    1    2  506  504  0.12451087016E+02 -0.56726609098E+02 -0.82519328880E+02  0.10090776673E+03  0.00000000000E+00 0. -1.
<scales pt_clust_3="30.77838" pt_clust_4="32.18049" pt_clust_5="122.92346" pt_clust_6="32.18049"></scales>
<clustering>
<clus scale="   30.778">  1  3  2 -1</clus>
<clus scale="   32.180">  4  6 -1 -1</clus>
<clus scale="  122.923">  1  5  2 -1</clus>
<clus scale="   30.778">  1  3  2 -1</clus>
</clustering>
</event>
<event>
 6    0  0.4469832E+002  0.1106815E+03  0.7546771E-02  0.1259313E+00
         21   -1    0    0  506  501  0.00000000000E+00  0.00000000000E+00  0.51696319520E+03  0.51696319520E+03  0.00000000000E+00 0. -1.
         21   -1    0    0  503  502 -0.00000000000E+00 -0.00000000000E+00 -0.18191887827E+03  0.18191887827E+03  0.00000000000E+00 0. -1.
         21    1    1    2  503  504 -0.67391018481E+02 -0.21551341997E+02 -0.43720904237E+02  0.83171672948E+02  0.00000000000E+00 0. -1.
         21    1    1    2  504  501 -0.15389793445E+02 -0.77407857518E+02  0.46816090094E+02  0.91763655329E+02  0.00000000000E+00 0. -1.
         21    1    1    2  505  502  0.64200879976E+02 -0.23401928448E+02 -0.73305213923E+02  0.10021505692E+03  0.00000000000E+00 0. -1.
         21    1    1    2  506  505  0.18579931950E+02  0.12236112796E+03  0.40525434500E+03  0.42373168828E+03  0.00000000000E+00 0. -1.
<scales pt_clust_3="44.55223" pt_clust_4="110.68150" pt_clust_5="68.33303" pt_clust_6="14000.00000"></scales>
<clustering>
<clus scale="   68.333">  2  5  1 -1</clus>
<clus scale="   44.552">  2  3  1 -1</clus>
<clus scale="  110.682">  2  4  1 -1</clus>
<clus scale="  110.682">  1  3  2 -1</clus>
</clustering>
</event>
<event>
 6    0  0.4469832E+002  0.9512978E+02  0.7546771E-02  0.1290884E+00
         21   -1    0    0  503  501  0.00000000000E+00  0.00000000000E+00  0.17346473371E+04  0.17346473371E+04  0.00000000000E+00 0.  1.
         21   -1    0    0  506  502 -0.00000000000E+00 -0.00000000000E+00 -0.10683236263E+03  0.10683236263E+03  0.00000000000E+00 0.  1.
         21    1    1    2  503  505 -0.45360560089E+01 -0.95174989043E+02  0.72619196761E+03  0.73241629431E+03  0.00000000000E+00 0.  1.
         21    1    1    2  504  501 -0.57044331825E+02  0.87327420186E+02  0.93627017104E+03  0.94206261326E+03  0.00000000000E+00 0.  1.
         21    1    1    2  505  502  0.10901999225E+03  0.16344500391E+02 -0.48629799107E+01  0.11034559337E+03  0.00000000000E+00 0.  1.
         21    1    1    2  506  504 -0.47439604411E+02 -0.84969315337E+01 -0.29784184304E+02  0.56655198762E+02  0.00000000000E+00 0.  1.
<scales pt_clust_3="95.12978" pt_clust_4="14000.00000" pt_clust_5="66.62511" pt_clust_6="48.19454"></scales>
<clustering>
<clus scale="   48.195">  2  6  1 -1</clus>
<clus scale="   66.625">  2  5  1 -1</clus>
<clus scale="   95.130">  2  3  1 -1</clus>
<clus scale="   95.130">  1  3  2 -1</clus>
</clustering>
</event>
<event>
 6    0  0.4469832E+002  0.8242976E+02  0.7546771E-02  0.1322294E+00
         21   -1    0    0  506  501  0.00000000000E+00  0.00000000000E+00  0.14370563119E+02  0.14370563119E+02  0.00000000000E+00 0. -1.
         21   -1    0    0  503  502 -0.00000000000E+00 -0.00000000000E+00 -0.33670937283E+04  0.33670937283E+04  0.00000000000E+00 0. -1.
         21    1    1    2  503  501 -0.47588505407E+02 -0.57835945389E+02 -0.18756846617E+04  0.18771794300E+04  0.00000000000E+00 0. -1.
         21    1    1    2  504  502  0.33915728217E+02  0.34548705207E+02 -0.94078201236E+03  0.94202690218E+03  0.00000000000E+00 0. -1.
         21    1    1    2  505  504 -0.31546048460E+02 -0.58956859474E+02 -0.31323154857E+03  0.32028903739E+03  0.00000000000E+00 0. -1.
         21    1    1    2  506  505  0.45218825650E+02  0.82244099656E+02 -0.22302494254E+03  0.24196892180E+03  0.00000000000E+00 0. -1.
<scales pt_clust_3="37.73291" pt_clust_4="48.41373" pt_clust_5="82.42976" pt_clust_6="14000.00000"></scales>
<clustering>
<clus scale="   48.414">  2  4  1 -1</clus>
<clus scale="   37.733">  2  3  1 -1</clus>
<clus scale="   82.430">  2  5  1 -1</clus>
<clus scale="   82.430">  1  3  2 -1</clus>
</clustering>
</event>
<event>
 6    0  0.4469832E+002  0.6742749E+02  0.7546771E-02  0.1369066E+00
         21   -1    0    0  505  501  0.00000000000E+00  0.00000000000E+00  0.95907791774E+03  0.95907791774E+03  0.00000000000E+00 0.  1.
         21   -1    0    0  504  502 -0.00000000000E+00 -0.00000000000E+00 -0.11763027398E+03  0.11763027398E+03  0.00000000000E+00 0.  1.
         21    1    1    2  503  502 -0.58380265977E+02  0.61691031528E+02 -0.43323851730E+02  0.95346709200E+02  0.00000000000E+00 0.  1.
         21    1    1    2  504  506 -0.26596970387E+01 -0.36399267987E+02 -0.32014728662E+02  0.48548157016E+02  0.00000000000E+00 0.  1.
         21    1    1    2  505  503 -0.22055376909E+02 -0.39968340746E+02  0.82641424615E+02  0.94411402780E+02  0.00000000000E+00 0.  1.
         21    1    1    2  506  501  0.83095339924E+02  0.14676577205E+02  0.83414479953E+03  0.83840192272E+03  0.00000000000E+00 0.  1.
<scales pt_clust_3="14000.00000" pt_clust_4="36.49631" pt_clust_5="48.18631" pt_clust_6="67.42749"></scales>
<clustering>
<clus scale="   36.496">  2  4  1 -1</clus>
<clus scale="   48.186">  1  5  2 -1</clus>
<clus scale="   67.427">  1  6  2 -1</clus>
<clus scale="   48.186">  1  3  2 -1</clus>
</clustering>
</event>
<event>
 6    0  0.4469832E+002  0.8147703E+02  0.7546771E-02  0.1324911E+00
         21   -1    0    0  504  501  0.00000000000E+00  0.00000000000E+00  0.10595506982E+04  0.10595506982E+04  0.00000000000E+00 0. -1.
         21   -1    0    0  505  502 -0.00000000000E+00 -0.00000000000E+00 -0.67364671115E+02  0.67364671115E+02  0.00000000000E+00 0. -1.
         21    1    1    2  503  502 -0.58591492036E+02 -0.24739999797E+02  0.95206418777E+01  0.64309199581E+02  0.00000000000E+00 0. -1.
         21    1    1    2  504  503  0.42196616275E+02  0.59197319425E+02  0.33092684697E+03  0.33881773138E+03  0.00000000000E+00 0. -1.
         21    1    1    2  505  506 -0.32363113950E+02  0.47495990078E+02 -0.72559435441E+01  0.57930034824E+02  0.00000000000E+00 0.  1.
         21    1    1    2  506  501  0.48757989711E+02 -0.81953309706E+02  0.65899448182E+03  0.66585840357E+03  0.00000000000E+00 0. -1.
<scales pt_clust_3="81.47703" pt_clust_4="75.20344" pt_clust_5="57.47382" pt_clust_6="14000.00000"></scales>
<clustering>
<clus scale="   57.474">  2  5  1 -1</clus>
<clus scale="   75.203">  1  4  2 -1</clus>
<clus scale="   81.477">  2  3  1 -1</clus>
<clus scale="   75.203">  1  3  2 -1</clus>
</clustering>
</event>
<event>
 6    0  0.4469832E+002  0.1353639E+03  0.7546771E-02  0.1219707E+00
         21   -1    0    0  504  501  0.00000000000E+00  0.00000000000E+00  0.13924779040E+04  0.13924779040E+04  0.00000000000E+00 0.  1.
         21   -1    0    0  503  502 -0.00000000000E+00 -0.00000000000E+00 -0.99980173204E+02  0.99980173204E+02  0.00000000000E+00 0. -1.
         21    1    1    2  503  501  0.11476180957E+03 -0.75197362080E+02  0.12283470141E+04  0.12359859640E+04  0.00000000000E+00 0.  1.
         21    1    1    2  504  505 -0.34645208054E+02 -0.15845921154E+02  0.10802168588E+03  0.11454286656E+03  0.00000000000E+00 0.  1.
         21    1    1    2  505  506 -0.41908137359E+02  0.99653452814E+01 -0.26667835833E+02  0.50663335377E+02  0.00000000000E+00 0. -1.
         21    1    1    2  506  502 -0.38208464156E+02  0.81077937953E+02 -0.17203133370E+02  0.91265911235E+02  0.00000000000E+00 0. -1.
<scales pt_clust_3="121.70332" pt_clust_4="38.09703" pt_clust_5="41.21191" pt_clust_6="41.21191"></scales>
<clustering>
<clus scale="   38.097">  1  4  2 -1</clus>
<clus scale="   41.212">  5  6 -1 -1</clus>
<clus scale="  121.703">  1  3  2 -1</clus>
<clus scale="   38.097">  1  3  2 -1</clus>
</clustering>
</event>
<event>
 6    0  0.4469832E+002  0.4225184E+03  0.7546771E-02  0.1036250E+00
         21   -1    0    0  506  501  0.00000000000E+00  0.00000000000E+00  0.39321123509E+03  0.39321123509E+03  0.00000000000E+00 0. -1.
         21   -1    0    0  501  502 -0.00000000000E+00 -0.00000000000E+00 -0.11371369844E+04  0.11371369844E+04  0.00000000000E+00 0. -1.
         21    1    1    2  503  502 -0.31380460074E+03  0.20269213019E+03 -0.97828464128E+03  0.10471858796E+04  0.00000000000E+00 0. -1.
         21    1    1    2  504  505  0.23102675277E+03 -0.10785247175E+03  0.14134230858E+03  0.29151872042E+03  0.00000000000E+00 0. -1.
         21    1    1    2  505  503  0.28006732054E+02 -0.10660095133E+03  0.72785105137E+02  0.13208259308E+03  0.00000000000E+00 0.  1.
         21    1    1    2  506  504  0.54771115922E+02  0.11761292890E+02  0.20231478262E+02  0.59561026372E+02  0.00000000000E+00 0.  1.
<scales pt_clust_3="373.57386" pt_clust_4="105.20836" pt_clust_5="105.20836" pt_clust_6="37.01854"></scales>
<clustering>
<clus scale="   37.019">  4  6 -1 -1</clus>
<clus scale="  105.208">  4  5 -1 -1</clus>
<clus scale="  373.574">  2  3  1 -1</clus>
<clus scale="  422.518">  1  3  2 -1</clus>
</clustering>
</event>
<event>
 6    0  0.4469832E+002  0.1185688E+03  0.7546771E-02  0.1245477E+00
         21   -1    0    0  505  501  0.00000000000E+00  0.00000000000E+00  0.76903313640E+02  0.76903313640E+02  0.00000000000E+00 0. -1.
         21   -1    0    0  504  502 -0.00000000000E+00 -0.00000000000E+00 -0.35169853482E+03  0.35169853482E+03  0.00000000000E+00 0. -1.
         21    1    1    2  503  501  0.35879707439E+02  0.71560084806E+02 -0.48482498701E+02  0.93588203443E+02  0.00000000000E+00 0. -1.
         21    1    1    2  504  503  0.43314476895E+02  0.43997973991E+02 -0.11177407730E+03  0.12769263871E+03  0.00000000000E+00 0. -1.
         21    1    1    2  505  506 -0.47800208900E+02 -0.35776086894E+02  0.53335956016E+01  0.59943603548E+02  0.00000000000E+00 0. -1.
         21    1    1    2  506  502 -0.31393975433E+02 -0.79781971904E+02 -0.11987224078E+03  0.14737740276E+03  0.00000000000E+00 0. -1.
<scales pt_clust_3="53.11348" pt_clust_4="53.11348" pt_clust_5="59.70585" pt_clust_6="101.98483"></scales>
<clustering>
<clus scale="   53.113">  3  4 -1 -1</clus>
<clus scale="   59.706">  1  5  2 -1</clus>
<clus scale="  101.985">  2  6  1 -1</clus>
<clus scale="   59.706">  1  3  2 -1</clus>
</clustering>
</event>
<event>
 6    0  0.4469832E+002  0.1043849E+03  0.7546771E-02  0.1271336E+00
         21   -1    0    0  503  501  0.00000000000E+00  0.00000000000E+00  0.14984507033E+04  0.14984507033E+04  0.00000000000E+00 0. -1.
         21   -1    0    0  505  502 -0.00000000000E+00 -0.00000000000E+00 -0.23812747580E+03  0.23812747580E+03  0.00000000000E+00 0. -1.
         21    1    1    2  503  506  0.10282743903E+03 -0.61511869029E+01  0.11827800874E+04  0.11872573666E+04  0.00000000000E+00 0. -1.
         21    1    1    2  504  502  0.23759795701E+02  0.27836183401E+02 -0.19030186052E+02  0.41249593686E+02  0.00000000000E+00 0. -1.
         21    1    1    2  505  501 -0.11162357233E+02  0.60655840275E+02 -0.18380806594E+03  0.19387917444E+03  0.00000000000E+00 0. -1.
         21    1    1    2  506  504 -0.11542487749E+03 -0.82340836773E+02  0.28038139211E+03  0.31419204443E+03  0.00000000000E+00 0. -1.
<scales pt_clust_3="14000.00000" pt_clust_4="36.59755" pt_clust_5="86.55820" pt_clust_6="104.38495"></scales>
<clustering>
<clus scale="   36.598">  2  4  1 -1</clus>
<clus scale="   86.558">  2  5  1 -1</clus>
<clus scale="  104.385">  2  6  1 -1</clus>
<clus scale="  104.385">  1  3  2 -1</clus>
</clustering>
</event>
<event>
 6    0  0.4469832E+002  0.1169512E+03  0.7546771E-02  0.1248213E+00
         21   -1    0    0  503  501  0.00000000000E+00  0.00000000000E+00  0.75187945596E+03  0.75187945596E+03  0.00000000000E+00 0. -1.
         21   -1    0    0  505  502 -0.00000000000E+00 -0.00000000000E+00 -0.13601779331E+04  0.13601779331E+04  0.00000000000E+00 0. -1.
         21    1    1    2  503  506  0.12849642301E+02 -0.55357960731E+02  0.72286307145E+03  0.72509353686E+03  0.00000000000E+00 0. -1.
         21    1    1    2  504  502 -0.50285600285E+02  0.11595969031E+01 -0.33276837426E+02  0.60310315619E+02  0.00000000000E+00 0. -1.
         21    1    1    2  505  501  0.14525882788E+03  0.11700340065E+02 -0.91762066227E+03  0.92912039310E+03  0.00000000000E+00 0. -1.
         21    1    1    2  506  504 -0.10782286989E+03  0.42498023763E+02 -0.38026404888E+03  0.39753314348E+03  0.00000000000E+00 0. -1.
<scales pt_clust_3="56.81912" pt_clust_4="50.29897" pt_clust_5="14000.00000" pt_clust_6="116.95123"></scales>
<clustering>
<clus scale="   50.299">  2  4  1 -1</clus>
<clus scale="   56.819">  1  3  2 -1</clus>
<clus scale="  116.951">  1  6  2 -1</clus>
<clus scale="   56.819">  1  3  2 -1</clus>
</clustering>
</event>
<event>
 6    0  0.4469832E+002  0.9056433E+02  0.7546771E-02  0.1301491E+00
         21   -1    0    0  505  501  0.00000000000E+00  0.00000000000E+00  0.46923384444E+02  0.46923384444E+02  0.00000000000E+00 0.  1.
         21   -1    0    0  506  502 -0.00000000000E+00 -0.00000000000E+00 -0.82185249327E+03  0.82185249327E+03  0.00000000000E+00 0.  1.
         21    1    1    2  503  501 -0.60286367947E+02  0.20323345167E+02 -0.62009701870E+02  0.88840799439E+02  0.00000000000E+00 0.  1.
         21    1    1    2  504  503  0.17108461002E+02 -0.84809272773E+02 -0.23698091903E+03  0.25228013828E+03  0.00000000000E+00 0.  1.
         21    1    1    2  505  502  0.45714238675E+02 -0.29020352748E+02 -0.13438395579E+02  0.55790348332E+02  0.00000000000E+00 0.  1.
         21    1    1    2  506  504 -0.25363317304E+01  0.93506280354E+02 -0.46250009235E+03  0.47186459166E+03  0.00000000000E+00 0.  1.
<scales pt_clust_3="36.83643" pt_clust_4="14000.00000" pt_clust_5="54.14769" pt_clust_6="90.56433"></scales>
<clustering>
<clus scale="   54.148">  1  5  2 -1</clus>
<clus scale="   36.836">  1  3  2 -1</clus>
<clus scale="   90.564">  2  6  1 -1</clus>
<clus scale="   54.148">  1  3  2 -1</clus>
</clustering>
</event>
<event>
 6    0  0.4469832E+002  0.1965697E+03  0.7546771E-02  0.1152666E+00
         21   -1    0    0  503  501  0.00000000000E+00  0.00000000000E+00  0.10254456097E+04  0.10254456097E+04  0.00000000000E+00 0. -1.
         21   -1    0    0  504  502 -0.00000000000E+00 -0.00000000000E+00 -0.77893200083E+02  0.77893200083E+02  0.00000000000E+00 0. -1.
         21    1    1    2  503  502  0.17816457999E+03  0.87178470804E+02  0.55924414923E+03  0.59337738564E+03  0.00000000000E+00 0. -1.
         21    1    1    2  504  505 -0.87750954503E+02 -0.71431856496E+02  0.57762921953E+02  0.12704052618E+03  0.00000000000E+00 0. -1.
         21    1    1    2  505  506 -0.73439158922E+02  0.26598755889E+02  0.38038275246E+02  0.86877582044E+02  0.00000000000E+00 0.  1.
         21    1    1    2  506  501 -0.16974466560E+02 -0.42345370197E+02  0.29250706320E+03  0.29604331595E+03  0.00000000000E+00 0. -1.
<scales pt_clust_3="173.34591" pt_clust_4="75.44753" pt_clust_5="75.44753" pt_clust_6="45.62086"></scales>
<clustering>
<clus scale="   45.621">  1  6  2 -1</clus>
<clus scale="   75.448">  4  5 -1 -1</clus>
<clus scale="  173.346">  1  3  2 -1</clus>
<clus scale="   45.621">  1  3  2 -1</clus>
</clustering>
</event>
<event>
 6    0  0.4469832E+002  0.1245870E+03  0.7546771E-02  0.1235716E+00
         21   -1    0    0  506  501  0.00000000000E+00  0.00000000000E+00  0.28285900224E+04  0.28285900224E+04  0.00000000000E+00 0. -1.
         21   -1    0    0  504  502 -0.00000000000E+00 -0.00000000000E+00 -0.89058483471E+01  0.89058483471E+01  0.00000000000E+00 0. -1.
         21    1    1    2  503  501 -0.32213861082E+02  0.28492886234E+02  0.46846940352E+03  0.47043932599E+03  0.00000000000E+00 0. -1.
         21    1    1    2  504  503 -0.28328914239E+02  0.64521401671E+02  0.43418435748E+03  0.43986542821E+03  0.00000000000E+00 0. -1.
         21    1    1    2  505  502  0.28676728738E+02  0.27192230679E+02  0.13086807520E+03  0.13670488392E+03  0.00000000000E+00 0. -1.
         21    1    1    2  506  505  0.31866046582E+02 -0.12020651858E+03  0.17861623379E+04  0.17904862327E+04  0.00000000000E+00 0. -1.
<scales pt_clust_3="30.79504" pt_clust_4="30.79504" pt_clust_5="39.51926" pt_clust_6="118.18664"></scales>
<clustering>
<clus scale="   30.795">  3  4 -1 -1</clus>
<clus scale="   39.519">  2  5  1 -1</clus>
<clus scale="  118.187">  1  6  2 -1</clus>
<clus scale="  118.187">  1  3  2 -1</clus>
</clustering>
</event>
<event>
 6    0  0.4469832E+002  0.1412291E+03  0.7546771E-02  0.1211685E+00
         21   -1    0    0  503  501  0.00000000000E+00  0.00000000000E+00  0.22872497586E+03  0.22872497586E+03  0.00000000000E+00 0.  1.
         21   -1    0    0  504  502 -0.00000000000E+00 -0.00000000000E+00 -0.14828615407E+03  0.14828615407E+03  0.00000000000E+00 0.  1.
         21    1    1    2  503  506 -0.89219844047E+01 -0.62827967278E+02  0.67488870221E+02  0.92637480977E+02  0.00000000000E+00 0.  1.
         21    1    1    2  504  501 -0.12185974597E+03  0.79226074963E+02 -0.53894011414E+01  0.14544969676E+03  0.00000000000E+00 0.  1.
         21    1    1    2  505  502  0.72734149317E+02 -0.28423739648E+02  0.15231874400E+02  0.79562399726E+02  0.00000000000E+00 0.  1.
         21    1    1    2  506  505  0.58047581057E+02  0.12025631963E+02  0.31074783132E+01  0.59361552474E+02  0.00000000000E+00 0.  1.
<scales pt_clust_3="63.45830" pt_clust_4="135.48023" pt_clust_5="34.75034" pt_clust_6="34.75034"></scales>
<clustering>
<clus scale="   34.750">  5  6 -1 -1</clus>
<clus scale="   63.458">  1  3  2 -1</clus>
<clus scale="  135.480">  2  4  1 -1</clus>
<clus scale="   63.458">  1  3  2 -1</clus>
</clustering>
</event>
<event>
 6    0  0.4469832E+002  0.1274626E+03  0.7546771E-02  0.1231270E+00
         21   -1    0    0  503  501  0.00000000000E+00  0.00000000000E+00  0.64147446287E+02  0.64147446287E+02  0.00000000000E+00 0.  1.
         21   -1    0    0  506  502 -0.00000000000E+00 -0.00000000000E+00 -0.40477788830E+03  0.40477788830E+03  0.00000000000E+00 0.  1.
         21    1    1    2  503  504 -0.38117324019E+02  0.79716324075E+01 -0.51446836018E+00  0.38945371885E+02  0.00000000000E+00 0.  1.
         21    1    1    2  504  505 -0.26890496396E+02  0.40687527487E+02 -0.59114629463E+02  0.76636238856E+02  0.00000000000E+00 0.  1.
         21    1    1    2  505  502 -0.60960300284E+02  0.18594551247E+02 -0.13410390832E+03  0.14847819292E+03  0.00000000000E+00 0.  1.
         21    1    1    2  506  501  0.12596812070E+03 -0.67253711141E+02 -0.14689743587E+03  0.20486553092E+03  0.00000000000E+00 0.  1.
<scales pt_clust_3="38.94197" pt_clust_4="40.53149" pt_clust_5="40.53149" pt_clust_6="118.89381"></scales>
<clustering>
<clus scale="   38.942">  1  3  2 -1</clus>
<clus scale="   40.531">  4  5 -1 -1</clus>
<clus scale="  118.894">  1  6  2 -1</clus>
<clus scale="   38.942">  1  3  2 -1</clus>
</clustering>
</event>
<event>
 6    0  0.4469832E+002  0.6867664E+02  0.7546771E-02  0.1364652E+00
         21   -1    0    0  504  501  0.00000000000E+00  0.00000000000E+00  0.19563074271E+03  0.19563074271E+03  0.00000000000E+00 0. -1.
         21   -1    0    0  506  502 -0.00000000000E+00 -0.00000000000E+00 -0.22863887833E+03  0.22863887833E+03  0.00000000000E+00 0. -1.
         21    1    1    2  503  502  0.73595384273E+02 -0.32340839925E+00 -0.12850991021E+03  0.14809180329E+03  0.00000000000E+00 0. -1.
         21    1    1    2  504  503 -0.10791144445E+02 -0.67896468880E+02  0.95985577395E+02  0.11806612703E+03  0.00000000000E+00 0. -1.
         21    1    1    2  505  501 -0.25451400441E+02  0.69885734550E+02  0.54085219624E+02  0.91961952240E+02  0.00000000000E+00 0. -1.
         21    1    1    2  506  505 -0.37352839387E+02 -0.16658572700E+01 -0.54569022438E+02  0.66149738477E+02  0.00000000000E+00 0.  1.
<scales pt_clust_3="42.93025" pt_clust_4="68.67664" pt_clust_5="14000.00000" pt_clust_6="37.38997"></scales>
<clustering>
<clus scale="   37.390">  2  6  1 -1</clus>
<clus scale="   42.930">  2  3  1 -1</clus>
<clus scale="   68.677">  1  4  2 -1</clus>
<clus scale="   68.677">  1  3  2 -1</clus>
</clustering>
</event>
<event>
 6    0  0.4469832E+002  0.1975953E+03  0.7546771E-02  0.1151784E+00
         21   -1    0    0  506  501  0.00000000000E+00  0.00000000000E+00  0.11552180248E+04  0.11552180248E+04  0.00000000000E+00 0. -1.
         21   -1    0    0  504  502 -0.00000000000E+00 -0.00000000000E+00 -0.32752508520E+03  0.32752508520E+03  0.00000000000E+00 0. -1.
         21    1    1    2  503  501 -0.55114991817E+02  0.29213612913E+02  0.78964519990E+03  0.79210519454E+03  0.00000000000E+00 0. -1.
         21    1    1    2  504  503 -0.15095216083E+03 -0.10432870374E+03 -0.25771351145E+03  0.31636574920E+03  0.00000000000E+00 0. -1.
         21    1    1    2  505  502  0.13232405942E+03  0.81281578300E+02  0.20437562034E+03  0.25668218844E+03  0.00000000000E+00 0. -1.
         21    1    1    2  506  505  0.73743093224E+02 -0.61664874743E+01  0.91385630848E+02  0.11758997785E+03  0.00000000000E+00 0. -1.
<scales pt_clust_3="62.37866" pt_clust_4="185.86264" pt_clust_5="46.30168" pt_clust_6="46.30168"></scales>
<clustering>
<clus scale="   46.302">  5  6 -1 -1</clus>
<clus scale="   62.379">  1  3  2 -1</clus>
<clus scale="  185.863">  2  4  1 -1</clus>
<clus scale="   62.379">  1  3  2 -1</clus>
</clustering>
</event>
<event>
 6    0  0.4469832E+002  0.1331210E+03  0.7546771E-02  0.1222897E+00
         21   -1    0    0  504  501  0.00000000000E+00  0.00000000000E+00  0.12340655141E+03  0.12340655141E+03  0.00000000000E+00 0.  1.
         21   -1    0    0  506  502 -0.00000000000E+00 -0.00000000000E+00 -0.11344991922E+04  0.11344991922E+04  0.00000000000E+00 0. -1.
         21    1    1    2  503  502  0.94430109102E+02  0.60628124242E+02 -0.89902428842E+03  0.90600082016E+03  0.00000000000E+00 0. -1.
         21    1    1    2  504  505 -0.89408483090E+01 -0.31949159800E+02  0.69756614613E+02  0.77244241615E+02  0.00000000000E+00 0.  1.
         21    1    1    2  505  503 -0.11959936503E+03 -0.19697025353E+02 -0.38677985008E+02  0.12723194350E+03  0.00000000000E+00 0.  1.
         21    1    1    2  506  501  0.34110104233E+02 -0.89819390893E+01 -0.14314698196E+03  0.14742873832E+03  0.00000000000E+00 0. -1.
<scales pt_clust_3="133.12100" pt_clust_4="33.17661" pt_clust_5="14000.00000" pt_clust_6="35.27967"></scales>
<clustering>
<clus scale="   33.177">  1  4  2 -1</clus>
<clus scale="   35.280">  2  6  1 -1</clus>
<clus scale="  133.121">  2  3  1 -1</clus>
<clus scale="   33.177">  1  3  2 -1</clus>
</clustering>
</event>
<event>
 6    0  0.4469832E+002  0.1328224E+03  0.7546771E-02  0.1223327E+00
         21   -1    0    0  503  501  0.00000000000E+00  0.00000000000E+00  0.23788460044E+04  0.23788460044E+04  0.00000000000E+00 0. -1.
         21   -1    0    0  505  502 -0.00000000000E+00 -0.00000000000E+00 -0.58132848608E+03  0.58132848608E+03  0.00000000000E+00 0.  1.
         21    1    1    2  503  504  0.27871502019E+02 -0.21421889189E+02  0.20348120826E+04  0.20351157042E+04  0.00000000000E+00 0. -1.
         21    1    1    2  504  502 -0.66078165255E+01 -0.44615482571E+02 -0.86774756684E+02  0.97796027127E+02  0.00000000000E+00 0.  1.
         21    1    1    2  505  506  0.47424556431E+02 -0.82137471279E+02 -0.46410426015E+03  0.47369654531E+03  0.00000000000E+00 0.  1.
         21    1    1    2  506  501 -0.68688241925E+02  0.14817484304E+03  0.31358445253E+03  0.35356621382E+03  0.00000000000E+00 0.  1.
<scales pt_clust_3="35.15278" pt_clust_4="45.37897" pt_clust_5="132.82239" pt_clust_6="14000.00000"></scales>
<clustering>
<clus scale="   35.153">  1  3  2 -1</clus>
<clus scale="   45.379">  2  4  1 -1</clus>
<clus scale="  132.822">  2  5  1 -1</clus>
<clus scale="   35.153">  1  3  2 -1</clus>
</clustering>
</event>
<event>
 6    0  0.4469832E+002  0.9820033E+02  0.7546771E-02  0.1284127E+00
         21   -1    0    0  505  501  0.00000000000E+00  0.00000000000E+00  0.37401450351E+02  0.37401450351E+02  0.00000000000E+00 0. -1.
         21   -1    0    0  503  502 -0.00000000000E+00 -0.00000000000E+00 -0.17845190295E+04  0.17845190295E+04  0.00000000000E+00 0.  1.
         21    1    1    2  503  504 -0.43413422866E+02  0.19088626396E+02 -0.13731524954E+04  0.13739712066E+04  0.00000000000E+00 0.  1.
         21    1    1    2  504  506 -0.84583427064E+02  0.25710364892E+02 -0.16579203151E+03  0.18788926714E+03  0.00000000000E+00 0.  1.
         21    1    1    2  505  502  0.31926334067E+02 -0.19737177067E+02 -0.12508347367E+03  0.13059373013E+03  0.00000000000E+00 0. -1.
         21    1    1    2  506  501  0.96070515863E+02 -0.25061814222E+02 -0.83089578616E+02  0.12946627601E+03  0.00000000000E+00 0. -1.
<scales pt_clust_3="46.98555" pt_clust_4="14000.00000" pt_clust_5="37.53461" pt_clust_6="98.20033"></scales>
<clustering>
<clus scale="   37.535">  1  5  2 -1</clus>
<clus scale="   46.986">  2  3  1 -1</clus>
<clus scale="   98.200">  1  6  2 -1</clus>
<clus scale="   37.535">  1  3  2 -1</clus>
</clustering>
</event>
<event>
 6    0  0.4469832E+002  0.1284600E+03  0.7546771E-02  0.1229759E+00
         21   -1    0    0  505  501  0.00000000000E+00  0.00000000000E+00  0.79475406896E+02  0.79475406896E+02  0.00000000000E+00 0.  1.
         21   -1    0    0  506  502 -0.00000000000E+00 -0.00000000000E+00 -0.51763859517E+03  0.51763859517E+03  0.00000000000E+00 0.  1.
         21    1    1    2  503  502 -0.28869284324E+02 -0.40487123690E+02 -0.16752316405E+03  0.17474739843E+03  0.00000000000E+00 0.  1.
         21    1    1    2  504  501 -0.35958511368E+02  0.23526332609E+00  0.64478419141E+00  0.35965061314E+02  0.00000000000E+00 0.  1.
         21    1    1    2  505  503 -0.69358050425E+02 -0.25318284382E+02 -0.21410801845E+03  0.22648134194E+03  0.00000000000E+00 0.  1.
         21    1    1    2  506  504  0.13418584612E+03  0.65570144747E+02 -0.57176789961E+02  0.15992020038E+03  0.00000000000E+00 0.  1.
<scales pt_clust_3="30.29962" pt_clust_4="35.95928" pt_clust_5="30.29962" pt_clust_6="123.03977"></scales>
<clustering>
<clus scale="   30.300">  3  5 -1 -1</clus>
<clus scale="   35.959">  1  4  2 -1</clus>
<clus scale="  123.040">  1  6  2 -1</clus>
<clus scale="   35.959">  1  3  2 -1</clus>
</clustering>
</event>
<event>
 6    0  0.4469832E+002  0.1075185E+03  0.7546771E-02  0.1265235E+00
         21   -1    0    0  506  501  0.00000000000E+00  0.00000000000E+00  0.12763071726E+03  0.12763071726E+03  0.00000000000E+00 0. -1.
         21   -1    0    0  504  502 -0.00000000000E+00 -0.00000000000E+00 -0.23916243909E+04  0.23916243909E+04  0.00000000000E+00 0. -1.
         21    1    1    2  503  502  0.90254917176E+02  0.66327866873E+01 -0.18388946996E+04  0.18411202188E+04  0.00000000000E+00 0. -1.
         21    1    1    2  504  501  0.29684053692E+02  0.29284533384E+02 -0.41387640371E+03  0.41597163904E+03  0.00000000000E+00 0. -1.
         21    1    1    2  505  503 -0.54014172904E+02 -0.44026536466E+02 -0.11763310521E+03  0.13672386123E+03  0.00000000000E+00 0. -1.
         21    1    1    2  506  505 -0.65924797964E+02  0.81092163946E+01  0.10641053493E+03  0.12543938903E+03  0.00000000000E+00 0. -1.
<scales pt_clust_3="14000.00000" pt_clust_4="41.69804" pt_clust_5="107.51849" pt_clust_6="66.29726"></scales>
<clustering>
<clus scale="   41.698">  2  4  1 -1</clus>
<clus scale="   66.297">  1  6  2 -1</clus>
<clus scale="  107.518">  1  5  2 -1</clus>
<clus scale="   66.297">  1  3  2 -1</clus>
</clustering>
</event>
<event>
 6    0  0.4469832E+002  0.1022000E+03  0.7546771E-02  0.1275737E+00
         21   -1    0    0  505  501  0.00000000000E+00  0.00000000000E+00  0.41765685554E+03  0.41765685554E+03  0.00000000000E+00 0. -1.
         21   -1    0    0  506  502 -0.00000000000E+00 -0.00000000000E+00 -0.80382409943E+03  0.80382409943E+03  0.00000000000E+00 0.  1.
         21    1    1    2  503  501 -0.26067445495E+02 -0.19610712379E+02  0.24281466301E+03  0.24499602512E+03  0.00000000000E+00 0. -1.
         21    1    1    2  504  503 -0.46140350753E+02 -0.56099425713E+02  0.15833030995E+03  0.17419691324E+03  0.00000000000E+00 0. -1.
         21    1    1    2  505  502  0.12397187553E+02  0.91322655116E+02 -0.49605778728E+03  0.50454617818E+03  0.00000000000E+00 0.  1.
         21    1    1    2  506  504  0.59810608696E+02 -0.15612517023E+02 -0.29125442958E+03  0.29774183842E+03  0.00000000000E+00 0.  1.
<scales pt_clust_3="32.62042" pt_clust_4="102.19996" pt_clust_5="14000.00000" pt_clust_6="61.43817"></scales>
<clustering>
<clus scale="   32.620">  1  3  2 -1</clus>
<clus scale="   61.438">  2  6  1 -1</clus>
<clus scale="  102.200">  1  4  2 -1</clus>
<clus scale="   32.620">  1  3  2 -1</clus>
</clustering>
</event>
<event>
 6    0  0.4469832E+002  0.3811290E+03  0.7546771E-02  0.1050517E+00
         21   -1    0    0  506  501  0.00000000000E+00  0.00000000000E+00  0.87729736296E+03  0.87729736296E+03  0.00000000000E+00 0. -1.
         21   -1    0    0  501  502 -0.00000000000E+00 -0.00000000000E+00 -0.23004694033E+03  0.23004694033E+03  0.00000000000E+00 0.  1.
         21    1    1    2  503  505 -0.30756398311E+03 -0.79044577879E+02  0.53912607105E+03  0.62570006352E+03  0.00000000000E+00 0. -1.
         21    1    1    2  504  502  0.23624959189E+03  0.34239712987E+02 -0.18646338849E+02  0.23944501158E+03  0.00000000000E+00 0.  1.
         21    1    1    2  505  504  0.95891525326E+02  0.95587872504E+02  0.44655155810E+02  0.14257036487E+03  0.00000000000E+00 0.  1.
         21    1    1    2  506  503 -0.24577134106E+02 -0.50783007612E+02  0.82115534607E+02  0.99628863322E+02  0.00000000000E+00 0. -1.
<scales pt_clust_3="374.38071" pt_clust_4="101.28310" pt_clust_5="101.28310" pt_clust_6="48.03595"></scales>
<clustering>
<clus scale="   48.036">  3  6 -1 -1</clus>
<clus scale="  101.283">  4  5 -1 -1</clus>
<clus scale="  374.381">  1  3  2 -1</clus>
<clus scale="  374.381">  1  3  2 -1</clus>
</clustering>
</event>
<event>
 6    0  0.4469832E+002  0.1379407E+03  0.7546771E-02  0.1216127E+00
         21   -1    0    0  505  501  0.00000000000E+00  0.00000000000E+00  0.14406825102E+03  0.14406825102E+03  0.00000000000E+00 0.  1.
         21   -1    0    0  501  502 -0.00000000000E+00 -0.00000000000E+00 -0.97913828705E+03  0.97913828705E+03  0.00000000000E+00 0. -1.
         21    1    1    2  503  504 -0.60116094290E+02 -0.22779518081E+02 -0.11645695284E+03  0.13302282925E+03  0.00000000000E+00 0. -1.
         21    1    1    2  504  506 -0.55483729528E+02 -0.53381025030E+02 -0.25164245030E+03  0.26315755902E+03  0.00000000000E+00 0. -1.
         21    1    1    2  505  503  0.29654384203E+02 -0.16313780148E+02  0.12100530915E+03  0.12564953946E+03  0.00000000000E+00 0.  1.
         21    1    1    2  506  502  0.85945439615E+02  0.92474323258E+02 -0.58797594203E+03  0.60137661034E+03  0.00000000000E+00 0. -1.
<scales pt_clust_3="41.66674" pt_clust_4="41.66674" pt_clust_5="33.84556" pt_clust_6="129.34314"></scales>
<clustering>
<clus scale="   33.846">  1  5  2 -1</clus>
<clus scale="   41.667">  3  4 -1 -1</clus>
<clus scale="  129.343">  2  6  1 -1</clus>
<clus scale="   33.846">  1  3  2 -1</clus>
</clustering>
</event>
<event>
 6    0  0.4469832E+002  0.8594729E+02  0.7546771E-02  0.1312974E+00
         21   -1    0    0  504  501  0.00000000000E+00  0.00000000000E+00  0.77648559520E+03  0.77648559520E+03  0.00000000000E+00 0. -1.
         21   -1    0    0  505  502 -0.00000000000E+00 -0.00000000000E+00 -0.17096964569E+03  0.17096964569E+03  0.00000000000E+00 0. -1.
         21    1    1    2  503  506 -0.84636340996E+02 -0.51159938163E+02 -0.26145678345E+02  0.10229489717E+03  0.00000000000E+00 0. -1.
         21    1    1    2  504  502  0.32002123278E+02  0.16108854139E+02 -0.31119522745E+02  0.47455829693E+02  0.00000000000E+00 0.  1.
         21    1    1    2  505  503 -0.33318448186E+02  0.40005999450E+02 -0.54443707458E+02  0.75330712617E+02  0.00000000000E+00 0. -1.
         21    1    1    2  506  501  0.85952665904E+02 -0.49549154257E+01  0.71722485805E+03  0.72237380142E+03  0.00000000000E+00 0. -1.
<scales pt_clust_3="14000.00000" pt_clust_4="35.82780" pt_clust_5="51.05465" pt_clust_6="85.94729"></scales>
<clustering>
<clus scale="   35.828">  2  4  1 -1</clus>
<clus scale="   51.055">  2  5  1 -1</clus>
<clus scale="   85.947">  1  6  2 -1</clus>
<clus scale="   85.947">  1  3  2 -1</clus>
</clustering>
</event>
<event>
 6    0  0.4469832E+002  0.1279231E+03  0.7546771E-02  0.1230570E+00
         21   -1    0    0  505  501  0.00000000000E+00  0.00000000000E+00  0.38870392660E+02  0.38870392660E+02  0.00000000000E+00 0.  1.
         21   -1    0    0  501  502 -0.00000000000E+00 -0.00000000000E+00 -0.26179286573E+04  0.26179286573E+04  0.00000000000E+00 0. -1.
         21    1    1    2  503  506  0.38718991412E+02 -0.72831248118E+02 -0.51830146435E+02  0.97416195152E+02  0.00000000000E+00 0.  1.
         21    1    1    2  504  502 -0.11309783693E+03 -0.74950823983E+02 -0.13876864515E+04  0.13943035661E+04  0.00000000000E+00 0. -1.
         21    1    1    2  505  503  0.47131090431E+02  0.81420639566E+01 -0.62600986338E+02  0.78781446935E+02  0.00000000000E+00 0.  1.
         21    1    1    2  506  504  0.27247755086E+02  0.13964000814E+03 -0.10769406804E+04  0.10862978418E+04  0.00000000000E+00 0. -1.
<scales pt_clust_3="99.41033" pt_clust_4="14000.00000" pt_clust_5="47.82921" pt_clust_6="127.92307"></scales>
<clustering>
<clus scale="   47.829">  1  5  2 -1</clus>
<clus scale="   99.410">  1  3  2 -1</clus>
<clus scale="  127.923">  1  6  2 -1</clus>
<clus scale="   47.829">  1  3  2 -1</clus>
</clustering>
</event>
<event>
 6    0  0.4469832E+002  0.9012519E+02  0.7546771E-02  0.1302549E+00
         21   -1    0    0  502  501  0.00000000000E+00  0.00000000000E+00  0.50741594738E+03  0.50741594738E+03  0.00000000000E+00 0.  1.
         21   -1    0    0  504  502 -0.00000000000E+00 -0.00000000000E+00 -0.21309947403E+03  0.21309947403E+03  0.00000000000E+00 0.  1.
         21    1    1    2  503  506  0.10556794377E+02 -0.34155720711E+02 -0.13104877469E+03  0.13583755193E+03  0.00000000000E+00 0.  1.
         21    1    1    2  504  503 -0.25781239852E+02 -0.16536915966E+02 -0.50385028181E+02  0.58964336533E+02  0.00000000000E+00 0. -1.
         21    1    1    2  505  501 -0.67136305154E+02 -0.44965898878E+02  0.29062025291E+03  0.30164440478E+03  0.00000000000E+00 0.  1.
         21    1    1    2  506  505  0.82360750628E+02  0.95658535555E+02  0.18513002332E+03  0.22406912818E+03  0.00000000000E+00 0.  1.
<scales pt_clust_3="49.36283" pt_clust_4="30.62910" pt_clust_5="90.12519" pt_clust_6="14000.00000"></scales>
<clustering>
<clus scale="   30.629">  2  4  1 -1</clus>
<clus scale="   49.363">  2  3  1 -1</clus>
<clus scale="   90.125">  1  5  2 -1</clus>
<clus scale="   90.125">  1  3  2 -1</clus>
</clustering>
</event>
<event>
 6    0  0.4469832E+002  0.1029732E+03  0.7546771E-02  0.1274165E+00
         21   -1    0    0  506  501  0.00000000000E+00  0.00000000000E+00  0.56826758662E+03  0.56826758662E+03  0.00000000000E+00 0.  1.
         21   -1    0    0  503  502 -0.00000000000E+00 -0.00000000000E+00 -0.11584004248E+03  0.11584004248E+03  0.00000000000E+00 0. -1.
         21    1    1    2  503  504  0.63735915976E+01 -0.79120323187E+02 -0.11426842590E+02  0.80194893495E+02  0.00000000000E+00 0. -1.
         21    1    1    2  504  501  0.29306339941E+02 -0.34877089749E+02  0.30097281370E+03  0.30440089936E+03  0.00000000000E+00 0.  1.
         21    1    1    2  505  502 -0.39053633154E+02 -0.21822920066E+02 -0.36844477433E+02  0.57956376872E+02  0.00000000000E+00 0. -1.
         21    1    1    2  506  505  0.33737016163E+01  0.13582033300E+03  0.19972605046E+03  0.24155545937E+03  0.00000000000E+00 0.  1.
<scales pt_clust_3="102.97323" pt_clust_4="45.35774" pt_clust_5="44.73730" pt_clust_6="14000.00000"></scales>
<clustering>
<clus scale="   44.737">  2  5  1 -1</clus>
<clus scale="   45.358">  1  4  2 -1</clus>
<clus scale="  102.973">  2  3  1 -1</clus>
<clus scale="   45.358">  1  3  2 -1</clus>
</clustering>
</event>
<event>
 6    0  0.4469832E+002  0.2379973E+03  0.7546771E-02  0.1121134E+00
         21   -1    0    0  506  501  0.00000000000E+00  0.00000000000E+00  0.23865087982E+03  0.23865087982E+03  0.00000000000E+00 0.  1.
         21   -1    0    0  503  502 -0.00000000000E+00 -0.00000000000E+00 -0.48336982586E+03  0.48336982586E+03  0.00000000000E+00 0.  1.
         21    1    1    2  503  501  0.36115489567E+02  0.10227407873E+02  0.73966618977E+01  0.38257536064E+02  0.00000000000E+00 0. -1.
         21    1    1    2  504  505 -0.25549242273E+03  0.11010236704E+03 -0.11920430447E+03  0.30266908581E+03  0.00000000000E+00 0.  1.
         21    1    1    2  505  502  0.20012609756E+03 -0.84981084270E+02 -0.20480951822E+03  0.29869579569E+03  0.00000000000E+00 0.  1.
         21    1    1    2  506  504  0.19250835605E+02 -0.35348690643E+02  0.71898214754E+02  0.82398288128E+02  0.00000000000E+00 0. -1.
<scales pt_clust_3="37.53570" pt_clust_4="14000.00000" pt_clust_5="237.99729" pt_clust_6="45.15243"></scales>
<clustering>
<clus scale="   37.536">  1  3  2 -1</clus>
<clus scale="   45.152">  1  6  2 -1</clus>
<clus scale="  237.997">  2  5  1 -1</clus>
<clus scale="   37.536">  1  3  2 -1</clus>
</clustering>
</event>
<event>
 6    0  0.4469832E+002  0.9427346E+02  0.7546771E-02  0.1292821E+00
         21   -1    0    0  506  501  0.00000000000E+00  0.00000000000E+00  0.23619209611E+03  0.23619209611E+03  0.00000000000E+00 0. -1.
         21   -1    0    0  505  502 -0.00000000000E+00 -0.00000000000E+00 -0.58376238331E+03  0.58376238331E+03  0.00000000000E+00 0. -1.
         21    1    1    2  503  502  0.79388194629E+02 -0.24369829472E+02 -0.36050726901E+03  0.36994846269E+03  0.00000000000E+00 0. -1.
         21    1    1    2  504  501 -0.15715253182E+02  0.96038920011E+02  0.10185091382E+03  0.14086891774E+03  0.00000000000E+00 0. -1.
         21    1    1    2  505  504 -0.32332137939E+02 -0.60422936059E+02 -0.19038462849E+03  0.20234279110E+03  0.00000000000E+00 0.  1.
         21    1    1    2  506  503 -0.31340803508E+02 -0.11246154480E+02  0.10147069647E+03  0.10679430789E+03  0.00000000000E+00 0. -1.
<scales pt_clust_3="94.27346" pt_clust_4="14000.00000" pt_clust_5="69.65529" pt_clust_6="33.29748"></scales>
<clustering>
<clus scale="   33.297">  1  6  2 -1</clus>
<clus scale="   69.655">  2  5  1 -1</clus>
<clus scale="   94.273">  2  3  1 -1</clus>
<clus scale="   33.297">  1  3  2 -1</clus>
</clustering>
</event>
<event>
 6    0  0.4469832E+002  0.1112261E+03  0.7546771E-02  0.1258316E+00
         21   -1    0    0  504  501  0.00000000000E+00  0.00000000000E+00  0.37300298056E+03  0.37300298056E+03  0.00000000000E+00 0.  1.
         21   -1    0    0  506  502 -0.00000000000E+00 -0.00000000000E+00 -0.67888571047E+03  0.67888571047E+03  0.00000000000E+00 0. -1.
         21    1    1    2  503  502 -0.87352360394E+02 -0.20146065000E+02 -0.28919119120E+03  0.30276697949E+03  0.00000000000E+00 0. -1.
         21    1    1    2  504  503 -0.27015046962E+02 -0.29785408781E+02  0.11259630690E+02  0.41758383852E+02  0.00000000000E+00 0.  1.
         21    1    1    2  505  501  0.12747206916E+03 -0.25106970838E+02  0.32304744306E+03  0.34819411091E+03  0.00000000000E+00 0.  1.
         21    1    1    2  506  505 -0.13104661800E+02  0.75038444619E+02 -0.35099861246E+03  0.35916921678E+03  0.00000000000E+00 0. -1.
<scales pt_clust_3="111.22614" pt_clust_4="40.21173" pt_clust_5="14000.00000" pt_clust_6="75.88392"></scales>
<clustering>
<clus scale="   40.212">  1  4  2 -1</clus>
<clus scale="   75.884">  2  6  1 -1</clus>
<clus scale="  111.226">  2  3  1 -1</clus>
<clus scale="   40.212">  1  3  2 -1</clus>
</clustering>
</event>
<event>
 6    0  0.4469832E+002  0.7722995E+02  0.7546771E-02  0.1337101E+00
         21   -1    0    0  504  501  0.00000000000E+00  0.00000000000E+00  0.69502939847E+02  0.69502939847E+02  0.00000000000E+00 0.  1.
         21   -1    0    0  505  502 -0.00000000000E+00 -0.00000000000E+00 -0.27182940778E+04  0.27182940778E+04  0.00000000000E+00 0.  1.
         21    1    1    2  503  502  0.11596735298E+02  0.37918657676E+02 -0.23413595391E+04  0.23416952834E+04  0.00000000000E+00 0.  1.
         21    1    1    2  504  503 -0.19579874427E+02 -0.13641202163E+03 -0.55524853498E+02  0.14857530240E+03  0.00000000000E+00 0.  1.
         21    1    1    2  505  506  0.82961592223E+01  0.36120099893E+02 -0.22757760735E+03  0.23057548708E+03  0.00000000000E+00 0.  1.
         21    1    1    2  506  501 -0.31302009375E+00  0.62373264059E+02 -0.24329137989E+02  0.66950944775E+02  0.00000000000E+00 0.  1.
<scales pt_clust_3="14000.00000" pt_clust_4="77.22995" pt_clust_5="37.06060" pt_clust_6="63.03573"></scales>
<clustering>
<clus scale="   37.061">  2  5  1 -1</clus>
<clus scale="   63.036">  1  6  2 -1</clus>
<clus scale="   77.230">  1  4  2 -1</clus>
<clus scale="   63.036">  1  3  2 -1</clus>
</clustering>
</event>
<event>
 6    0  0.4469832E+002  0.3210252E+03  0.7546771E-02  0.1075178E+00
         21   -1    0    0  503  501  0.00000000000E+00  0.00000000000E+00  0.12756847856E+04  0.12756847856E+04  0.00000000000E+00 0.  1.
         21   -1    0    0  505  502 -0.00000000000E+00 -0.00000000000E+00 -0.62922688762E+03  0.62922688762E+03  0.00000000000E+00 0.  1.
         21    1    1    2  503  502  0.94864231717E+02 -0.40566361414E+03 -0.39516017708E+03  0.57420706704E+03  0.00000000000E+00 0.  1.
         21    1    1    2  504  501 -0.67803461885E+02  0.12403499537E+03  0.73645373959E+03  0.74989739304E+03  0.00000000000E+00 0.  1.
         21    1    1    2  505  506 -0.74383624406E+02  0.69201555186E+02 -0.86044238596E+02  0.13313673353E+03  0.00000000000E+00 0. -1.
         21    1    1    2  506  504  0.47322854575E+02  0.21242706358E+03  0.39120857406E+03  0.44767047962E+03  0.00000000000E+00 0.  1.
<scales pt_clust_3="14000.00000" pt_clust_4="142.60526" pt_clust_5="101.59616" pt_clust_6="321.02517"></scales>
<clustering>
<clus scale="  101.596">  2  5  1 -1</clus>
<clus scale="  142.605">  1  4  2 -1</clus>
<clus scale="  321.025">  1  6  2 -1</clus>
<clus scale="  142.605">  1  3  2 -1</clus>
</clustering>
</event>
<event>
 6    0  0.4469832E+002  0.1243116E+03  0.7546771E-02  0.1236149E+00
         21   -1    0    0  505  501  0.00000000000E+00  0.00000000000E+00  0.31816741689E+02  0.31816741689E+02  0.00000000000E+00 0.  1.
         21   -1    0    0  506  502 -0.00000000000E+00 -0.00000000000E+00 -0.87133935250E+03  0.87133935250E+03  0.00000000000E+00 0.  1.
         21    1    1    2  503  501  0.58090883798E+02  0.75162147900E+01 -0.68149951906E+02  0.89863564418E+02  0.00000000000E+00 0. -1.
         21    1    1    2  504  503 -0.50950477502E+02 -0.12600355563E+00 -0.29830308517E+03  0.30262302896E+03  0.00000000000E+00 0.  1.
         21    1    1    2  505  502  0.44753297356E+02 -0.73900458012E+02 -0.12127638559E+03  0.14890297854E+03  0.00000000000E+00 0.  1.
         21    1    1    2  506  504 -0.51893703652E+02  0.66510246778E+02 -0.35179318815E+03  0.36176652227E+03  0.00000000000E+00 0.  1.
<scales pt_clust_3="58.57512" pt_clust_4="47.93546" pt_clust_5="107.92987" pt_clust_6="47.93546"></scales>
<clustering>
<clus scale="   47.935">  4  6 -1 -1</clus>
<clus scale="   58.575">  1  3  2 -1</clus>
<clus scale="  107.930">  1  5  2 -1</clus>
<clus scale="   58.575">  1  3  2 -1</clus>
</clustering>
</event>
<event>
 6    0  0.4469832E+002  0.2140164E+03  0.7546771E-02  0.1138424E+00
         21   -1    0    0  505  501  0.00000000000E+00  0.00000000000E+00  0.17087957368E+04  0.17087957368E+04  0.00000000000E+00 0. -1.
         21   -1    0    0  503  502 -0.00000000000E+00 -0.00000000000E+00 -0.85378933479E+02  0.85378933479E+02  0.00000000000E+00 0. -1.
         21    1    1    2  503  506 -0.57996664970E+02 -0.15006235927E+03  0.35333993418E+02  0.16471434640E+03  0.00000000000E+00 0. -1.
         21    1    1    2  504  501 -0.30589282363E+02  0.40897879174E+01  0.16666393317E+03  0.16949718930E+03  0.00000000000E+00 0. -1.
         21    1    1    2  505  502  0.88049799957E+02  0.19335061306E+03  0.13822672647E+04  0.13984992019E+04  0.00000000000E+00 0. -1.
         21    1    1    2  506  504  0.53614737674E+00 -0.47378041706E+02  0.39151612088E+02  0.61463932667E+02  0.00000000000E+00 0. -1.
<scales pt_clust_3="31.19783" pt_clust_4="30.86147" pt_clust_5="206.10414" pt_clust_6="31.19783"></scales>
<clustering>
<clus scale="   30.861">  1  4  2 -1</clus>
<clus scale="   31.198">  3  6 -1 -1</clus>
<clus scale="  206.104">  1  5  2 -1</clus>
<clus scale="   30.861">  1  3  2 -1</clus>
</clustering>
</event>
<event>
 6    0  0.4469832E+002  0.5900508E+02  0.7546771E-02  0.1402055E+00
         21   -1    0    0  505  501  0.00000000000E+00  0.00000000000E+00  0.85754085283E+03  0.85754085283E+03  0.00000000000E+00 0.  1.
         21   -1    0    0  503  502 -0.00000000000E+00 -0.00000000000E+00 -0.15409159565E+03  0.15409159565E+03  0.00000000000E+00 0.  1.
         21    1    1    2  503  506 -0.30901189046E+01 -0.10028855360E+03 -0.80293472686E+02  0.12850830547E+03  0.00000000000E+00 0.  1.
         21    1    1    2  504  501  0.36825528337E+02 -0.12684946145E+02  0.70890987323E+03  0.70997903896E+03  0.00000000000E+00 0.  1.
         21    1    1    2  505  502 -0.42015272566E+01  0.48567003095E+02 -0.21732404111E+02  0.53373251815E+02  0.00000000000E+00 0.  1.
         21    1    1    2  506  504 -0.29533882175E+02  0.64406496652E+02  0.96565260737E+02  0.11977185224E+03  0.00000000000E+00 0.  1.
<scales pt_clust_3="14000.00000" pt_clust_4="38.94904" pt_clust_5="47.21269" pt_clust_6="59.00508"></scales>
<clustering>
<clus scale="   38.949">  1  4  2 -1</clus>
<clus scale="   47.213">  2  5  1 -1</clus>
<clus scale="   59.005">  1  6  2 -1</clus>
<clus scale="   38.949">  1  3  2 -1</clus>
</clustering>
</event>
<event>
 6    0  0.4469832E+002  0.2835848E+03  0.7546771E-02  0.1093747E+00
         21   -1    0    0  504  501  0.00000000000E+00  0.00000000000E+00  0.16606866187E+03  0.16606866187E+03  0.00000000000E+00 0. -1.
         21   -1    0    0  506  502 -0.00000000000E+00 -0.00000000000E+00 -0.77855082108E+03  0.77855082108E+03  0.00000000000E+00 0. -1.
         21    1    1    2  503  505 -0.81662665796E+01  0.20564277368E+03 -0.19394975673E+03  0.28279346954E+03  0.00000000000E+00 0. -1.
         21    1    1    2  504  503 -0.13435605973E+02 -0.25192541642E+03 -0.32119742693E+02  0.25431989465E+03  0.00000000000E+00 0. -1.
         21    1    1    2  505  502  0.64656811701E+01  0.84471959290E+02 -0.21155361778E+03  0.22788648519E+03  0.00000000000E+00 0. -1.
         21    1    1    2  506  501  0.15136191382E+02 -0.38189316552E+02 -0.17485904201E+03  0.17961963357E+03  0.00000000000E+00 0. -1.
<scales pt_clust_3="67.65662" pt_clust_4="261.20636" pt_clust_5="67.65662" pt_clust_6="41.07953"></scales>
<clustering>
<clus scale="   41.080">  2  6  1 -1</clus>
<clus scale="   67.657">  3  5 -1 -1</clus>
<clus scale="  261.206">  1  4  2 -1</clus>
<clus scale="  261.206">  1  3  2 -1</clus>
</clustering>
</event>
<event>
 6    0  0.4469832E+002  0.1213872E+03  0.7546771E-02  0.1240826E+00
         21   -1    0    0  504  501  0.00000000000E+00  0.00000000000E+00  0.15687662634E+04  0.15687662634E+04  0.00000000000E+00 0. -1.
         21   -1    0    0  506  502 -0.00000000000E+00 -0.00000000000E+00 -0.22791154089E+03  0.22791154089E+03  0.00000000000E+00 0.  1.
         21    1    1    2  503  505  0.15726530427E+03 -0.87530042484E+00  0.96890790858E+02  0.18471861690E+03  0.00000000000E+00 0. -1.
         21    1    1    2  504  503 -0.11065006198E+03  0.46294454223E+02  0.14074232495E+04  0.14125249789E+04  0.00000000000E+00 0. -1.
         21    1    1    2  505  502 -0.20141809061E+02 -0.62839715193E+02 -0.15205000390E+03  0.16575200139E+03  0.00000000000E+00 0.  1.
         21    1    1    2  506  501 -0.26473433230E+02  0.17420561395E+02 -0.11409314004E+02  0.33682207058E+02  0.00000000000E+00 0.  1.
<scales pt_clust_3="14000.00000" pt_clust_4="121.38718" pt_clust_5="63.92890" pt_clust_6="31.69099"></scales>
<clustering>
<clus scale="   31.691">  2  6  1 -1</clus>
<clus scale="   63.929">  2  5  1 -1</clus>
<clus scale="  121.387">  1  4  2 -1</clus>
<clus scale="  121.387">  1  3  2 -1</clus>
</clustering>
</event>
<event>
 6    0  0.4469832E+002  0.4298630E+03  0.7546771E-02  0.1033903E+00
         21   -1    0    0  503  501  0.00000000000E+00  0.00000000000E+00  0.53692491753E+03  0.53692491753E+03  0.00000000000E+00 0.  1.
         21   -1    0    0  505  502 -0.00000000000E+00 -0.00000000000E+00 -0.94328882561E+03  0.94328882561E+03  0.00000000000E+00 0. -1.
         21    1    1    2  503  502 -0.34776055596E+02  0.18247490306E+01  0.12548487043E+02  0.37015784186E+02  0.00000000000E+00 0.  1.
         21    1    1    2  504  501  0.10582269123E+03 -0.41550236867E+03  0.29820739700E+03  0.52227225848E+03  0.00000000000E+00 0.  1.
         21    1    1    2  505  506  0.82717699131E+02 -0.44374596205E+02 -0.99941542991E+02  0.13711175935E+03  0.00000000000E+00 0. -1.
         21    1    1    2  506  504 -0.15376433476E+03  0.45805221585E+03 -0.61717824914E+03  0.78381394112E+03  0.00000000000E+00 0. -1.
<scales pt_clust_3="34.82390" pt_clust_4="14000.00000" pt_clust_5="92.72683" pt_clust_6="429.86301"></scales>
<clustering>
<clus scale="   34.824">  1  3  2 -1</clus>
<clus scale="   92.727">  2  5  1 -1</clus>
<clus scale="  429.863">  2  6  1 -1</clus>
<clus scale="   34.824">  1  3  2 -1</clus>
</clustering>
</event>
<event>
 6    0  0.4469832E+002  0.1022071E+03  0.7546771E-02  0.1275722E+00
         21   -1    0    0  505  501  0.00000000000E+00  0.00000000000E+00  0.11633578996E+03  0.11633578996E+03  0.00000000000E+00 0. -1.
         21   -1    0    0  504  502 -0.00000000000E+00 -0.00000000000E+00 -0.82368463249E+03  0.82368463249E+03  0.00000000000E+00 0. -1.
         21    1    1    2  503  501 -0.58227962392E+02 -0.51996596909E+02 -0.26253195740E+03  0.27389262559E+03  0.00000000000E+00 0. -1.
         21    1    1    2  504  503  0.41777180158E+02 -0.64308362531E+02 -0.28624378701E+03  0.29633832671E+03  0.00000000000E+00 0. -1.
         21    1    1    2  505  506 -0.74686022037E+02  0.17766014967E+02  0.70538572986E+02  0.10425604757E+03  0.00000000000E+00 0. -1.
         21    1    1    2  506  502  0.91136804271E+02  0.98538944472E+02 -0.22911167110E+03  0.26553342258E+03  0.00000000000E+00 0. -1.
<scales pt_clust_3="14000.00000" pt_clust_4="76.68702" pt_clust_5="75.03044" pt_clust_6="102.20714"></scales>
<clustering>
<clus scale="   76.687">  2  4  1 -1</clus>
<clus scale="   75.030">  1  5  2 -1</clus>
<clus scale="  102.207">  1  6  2 -1</clus>
<clus scale="   75.030">  1  3  2 -1</clus>
</clustering>
</event>
<event>
 6    0  0.4469832E+002  0.8156956E+02  0.7546771E-02  0.1324655E+00
         21   -1    0    0  505  501  0.00000000000E+00  0.00000000000E+00  0.10233048106E+04  0.10233048106E+04  0.00000000000E+00 0.  1.
         21   -1    0    0  503  502 -0.00000000000E+00 -0.00000000000E+00 -0.62495427091E+02  0.62495427091E+02  0.00000000000E+00 0.  1.
         21    1    1    2  503  504  0.34299182198E+02  0.27788810752E+02 -0.15727536390E+02  0.46861575980E+02  0.00000000000E+00 0.  1.
         21    1    1    2  504  501  0.23520536846E+02 -0.74050898071E+02  0.71033132791E+03  0.71456794399E+03  0.00000000000E+00 0.  1.
         21    1    1    2  505  506 -0.60272989803E+02  0.83606106103E+02  0.26776245834E+03  0.28691383441E+03  0.00000000000E+00 0.  1.
         21    1    1    2  506  502  0.24532707584E+01 -0.37344018784E+02 -0.15568663363E+01  0.37456883335E+02  0.00000000000E+00 0.  1.
<scales pt_clust_3="36.09014" pt_clust_4="14000.00000" pt_clust_5="81.56956" pt_clust_6="37.42451"></scales>
<clustering>
<clus scale="   37.425">  2  6  1 -1</clus>
<clus scale="   36.090">  2  3  1 -1</clus>
<clus scale="   81.570">  2  5  1 -1</clus>
<clus scale="   81.570">  1  3  2 -1</clus>
</clustering>
</event>
<event>
 6    0  0.4469832E+002  0.6662602E+02  0.7546771E-02  0.1371957E+00
         21   -1    0    0  506  501  0.00000000000E+00  0.00000000000E+00  0.19681517287E+04  0.19681517287E+04  0.00000000000E+00 0.  1.
         21   -1    0    0  504  502 -0.00000000000E+00 -0.00000000000E+00 -0.27701428322E+03  0.27701428322E+03  0.00000000000E+00 0. -1.
         21    1    1    2  503  502 -0.11436267823E+03 -0.23386410416E+02 -0.24137743568E+03  0.26812089217E+03  0.00000000000E+00 0. -1.
         21    1    1    2  504  505  0.58404795182E+02 -0.11762543754E+02  0.25780757890E+02  0.64916292356E+02  0.00000000000E+00 0. -1.
         21    1    1    2  505  501  0.35265746668E+02  0.73730798450E+02  0.16210983391E+04  0.16231573332E+04  0.00000000000E+00 0.  1.
         21    1    1    2  506  503  0.20692136383E+02 -0.38581844280E+02  0.28563578425E+03  0.28897149420E+03  0.00000000000E+00 0.  1.
<scales pt_clust_3="14000.00000" pt_clust_4="60.33715" pt_clust_5="66.62602" pt_clust_6="43.78040"></scales>
<clustering>
<clus scale="   43.780">  1  6  2 -1</clus>
<clus scale="   60.337">  2  4  1 -1</clus>
<clus scale="   66.626">  1  5  2 -1</clus>
<clus scale="   43.780">  1  3  2 -1</clus>
</clustering>
</event>
<event>
 6    0  0.4469832E+002  0.7829260E+02  0.7546771E-02  0.1333968E+00
         21   -1    0    0  504  501  0.00000000000E+00  0.00000000000E+00  0.27723061583E+03  0.27723061583E+03  0.00000000000E+00 0.  1.
         21   -1    0    0  503  502 -0.00000000000E+00 -0.00000000000E+00 -0.18006568948E+03  0.18006568948E+03  0.00000000000E+00 0.  1.
         21    1    1    2  503  506  0.37875897225E+02 -0.39864110412E+01 -0.67255763796E+02  0.77290444606E+02  0.00000000000E+00 0.  1.
         21    1    1    2  504  502 -0.62403003072E+02  0.10414452334E+03  0.18356209494E+03  0.22008012003E+03  0.00000000000E+00 0.  1.
         21    1    1    2  505  501  0.12565792127E+02 -0.41927974189E+02  0.51508064172E+02  0.67593896367E+02  0.00000000000E+00 0.  1.
         21    1    1    2  506  505  0.11961313719E+02 -0.58230138109E+02 -0.70649468953E+02  0.92331844308E+02  0.00000000000E+00 0.  1.
<scales pt_clust_3="38.08510" pt_clust_4="78.29260" pt_clust_5="44.94326" pt_clust_6="14000.00000"></scales>
<clustering>
<clus scale="   38.085">  2  3  1 -1</clus>
<clus scale="   44.943">  1  5  2 -1</clus>
<clus scale="   78.293">  1  4  2 -1</clus>
<clus scale="   44.943">  1  3  2 -1</clus>
</clustering>
</event>
<event>
 6    0  0.4469832E+002  0.1295422E+03  0.7546771E-02  0.1228137E+00
         21   -1    0    0  506  501  0.00000000000E+00  0.00000000000E+00  0.86177534017E+02  0.86177534017E+02  0.00000000000E+00 0. -1.
         21   -1    0    0  501  502 -0.00000000000E+00 -0.00000000000E+00 -0.78424519714E+03  0.78424519714E+03  0.00000000000E+00 0. -1.
         21    1    1    2  503  504 -0.99311653340E+02 -0.28886087439E+02 -0.27121909136E+03  0.29027057387E+03  0.00000000000E+00 0. -1.
         21    1    1    2  504  502 -0.29263025906E+02  0.19036580533E+02 -0.12930348658E+03  0.13393322114E+03  0.00000000000E+00 0. -1.
         21    1    1    2  505  503  0.68446539071E+02  0.12113396199E+03 -0.28741934882E+03  0.31932467418E+03  0.00000000000E+00 0. -1.
         21    1    1    2  506  505  0.60128140174E+02 -0.11128445509E+03 -0.10125736362E+02  0.12689426197E+03  0.00000000000E+00 0. -1.
<scales pt_clust_3="31.29763" pt_clust_4="31.29763" pt_clust_5="117.80967" pt_clust_6="126.48962"></scales>
<clustering>
<clus scale="   31.298">  3  4 -1 -1</clus>
<clus scale="  126.490">  1  6  2 -1</clus>
<clus scale="  117.810">  1  5  2 -1</clus>
<clus scale="  126.490">  1  3  2 -1</clus>
</clustering>
</event>
<event>
 6    0  0.4469832E+002  0.1382376E+03  0.7546771E-02  0.1215720E+00
         21   -1    0    0  505  501  0.00000000000E+00  0.00000000000E+00  0.10725416802E+04  0.10725416802E+04  0.00000000000E+00 0.  1.
         21   -1    0    0  504  502 -0.00000000000E+00 -0.00000000000E+00 -0.61433862342E+02  0.61433862342E+02  0.00000000000E+00 0.  1.
         21    1    1    2  503  502  0.41215496327E+00 -0.32745832677E+02  0.52473608175E+02  0.61854175157E+02  0.00000000000E+00 0. -1.
         21    1    1    2  504  501  0.14363653681E+03 -0.81367849216E+02  0.12037976430E+03  0.20431218575E+03  0.00000000000E+00 0.  1.
         21    1    1    2  505  506 -0.10648070559E+03  0.82573945101E+02  0.78045199140E+03  0.79199867926E+03  0.00000000000E+00 0.  1.
         21    1    1    2  506  503 -0.37567986184E+02  0.31539736791E+02  0.57802453935E+02  0.75810502331E+02  0.00000000000E+00 0. -1.
<scales pt_clust_3="32.74843" pt_clust_4="138.23764" pt_clust_5="14000.00000" pt_clust_6="45.83047"></scales>
<clustering>
<clus scale="   32.748">  2  3  1 -1</clus>
<clus scale="   45.830">  2  6  1 -1</clus>
<clus scale="  138.238">  2  4  1 -1</clus>
<clus scale="  138.238">  1  3  2 -1</clus>
</clustering>
</event>
<event>
 6    0  0.4469832E+002  0.9595209E+02  0.7546771E-02  0.1289046E+00
         21   -1    0    0  504  501  0.00000000000E+00  0.00000000000E+00  0.39131888198E+03  0.39131888198E+03  0.00000000000E+00 0.  1.
         21   -1    0    0  505  502 -0.00000000000E+00 -0.00000000000E+00 -0.41261593246E+03  0.41261593246E+03  0.00000000000E+00 0.  1.
         21    1    1    2  503  502  0.27065725974E+02 -0.39224792299E+02 -0.20245261914E+02  0.51778455784E+02  0.00000000000E+00 0.  1.
         21    1    1    2  504  503  0.78205376491E+02  0.98376111628E+02  0.31501325557E+03  0.33915673579E+03  0.00000000000E+00 0.  1.
         21    1    1    2  505  506 -0.94186730192E+02 -0.27099185311E+02 -0.35093096144E+03  0.36435977507E+03  0.00000000000E+00 0.  1.
         21    1    1    2  506  501 -0.11084372273E+02 -0.32052134018E+02  0.34865917310E+02  0.48639847796E+02  0.00000000000E+00 0.  1.
<scales pt_clust_3="48.57804" pt_clust_4="95.95209" pt_clust_5="14000.00000" pt_clust_6="33.91464"></scales>
<clustering>
<clus scale="   33.915">  1  6  2 -1</clus>
<clus scale="   48.578">  2  3  1 -1</clus>
<clus scale="   95.952">  1  4  2 -1</clus>
<clus scale="   33.915">  1  3  2 -1</clus>
</clustering>
</event>
<event>
 6    0  0.4469832E+002  0.1265486E+03  0.7546771E-02  0.1232669E+00
         21   -1    0    0  504  501  0.00000000000E+00  0.00000000000E+00  0.34071933214E+03  0.34071933214E+03  0.00000000000E+00 0. -1.
         21   -1    0    0  503  502 -0.00000000000E+00 -0.00000000000E+00 -0.23103070121E+03  0.23103070121E+03  0.00000000000E+00 0. -1.
         21    1    1    2  503  501 -0.61332915448E+02 -0.13907799384E+03  0.66112595545E+02  0.16575671985E+03  0.00000000000E+00 0. -1.
         21    1    1    2  504  506  0.28351494888E+02  0.11525487695E+03  0.19798361743E+03  0.23083545372E+03  0.00000000000E+00 0. -1.
         21    1    1    2  505  502 -0.11934470789E+01  0.35158022891E+02 -0.31967413366E+02  0.47533424102E+02  0.00000000000E+00 0.  1.
         21    1    1    2  506  505  0.34174867639E+02 -0.11334906008E+02 -0.12244016868E+03  0.12762443567E+03  0.00000000000E+00 0. -1.
<scales pt_clust_3="14000.00000" pt_clust_4="126.54856" pt_clust_5="35.17827" pt_clust_6="35.36737"></scales>
<clustering>
<clus scale="   35.178">  2  5  1 -1</clus>
<clus scale="   35.367">  2  6  1 -1</clus>
<clus scale="  126.549">  1  4  2 -1</clus>
<clus scale="  126.549">  1  3  2 -1</clus>
</clustering>
</event>
<event>
 6    0  0.4469832E+002  0.7242971E+02  0.7546771E-02  0.1352020E+00
         21   -1    0    0  503  501  0.00000000000E+00  0.00000000000E+00  0.78441950923E+02  0.78441950923E+02  0.00000000000E+00 0.  1.
         21   -1    0    0  505  502 -0.00000000000E+00 -0.00000000000E+00 -0.16364062822E+04  0.16364062822E+04  0.00000000000E+00 0. -1.
         21    1    1    2  503  506 -0.10239846805E+03 -0.39866518773E+02 -0.42351827297E+02  0.11776443798E+03  0.00000000000E+00 0. -1.
         21    1    1    2  504  501  0.30909670196E+02  0.39363685677E+02  0.19800430081E+02  0.53823456719E+02  0.00000000000E+00 0.  1.
         21    1    1    2  505  504  0.43282906612E+02  0.65541644861E+02 -0.59200862772E+03  0.59719622614E+03  0.00000000000E+00 0. -1.
         21    1    1    2  506  502  0.28205891239E+02 -0.65038811765E+02 -0.94340430638E+03  0.94606411233E+03  0.00000000000E+00 0. -1.
<scales pt_clust_3="14000.00000" pt_clust_4="50.04905" pt_clust_5="72.42971" pt_clust_6="70.14489"></scales>
<clustering>
<clus scale="   50.049">  1  4  2 -1</clus>
<clus scale="   70.145">  2  6  1 -1</clus>
<clus scale="   72.430">  2  5  1 -1</clus>
<clus scale="   50.049">  1  3  2 -1</clus>
</clustering>
</event>
<event>
 6    0  0.4469832E+002  0.1536219E+03  0.7546771E-02  0.1196092E+00
         21   -1    0    0  503  501  0.00000000000E+00  0.00000000000E+00  0.16123529449E+04  0.16123529449E+04  0.00000000000E+00 0.  1.
         21   -1    0    0  504  502 -0.00000000000E+00 -0.00000000000E+00 -0.45671728668E+02  0.45671728668E+02  0.00000000000E+00 0.  1.
         21    1    1    2  503  505 -0.14266105894E+03  0.54824754829E+02  0.76660064980E+03  0.78168694997E+03  0.00000000000E+00 0.  1.
         21    1    1    2  504  506  0.39141780254E+02  0.61329048270E+02  0.18011234240E+03  0.19425186488E+03  0.00000000000E+00 0.  1.
         21    1    1    2  505  502  0.54316797401E+02 -0.15889867744E+03  0.21960198119E+03  0.27644915322E+03  0.00000000000E+00 0.  1.
         21    1    1    2  506  501  0.49202481286E+02  0.42744874337E+02  0.40036624281E+03  0.40563670547E+03  0.00000000000E+00 0.  1.
<scales pt_clust_3="14000.00000" pt_clust_4="151.36350" pt_clust_5="153.62186" pt_clust_6="61.88323"></scales>
<clustering>
<clus scale="   61.883">  4  6 -1 -1</clus>
<clus scale="  151.363">  1  4  2 -1</clus>
<clus scale="  153.622">  2  5  1 -1</clus>
<clus scale="  151.363">  1  3  2 -1</clus>
</clustering>
</event>
<event>
 6    0  0.4469832E+002  0.6333058E+02  0.7546771E-02  0.1384364E+00
         21   -1    0    0  505  501  0.00000000000E+00  0.00000000000E+00  0.52602103369E+03  0.52602103369E+03  0.00000000000E+00 0.  1.
         21   -1    0    0  503  502 -0.00000000000E+00 -0.00000000000E+00 -0.11283855164E+03  0.11283855164E+03  0.00000000000E+00 0. -1.
         21    1    1    2  503  501  0.25910373509E+02  0.23548070066E+02  0.18556697438E+02  0.39625876382E+02  0.00000000000E+00 0. -1.
         21    1    1    2  504  502  0.47950024792E+02 -0.26731013627E+02 -0.18809062557E+02  0.58030447193E+02  0.00000000000E+00 0. -1.
         21    1    1    2  505  506  0.56316928072E+02  0.23248504926E+02  0.40463356360E+03  0.40919483154E+03  0.00000000000E+00 0.  1.
         21    1    1    2  506  504 -0.13017732637E+03 -0.20065561365E+02  0.88012835723E+01  0.13200843021E+03  0.00000000000E+00 0. -1.
<scales pt_clust_3="35.01227" pt_clust_4="60.39050" pt_clust_5="14000.00000" pt_clust_6="63.33058"></scales>
<clustering>
<clus scale="   35.012">  2  3  1 -1</clus>
<clus scale="   60.391">  2  4  1 -1</clus>
<clus scale="   63.331">  2  6  1 -1</clus>
<clus scale="   63.331">  1  3  2 -1</clus>
</clustering>
</event>
<event>
 6    0  0.4469832E+002  0.1596671E+03  0.7546771E-02  0.1189073E+00
         21   -1    0    0  505  501  0.00000000000E+00  0.00000000000E+00  0.31587690817E+03  0.31587690817E+03  0.00000000000E+00 0. -1.
         21   -1    0    0  506  502 -0.00000000000E+00 -0.00000000000E+00 -0.10237580606E+04  0.10237580606E+04  0.00000000000E+00 0. -1.
         21    1    1    2  503  504 -0.64688190316E+02 -0.22173284004E+02 -0.39531653567E+03  0.40118746225E+03  0.00000000000E+00 0. -1.
         21    1    1    2  504  501 -0.22294193546E+02  0.68117313159E+02 -0.29962228594E+02  0.77683553988E+02  0.00000000000E+00 0. -1.
         21    1    1    2  505  502  0.16853699972E+03 -0.85455868004E+02  0.25399013607E+03  0.31657292189E+03  0.00000000000E+00 0. -1.
         21    1    1    2  506  503 -0.81554615861E+02  0.39511838849E+02 -0.53659252423E+03  0.54419103065E+03  0.00000000000E+00 0. -1.
<scales pt_clust_3="52.10898" pt_clust_4="71.67286" pt_clust_5="147.97020" pt_clust_6="52.10898"></scales>
<clustering>
<clus scale="   52.109">  3  6 -1 -1</clus>
<clus scale="   71.673">  1  4  2 -1</clus>
<clus scale="  147.970">  1  5  2 -1</clus>
<clus scale="   71.673">  1  3  2 -1</clus>
</clustering>
</event>
<event>
 6    0  0.4469832E+002  0.7747828E+02  0.7546771E-02  0.1336364E+00
         21   -1    0    0  506  501  0.00000000000E+00  0.00000000000E+00  0.82210055119E+02  0.82210055119E+02  0.00000000000E+00 0. -1.
         21   -1    0    0  504  502 -0.00000000000E+00 -0.00000000000E+00 -0.14196806902E+04  0.14196806902E+04  0.00000000000E+00 0. -1.
         21    1    1    2  503  501 -0.36321270060E+02 -0.87104240444E+02  0.29309845343E+02  0.98820293443E+02  0.00000000000E+00 0. -1.
         21    1    1    2  504  503 -0.58991218362E+02  0.29163391968E+01 -0.17087527780E+03  0.18079499286E+03  0.00000000000E+00 0. -1.
         21    1    1    2  505  502  0.74639007051E+02  0.42287208343E+02 -0.11604660460E+04  0.11636325164E+04  0.00000000000E+00 0. -1.
         21    1    1    2  506  505  0.20673481371E+02  0.41900692905E+02 -0.35439156704E+02  0.58642942677E+02  0.00000000000E+00 0. -1.
<scales pt_clust_3="52.13398" pt_clust_4="77.47828" pt_clust_5="14000.00000" pt_clust_6="46.72324"></scales>
<clustering>
<clus scale="   46.723">  1  6  2 -1</clus>
<clus scale="   52.134">  1  3  2 -1</clus>
<clus scale="   77.478">  1  4  2 -1</clus>
<clus scale="   46.723">  1  3  2 -1</clus>
</clustering>
</event>
<event>
 6    0  0.4469832E+002  0.2706166E+03  0.7546771E-02  0.1100927E+00
         21   -1    0    0  506  501  0.00000000000E+00  0.00000000000E+00  0.31285279977E+03  0.31285279977E+03  0.00000000000E+00 0.  1.
         21   -1    0    0  504  502 -0.00000000000E+00 -0.00000000000E+00 -0.38126063396E+03  0.38126063396E+03  0.00000000000E+00 0.  1.
         21    1    1    2  503  502 -0.90864468754E+02 -0.47938351067E+02 -0.30006367557E+02  0.10702718944E+03  0.00000000000E+00 0. -1.
         21    1    1    2  504  501 -0.55548173208E+02 -0.75501339748E+02  0.51027226064E+02  0.10672314487E+03  0.00000000000E+00 0.  1.
         21    1    1    2  505  503 -0.14177019780E+03 -0.31435278816E+01 -0.85487868670E+02  0.16558033229E+03  0.00000000000E+00 0. -1.
         21    1    1    2  506  505  0.28818283976E+03  0.12658321870E+03 -0.39408240293E+01  0.31478276713E+03  0.00000000000E+00 0.  1.
<scales pt_clust_3="55.47402" pt_clust_4="93.73394" pt_clust_5="55.47402" pt_clust_6="262.65124"></scales>
<clustering>
<clus scale="   55.474">  3  5 -1 -1</clus>
<clus scale="   93.734">  1  4  2 -1</clus>
<clus scale="  262.651">  1  6  2 -1</clus>
<clus scale="   93.734">  1  3  2 -1</clus>
</clustering>
</event>
<event>
 6    0  0.4469832E+002  0.8472442E+02  0.7546771E-02  0.1316155E+00
         21   -1    0    0  504  501  0.00000000000E+00  0.00000000000E+00  0.39355070000E+03  0.39355070000E+03  0.00000000000E+00 0. -1.
         21   -1    0    0  505  502 -0.00000000000E+00 -0.00000000000E+00 -0.84147737689E+03  0.84147737689E+03  0.00000000000E+00 0. -1.
         21    1    1    2  503  506 -0.17780628388E+02  0.65353024627E+02 -0.58900354441E+03  0.59288476444E+03  0.00000000000E+00 0. -1.
         21    1    1    2  504  502  0.26997534258E+02  0.51064833807E+02  0.31959374967E+02  0.66014284485E+02  0.00000000000E+00 0.  1.
         21    1    1    2  505  503  0.24665760796E+02 -0.27203538677E+02 -0.22534543617E+03  0.22831775638E+03  0.00000000000E+00 0. -1.
         21    1    1    2  506  501 -0.33882666666E+02 -0.89214319757E+02  0.33446292873E+03  0.34781127158E+03  0.00000000000E+00 0. -1.
<scales pt_clust_3="39.64510" pt_clust_4="14000.00000" pt_clust_5="36.72101" pt_clust_6="84.72442"></scales>
<clustering>
<clus scale="   36.721">  2  5  1 -1</clus>
<clus scale="   39.645">  2  3  1 -1</clus>
<clus scale="   84.724">  1  6  2 -1</clus>
<clus scale="   84.724">  1  3  2 -1</clus>
</clustering>
</event>
<event>
 6    0  0.4469832E+002  0.2147737E+03  0.7546771E-02  0.1137841E+00
         21   -1    0    0  503  501  0.00000000000E+00  0.00000000000E+00  0.19047949220E+04  0.19047949220E+04  0.00000000000E+00 0.  1.
         21   -1    0    0  506  502 -0.00000000000E+00 -0.00000000000E+00 -0.51257682759E+02  0.51257682759E+02  0.00000000000E+00 0.  1.
         21    1    1    2  503  504 -0.17755497596E+01 -0.33196462742E+02  0.32218430188E+03  0.32389486271E+03  0.00000000000E+00 0.  1.
         21    1    1    2  504  505 -0.78027924766E+01 -0.58115602907E+02  0.12690050293E+03  0.13979286289E+03  0.00000000000E+00 0.  1.
         21    1    1    2  505  502 -0.11366659964E+02 -0.13645795349E+03  0.10399262106E+03  0.17194312800E+03  0.00000000000E+00 0.  1.
         21    1    1    2  506  501  0.20945002200E+02  0.22777001914E+03  0.13004598134E+04  0.13204217512E+04  0.00000000000E+00 0.  1.
<scales pt_clust_3="33.24391" pt_clust_4="49.78371" pt_clust_5="49.78371" pt_clust_6="201.21226"></scales>
<clustering>
<clus scale="   33.244">  1  3  2 -1</clus>
<clus scale="   49.784">  4  5 -1 -1</clus>
<clus scale="  201.212">  1  6  2 -1</clus>
<clus scale="   33.244">  1  3  2 -1</clus>
</clustering>
</event>
<event>
 6    0  0.4469832E+002  0.1504818E+03  0.7546771E-02  0.1199882E+00
         21   -1    0    0  502  501  0.00000000000E+00  0.00000000000E+00  0.14669520977E+04  0.14669520977E+04  0.00000000000E+00 0. -1.
         21   -1    0    0  506  502 -0.00000000000E+00 -0.00000000000E+00 -0.10632458431E+03  0.10632458431E+03  0.00000000000E+00 0.  1.
         21    1    1    2  503  501 -0.53205247403E+02  0.53589610195E+02  0.78823138309E+03  0.79184048770E+03  0.00000000000E+00 0. -1.
         21    1    1    2  504  505  0.95461471171E+02  0.48588984477E+02 -0.33692963069E+01  0.10716871768E+03  0.00000000000E+00 0.  1.
         21    1    1    2  505  503 -0.63474383692E+02 -0.13120751339E+03  0.60845687536E+03  0.62567098233E+03  0.00000000000E+00 0. -1.
         21    1    1    2  506  504  0.21218159924E+02  0.29028918723E+02 -0.32691448786E+02  0.48596494282E+02  0.00000000000E+00 0.  1.
<scales pt_clust_3="75.51586" pt_clust_4="33.40240" pt_clust_5="139.00005" pt_clust_6="33.40240"></scales>
<clustering>
<clus scale="   33.402">  4  6 -1 -1</clus>
<clus scale="   75.516">  1  3  2 -1</clus>
<clus scale="  139.000">  1  5  2 -1</clus>
<clus scale="   75.516">  1  3  2 -1</clus>
</clustering>
</event>
<event>
 6    0  0.4469832E+002  0.3373462E+03  0.7546771E-02  0.1067932E+00
         21   -1    0    0  506  501  0.00000000000E+00  0.00000000000E+00  0.40538546392E+03  0.40538546392E+03  0.00000000000E+00 0.  1.
         21   -1    0    0  503  502 -0.00000000000E+00 -0.00000000000E+00 -0.11680464893E+04  0.11680464893E+04  0.00000000000E+00 0. -1.
         21    1    1    2  503  501 -0.27328908171E+03  0.32128978451E+03 -0.20552012189E+02  0.42229898533E+03  0.00000000000E+00 0.  1.
         21    1    1    2  504  505  0.25391832938E+03 -0.69430875803E+02 -0.60888654234E+03  0.66335359044E+03  0.00000000000E+00 0. -1.
         21    1    1    2  505  502  0.70874105195E+02  0.89828559225E+01 -0.20106724384E+03  0.21338197448E+03  0.00000000000E+00 0. -1.
         21    1    1    2  506  504 -0.51503352868E+02 -0.26084176463E+03  0.67844772993E+02  0.27439740296E+03  0.00000000000E+00 0.  1.
<scales pt_clust_3="332.12414" pt_clust_4="30.80248" pt_clust_5="30.80248" pt_clust_6="265.87783"></scales>
<clustering>
<clus scale="   30.802">  4  5 -1 -1</clus>
<clus scale="  265.878">  1  6  2 -1</clus>
<clus scale="  332.124">  1  3  2 -1</clus>
<clus scale="  265.878">  1  3  2 -1</clus>
</clustering>
</event>
<event>
 6    0  0.4469832E+002  0.1519165E+03  0.7546771E-02  0.1198138E+00
         21   -1    0    0  504  501  0.00000000000E+00  0.00000000000E+00  0.10282380210E+04  0.10282380210E+04  0.00000000000E+00 0. -1.
         21   -1    0    0  503  502 -0.00000000000E+00 -0.00000000000E+00 -0.58359809014E+03  0.58359809014E+03  0.00000000000E+00 0. -1.
         21    1    1    2  503  501  0.20698991889E+03 -0.42670434609E+02 -0.38977822942E+03  0.44338770917E+03  0.00000000000E+00 0. -1.
         21    1    1    2  504  506 -0.93762729360E+02  0.11934039840E+03  0.96132949403E+03  0.97323582764E+03  0.00000000000E+00 0. -1.
         21    1    1    2  505  502 -0.67210158422E+02 -0.16058447375E+02 -0.80436184199E+02  0.10604272184E+03  0.00000000000E+00 0.  1.
         21    1    1    2  506  505 -0.46017031113E+02 -0.60611516420E+02 -0.46475149525E+02  0.89169852520E+02  0.00000000000E+00 0.  1.
<scales pt_clust_3="14000.00000" pt_clust_4="151.91649" pt_clust_5="54.76344" pt_clust_6="148.32890"></scales>
<clustering>
<clus scale="   54.763">  5  6 -1 -1</clus>
<clus scale="  148.329">  2  5  1 -1</clus>
<clus scale="  151.916">  1  4  2 -1</clus>
<clus scale="  151.916">  1  3  2 -1</clus>
</clustering>
</event>
<event>
 6    0  0.4469832E+002  0.1493485E+03  0.7546771E-02  0.1201276E+00
         21   -1    0    0  505  501  0.00000000000E+00  0.00000000000E+00  0.14742201436E+04  0.14742201436E+04  0.00000000000E+00 0.  1.
         21   -1    0    0  506  502 -0.00000000000E+00 -0.00000000000E+00 -0.71431209037E+03  0.71431209037E+03  0.00000000000E+00 0. -1.
         21    1    1    2  503  501 -0.41436929297E+02 -0.14726226343E+03  0.13400300343E+04  0.13487341051E+04  0.00000000000E+00 0.  1.
         21    1    1    2  504  503  0.68515466939E+02  0.97402530629E+02  0.37160004260E+02  0.12474970180E+03  0.00000000000E+00 0. -1.
         21    1    1    2  505  502 -0.35913892458E+02 -0.82140898816E+02 -0.56616769315E+03  0.57322141595E+03  0.00000000000E+00 0. -1.
         21    1    1    2  506  504  0.88353548163E+01  0.13200063162E+03 -0.51114292142E+02  0.14182701119E+03  0.00000000000E+00 0. -1.
<scales pt_clust_3="14000.00000" pt_clust_4="149.34846" pt_clust_5="89.64895" pt_clust_6="78.67351"></scales>
<clustering>
<clus scale="   89.649">  2  5  1 -1</clus>
<clus scale="   78.674">  2  6  1 -1</clus>
<clus scale="  149.348">  2  4  1 -1</clus>
<clus scale="  149.348">  1  3  2 -1</clus>
</clustering>
</event>
<event>
 6    0  0.4469832E+002  0.1363952E+03  0.7546771E-02  0.1218264E+00
         21   -1    0    0  506  501  0.00000000000E+00  0.00000000000E+00  0.23722005234E+03  0.23722005234E+03  0.00000000000E+00 0.  1.
         21   -1    0    0  505  502 -0.00000000000E+00 -0.00000000000E+00 -0.12833949719E+03  0.12833949719E+03  0.00000000000E+00 0.  1.
         21    1    1    2  503  501 -0.27548102897E+02  0.66286284342E+02 -0.34536313537E+02  0.79658812556E+02  0.00000000000E+00 0.  1.
         21    1    1    2  504  502  0.50203971787E+02 -0.13239841117E+03  0.99802050412E+02  0.17323460200E+03  0.00000000000E+00 0.  1.
         21    1    1    2  505  503 -0.44943647364E+02  0.34403113693E+02  0.32299006804E+01  0.56691603687E+02  0.00000000000E+00 0.  1.
         21    1    1    2  506  504  0.22287778474E+02  0.31709013134E+02  0.40384917598E+02  0.55974531285E+02  0.00000000000E+00 0.  1.
<scales pt_clust_3="41.29785" pt_clust_4="128.00666" pt_clust_5="41.29785" pt_clust_6="38.75831"></scales>
<clustering>
<clus scale="   38.758">  1  6  2 -1</clus>
<clus scale="   41.298">  3  5 -1 -1</clus>
<clus scale="  128.007">  1  4  2 -1</clus>
<clus scale="   38.758">  1  3  2 -1</clus>
</clustering>
</event>
<event>
 6    0  0.4469832E+002  0.2305287E+03  0.7546771E-02  0.1126268E+00
         21   -1    0    0  505  501  0.00000000000E+00  0.00000000000E+00  0.29096382313E+03  0.29096382313E+03  0.00000000000E+00 0. -1.
         21   -1    0    0  503  502 -0.00000000000E+00 -0.00000000000E+00 -0.30838786384E+03  0.30838786384E+03  0.00000000000E+00 0. -1.
         21    1    1    2  503  501 -0.20146156358E+02  0.25498631436E+03  0.10318105496E+03  0.27580829979E+03  0.00000000000E+00 0. -1.
         21    1    1    2  504  506  0.13273800919E+02 -0.10969809917E+03 -0.79203173263E+02  0.13595223208E+03  0.00000000000E+00 0. -1.
         21    1    1    2  505  504 -0.40733642846E+02 -0.44880198265E+02  0.15765956497E+02  0.62626090730E+02  0.00000000000E+00 0. -1.
         21    1    1    2  506  502  0.47605998285E+02 -0.10040801693E+03 -0.57167878912E+02  0.12496506438E+03  0.00000000000E+00 0. -1.
<scales pt_clust_3="226.96612" pt_clust_4="40.25783" pt_clust_5="60.60909" pt_clust_6="40.25783"></scales>
<clustering>
<clus scale="   40.258">  4  6 -1 -1</clus>
<clus scale="   60.609">  1  5  2 -1</clus>
<clus scale="  226.966">  1  3  2 -1</clus>
<clus scale="   60.609">  1  3  2 -1</clus>
</clustering>
</event>
<event>
 6    0  0.4469832E+002  0.2130275E+03  0.7546771E-02  0.1139191E+00
         21   -1    0    0  505  501  0.00000000000E+00  0.00000000000E+00  0.18988673113E+03  0.18988673113E+03  0.00000000000E+00 0. -1.
         21   -1    0    0  504  502 -0.00000000000E+00 -0.00000000000E+00 -0.10794846426E+04  0.10794846426E+04  0.00000000000E+00 0.  1.
         21    1    1    2  503  501  0.19495257675E+03 -0.37750949333E+02  0.86128774035E+02  0.21644816256E+03  0.00000000000E+00 0. -1.
         21    1    1    2  504  503 -0.18264676343E+03  0.61050469126E+02 -0.85522875932E+03  0.87664316044E+03  0.00000000000E+00 0.  1.
         21    1    1    2  505  506 -0.22942070560E+01 -0.67189217428E+02 -0.26883670331E+02  0.72404323456E+02  0.00000000000E+00 0. -1.
         21    1    1    2  506  502 -0.10011606268E+02  0.43889697635E+02 -0.93614255818E+02  0.10387572725E+03  0.00000000000E+00 0.  1.
<scales pt_clust_3="14000.00000" pt_clust_4="213.02746" pt_clust_5="65.02792" pt_clust_6="45.01708"></scales>
<clustering>
<clus scale="   45.017">  2  6  1 -1</clus>
<clus scale="   65.028">  1  5  2 -1</clus>
<clus scale="  213.027">  2  4  1 -1</clus>
<clus scale="   65.028">  1  3  2 -1</clus>
</clustering>
</event>
<event>
 6    0  0.4469832E+002  0.8249115E+02  0.7546771E-02  0.1322127E+00
         21   -1    0    0  503  501  0.00000000000E+00  0.00000000000E+00  0.64921018569E+03  0.64921018569E+03  0.00000000000E+00 0.  1.
         21   -1    0    0  504  502 -0.00000000000E+00 -0.00000000000E+00 -0.94440161497E+02  0.94440161497E+02  0.00000000000E+00 0.  1.
         21    1    1    2  503  502 -0.10451307717E+03 -0.17895357267E+02  0.49722651098E+02  0.11711348831E+03  0.00000000000E+00 0.  1.
         21    1    1    2  504  506  0.52005712467E+02  0.17517985422E+02 -0.13714635369E+02  0.56564698936E+02  0.00000000000E+00 0.  1.
         21    1    1    2  505  501 -0.21155816915E+02  0.42896758016E+02  0.46899610521E+03  0.47142872965E+03  0.00000000000E+00 0.  1.
         21    1    1    2  506  505  0.73663181620E+02 -0.42519386171E+02  0.49765903254E+02  0.98543430291E+02  0.00000000000E+00 0.  1.
<scales pt_clust_3="82.49115" pt_clust_4="54.41287" pt_clust_5="47.82991" pt_clust_6="14000.00000"></scales>
<clustering>
<clus scale="   47.830">  1  5  2 -1</clus>
<clus scale="   54.413">  2  4  1 -1</clus>
<clus scale="   82.491">  2  3  1 -1</clus>
<clus scale="   47.830">  1  3  2 -1</clus>
</clustering>
</event>
<event>
 6    0  0.4469832E+002  0.1197367E+03  0.7546771E-02  0.1243532E+00
         21   -1    0    0  504  501  0.00000000000E+00  0.00000000000E+00  0.78438518170E+03  0.78438518170E+03  0.00000000000E+00 0. -1.
         21   -1    0    0  505  502 -0.00000000000E+00 -0.00000000000E+00 -0.75665996126E+02  0.75665996126E+02  0.00000000000E+00 0. -1.
         21    1    1    2  503  506 -0.27550065463E+01  0.90598063304E+02  0.16342743929E+03  0.18687998033E+03  0.00000000000E+00 0. -1.
         21    1    1    2  504  502  0.11608714781E+02 -0.15089908391E+03  0.49638062079E+02  0.15927722056E+03  0.00000000000E+00 0. -1.
         21    1    1    2  505  503 -0.25260529710E+02  0.21760141491E+02  0.25749206162E+02  0.42126235732E+02  0.00000000000E+00 0.  1.
         21    1    1    2  506  501  0.16406821476E+02  0.38540879112E+02  0.46990447805E+03  0.47176774121E+03  0.00000000000E+00 0. -1.
<scales pt_clust_3="119.73665" pt_clust_4="14000.00000" pt_clust_5="33.34064" pt_clust_6="42.02986"></scales>
<clustering>
<clus scale="   33.341">  2  5  1 -1</clus>
<clus scale="   42.030">  1  6  2 -1</clus>
<clus scale="  119.737">  1  3  2 -1</clus>
<clus scale="   42.030">  1  3  2 -1</clus>
</clustering>
</event>
<event>
 6    0  0.4469832E+002  0.1110039E+03  0.7546771E-02  0.1258722E+00
         21   -1    0    0  503  501  0.00000000000E+00  0.00000000000E+00  0.79604476693E+02  0.79604476693E+02  0.00000000000E+00 0. -1.
         21   -1    0    0  505  502 -0.00000000000E+00 -0.00000000000E+00 -0.19730306723E+04  0.19730306723E+04  0.00000000000E+00 0.  1.
         21    1    1    2  503  504  0.58819783693E+02  0.45589719412E+02 -0.53163538429E+02  0.91457920860E+02  0.00000000000E+00 0.  1.
         21    1    1    2  504  502  0.63754494445E+02  0.49126986978E+02 -0.29842067908E+03  0.30908412789E+03  0.00000000000E+00 0.  1.
         21    1    1    2  505  506 -0.40623671749E+02 -0.12673047660E+03 -0.15571182832E+04  0.15627950103E+04  0.00000000000E+00 0.  1.
         21    1    1    2  506  501 -0.81950606389E+02  0.32013770212E+02  0.15276305080E+02  0.89298089944E+02  0.00000000000E+00 0. -1.
<scales pt_clust_3="74.41901" pt_clust_4="111.00390" pt_clust_5="14000.00000" pt_clust_6="77.91011"></scales>
<clustering>
<clus scale="   74.419">  1  3  2 -1</clus>
<clus scale="   77.910">  1  6  2 -1</clus>
<clus scale="  111.004">  1  4  2 -1</clus>
<clus scale="   74.419">  1  3  2 -1</clus>
</clustering>
</event>
<event>
 6    0  0.4469832E+002  0.8121819E+02  0.7546771E-02  0.1325630E+00
         21   -1    0    0  506  501  0.00000000000E+00  0.00000000000E+00  0.10692791693E+03  0.10692791693E+03  0.00000000000E+00 0.  1.
         21   -1    0    0  505  502 -0.00000000000E+00 -0.00000000000E+00 -0.27841760646E+03  0.27841760646E+03  0.00000000000E+00 0.  1.
         21    1    1    2  503  502  0.42013012195E+02 -0.24968924192E+02 -0.48978609349E+02  0.69191361764E+02  0.00000000000E+00 0.  1.
         21    1    1    2  504  501 -0.66116365426E+01 -0.74974777324E+02  0.44629132049E+02  0.87502516535E+02  0.00000000000E+00 0.  1.
         21    1    1    2  505  504  0.10110692385E+01  0.96230163735E+02 -0.16618444304E+03  0.19203784987E+03  0.00000000000E+00 0.  1.
         21    1    1    2  506  503 -0.36412444891E+02  0.37135377810E+01 -0.95576918451E+00  0.36613795222E+02  0.00000000000E+00 0.  1.
<scales pt_clust_3="45.14084" pt_clust_4="81.21819" pt_clust_5="14000.00000" pt_clust_6="36.60132"></scales>
<clustering>
<clus scale="   36.601">  1  6  2 -1</clus>
<clus scale="   45.141">  2  3  1 -1</clus>
<clus scale="   81.218">  1  4  2 -1</clus>
<clus scale="   36.601">  1  3  2 -1</clus>
</clustering>
</event>
<event>
 6    0  0.4469832E+002  0.1431889E+03  0.7546771E-02  0.1209101E+00
         21   -1    0    0  504  501  0.00000000000E+00  0.00000000000E+00  0.13551993903E+04  0.13551993903E+04  0.00000000000E+00 0. -1.
         21   -1    0    0  503  502 -0.00000000000E+00 -0.00000000000E+00 -0.10699740237E+03  0.10699740237E+03  0.00000000000E+00 0. -1.
         21    1    1    2  503  505  0.90578958904E+02  0.38317570135E+02 -0.70631307332E+02  0.12108495180E+03  0.00000000000E+00 0. -1.
         21    1    1    2  504  502  0.33040319967E+02  0.12374239342E+02  0.36878106407E+02  0.51037038266E+02  0.00000000000E+00 0. -1.
         21    1    1    2  505  506 -0.72179720542E+02 -0.20848217101E+02  0.47227783331E+03  0.47821638622E+03  0.00000000000E+00 0. -1.
         21    1    1    2  506  501 -0.51439558329E+02 -0.29843592376E+02  0.80967735559E+03  0.81185841643E+03  0.00000000000E+00 0. -1.
<scales pt_clust_3="132.17623" pt_clust_4="35.28150" pt_clust_5="49.18056" pt_clust_6="49.18056"></scales>
<clustering>
<clus scale="   35.282">  2  4  1 -1</clus>
<clus scale="   49.181">  5  6 -1 -1</clus>
<clus scale="  132.176">  2  3  1 -1</clus>
<clus scale="  143.189">  1  3  2 -1</clus>
</clustering>
</event>
<event>
 6    0  0.4469832E+002  0.1343286E+03  0.7546771E-02  0.1221171E+00
         21   -1    0    0  503  501  0.00000000000E+00  0.00000000000E+00  0.15278643094E+03  0.15278643094E+03  0.00000000000E+00 0. -1.
         21   -1    0    0  504  502 -0.00000000000E+00 -0.00000000000E+00 -0.76489870485E+03  0.76489870485E+03  0.00000000000E+00 0.  1.
         21    1    1    2  503  506 -0.90752923972E+02  0.24477317951E+02 -0.25934917053E+03  0.27585725395E+03  0.00000000000E+00 0.  1.
         21    1    1    2  504  505  0.17541760789E+03 -0.95284197225E+02  0.12994080144E+02  0.20004814800E+03  0.00000000000E+00 0. -1.
         21    1    1    2  505  501 -0.35888444690E+02  0.68799560532E+02 -0.50256817243E+01  0.77759999154E+02  0.00000000000E+00 0. -1.
         21    1    1    2  506  502 -0.48776239230E+02  0.20073187424E+01 -0.36073150180E+03  0.36401973468E+03  0.00000000000E+00 0.  1.
<scales pt_clust_3="14000.00000" pt_clust_4="134.32856" pt_clust_5="80.21836" pt_clust_6="48.81753"></scales>
<clustering>
<clus scale="   48.818">  2  6  1 -1</clus>
<clus scale="   80.218">  1  5  2 -1</clus>
<clus scale="  134.329">  1  4  2 -1</clus>
<clus scale="   80.218">  1  3  2 -1</clus>
</clustering>
</event>
<event>
 6    0  0.4469832E+002  0.8188693E+02  0.7546771E-02  0.1323780E+00
         21   -1    0    0  504  501  0.00000000000E+00  0.00000000000E+00  0.15144086120E+03  0.15144086120E+03  0.00000000000E+00 0.  1.
         21   -1    0    0  505  502 -0.00000000000E+00 -0.00000000000E+00 -0.39593185225E+03  0.39593185225E+03  0.00000000000E+00 0.  1.
         21    1    1    2  503  501  0.35406149448E+02  0.86275870832E+02  0.84172194289E+02  0.12562674714E+03  0.00000000000E+00 0.  1.
         21    1    1    2  504  506 -0.32814958358E+02 -0.15378083410E+02 -0.16111268966E+02  0.39659550289E+02  0.00000000000E+00 0.  1.
         21    1    1    2  505  503  0.35166511195E+02 -0.93918203063E+02 -0.43312652147E+02  0.10923963664E+03  0.00000000000E+00 0.  1.
         21    1    1    2  506  502 -0.37757702286E+02  0.23020415641E+02 -0.26923926423E+03  0.27284677939E+03  0.00000000000E+00 0.  1.
<scales pt_clust_3="14000.00000" pt_clust_4="36.23958" pt_clust_5="81.88693" pt_clust_6="44.48215"></scales>
<clustering>
<clus scale="   36.240">  1  4  2 -1</clus>
<clus scale="   44.482">  2  6  1 -1</clus>
<clus scale="   81.887">  2  5  1 -1</clus>
<clus scale="   36.240">  1  3  2 -1</clus>
</clustering>
</event>
<event>
 6    0  0.4469832E+002  0.1671793E+03  0.7546771E-02  0.1180822E+00
         21   -1    0    0  505  501  0.00000000000E+00  0.00000000000E+00  0.14498463834E+03  0.14498463834E+03  0.00000000000E+00 0. -1.
         21   -1    0    0  503  502 -0.00000000000E+00 -0.00000000000E+00 -0.35626732129E+03  0.35626732129E+03  0.00000000000E+00 0. -1.
         21    1    1    2  503  504  0.93545805664E+02  0.29699758909E+02 -0.20887719273E+03  0.23078686072E+03  0.00000000000E+00 0. -1.
         21    1    1    2  504  501  0.14686432279E+02  0.44797327105E+02 -0.49156833365E+02  0.68109368484E+02  0.00000000000E+00 0. -1.
         21    1    1    2  505  506 -0.13820276349E+03 -0.66730987913E+02  0.64720473443E+02  0.16655860310E+03  0.00000000000E+00 0. -1.
         21    1    1    2  506  502  0.29970525545E+02 -0.77660981015E+01 -0.17969130299E+02  0.35797127327E+02  0.00000000000E+00 0. -1.
<scales pt_clust_3="47.54854" pt_clust_4="47.54854" pt_clust_5="149.85175" pt_clust_6="30.96037"></scales>
<clustering>
<clus scale="   30.960">  2  6  1 -1</clus>
<clus scale="   47.549">  3  4 -1 -1</clus>
<clus scale="  149.852">  1  5  2 -1</clus>
<clus scale="  149.852">  1  3  2 -1</clus>
</clustering>
</event>
<event>
 6    0  0.4469832E+002  0.1369460E+03  0.7546771E-02  0.1217498E+00
         21   -1    0    0  504  501  0.00000000000E+00  0.00000000000E+00  0.11102641228E+04  0.11102641228E+04  0.00000000000E+00 0. -1.
         21   -1    0    0  506  502 -0.00000000000E+00 -0.00000000000E+00 -0.20367335613E+03  0.20367335613E+03  0.00000000000E+00 0.  1.
         21    1    1    2  503  502 -0.13217007229E+03  0.96561799194E+02 -0.11666443855E+03  0.20100671704E+03  0.00000000000E+00 0.  1.
         21    1    1    2  504  503  0.95336962463E+02 -0.31078037813E+02  0.23784831178E+02  0.10305677581E+03  0.00000000000E+00 0. -1.
         21    1    1    2  505  501 -0.76935651517E+01 -0.35841166680E+02  0.85554192140E+03  0.85632689987E+03  0.00000000000E+00 0. -1.
         21    1    1    2  506  505  0.44526674976E+02 -0.29642594702E+02  0.14392845268E+03  0.15354708625E+03  0.00000000000E+00 0. -1.
<scales pt_clust_3="14000.00000" pt_clust_4="136.94603" pt_clust_5="36.65761" pt_clust_6="64.52039"></scales>
<clustering>
<clus scale="   36.658">  1  5  2 -1</clus>
<clus scale="   64.520">  1  6  2 -1</clus>
<clus scale="  136.946">  1  4  2 -1</clus>
<clus scale="   36.658">  1  3  2 -1</clus>
</clustering>
</event>
<event>
 6    0  0.4469832E+002  0.1124640E+03  0.7546771E-02  0.1256074E+00
         21   -1    0    0  506  501  0.00000000000E+00  0.00000000000E+00  0.77001179712E+03  0.77001179712E+03  0.00000000000E+00 0. -1.
         21   -1    0    0  505  502 -0.00000000000E+00 -0.00000000000E+00 -0.61552635870E+03  0.61552635870E+03  0.00000000000E+00 0. -1.
         21    1    1    2  503  501  0.31614059971E+02 -0.87648608801E+02 -0.12895381937E+03  0.15909373005E+03  0.00000000000E+00 0.  1.
         21    1    1    2  504  502  0.22683960737E+02  0.30797776287E+02 -0.64812083429E+02  0.75257366797E+02  0.00000000000E+00 0. -1.
         21    1    1    2  505  503 -0.45661993848E+02 -0.55955140393E+02 -0.39389776223E+03  0.40046403398E+03  0.00000000000E+00 0. -1.
         21    1    1    2  506  504 -0.86360268602E+01  0.11280597291E+03  0.74214910346E+03  0.75072302499E+03  0.00000000000E+00 0. -1.
<scales pt_clust_3="14000.00000" pt_clust_4="38.25003" pt_clust_5="44.42715" pt_clust_6="112.46399"></scales>
<clustering>
<clus scale="   38.250">  2  4  1 -1</clus>
<clus scale="   44.427">  2  5  1 -1</clus>
<clus scale="  112.464">  1  6  2 -1</clus>
<clus scale="  112.464">  1  3  2 -1</clus>
</clustering>
</event>
<event>
 6    0  0.4469832E+002  0.6933732E+02  0.7546771E-02  0.1362361E+00
         21   -1    0    0  503  501  0.00000000000E+00  0.00000000000E+00  0.21998896733E+04  0.21998896733E+04  0.00000000000E+00 0.  1.
         21   -1    0    0  506  502 -0.00000000000E+00 -0.00000000000E+00 -0.13862962897E+04  0.13862962897E+04  0.00000000000E+00 0. -1.
         21    1    1    2  503  502  0.63300862826E+01 -0.80695529115E+02 -0.12110934165E+04  0.12137953295E+04  0.00000000000E+00 0. -1.
         21    1    1    2  504  501 -0.77816330177E+01 -0.53147075368E+02  0.20786835719E+04  0.20793774447E+04  0.00000000000E+00 0.  1.
         21    1    1    2  505  504  0.30731491254E+02  0.11694908153E+03  0.86392922892E+02  0.14861106740E+03  0.00000000000E+00 0. -1.
         21    1    1    2  506  505 -0.29279944518E+02  0.16893522948E+02 -0.14038969470E+03  0.14440212133E+03  0.00000000000E+00 0. -1.
<scales pt_clust_3="69.33732" pt_clust_4="53.71026" pt_clust_5="14000.00000" pt_clust_6="33.80394"></scales>
<clustering>
<clus scale="   33.804">  2  6  1 -1</clus>
<clus scale="   53.710">  1  4  2 -1</clus>
<clus scale="   69.337">  2  3  1 -1</clus>
<clus scale="   53.710">  1  3  2 -1</clus>
</clustering>
</event>
<event>
 6    0  0.4469832E+002  0.1043150E+03  0.7546771E-02  0.1271475E+00
         21   -1    0    0  505  501  0.00000000000E+00  0.00000000000E+00  0.18696311573E+03  0.18696311573E+03  0.00000000000E+00 0.  1.
         21   -1    0    0  504  502 -0.00000000000E+00 -0.00000000000E+00 -0.90201936808E+03  0.90201936808E+03  0.00000000000E+00 0. -1.
         21    1    1    2  503  501  0.31339988872E+02 -0.81692615232E+01 -0.22602088322E+02  0.39494127828E+02  0.00000000000E+00 0. -1.
         21    1    1    2  504  503 -0.65056141597E+02  0.55050332738E+02 -0.31783178897E+03  0.32905909314E+03  0.00000000000E+00 0. -1.
         21    1    1    2  505  506 -0.50489626666E+02  0.56873616866E+02  0.15583393445E+03  0.17340134320E+03  0.00000000000E+00 0.  1.
         21    1    1    2  506  502  0.84205779391E+02 -0.10375468808E+03 -0.53045630951E+03  0.54702791965E+03  0.00000000000E+00 0. -1.
<scales pt_clust_3="32.38722" pt_clust_4="104.31500" pt_clust_5="53.85718" pt_clust_6="14000.00000"></scales>
<clustering>
<clus scale="   32.387">  1  3  2 -1</clus>
<clus scale="   53.857">  1  5  2 -1</clus>
<clus scale="  104.315">  2  4  1 -1</clus>
<clus scale="   32.387">  1  3  2 -1</clus>
</clustering>
</event>
<event>
 6    0  0.4469832E+002  0.1049172E+03  0.7546771E-02  0.1270283E+00
         21   -1    0    0  506  501  0.00000000000E+00  0.00000000000E+00  0.78588567555E+02  0.78588567555E+02  0.00000000000E+00 0. -1.
         21   -1    0    0  504  502 -0.00000000000E+00 -0.00000000000E+00 -0.43104264853E+03  0.43104264853E+03  0.00000000000E+00 0. -1.
         21    1    1    2  503  502  0.33901846059E+02  0.24601545435E+02 -0.72651555170E+02  0.83861908353E+02  0.00000000000E+00 0.  1.
         21    1    1    2  504  501  0.48228916665E+02 -0.85499747479E+02 -0.94048867792E+02  0.13594640398E+03  0.00000000000E+00 0. -1.
         21    1    1    2  505  503  0.95922540327E+01  0.73221109306E+02 -0.18288483503E+03  0.19723134911E+03  0.00000000000E+00 0. -1.
         21    1    1    2  506  505 -0.91723016757E+02 -0.12322907262E+02 -0.28688229793E+01  0.92591554645E+02  0.00000000000E+00 0. -1.
<scales pt_clust_3="35.75296" pt_clust_4="93.56314" pt_clust_5="35.75296" pt_clust_6="92.54710"></scales>
<clustering>
<clus scale="   35.753">  3  5 -1 -1</clus>
<clus scale="   92.547">  1  6  2 -1</clus>
<clus scale="   93.563">  1  4  2 -1</clus>
<clus scale="   92.547">  1  3  2 -1</clus>
</clustering>
</event>
<event>
 6    0  0.4469832E+002  0.1079001E+03  0.7546771E-02  0.1264509E+00
         21   -1    0    0  504  501  0.00000000000E+00  0.00000000000E+00  0.42543575963E+03  0.42543575963E+03  0.00000000000E+00 0. -1.
         21   -1    0    0  506  502 -0.00000000000E+00 -0.00000000000E+00 -0.64950416082E+03  0.64950416082E+03  0.00000000000E+00 0. -1.
         21    1    1    2  503  501 -0.43334509249E+02  0.34331928647E+02  0.72099190820E+02  0.90856228919E+02  0.00000000000E+00 0. -1.
         21    1    1    2  504  502 -0.93206150390E+02 -0.89713626704E+02 -0.55573657890E+03  0.57059536136E+03  0.00000000000E+00 0. -1.
         21    1    1    2  505  503  0.91548631546E+02  0.62132242668E+02  0.31957451158E+03  0.33818550526E+03  0.00000000000E+00 0. -1.
         21    1    1    2  506  505  0.44992028092E+02 -0.67505446104E+01 -0.60005524695E+02  0.75302824902E+02  0.00000000000E+00 0. -1.
<scales pt_clust_3="54.65140" pt_clust_4="14000.00000" pt_clust_5="107.90011" pt_clust_6="45.49563"></scales>
<clustering>
<clus scale="   45.496">  2  6  1 -1</clus>
<clus scale="   54.651">  1  3  2 -1</clus>
<clus scale="  107.900">  1  5  2 -1</clus>
<clus scale="   54.651">  1  3  2 -1</clus>
</clustering>
</event>
<event>
 6    0  0.4469832E+002  0.1003825E+03  0.7546771E-02  0.1279494E+00
         21   -1    0    0  504  501  0.00000000000E+00  0.00000000000E+00  0.47337915808E+03  0.47337915808E+03  0.00000000000E+00 0. -1.
         21   -1    0    0  506  502 -0.00000000000E+00 -0.00000000000E+00 -0.12025103808E+03  0.12025103808E+03  0.00000000000E+00 0.  1.
         21    1    1    2  503  505  0.26478382413E+02  0.31299766338E+02  0.42228290815E+02  0.58855829390E+02  0.00000000000E+00 0.  1.
         21    1    1    2  504  502 -0.11586068873E+03 -0.29206169041E+02 -0.51120567779E+02  0.12996157876E+03  0.00000000000E+00 0.  1.
         21    1    1    2  505  501  0.91556875044E+02 -0.42171737179E+02  0.34798751424E+03  0.36229328845E+03  0.00000000000E+00 0. -1.
         21    1    1    2  506  503 -0.21745687275E+01  0.40078139882E+02  0.14032882720E+02  0.42519499562E+02  0.00000000000E+00 0.  1.
<scales pt_clust_3="84.33053" pt_clust_4="14000.00000" pt_clust_5="100.38253" pt_clust_6="37.36619"></scales>
<clustering>
<clus scale="   37.366">  3  6 -1 -1</clus>
<clus scale="   84.331">  2  3  1 -1</clus>
<clus scale="  100.383">  1  5  2 -1</clus>
<clus scale="  100.383">  1  3  2 -1</clus>
</clustering>
</event>
<event>
 6    0  0.4469832E+002  0.1477348E+03  0.7546771E-02  0.1203284E+00
         21   -1    0    0  506  501  0.00000000000E+00  0.00000000000E+00  0.12553056198E+04  0.12553056198E+04  0.00000000000E+00 0. -1.
         21   -1    0    0  504  502 -0.00000000000E+00 -0.00000000000E+00 -0.42507946692E+03  0.42507946692E+03  0.00000000000E+00 0.  1.
         21    1    1    2  503  502  0.11286447726E+03 -0.64873248357E+02 -0.35510322735E+03  0.37821320793E+03  0.00000000000E+00 0.  1.
         21    1    1    2  504  505  0.27497375718E+02  0.13330614594E+02 -0.46370376414E+02  0.55533978478E+02  0.00000000000E+00 0.  1.
         21    1    1    2  505  501 -0.81764745082E+02  0.82108309315E+01  0.10084771936E+04  0.10118197178E+04  0.00000000000E+00 0. -1.
         21    1    1    2  506  503 -0.58597107893E+02  0.43331802831E+02  0.22322256300E+03  0.23481818248E+03  0.00000000000E+00 0. -1.
<scales pt_clust_3="14000.00000" pt_clust_4="30.55832" pt_clust_5="147.73483" pt_clust_6="72.65985"></scales>
<clustering>
<clus scale="   30.558">  2  4  1 -1</clus>
<clus scale="   72.660">  1  6  2 -1</clus>
<clus scale="  147.735">  1  5  2 -1</clus>
<clus scale="   72.660">  1  3  2 -1</clus>
</clustering>
</event>
<event>
 6    0  0.4469832E+002  0.1382878E+03  0.7546771E-02  0.1215652E+00
         21   -1    0    0  505  501  0.00000000000E+00  0.00000000000E+00  0.37827509931E+03  0.37827509931E+03  0.00000000000E+00 0. -1.
         21   -1    0    0  503  502 -0.00000000000E+00 -0.00000000000E+00 -0.20450474222E+03  0.20450474222E+03  0.00000000000E+00 0. -1.
         21    1    1    2  503  506  0.23452503434E+02  0.45608326366E+02 -0.31379605886E+02  0.60123364982E+02  0.00000000000E+00 0. -1.
         21    1    1    2  504  502 -0.14377365311E+03 -0.16542303115E+03 -0.17973427408E+02  0.21990608599E+03  0.00000000000E+00 0. -1.
         21    1    1    2  505  504  0.10261887320E+03  0.75360548784E+02  0.22076018673E+03  0.25484290356E+03  0.00000000000E+00 0. -1.
         21    1    1    2  506  501  0.17702276473E+02  0.44454156004E+02  0.23632036494E+01  0.47907486992E+02  0.00000000000E+00 0. -1.
<scales pt_clust_3="104.06110" pt_clust_4="138.28782" pt_clust_5="14000.00000" pt_clust_6="30.90571"></scales>
<clustering>
<clus scale="   30.906">  3  6 -1 -1</clus>
<clus scale="  104.061">  2  3  1 -1</clus>
<clus scale="  138.288">  2  4  1 -1</clus>
<clus scale="  138.288">  1  3  2 -1</clus>
</clustering>
</event>
<event>
 6    0  0.4469832E+002  0.1196741E+03  0.7546771E-02  0.1243636E+00
         21   -1    0    0  503  501  0.00000000000E+00  0.00000000000E+00  0.71899027039E+02  0.71899027039E+02  0.00000000000E+00 0. -1.
         21   -1    0    0  506  502 -0.00000000000E+00 -0.00000000000E+00 -0.36670035921E+03  0.36670035921E+03  0.00000000000E+00 0. -1.
         21    1    1    2  503  504  0.39093320236E+02 -0.32806815696E+01 -0.76935888922E+01  0.39978017318E+02  0.00000000000E+00 0. -1.
         21    1    1    2  504  502  0.23079699227E+02  0.97512433826E+02 -0.17034461310E+02  0.10164408561E+03  0.00000000000E+00 0. -1.
         21    1    1    2  505  501 -0.63265559044E+01 -0.53571344365E+02 -0.10542767442E+03  0.11842680769E+03  0.00000000000E+00 0. -1.
         21    1    1    2  506  505 -0.55846463559E+02 -0.40660407892E+02 -0.16464560755E+03  0.17855047563E+03  0.00000000000E+00 0. -1.
<scales pt_clust_3="39.23073" pt_clust_4="108.67871" pt_clust_5="45.50427" pt_clust_6="45.50427"></scales>
<clustering>
<clus scale="   39.231">  1  3  2 -1</clus>
<clus scale="   45.504">  5  6 -1 -1</clus>
<clus scale="  108.679">  1  4  2 -1</clus>
<clus scale="   39.231">  1  3  2 -1</clus>
</clustering>
</event>
<event>
 6    0  0.4469832E+002  0.7277636E+02  0.7546771E-02  0.1350899E+00
         21   -1    0    0  504  501  0.00000000000E+00  0.00000000000E+00  0.10881052062E+04  0.10881052062E+04  0.00000000000E+00 0.  1.
         21   -1    0    0  506  502 -0.00000000000E+00 -0.00000000000E+00 -0.54316655503E+03  0.54316655503E+03  0.00000000000E+00 0.  1.
         21    1    1    2  503  505 -0.51128258840E+02 -0.23991606511E+01  0.20948885979E+03  0.21565119337E+03  0.00000000000E+00 0.  1.
         21    1    1    2  504  502  0.10975036027E+03 -0.15146165431E+02 -0.52116245599E+02  0.12243631390E+03  0.00000000000E+00 0. -1.
         21    1    1    2  505  501 -0.76427993763E+01 -0.32300951664E+02  0.83723757825E+03  0.83789529555E+03  0.00000000000E+00 0.  1.
         21    1    1    2  506  503 -0.50979302051E+02  0.49846277746E+02 -0.44967154127E+03  0.45528895843E+03  0.00000000000E+00 0.  1.
<scales pt_clust_3="64.86579" pt_clust_4="72.77636" pt_clust_5="33.19283" pt_clust_6="14000.00000"></scales>
<clustering>
<clus scale="   33.193">  1  5  2 -1</clus>
<clus scale="   64.866">  1  3  2 -1</clus>
<clus scale="   72.776">  1  4  2 -1</clus>
<clus scale="   33.193">  1  3  2 -1</clus>
</clustering>
</event>
<event>
 6    0  0.4469832E+002  0.7293461E+02  0.7546771E-02  0.1350389E+00
         21   -1    0    0  505  501  0.00000000000E+00  0.00000000000E+00  0.10800141204E+04  0.10800141204E+04  0.00000000000E+00 0.  1.
         21   -1    0    0  503  502 -0.00000000000E+00 -0.00000000000E+00 -0.37835243359E+02  0.37835243359E+02  0.00000000000E+00 0.  1.
         21    1    1    2  503  506 -0.11949158221E+02  0.50135881870E+02  0.33427321635E+03  0.33822325793E+03  0.00000000000E+00 0.  1.
         21    1    1    2  504  502  0.51413761619E+02  0.49081831839E+02  0.21819505212E+02  0.74353829143E+02  0.00000000000E+00 0.  1.
         21    1    1    2  505  504 -0.10790358337E+02 -0.12232972454E+03  0.58330271763E+03  0.59608980342E+03  0.00000000000E+00 0.  1.
         21    1    1    2  506  501 -0.28674245060E+02  0.23112010834E+02  0.10278343784E+03  0.10918247326E+03  0.00000000000E+00 0.  1.
<scales pt_clust_3="62.08558" pt_clust_4="72.93461" pt_clust_5="14000.00000" pt_clust_6="36.82903"></scales>
<clustering>
<clus scale="   36.829">  1  6  2 -1</clus>
<clus scale="   62.086">  1  3  2 -1</clus>
<clus scale="   72.935">  2  4  1 -1</clus>
<clus scale="   36.829">  1  3  2 -1</clus>
</clustering>
</event>
<event>
 6    0  0.4469832E+002  0.9770461E+02  0.7546771E-02  0.1285198E+00
         21   -1    0    0  506  501  0.00000000000E+00  0.00000000000E+00  0.29833929600E+03  0.29833929600E+03  0.00000000000E+00 0.  1.
         21   -1    0    0  505  502 -0.00000000000E+00 -0.00000000000E+00 -0.33938334997E+03  0.33938334997E+03  0.00000000000E+00 0.  1.
         21    1    1    2  503  501  0.17307377963E+02 -0.92166537664E+02  0.14628651301E+03  0.17376409262E+03  0.00000000000E+00 0.  1.
         21    1    1    2  504  502 -0.10760423669E+02  0.30252055766E+02 -0.24501263717E+02  0.40389175770E+02  0.00000000000E+00 0.  1.
         21    1    1    2  505  503 -0.65766846444E+02 -0.47809235838E+02 -0.25555953108E+03  0.26818216765E+03  0.00000000000E+00 0.  1.
         21    1    1    2  506  504  0.59219892150E+02  0.10972371774E+03  0.92730227813E+02  0.15538720993E+03  0.00000000000E+00 0.  1.
<scales pt_clust_3="14000.00000" pt_clust_4="32.10878" pt_clust_5="78.10929" pt_clust_6="97.70461"></scales>
<clustering>
<clus scale="   32.109">  2  4  1 -1</clus>
<clus scale="   78.109">  2  5  1 -1</clus>
<clus scale="   97.705">  2  6  1 -1</clus>
<clus scale="   97.705">  1  3  2 -1</clus>
</clustering>
</event>
<event>
 6    0  0.4469832E+002  0.1159581E+03  0.7546771E-02  0.1249918E+00
         21   -1    0    0  505  501  0.00000000000E+00  0.00000000000E+00  0.11827946413E+03  0.11827946413E+03  0.00000000000E+00 0.  1.
         21   -1    0    0  503  502 -0.00000000000E+00 -0.00000000000E+00 -0.19249515565E+03  0.19249515565E+03  0.00000000000E+00 0.  1.
         21    1    1    2  503  501  0.35153944970E+02 -0.14036668004E+02 -0.52023336803E+02  0.64337045842E+02  0.00000000000E+00 0. -1.
         21    1    1    2  504  506  0.19723598185E+02  0.27638798125E+02  0.59802886287E+00  0.33959993016E+02  0.00000000000E+00 0.  1.
         21    1    1    2  505  504 -0.77024039956E+02 -0.79691498321E+02  0.40824660270E+02  0.11811050132E+03  0.00000000000E+00 0.  1.
         21    1    1    2  506  502  0.22146496801E+02  0.66089368200E+02 -0.63615043843E+02  0.94367079603E+02  0.00000000000E+00 0.  1.
<scales pt_clust_3="37.85271" pt_clust_4="30.88906" pt_clust_5="107.18050" pt_clust_6="30.88906"></scales>
<clustering>
<clus scale="   30.889">  4  6 -1 -1</clus>
<clus scale="   37.853">  2  3  1 -1</clus>
<clus scale="  107.181">  1  5  2 -1</clus>
<clus scale="  107.181">  1  3  2 -1</clus>
</clustering>
</event>
<event>
 6    0  0.4469832E+002  0.1181808E+03  0.7546771E-02  0.1246129E+00
         21   -1    0    0  504  501  0.00000000000E+00  0.00000000000E+00  0.11494261948E+03  0.11494261948E+03  0.00000000000E+00 0. -1.
         21   -1    0    0  506  502 -0.00000000000E+00 -0.00000000000E+00 -0.44083400095E+03  0.44083400095E+03  0.00000000000E+00 0. -1.
         21    1    1    2  503  502  0.52930918412E+02  0.54472686458E+02 -0.25938995319E+03  0.27028152640E+03  0.00000000000E+00 0. -1.
         21    1    1    2  504  503 -0.49043862028E+02 -0.14788694801E+03 -0.29417756206E+02  0.15855993874E+03  0.00000000000E+00 0. -1.
         21    1    1    2  505  501 -0.20306879440E+02  0.43157226467E+02  0.17629814364E+02  0.50850033466E+02  0.00000000000E+00 0. -1.
         21    1    1    2  506  505  0.16419823056E+02  0.50257035085E+02 -0.54713486442E+02  0.76085121826E+02  0.00000000000E+00 0. -1.
<scales pt_clust_3="118.18084" pt_clust_4="14000.00000" pt_clust_5="47.69607" pt_clust_6="57.63112"></scales>
<clustering>
<clus scale="   47.696">  1  5  2 -1</clus>
<clus scale="   57.631">  2  6  1 -1</clus>
<clus scale="  118.181">  2  3  1 -1</clus>
<clus scale="   47.696">  1  3  2 -1</clus>
</clustering>
</event>
<event>
 6    0  0.4469832E+002  0.9651879E+02  0.7546771E-02  0.1287792E+00
         21   -1    0    0  506  501  0.00000000000E+00  0.00000000000E+00  0.97964586202E+03  0.97964586202E+03  0.00000000000E+00 0.  1.
         21   -1    0    0  504  502 -0.00000000000E+00 -0.00000000000E+00 -0.73325722390E+02  0.73325722390E+02  0.00000000000E+00 0.  1.
         21    1    1    2  503  505  0.40904521492E+02  0.16789690226E+02  0.36261983545E+03  0.36530565098E+03  0.00000000000E+00 0.  1.
         21    1    1    2  504  503 -0.11864890772E+03  0.21134030288E+02  0.14400145275E+03  0.18777813753E+03  0.00000000000E+00 0.  1.
         21    1    1    2  505  501 -0.13107716731E+02 -0.39896763782E+02  0.40659036236E+03  0.40875333242E+03  0.00000000000E+00 0.  1.
         21    1    1    2  506  502  0.90852102958E+02  0.19730432675E+01 -0.68915109309E+01  0.91134463484E+02  0.00000000000E+00 0.  1.
<scales pt_clust_3="33.67962" pt_clust_4="96.51879" pt_clust_5="41.99481" pt_clust_6="14000.00000"></scales>
<clustering>
<clus scale="   41.995">  1  5  2 -1</clus>
<clus scale="   33.680">  1  3  2 -1</clus>
<clus scale="   96.519">  1  4  2 -1</clus>
<clus scale="   41.995">  1  3  2 -1</clus>
</clustering>
</event>
<event>
 6    0  0.4469832E+002  0.9503154E+02  0.7546771E-02  0.1291105E+00
         21   -1    0    0  504  501  0.00000000000E+00  0.00000000000E+00  0.10360780148E+03  0.10360780148E+03  0.00000000000E+00 0.  1.
         21   -1    0    0  506  502 -0.00000000000E+00 -0.00000000000E+00 -0.56039096623E+03  0.56039096623E+03  0.00000000000E+00 0.  1.
         21    1    1    2  503  502  0.33574304937E+02  0.10379826330E+02 -0.14087246928E+03  0.14518962549E+03  0.00000000000E+00 0.  1.
         21    1    1    2  504  503 -0.65318829999E+01 -0.11722430424E+03 -0.51943196840E+02  0.12838340508E+03  0.00000000000E+00 0.  1.
         21    1    1    2  505  501 -0.27625214208E+02  0.27504649600E+02  0.51807359370E+02  0.64835643704E+02  0.00000000000E+00 0.  1.
         21    1    1    2  506  505  0.58279227086E+00  0.79339828314E+02 -0.31577485799E+03  0.32559009344E+03  0.00000000000E+00 0.  1.
<scales pt_clust_3="35.14221" pt_clust_4="14000.00000" pt_clust_5="38.72878" pt_clust_6="95.03154"></scales>
<clustering>
<clus scale="   35.142">  2  3  1 -1</clus>
<clus scale="   38.729">  1  5  2 -1</clus>
<clus scale="   95.032">  2  6  1 -1</clus>
<clus scale="   38.729">  1  3  2 -1</clus>
</clustering>
</event>
<event>
 6    0  0.4469832E+002  0.1940063E+03  0.7546771E-02  0.1154897E+00
         21   -1    0    0  504  501  0.00000000000E+00  0.00000000000E+00  0.12911039292E+04  0.12911039292E+04  0.00000000000E+00 0.  1.
         21   -1    0    0  506  502 -0.00000000000E+00 -0.00000000000E+00 -0.15931606128E+03  0.15931606128E+03  0.00000000000E+00 0.  1.
         21    1    1    2  503  505 -0.28363206613E+02 -0.93564681747E+02  0.32633102981E+02  0.10307153133E+03  0.00000000000E+00 0.  1.
         21    1    1    2  504  502 -0.74552397883E+01  0.30326953935E+03  0.21278345274E+03  0.37054661227E+03  0.00000000000E+00 0.  1.
         21    1    1    2  505  501  0.47440277387E+02 -0.17606617564E+03  0.91383355429E+03  0.93184850865E+03  0.00000000000E+00 0.  1.
         21    1    1    2  506  503 -0.11621830985E+02 -0.33638681969E+02 -0.27462242082E+02  0.44953338254E+02  0.00000000000E+00 0.  1.
<scales pt_clust_3="107.94408" pt_clust_4="14000.00000" pt_clust_5="194.00631" pt_clust_6="35.58972"></scales>
<clustering>
<clus scale="   35.590">  2  6  1 -1</clus>
<clus scale="  107.944">  2  3  1 -1</clus>
<clus scale="  194.006">  1  5  2 -1</clus>
<clus scale="  194.006">  1  3  2 -1</clus>
</clustering>
</event>
<event>
 6    0  0.4469832E+002  0.1286954E+03  0.7546771E-02  0.1229404E+00
         21   -1    0    0  505  501  0.00000000000E+00  0.00000000000E+00  0.13024929538E+04  0.13024929538E+04  0.00000000000E+00 0. -1.
         21   -1    0    0  503  502 -0.00000000000E+00 -0.00000000000E+00 -0.42719371163E+02  0.42719371163E+02  0.00000000000E+00 0. -1.
         21    1    1    2  503  504 -0.14096914852E+03  0.13510613690E+02  0.44869920498E+03  0.47051653963E+03  0.00000000000E+00 0. -1.
         21    1    1    2  504  501 -0.38524239452E+01 -0.79950455433E+02  0.38798729147E+03  0.39615786605E+03  0.00000000000E+00 0. -1.
         21    1    1    2  505  506  0.83181702328E+02  0.11447274394E+03  0.22749162193E+03  0.26790976607E+03  0.00000000000E+00 0. -1.
         21    1    1    2  506  502  0.61639870141E+02 -0.48032902199E+02  0.19559546426E+03  0.21062815321E+03  0.00000000000E+00 0. -1.
<scales pt_clust_3="14000.00000" pt_clust_4="85.58832" pt_clust_5="128.69540" pt_clust_6="78.14495"></scales>
<clustering>
<clus scale="   78.145">  2  6  1 -1</clus>
<clus scale="   85.588">  1  4  2 -1</clus>
<clus scale="  128.695">  2  5  1 -1</clus>
<clus scale="   85.588">  1  3  2 -1</clus>
</clustering>
</event>
<event>
 6    0  0.4469832E+002  0.1110520E+03  0.7546771E-02  0.1258634E+00
         21   -1    0    0  506  501  0.00000000000E+00  0.00000000000E+00  0.40861304353E+02  0.40861304353E+02  0.00000000000E+00 0. -1.
         21   -1    0    0  505  502 -0.00000000000E+00 -0.00000000000E+00 -0.84451539838E+03  0.84451539838E+03  0.00000000000E+00 0. -1.
         21    1    1    2  503  502  0.31919661400E+02  0.17530406364E+02 -0.12029900834E+03  0.12569021974E+03  0.00000000000E+00 0. -1.
         21    1    1    2  504  503  0.15576911636E+02  0.88910789271E+02 -0.14859262522E+03  0.17386068243E+03  0.00000000000E+00 0. -1.
         21    1    1    2  505  501 -0.87864115862E+02 -0.11687110008E+03 -0.52219596115E+03  0.54227998187E+03  0.00000000000E+00 0. -1.
         21    1    1    2  506  504  0.40367542826E+02  0.10429904445E+02 -0.12566499312E+02  0.43545818691E+02  0.00000000000E+00 0. -1.
<scales pt_clust_3="36.41675" pt_clust_4="14000.00000" pt_clust_5="111.05199" pt_clust_6="43.06685"></scales>
<clustering>
<clus scale="   36.417">  2  3  1 -1</clus>
<clus scale="   43.067">  1  6  2 -1</clus>
<clus scale="  111.052">  2  5  1 -1</clus>
<clus scale="   43.067">  1  3  2 -1</clus>
</clustering>
</event>
<event>
 6    0  0.4469832E+002  0.1288380E+03  0.7546771E-02  0.1229190E+00
         21   -1    0    0  503  501  0.00000000000E+00  0.00000000000E+00  0.24285358096E+03  0.24285358096E+03  0.00000000000E+00 0. -1.
         21   -1    0    0  504  502 -0.00000000000E+00 -0.00000000000E+00 -0.15533477887E+03  0.15533477887E+03  0.00000000000E+00 0. -1.
         21    1    1    2  503  506 -0.34045146335E+02 -0.32674687474E+02  0.52465630095E+02  0.70564506176E+02  0.00000000000E+00 0. -1.
         21    1    1    2  504  505  0.15815223753E+03  0.44479358486E+02  0.25638130499E+02  0.16627644843E+03  0.00000000000E+00 0. -1.
         21    1    1    2  505  501 -0.21715070330E+02  0.32920225375E+02  0.27610560780E+02  0.48141755107E+02  0.00000000000E+00 0.  1.
         21    1    1    2  506  502 -0.10239202087E+03 -0.44724896387E+02 -0.18195519283E+02  0.11320565011E+03  0.00000000000E+00 0. -1.
<scales pt_clust_3="46.52839" pt_clust_4="128.83802" pt_clust_5="39.43711" pt_clust_6="14000.00000"></scales>
<clustering>
<clus scale="   39.437">  1  5  2 -1</clus>
<clus scale="   46.528">  1  3  2 -1</clus>
<clus scale="  128.838">  1  4  2 -1</clus>
<clus scale="   39.437">  1  3  2 -1</clus>
</clustering>
</event>
<event>
 6    0  0.4469832E+002  0.8957442E+02  0.7546771E-02  0.1303886E+00
         21   -1    0    0  504  501  0.00000000000E+00  0.00000000000E+00  0.33437529241E+04  0.33437529241E+04  0.00000000000E+00 0. -1.
         21   -1    0    0  506  502 -0.00000000000E+00 -0.00000000000E+00 -0.33729749979E+03  0.33729749979E+03  0.00000000000E+00 0. -1.
         21    1    1    2  503  505  0.45124855475E+02  0.12363464478E+03  0.58150756798E+03  0.59621542213E+03  0.00000000000E+00 0. -1.
         21    1    1    2  504  503 -0.20660423627E+02 -0.38375645823E+02  0.27350629630E+04  0.27354101987E+04  0.00000000000E+00 0. -1.
         21    1    1    2  505  502 -0.13189360215E+02 -0.32946231860E+02 -0.78191972409E+00  0.35496828240E+02  0.00000000000E+00 0.  1.
         21    1    1    2  506  501 -0.11275071632E+02 -0.52312767097E+02 -0.30933318696E+03  0.31392797486E+03  0.00000000000E+00 0. -1.
<scales pt_clust_3="14000.00000" pt_clust_4="43.60293" pt_clust_5="35.48822" pt_clust_6="89.57442"></scales>
<clustering>
<clus scale="   35.488">  2  5  1 -1</clus>
<clus scale="   43.603">  1  4  2 -1</clus>
<clus scale="   89.574">  2  6  1 -1</clus>
<clus scale="   43.603">  1  3  2 -1</clus>
</clustering>
</event>
<event>
 6    0  0.4469832E+002  0.1429898E+03  0.7546771E-02  0.1209362E+00
         21   -1    0    0  506  501  0.00000000000E+00  0.00000000000E+00  0.24384086241E+04  0.24384086241E+04  0.00000000000E+00 0.  1.
         21   -1    0    0  505  502 -0.00000000000E+00 -0.00000000000E+00 -0.89942373228E+02  0.89942373228E+02  0.00000000000E+00 0. -1.
         21    1    1    2  503  501 -0.25713023394E+01  0.45564125889E+02  0.16593704382E+04  0.16599978772E+04  0.00000000000E+00 0.  1.
         21    1    1    2  504  502 -0.95262061759E+02  0.11077065298E+03 -0.35324030513E+01  0.14614197153E+03  0.00000000000E+00 0. -1.
         21    1    1    2  505  503  0.51220624896E+02 -0.11060366081E+03  0.57399252506E+03  0.58679139481E+03  0.00000000000E+00 0.  1.
         21    1    1    2  506  504  0.46612739202E+02 -0.45731118056E+02  0.11863569069E+03  0.13541975380E+03  0.00000000000E+00 0.  1.
<scales pt_clust_3="45.63662" pt_clust_4="142.98980" pt_clust_5="14000.00000" pt_clust_6="60.00501"></scales>
<clustering>
<clus scale="   45.637">  1  3  2 -1</clus>
<clus scale="   60.005">  1  6  2 -1</clus>
<clus scale="  142.990">  2  4  1 -1</clus>
<clus scale="   45.637">  1  3  2 -1</clus>
</clustering>
</event>
<event>
 6    0  0.4469832E+002  0.9924169E+02  0.7546771E-02  0.1281899E+00
         21   -1    0    0  502  501  0.00000000000E+00  0.00000000000E+00  0.30090524536E+02  0.30090524536E+02  0.00000000000E+00 0.  1.
         21   -1    0    0  503  502 -0.00000000000E+00 -0.00000000000E+00 -0.11368008334E+04  0.11368008334E+04  0.00000000000E+00 0.  1.
         21    1    1    2  503  505  0.18546027774E+02 -0.32510056740E+02 -0.46619678007E+03  0.46769679995E+03  0.00000000000E+00 0.  1.
         21    1    1    2  504  501 -0.33347400652E+02 -0.38239728818E+02 -0.51303671946E+02  0.72155337609E+02  0.00000000000E+00 0.  1.
         21    1    1    2  505  506  0.33477980153E+02 -0.64989306489E+02 -0.26875842954E+03  0.27852374865E+03  0.00000000000E+00 0.  1.
         21    1    1    2  506  504 -0.18676607275E+02  0.13573909205E+03 -0.32045142730E+03  0.34851547172E+03  0.00000000000E+00 0.  1.
<scales pt_clust_3="37.42805" pt_clust_4="51.97463" pt_clust_5="99.24169" pt_clust_6="14000.00000"></scales>
<clustering>
<clus scale="   37.428">  2  3  1 -1</clus>
<clus scale="   51.975">  1  4  2 -1</clus>
<clus scale="   99.242">  2  5  1 -1</clus>
<clus scale="   51.975">  1  3  2 -1</clus>
</clustering>
</event>
<event>
 6    0  0.4469832E+002  0.6418644E+02  0.7546771E-02  0.1381058E+00
         21   -1    0    0  506  501  0.00000000000E+00  0.00000000000E+00  0.84689123575E+02  0.84689123575E+02  0.00000000000E+00 0. -1.
         21   -1    0    0  504  502 -0.00000000000E+00 -0.00000000000E+00 -0.17122377828E+04  0.17122377828E+04  0.00000000000E+00 0.  1.
         21    1    1    2  503  501 -0.41863791763E+02  0.19486199062E+02  0.49747293701E+02  0.67875490755E+02  0.00000000000E+00 0. -1.
         21    1    1    2  504  503  0.27653210147E+02  0.83721212499E+02 -0.11517590877E+04  0.11551289701E+04  0.00000000000E+00 0.  1.
         21    1    1    2  505  502 -0.22882296629E+02 -0.42213032139E+02 -0.49323526516E+03  0.49556691413E+03  0.00000000000E+00 0.  1.
         21    1    1    2  506  505  0.37092878245E+02 -0.60994379422E+02 -0.32301600108E+02  0.78355531439E+02  0.00000000000E+00 0.  1.
<scales pt_clust_3="46.17672" pt_clust_4="14000.00000" pt_clust_5="64.18644" pt_clust_6="43.65513"></scales>
<clustering>
<clus scale="   46.177">  1  3  2 -1</clus>
<clus scale="   43.655">  1  6  2 -1</clus>
<clus scale="   64.186">  2  5  1 -1</clus>
<clus scale="   46.177">  1  3  2 -1</clus>
</clustering>
</event>
<event>
 6    0  0.4469832E+002  0.7529761E+02  0.7546771E-02  0.1342952E+00
         21   -1    0    0  504  501  0.00000000000E+00  0.00000000000E+00  0.77281579102E+02  0.77281579102E+02  0.00000000000E+00 0.  1.
         21   -1    0    0  503  502 -0.00000000000E+00 -0.00000000000E+00 -0.87991905960E+03  0.87991905960E+03  0.00000000000E+00 0.  1.
         21    1    1    2  503  506 -0.48730946120E+02 -0.11802502019E+02 -0.59545647089E+03  0.59756373124E+03  0.00000000000E+00 0.  1.
         21    1    1    2  504  502 -0.47218266671E+02 -0.11201715048E+02 -0.27936377711E+02  0.55995395588E+02  0.00000000000E+00 0.  1.
         21    1    1    2  505  501  0.98442899076E+02  0.76825841088E+02 -0.91388568002E+01  0.12520676076E+03  0.00000000000E+00 0.  1.
         21    1    1    2  506  505 -0.24936862855E+01 -0.53821624021E+02 -0.17010577510E+03  0.17843475111E+03  0.00000000000E+00 0.  1.
<scales pt_clust_3="50.94821" pt_clust_4="48.52879" pt_clust_5="75.29761" pt_clust_6="14000.00000"></scales>
<clustering>
<clus scale="   48.529">  1  4  2 -1</clus>
<clus scale="   50.948">  2  3  1 -1</clus>
<clus scale="   75.298">  1  5  2 -1</clus>
<clus scale="   48.529">  1  3  2 -1</clus>
</clustering>
</event>
<event>
 6    0  0.4469832E+002  0.1470494E+03  0.7546771E-02  0.1204146E+00
         21   -1    0    0  504  501  0.00000000000E+00  0.00000000000E+00  0.21559938351E+04  0.21559938351E+04  0.00000000000E+00 0.  1.
         21   -1    0    0  506  502 -0.00000000000E+00 -0.00000000000E+00 -0.21859883395E+03  0.21859883395E+03  0.00000000000E+00 0. -1.
         21    1    1    2  503  501 -0.10978875294E+02 -0.42652681286E+02  0.15440325475E+04  0.15446605759E+04  0.00000000000E+00 0.  1.
         21    1    1    2  504  505 -0.19769414101E+00  0.18851343232E+03  0.56146614160E+03  0.59226816680E+03  0.00000000000E+00 0.  1.
         21    1    1    2  505  502 -0.65616186972E+01 -0.11763124363E+03 -0.16691147030E+03  0.20430272450E+03  0.00000000000E+00 0. -1.
         21    1    1    2  506  503  0.17738188133E+02 -0.28229507404E+02 -0.11922176652E+01  0.33361201859E+02  0.00000000000E+00 0.  1.
<scales pt_clust_3="44.07877" pt_clust_4="14000.00000" pt_clust_5="147.04939" pt_clust_6="33.33989"></scales>
<clustering>
<clus scale="   33.340">  2  6  1 -1</clus>
<clus scale="   44.079">  1  3  2 -1</clus>
<clus scale="  147.049">  2  5  1 -1</clus>
<clus scale="   44.079">  1  3  2 -1</clus>
</clustering>
</event>
<event>
 6    0  0.4469832E+002  0.6563402E+02  0.7546771E-02  0.1375602E+00
         21   -1    0    0  506  501  0.00000000000E+00  0.00000000000E+00  0.13498321243E+03  0.13498321243E+03  0.00000000000E+00 0. -1.
         21   -1    0    0  505  502 -0.00000000000E+00 -0.00000000000E+00 -0.27915254204E+03  0.27915254204E+03  0.00000000000E+00 0. -1.
         21    1    1    2  503  502  0.71513493331E+02 -0.56722693026E+02 -0.15896484419E+03  0.18330702475E+03  0.00000000000E+00 0. -1.
         21    1    1    2  504  501  0.54592026304E+01  0.60020701015E+02  0.91864022099E+01  0.60964558797E+02  0.00000000000E+00 0. -1.
         21    1    1    2  505  504 -0.11658289951E+02  0.46303208571E+02 -0.51267025054E+02  0.70058623356E+02  0.00000000000E+00 0. -1.
         21    1    1    2  506  503 -0.65314406011E+02 -0.49601216561E+02  0.56876137423E+02  0.99805547566E+02  0.00000000000E+00 0. -1.
<scales pt_clust_3="14000.00000" pt_clust_4="65.63402" pt_clust_5="47.74833" pt_clust_6="63.76232"></scales>
<clustering>
<clus scale="   47.748">  2  5  1 -1</clus>
<clus scale="   65.634">  1  4  2 -1</clus>
<clus scale="   63.762">  1  6  2 -1</clus>
<clus scale="   65.634">  1  3  2 -1</clus>
</clustering>
</event>
<event>
 6    0  0.4469832E+002  0.9463397E+02  0.7546771E-02  0.1292003E+00
         21   -1    0    0  504  501  0.00000000000E+00  0.00000000000E+00  0.10295003152E+04  0.10295003152E+04  0.00000000000E+00 0.  1.
         21   -1    0    0  503  502 -0.00000000000E+00 -0.00000000000E+00 -0.61832813146E+02  0.61832813146E+02  0.00000000000E+00 0. -1.
         21    1    1    2  503  506  0.33904280285E+02 -0.72121071292E+01 -0.35175814382E+01  0.34840896803E+02  0.00000000000E+00 0. -1.
         21    1    1    2  504  502 -0.93764604085E+02 -0.29648405699E+02  0.33913727672E+02  0.10402389083E+03  0.00000000000E+00 0. -1.
         21    1    1    2  505  501  0.56960366076E+02  0.76869668072E+02  0.86092776904E+03  0.86622748322E+03  0.00000000000E+00 0.  1.
         21    1    1    2  506  505  0.28999577240E+01 -0.40009155244E+02  0.76343586756E+02  0.86240857469E+02  0.00000000000E+00 0. -1.
<scales pt_clust_3="34.66287" pt_clust_4="94.63397" pt_clust_5="14000.00000" pt_clust_6="41.41358"></scales>
<clustering>
<clus scale="   34.663">  2  3  1 -1</clus>
<clus scale="   41.414">  2  6  1 -1</clus>
<clus scale="   94.634">  2  4  1 -1</clus>
<clus scale="   94.634">  1  3  2 -1</clus>
</clustering>
</event>
<event>
 6    0  0.4469832E+002  0.1475330E+03  0.7546771E-02  0.1203538E+00
         21   -1    0    0  504  501  0.00000000000E+00  0.00000000000E+00  0.65781599147E+03  0.65781599147E+03  0.00000000000E+00 0. -1.
         21   -1    0    0  506  502 -0.00000000000E+00 -0.00000000000E+00 -0.43746308763E+03  0.43746308763E+03  0.00000000000E+00 0.  1.
         21    1    1    2  503  501 -0.17729448029E+02 -0.92461887427E+02  0.59133105951E+03  0.59877872031E+03  0.00000000000E+00 0. -1.
         21    1    1    2  504  502  0.11829708282E+02 -0.47961844116E+02  0.37400777695E+02  0.61960460467E+02  0.00000000000E+00 0.  1.
         21    1    1    2  505  503  0.22917971769E+01  0.94560066716E+02 -0.20134362296E+03  0.22245474385E+03  0.00000000000E+00 0.  1.
         21    1    1    2  506  505  0.36079425703E+01  0.45863664827E+02 -0.20703531040E+03  0.21208515448E+03  0.00000000000E+00 0.  1.
<scales pt_clust_3="139.52790" pt_clust_4="49.39920" pt_clust_5="33.43149" pt_clust_6="33.43149"></scales>
<clustering>
<clus scale="   33.431">  5  6 -1 -1</clus>
<clus scale="   49.399">  1  4  2 -1</clus>
<clus scale="  139.528">  1  3  2 -1</clus>
<clus scale="   49.399">  1  3  2 -1</clus>
</clustering>
</event>
<event>
 6    0  0.4469832E+002  0.1151917E+03  0.7546771E-02  0.1251247E+00
         21   -1    0    0  503  501  0.00000000000E+00  0.00000000000E+00  0.17628391732E+03  0.17628391732E+03  0.00000000000E+00 0.  1.
         21   -1    0    0  506  502 -0.00000000000E+00 -0.00000000000E+00 -0.11114802115E+04  0.11114802115E+04  0.00000000000E+00 0. -1.
         21    1    1    2  503  505  0.34451367833E+01  0.36683810989E+02  0.15077001779E+03  0.15520685945E+03  0.00000000000E+00 0.  1.
         21    1    1    2  504  502  0.30066813043E+02 -0.69416185468E+02 -0.31753149436E+03  0.32641824392E+03  0.00000000000E+00 0. -1.
         21    1    1    2  505  504 -0.11727821099E+03  0.49616149939E+02 -0.24848700333E+03  0.27921628164E+03  0.00000000000E+00 0. -1.
         21    1    1    2  506  501  0.83766261169E+02 -0.16883775459E+02 -0.51994781433E+03  0.52692274387E+03  0.00000000000E+00 0. -1.
<scales pt_clust_3="36.84523" pt_clust_4="69.57088" pt_clust_5="14000.00000" pt_clust_6="115.19172"></scales>
<clustering>
<clus scale="   36.845">  1  3  2 -1</clus>
<clus scale="   69.571">  2  4  1 -1</clus>
<clus scale="  115.192">  2  6  1 -1</clus>
<clus scale="   36.845">  1  3  2 -1</clus>
</clustering>
</event>
<event>
 6    0  0.4469832E+002  0.1226978E+03  0.7546771E-02  0.1238712E+00
         21   -1    0    0  504  501  0.00000000000E+00  0.00000000000E+00  0.13673913440E+04  0.13673913440E+04  0.00000000000E+00 0. -1.
         21   -1    0    0  505  502 -0.00000000000E+00 -0.00000000000E+00 -0.44561374121E+03  0.44561374121E+03  0.00000000000E+00 0.  1.
         21    1    1    2  503  501 -0.16654592517E+02 -0.45024041699E+02  0.12976054900E+04  0.12984931835E+04  0.00000000000E+00 0. -1.
         21    1    1    2  504  506  0.10968235000E+02  0.16388950688E+03 -0.12266811484E+03  0.20500619269E+03  0.00000000000E+00 0.  1.
         21    1    1    2  505  503  0.16463877025E+02 -0.36496293077E+02  0.30609814729E+01  0.40154803731E+02  0.00000000000E+00 0.  1.
         21    1    1    2  506  502 -0.10777519509E+02 -0.82369172099E+02 -0.25622075391E+03  0.26935090528E+03  0.00000000000E+00 0.  1.
<scales pt_clust_3="48.03527" pt_clust_4="14000.00000" pt_clust_5="40.03797" pt_clust_6="122.69777"></scales>
<clustering>
<clus scale="   40.038">  2  5  1 -1</clus>
<clus scale="   48.035">  1  3  2 -1</clus>
<clus scale="  122.698">  2  6  1 -1</clus>
<clus scale="   48.035">  1  3  2 -1</clus>
</clustering>
</event>
<event>
 6    0  0.4469832E+002  0.7491745E+02  0.7546771E-02  0.1344127E+00
         21   -1    0    0  503  501  0.00000000000E+00  0.00000000000E+00  0.52991603924E+03  0.52991603924E+03  0.00000000000E+00 0. -1.
         21   -1    0    0  506  502 -0.00000000000E+00 -0.00000000000E+00 -0.15172614159E+03  0.15172614159E+03  0.00000000000E+00 0.  1.
         21    1    1    2  503  505 -0.33594169978E+02 -0.10437207680E+02  0.38885303400E+02  0.52436345994E+02  0.00000000000E+00 0.  1.
         21    1    1    2  504  501 -0.36012853421E+02  0.31769775911E+02  0.41206814270E+03  0.41485708202E+03  0.00000000000E+00 0. -1.
         21    1    1    2  505  502  0.13398345865E+03 -0.20081107206E+02 -0.35905819692E+02  0.14015721867E+03  0.00000000000E+00 0.  1.
         21    1    1    2  506  504 -0.64376435252E+02 -0.12514610246E+01 -0.36857728760E+02  0.74191534152E+02  0.00000000000E+00 0.  1.
<scales pt_clust_3="35.17817" pt_clust_4="74.91745" pt_clust_5="14000.00000" pt_clust_6="65.69223"></scales>
<clustering>
<clus scale="   35.178">  1  3  2 -1</clus>
<clus scale="   65.692">  2  6  1 -1</clus>
<clus scale="   74.917">  1  4  2 -1</clus>
<clus scale="   35.178">  1  3  2 -1</clus>
</clustering>
</event>
<event>
 6    0  0.4469832E+002  0.1785128E+03  0.7546771E-02  0.1169250E+00
         21   -1    0    0  505  501  0.00000000000E+00  0.00000000000E+00  0.52716777847E+03  0.52716777847E+03  0.00000000000E+00 0.  1.
         21   -1    0    0  506  502 -0.00000000000E+00 -0.00000000000E+00 -0.19021090753E+03  0.19021090753E+03  0.00000000000E+00 0.  1.
         21    1    1    2  503  504 -0.81158215826E+02  0.10193648619E+03  0.31876345148E+02  0.13414098775E+03  0.00000000000E+00 0.  1.
         21    1    1    2  504  502 -0.89586453507E+02  0.17514522145E+02 -0.55834475090E+02  0.10700457816E+03  0.00000000000E+00 0.  1.
         21    1    1    2  505  503  0.20380158802E+03 -0.12346897481E+03  0.19759745193E+03  0.30955520998E+03  0.00000000000E+00 0.  1.
         21    1    1    2  506  501 -0.33056918683E+02  0.40179664661E+01  0.16331754895E+03  0.16667791012E+03  0.00000000000E+00 0.  1.
<scales pt_clust_3="178.51284" pt_clust_4="93.62897" pt_clust_5="14000.00000" pt_clust_6="33.30021"></scales>
<clustering>
<clus scale="   33.300">  1  6  2 -1</clus>
<clus scale="   93.629">  2  4  1 -1</clus>
<clus scale="  178.513">  2  3  1 -1</clus>
<clus scale="   33.300">  1  3  2 -1</clus>
</clustering>
</event>
<event>
 6    0  0.4469832E+002  0.8152140E+02  0.7546771E-02  0.1324789E+00
         21   -1    0    0  505  501  0.00000000000E+00  0.00000000000E+00  0.30010053133E+03  0.30010053133E+03  0.00000000000E+00 0. -1.
         21   -1    0    0  506  502 -0.00000000000E+00 -0.00000000000E+00 -0.13244968494E+03  0.13244968494E+03  0.00000000000E+00 0. -1.
         21    1    1    2  503  501  0.69464139532E+02 -0.71217137555E+02  0.21994882106E+03  0.24140139032E+03  0.00000000000E+00 0. -1.
         21    1    1    2  504  502 -0.72505416308E+02 -0.72139650252E+01 -0.38322735681E+02  0.82326841039E+02  0.00000000000E+00 0. -1.
         21    1    1    2  505  504  0.11340760064E+02  0.41515757414E+02  0.28745978430E+02  0.51754248409E+02  0.00000000000E+00 0.  1.
         21    1    1    2  506  503 -0.82994832881E+01  0.36915345166E+02 -0.42721217418E+02  0.57067736500E+02  0.00000000000E+00 0. -1.
<scales pt_clust_3="14000.00000" pt_clust_4="81.52140" pt_clust_5="47.75844" pt_clust_6="37.83681"></scales>
<clustering>
<clus scale="   37.837">  2  6  1 -1</clus>
<clus scale="   47.758">  1  5  2 -1</clus>
<clus scale="   81.521">  2  4  1 -1</clus>
<clus scale="   47.758">  1  3  2 -1</clus>
</clustering>
</event>
<event>
 6    0  0.4469832E+002  0.9020575E+02  0.7546771E-02  0.1302354E+00
         21   -1    0    0  503  501  0.00000000000E+00  0.00000000000E+00  0.27824535602E+03  0.27824535602E+03  0.00000000000E+00 0. -1.
         21   -1    0    0  506  502 -0.00000000000E+00 -0.00000000000E+00 -0.43510229511E+03  0.43510229511E+03  0.00000000000E+00 0. -1.
         21    1    1    2  503  504 -0.58590277034E+01  0.32428094673E+02  0.13894619421E+03  0.14280040061E+03  0.00000000000E+00 0. -1.
         21    1    1    2  504  502  0.18398258838E+01  0.36366959414E+02 -0.32207585321E+03  0.32412774630E+03  0.00000000000E+00 0. -1.
         21    1    1    2  505  501  0.87422105951E+02 -0.70306719770E+02  0.88054102103E+02  0.14261551231E+03  0.00000000000E+00 0. -1.
         21    1    1    2  506  505 -0.83402904132E+02  0.15116656820E+01 -0.61781382188E+02  0.10380399191E+03  0.00000000000E+00 0. -1.
<scales pt_clust_3="32.95314" pt_clust_4="36.65318" pt_clust_5="14000.00000" pt_clust_6="90.20575"></scales>
<clustering>
<clus scale="   32.953">  1  3  2 -1</clus>
<clus scale="   36.653">  2  4  1 -1</clus>
<clus scale="   90.206">  2  6  1 -1</clus>
<clus scale="   32.953">  1  3  2 -1</clus>
</clustering>
</event>
<event>
 6    0  0.4469832E+002  0.7390071E+02  0.7546771E-02  0.1347309E+00
         21   -1    0    0  506  501  0.00000000000E+00  0.00000000000E+00  0.39072325111E+03  0.39072325111E+03  0.00000000000E+00 0.  1.
         21   -1    0    0  504  502 -0.00000000000E+00 -0.00000000000E+00 -0.16597542619E+03  0.16597542619E+03  0.00000000000E+00 0. -1.
         21    1    1    2  503  505 -0.47417673058E+02 -0.29080055025E+02 -0.26171704034E+01  0.55686038640E+02  0.00000000000E+00 0.  1.
         21    1    1    2  504  501  0.54254557827E+02 -0.38710597160E+02  0.19510804890E+02  0.69445942178E+02  0.00000000000E+00 0. -1.
         21    1    1    2  505  502 -0.50761355868E+02  0.37893999959E+01 -0.10100277930E+03  0.11310453673E+03  0.00000000000E+00 0. -1.
         21    1    1    2  506  503  0.43924471099E+02  0.64001252189E+02  0.30885696973E+03  0.31846215975E+03  0.00000000000E+00 0.  1.
<scales pt_clust_3="14000.00000" pt_clust_4="49.48737" pt_clust_5="50.90260" pt_clust_6="73.90071"></scales>
<clustering>
<clus scale="   50.903">  2  5  1 -1</clus>
<clus scale="   49.487">  2  4  1 -1</clus>
<clus scale="   73.901">  1  6  2 -1</clus>
<clus scale="   73.901">  1  3  2 -1</clus>
</clustering>
</event>
<event>
 6    0  0.4469832E+002  0.1084521E+03  0.7546771E-02  0.1263463E+00
         21   -1    0    0  506  501  0.00000000000E+00  0.00000000000E+00  0.45500020762E+02  0.45500020762E+02  0.00000000000E+00 0. -1.
         21   -1    0    0  503  502 -0.00000000000E+00 -0.00000000000E+00 -0.69640213552E+03  0.69640213552E+03  0.00000000000E+00 0. -1.
         21    1    1    2  503  501 -0.29110708930E+02  0.48015014612E+02 -0.39678293650E+03  0.40073628948E+03  0.00000000000E+00 0. -1.
         21    1    1    2  504  502 -0.46366649051E+02 -0.52124954040E+01 -0.12993550455E+03  0.13805894246E+03  0.00000000000E+00 0. -1.
         21    1    1    2  505  504 -0.37215482457E+02 -0.18900922345E+02 -0.53853624407E+02  0.68135525695E+02  0.00000000000E+00 0. -1.
         21    1    1    2  506  505  0.11269284044E+03 -0.23901596863E+02 -0.70330049306E+02  0.13497139865E+03  0.00000000000E+00 0. -1.
<scales pt_clust_3="56.15047" pt_clust_4="32.35611" pt_clust_5="32.35611" pt_clust_6="102.91540"></scales>
<clustering>
<clus scale="   32.356">  4  5 -1 -1</clus>
<clus scale="   56.150">  2  3  1 -1</clus>
<clus scale="  102.915">  1  6  2 -1</clus>
<clus scale="  102.915">  1  3  2 -1</clus>
</clustering>
</event>
<event>
 6    0  0.4469832E+002  0.6821494E+02  0.7546771E-02  0.1366271E+00
         21   -1    0    0  504  501  0.00000000000E+00  0.00000000000E+00  0.18038614017E+03  0.18038614017E+03  0.00000000000E+00 0. -1.
         21   -1    0    0  503  502 -0.00000000000E+00 -0.00000000000E+00 -0.14205881261E+03  0.14205881261E+03  0.00000000000E+00 0. -1.
         21    1    1    2  503  505  0.10579404941E+02  0.59631650796E+02 -0.36798330549E+01  0.60674531369E+02  0.00000000000E+00 0. -1.
         21    1    1    2  504  506 -0.66008479979E+02 -0.54795749409E+00  0.10115564230E+03  0.12078859075E+03  0.00000000000E+00 0. -1.
         21    1    1    2  505  501  0.84308616340E+02 -0.44646099728E+02 -0.48226505371E+02  0.10689720684E+03  0.00000000000E+00 0. -1.
         21    1    1    2  506  502 -0.28879541302E+02 -0.14437593574E+02 -0.10921976310E+02  0.34084623814E+02  0.00000000000E+00 0. -1.
<scales pt_clust_3="55.81653" pt_clust_4="14000.00000" pt_clust_5="68.21494" pt_clust_6="32.28734"></scales>
<clustering>
<clus scale="   32.287">  2  6  1 -1</clus>
<clus scale="   55.817">  2  3  1 -1</clus>
<clus scale="   68.215">  2  5  1 -1</clus>
<clus scale="   68.215">  1  3  2 -1</clus>
</clustering>
</event>
<event>
 6    0  0.4469832E+002  0.1180520E+03  0.7546771E-02  0.1246346E+00
         21   -1    0    0  506  501  0.00000000000E+00  0.00000000000E+00  0.84938277514E+03  0.84938277514E+03  0.00000000000E+00 0.  1.
         21   -1    0    0  503  502 -0.00000000000E+00 -0.00000000000E+00 -0.78656385146E+02  0.78656385146E+02  0.00000000000E+00 0. -1.
         21    1    1    2  503  501  0.12012609998E+03  0.51886130962E+02  0.63945902537E+03  0.65270996285E+03  0.00000000000E+00 0.  1.
         21    1    1    2  504  502 -0.43369014594E+02 -0.92900981866E+01  0.15338059496E+02  0.46930090777E+02  0.00000000000E+00 0. -1.
         21    1    1    2  505  504 -0.62215103906E+02 -0.30535838193E+01 -0.35171962484E+02  0.71533981248E+02  0.00000000000E+00 0. -1.
         21    1    1    2  506  505 -0.14541981483E+02 -0.39542448956E+02  0.15110126762E+03  0.15686512541E+03  0.00000000000E+00 0. -1.
<scales pt_clust_3="107.68611" pt_clust_4="40.81857" pt_clust_5="40.81857" pt_clust_6="42.13163"></scales>
<clustering>
<clus scale="   40.819">  4  5 -1 -1</clus>
<clus scale="   42.132">  1  6  2 -1</clus>
<clus scale="  107.686">  1  3  2 -1</clus>
<clus scale="   42.132">  1  3  2 -1</clus>
</clustering>
</event>
<event>
 6    0  0.4469832E+002  0.1039419E+03  0.7546771E-02  0.1272218E+00
         21   -1    0    0  503  501  0.00000000000E+00  0.00000000000E+00  0.21165969331E+03  0.21165969331E+03  0.00000000000E+00 0. -1.
         21   -1    0    0  506  502 -0.00000000000E+00 -0.00000000000E+00 -0.30079310661E+03  0.30079310661E+03  0.00000000000E+00 0.  1.
         21    1    1    2  503  505  0.11830821312E+03  0.34151051185E+01  0.14871864310E+03  0.19006770120E+03  0.00000000000E+00 0. -1.
         21    1    1    2  504  501 -0.44507644496E+02 -0.73043306713E+02 -0.49932929235E+02  0.99043185006E+02  0.00000000000E+00 0.  1.
         21    1    1    2  505  502 -0.42272466626E+02  0.69381247313E+02 -0.93858040650E+02  0.12413722531E+03  0.00000000000E+00 0.  1.
         21    1    1    2  506  504 -0.31528101998E+02  0.24695428180E+00 -0.94061086522E+02  0.99204688396E+02  0.00000000000E+00 0.  1.
<scales pt_clust_3="14000.00000" pt_clust_4="103.94192" pt_clust_5="91.24388" pt_clust_6="31.52907"></scales>
<clustering>
<clus scale="   31.529">  2  6  1 -1</clus>
<clus scale="   91.244">  2  5  1 -1</clus>
<clus scale="  103.942">  2  4  1 -1</clus>
<clus scale="  103.942">  1  3  2 -1</clus>
</clustering>
</event>
<event>
 6    0  0.4469832E+002  0.2125492E+03  0.7546771E-02  0.1139563E+00
         21   -1    0    0  503  501  0.00000000000E+00  0.00000000000E+00  0.55758757233E+02  0.55758757233E+02  0.00000000000E+00 0. -1.
         21   -1    0    0  504  502 -0.00000000000E+00 -0.00000000000E+00 -0.19609140536E+04  0.19609140536E+04  0.00000000000E+00 0. -1.
         21    1    1    2  503  502 -0.12346438936E+03  0.13527506182E+03 -0.13858708719E+04  0.13979201949E+04  0.00000000000E+00 0. -1.
         21    1    1    2  504  505 -0.59218075348E+02 -0.36605772370E+02 -0.30707728953E+03  0.31487017128E+03  0.00000000000E+00 0. -1.
         21    1    1    2  505  506  0.35133292242E+02 -0.40080773402E+02 -0.85540525319E+02  0.10078689445E+03  0.00000000000E+00 0. -1.
         21    1    1    2  506  501  0.14754917247E+03 -0.58588516044E+02 -0.12666660960E+03  0.20309555016E+03  0.00000000000E+00 0. -1.
<scales pt_clust_3="202.41789" pt_clust_4="69.61870" pt_clust_5="37.56953" pt_clust_6="37.56953"></scales>
<clustering>
<clus scale="   37.570">  5  6 -1 -1</clus>
<clus scale="   69.619">  2  4  1 -1</clus>
<clus scale="  202.418">  2  3  1 -1</clus>
<clus scale="  212.549">  1  3  2 -1</clus>
</clustering>
</event>
<event>
 6    0  0.4469832E+002  0.1901125E+03  0.7546771E-02  0.1158360E+00
         21   -1    0    0  506  501  0.00000000000E+00  0.00000000000E+00  0.59886395684E+02  0.59886395684E+02  0.00000000000E+00 0.  1.
         21   -1    0    0  505  502 -0.00000000000E+00 -0.00000000000E+00 -0.17647234646E+04  0.17647234646E+04  0.00000000000E+00 0.  1.
         21    1    1    2  503  504 -0.77488847090E+02 -0.10335305650E+03 -0.78787142305E+03  0.79839072826E+03  0.00000000000E+00 0.  1.
         21    1    1    2  504  502 -0.18522863415E+02 -0.45483105023E+02 -0.76014012303E+03  0.76172489519E+03  0.00000000000E+00 0.  1.
         21    1    1    2  505  501 -0.93988381606E+01  0.50798309572E+02 -0.94350407390E+02  0.10756768004E+03  0.00000000000E+00 0. -1.
         21    1    1    2  506  503  0.10541054867E+03  0.98037851956E+02 -0.62475115487E+02  0.15692655684E+03  0.00000000000E+00 0.  1.
<scales pt_clust_3="48.74776" pt_clust_4="48.74776" pt_clust_5="51.66049" pt_clust_6="172.89366"></scales>
<clustering>
<clus scale="   48.748">  3  4 -1 -1</clus>
<clus scale="   51.660">  1  5  2 -1</clus>
<clus scale="  172.894">  1  6  2 -1</clus>
<clus scale="   51.660">  1  3  2 -1</clus>
</clustering>
</event>
<event>
 6    0  0.4469832E+002  0.1241920E+03  0.7546771E-02  0.1236338E+00
         21   -1    0    0  505  501  0.00000000000E+00  0.00000000000E+00  0.14297947621E+03  0.14297947621E+03  0.00000000000E+00 0. -1.
         21   -1    0    0  501  502 -0.00000000000E+00 -0.00000000000E+00 -0.15860625201E+03  0.15860625201E+03  0.00000000000E+00 0. -1.
         21    1    1    2  503  504 -0.55024286962E+02  0.12000805675E+02 -0.11064914426E+02  0.57394458128E+02  0.00000000000E+00 0. -1.
         21    1    1    2  504  506  0.98100361569E+02  0.36124276926E+02 -0.22615858697E+02  0.10695850311E+03  0.00000000000E+00 0. -1.
         21    1    1    2  505  503 -0.79246575782E+02 -0.89024392587E+01  0.24659548139E+02  0.83470752437E+02  0.00000000000E+00 0. -1.
         21    1    1    2  506  502  0.36170501175E+02 -0.39222643342E+02 -0.66055508214E+01  0.53762014543E+02  0.00000000000E+00 0. -1.
<scales pt_clust_3="33.82352" pt_clust_4="117.48922" pt_clust_5="33.82352" pt_clust_6="53.35467"></scales>
<clustering>
<clus scale="   33.824">  3  5 -1 -1</clus>
<clus scale="   53.355">  2  6  1 -1</clus>
<clus scale="  117.489">  2  4  1 -1</clus>
<clus scale="  124.192">  1  3  2 -1</clus>
</clustering>
</event>
<event>
 6    0  0.4469832E+002  0.7626973E+02  0.7546771E-02  0.1339984E+00
         21   -1    0    0  505  501  0.00000000000E+00  0.00000000000E+00  0.38578378666E+03  0.38578378666E+03  0.00000000000E+00 0.  1.
         21   -1    0    0  503  502 -0.00000000000E+00 -0.00000000000E+00 -0.11790968124E+03  0.11790968124E+03  0.00000000000E+00 0.  1.
         21    1    1    2  503  506 -0.30064483928E+02  0.22425703939E+02 -0.24282860026E+02  0.44681569826E+02  0.00000000000E+00 0.  1.
         21    1    1    2  504  501 -0.69629141180E+02  0.13563871422E+02  0.25073334336E+03  0.26057514344E+03  0.00000000000E+00 0.  1.
         21    1    1    2  505  502  0.14341151416E+03 -0.14318314111E+02  0.21447557910E+02  0.14571161331E+03  0.00000000000E+00 0.  1.
         21    1    1    2  506  504 -0.43717889049E+02 -0.21671261251E+02  0.19976064178E+02  0.52725141319E+02  0.00000000000E+00 0.  1.
<scales pt_clust_3="37.50714" pt_clust_4="14000.00000" pt_clust_5="76.26973" pt_clust_6="52.53819"></scales>
<clustering>
<clus scale="   37.507">  2  3  1 -1</clus>
<clus scale="   52.538">  2  6  1 -1</clus>
<clus scale="   76.270">  2  5  1 -1</clus>
<clus scale="   76.270">  1  3  2 -1</clus>
</clustering>
</event>
<event>
 6    0  0.4469832E+002  0.8351784E+02  0.7546771E-02  0.1319355E+00
         21   -1    0    0  506  501  0.00000000000E+00  0.00000000000E+00  0.85311778472E+03  0.85311778472E+03  0.00000000000E+00 0.  1.
         21   -1    0    0  505  502 -0.00000000000E+00 -0.00000000000E+00 -0.95698693997E+02  0.95698693997E+02  0.00000000000E+00 0. -1.
         21    1    1    2  503  502 -0.31396501578E+02  0.10971149243E+03  0.93337548404E+02  0.14742540427E+03  0.00000000000E+00 0. -1.
         21    1    1    2  504  501 -0.18045348687E+02 -0.24672337646E+02  0.17294704266E+03  0.17562755598E+03  0.00000000000E+00 0.  1.
         21    1    1    2  505  504 -0.37393250251E+02 -0.64279765067E+02 -0.41864010843E+02  0.85338963934E+02  0.00000000000E+00 0. -1.
         21    1    1    2  506  503  0.86835100517E+02 -0.20759389719E+02  0.53299851050E+03  0.54042455453E+03  0.00000000000E+00 0.  1.
<scales pt_clust_3="83.51784" pt_clust_4="30.56728" pt_clust_5="75.33848" pt_clust_6="14000.00000"></scales>
<clustering>
<clus scale="   30.567">  1  4  2 -1</clus>
<clus scale="   75.338">  2  5  1 -1</clus>
<clus scale="   83.518">  2  3  1 -1</clus>
<clus scale="   30.567">  1  3  2 -1</clus>
</clustering>
</event>
<event>
 6    0  0.4469832E+002  0.2001915E+03  0.7546771E-02  0.1149578E+00
         21   -1    0    0  503  501  0.00000000000E+00  0.00000000000E+00  0.27005800998E+03  0.27005800998E+03  0.00000000000E+00 0. -1.
         21   -1    0    0  505  502 -0.00000000000E+00 -0.00000000000E+00 -0.40532645184E+03  0.40532645184E+03  0.00000000000E+00 0. -1.
         21    1    1    2  503  502 -0.90629970411E+02  0.91185896699E+02 -0.27450920718E+03  0.30312367792E+03  0.00000000000E+00 0. -1.
         21    1    1    2  504  506 -0.41976540684E+02  0.34778438602E+01  0.98749929328E+01  0.43262464691E+02  0.00000000000E+00 0. -1.
         21    1    1    2  505  504 -0.43013447204E+02  0.27075008945E+02 -0.33021021385E+02  0.60610235135E+02  0.00000000000E+00 0. -1.
         21    1    1    2  506  501  0.17561995830E+03 -0.12173874950E+03  0.16238679376E+03  0.26838808407E+03  0.00000000000E+00 0. -1.
<scales pt_clust_3="200.19154" pt_clust_4="41.68768" pt_clust_5="101.26104" pt_clust_6="14000.00000"></scales>
<clustering>
<clus scale="   41.688">  4  5 -1 -1</clus>
<clus scale="  101.261">  2  4  1 -1</clus>
<clus scale="  200.192">  2  3  1 -1</clus>
<clus scale="  200.192">  1  3  2 -1</clus>
</clustering>
</event>
<event>
 6    0  0.4469832E+002  0.5140046E+03  0.7546771E-02  0.1010187E+00
         21   -1    0    0  504  501  0.00000000000E+00  0.00000000000E+00  0.20602738705E+04  0.20602738705E+04  0.00000000000E+00 0. -1.
         21   -1    0    0  506  502 -0.00000000000E+00 -0.00000000000E+00 -0.26556632378E+03  0.26556632378E+03  0.00000000000E+00 0. -1.
         21    1    1    2  503  505  0.39240182931E+03 -0.10816375493E+03  0.59664581658E+02  0.41138601803E+03  0.00000000000E+00 0. -1.
         21    1    1    2  504  502 -0.49152736462E+03  0.13110752315E+03  0.12801662384E+04  0.13775390850E+04  0.00000000000E+00 0. -1.
         21    1    1    2  505  501 -0.63708206679E+01 -0.34739801067E+02  0.42523670283E+03  0.42670094277E+03  0.00000000000E+00 0. -1.
         21    1    1    2  506  503  0.10549635598E+03  0.11796032843E+02  0.29640023878E+02  0.11021414851E+03  0.00000000000E+00 0. -1.
<scales pt_clust_3="42.31686" pt_clust_4="507.24611" pt_clust_5="35.31913" pt_clust_6="42.31686"></scales>
<clustering>
<clus scale="   35.319">  1  5  2 -1</clus>
<clus scale="   42.317">  3  6 -1 -1</clus>
<clus scale="  507.246">  1  4  2 -1</clus>
<clus scale="   35.319">  1  3  2 -1</clus>
</clustering>
</event>
<event>
 6    0  0.4469832E+002  0.1184713E+03  0.7546771E-02  0.1245640E+00
         21   -1    0    0  506  501  0.00000000000E+00  0.00000000000E+00  0.20423596927E+03  0.20423596927E+03  0.00000000000E+00 0. -1.
         21   -1    0    0  505  502 -0.00000000000E+00 -0.00000000000E+00 -0.23933559842E+03  0.23933559842E+03  0.00000000000E+00 0. -1.
         21    1    1    2  503  502  0.86362593423E+02 -0.81669320080E+02 -0.13381800948E+02  0.11961374495E+03  0.00000000000E+00 0. -1.
         21    1    1    2  504  503 -0.33515694942E+02 -0.98672365906E+02  0.24142323116E+02  0.10696910473E+03  0.00000000000E+00 0. -1.
         21    1    1    2  505  501 -0.22684899229E+02  0.12620272883E+03 -0.74953859064E+02  0.14852546720E+03  0.00000000000E+00 0. -1.
         21    1    1    2  506  504 -0.30161999252E+02  0.54138957156E+02  0.29093707750E+02  0.68463250810E+02  0.00000000000E+00 0. -1.
<scales pt_clust_3="14000.00000" pt_clust_4="88.82401" pt_clust_5="118.47129" pt_clust_6="61.97397"></scales>
<clustering>
<clus scale="   61.974">  1  6  2 -1</clus>
<clus scale="   88.824">  1  4  2 -1</clus>
<clus scale="  118.471">  2  5  1 -1</clus>
<clus scale="   61.974">  1  3  2 -1</clus>
</clustering>
</event>
<event>
 6    0  0.4469832E+002  0.1307493E+03  0.7546771E-02  0.1226348E+00
         21   -1    0    0  503  501  0.00000000000E+00  0.00000000000E+00  0.16763100223E+04  0.16763100223E+04  0.00000000000E+00 0.  1.
         21   -1    0    0  506  502 -0.00000000000E+00 -0.00000000000E+00 -0.78249908321E+02  0.78249908321E+02  0.00000000000E+00 0. -1.
         21    1    1    2  503  502  0.87052215765E+01 -0.16053614749E+03  0.72510860427E+03  0.74271806463E+03  0.00000000000E+00 0.  1.
         21    1    1    2  504  505  0.31968523133E+02  0.44511477909E+02  0.11840045930E+03  0.13046810683E+03  0.00000000000E+00 0. -1.
         21    1    1    2  505  501 -0.47295868700E+02 -0.11944129800E+02  0.75161889665E+03  0.75320019068E+03  0.00000000000E+00 0.  1.
         21    1    1    2  506  504  0.66221239912E+01  0.12796879938E+03  0.29321537869E+01  0.12817356852E+03  0.00000000000E+00 0. -1.
<scales pt_clust_3="130.74932" pt_clust_4="49.95934" pt_clust_5="48.78075" pt_clust_6="14000.00000"></scales>
<clustering>
<clus scale="   48.781">  1  5  2 -1</clus>
<clus scale="   49.959">  1  4  2 -1</clus>
<clus scale="  130.749">  1  3  2 -1</clus>
<clus scale="   48.781">  1  3  2 -1</clus>
</clustering>
</event>
<event>
 6    0  0.4469832E+002  0.1247904E+03  0.7546771E-02  0.1235397E+00
         21   -1    0    0  505  501  0.00000000000E+00  0.00000000000E+00  0.47570638913E+03  0.47570638913E+03  0.00000000000E+00 0. -1.
         21   -1    0    0  506  502 -0.00000000000E+00 -0.00000000000E+00 -0.32756202012E+03  0.32756202012E+03  0.00000000000E+00 0. -1.
         21    1    1    2  503  504  0.13345454289E+03 -0.29732331224E+02  0.37143663756E+03  0.39580209987E+03  0.00000000000E+00 0. -1.
         21    1    1    2  504  501 -0.32670149966E+02 -0.49465417582E+02  0.54358294589E+02  0.80430034353E+02  0.00000000000E+00 0. -1.
         21    1    1    2  505  502 -0.99241412664E+02  0.21744536831E+02 -0.23323004580E+03  0.25439720347E+03  0.00000000000E+00 0. -1.
         21    1    1    2  506  503 -0.15429802600E+01  0.57453211974E+02 -0.44420517346E+02  0.72639071549E+02  0.00000000000E+00 0. -1.
<scales pt_clust_3="14000.00000" pt_clust_4="57.02101" pt_clust_5="124.79038" pt_clust_6="57.47393"></scales>
<clustering>
<clus scale="   57.474">  2  6  1 -1</clus>
<clus scale="   57.021">  1  4  2 -1</clus>
<clus scale="  124.790">  2  5  1 -1</clus>
<clus scale="   57.021">  1  3  2 -1</clus>
</clustering>
</event>
<event>
 6    0  0.4469832E+002  0.1121273E+03  0.7546771E-02  0.1256680E+00
         21   -1    0    0  503  501  0.00000000000E+00  0.00000000000E+00  0.18607356544E+04  0.18607356544E+04  0.00000000000E+00 0. -1.
         21   -1    0    0  505  502 -0.00000000000E+00 -0.00000000000E+00 -0.18857116661E+02  0.18857116661E+02  0.00000000000E+00 0.  1.
         21    1    1    2  503  506  0.92443945143E+02 -0.16233908343E+01  0.13582212549E+04  0.13613645712E+04  0.00000000000E+00 0. -1.
         21    1    1    2  504  501 -0.46758195012E+02  0.10135382179E+02  0.10293020284E+03  0.11350630568E+03  0.00000000000E+00 0.  1.
         21    1    1    2  505  504 -0.60556442818E+02 -0.58766874146E+02  0.21792060101E+03  0.23368786149E+03  0.00000000000E+00 0.  1.
         21    1    1    2  506  502  0.14870692687E+02  0.50254882801E+02  0.16280647903E+03  0.17103403276E+03  0.00000000000E+00 0.  1.
<scales pt_clust_3="94.10328" pt_clust_4="45.90780" pt_clust_5="45.90780" pt_clust_6="52.40888"></scales>
<clustering>
<clus scale="   45.908">  4  5 -1 -1</clus>
<clus scale="   52.409">  2  6  1 -1</clus>
<clus scale="   94.103">  1  3  2 -1</clus>
<clus scale="   94.103">  1  3  2 -1</clus>
</clustering>
</event>
<event>
 6    0  0.4469832E+002  0.3932333E+03  0.7546771E-02  0.1046148E+00
         21   -1    0    0  506  501  0.00000000000E+00  0.00000000000E+00  0.44646035640E+03  0.44646035640E+03  0.00000000000E+00 0. -1.
         21   -1    0    0  505  502 -0.00000000000E+00 -0.00000000000E+00 -0.97348999356E+03  0.97348999356E+03  0.00000000000E+00 0. -1.
         21    1    1    2  503  502  0.56362757631E+01  0.33396968026E+02 -0.30589322554E+02  0.45638051362E+02  0.00000000000E+00 0. -1.
         21    1    1    2  504  501  0.18162104350E+03 -0.61782347116E+02 -0.34411906665E+03  0.39398121007E+03  0.00000000000E+00 0. -1.
         21    1    1    2  505  504  0.19653193795E+03 -0.45717051831E+02 -0.44725624862E+03  0.49066587755E+03  0.00000000000E+00 0. -1.
         21    1    1    2  506  503 -0.38378925721E+03  0.74102430921E+02  0.29493500066E+03  0.48966521097E+03  0.00000000000E+00 0. -1.
<scales pt_clust_3="33.86923" pt_clust_4="40.87289" pt_clust_5="40.87289" pt_clust_6="390.97657"></scales>
<clustering>
<clus scale="   33.869">  2  3  1 -1</clus>
<clus scale="   40.873">  4  5 -1 -1</clus>
<clus scale="  390.977">  1  6  2 -1</clus>
<clus scale="  390.977">  1  3  2 -1</clus>
</clustering>
</event>
<event>
 6    0  0.4469832E+002  0.8634190E+02  0.7546771E-02  0.1311960E+00
         21   -1    0    0  506  501  0.00000000000E+00  0.00000000000E+00  0.41615835078E+02  0.41615835078E+02  0.00000000000E+00 0. -1.
         21   -1    0    0  503  502 -0.00000000000E+00 -0.00000000000E+00 -0.22949574045E+04  0.22949574045E+04  0.00000000000E+00 0.  1.
         21    1    1    2  503  504  0.30072447559E+02  0.47113669299E+02 -0.79459213964E+03  0.79655553373E+03  0.00000000000E+00 0.  1.
         21    1    1    2  504  501 -0.38637057305E+02 -0.19182121307E+02 -0.27819341231E+02  0.51329248207E+02  0.00000000000E+00 0. -1.
         21    1    1    2  505  502  0.53281693570E+02 -0.79364948340E+02 -0.14156095694E+04  0.14188333894E+04  0.00000000000E+00 0.  1.
         21    1    1    2  506  505 -0.44717083824E+02  0.51433400348E+02 -0.15320519197E+02  0.69855068288E+02  0.00000000000E+00 0. -1.
<scales pt_clust_3="54.68310" pt_clust_4="43.13671" pt_clust_5="14000.00000" pt_clust_6="86.34190"></scales>
<clustering>
<clus scale="   43.137">  1  4  2 -1</clus>
<clus scale="   54.683">  2  3  1 -1</clus>
<clus scale="   86.342">  1  6  2 -1</clus>
<clus scale="   43.137">  1  3  2 -1</clus>
</clustering>
</event>
<event>
 6    0  0.4469832E+002  0.1586322E+03  0.7546771E-02  0.1190250E+00
         21   -1    0    0  504  501  0.00000000000E+00  0.00000000000E+00  0.21391689491E+03  0.21391689491E+03  0.00000000000E+00 0. -1.
         21   -1    0    0  505  502 -0.00000000000E+00 -0.00000000000E+00 -0.61860921855E+03  0.61860921855E+03  0.00000000000E+00 0.  1.
         21    1    1    2  503  501 -0.33889718965E+02 -0.22174792686E+02 -0.11950662238E+02  0.42226209990E+02  0.00000000000E+00 0. -1.
         21    1    1    2  504  506  0.10762428512E+03 -0.11664124361E+03  0.13460557127E+03  0.20810292232E+03  0.00000000000E+00 0. -1.
         21    1    1    2  505  503 -0.45591951154E+02 -0.41911517052E+02 -0.10425133451E+03  0.12125816269E+03  0.00000000000E+00 0.  1.
         21    1    1    2  506  502 -0.28142615002E+02  0.18072755335E+03 -0.42309589816E+03  0.46093881846E+03  0.00000000000E+00 0.  1.
<scales pt_clust_3="40.49981" pt_clust_4="14000.00000" pt_clust_5="63.63891" pt_clust_6="158.63220"></scales>
<clustering>
<clus scale="   40.500">  1  3  2 -1</clus>
<clus scale="   63.639">  2  5  1 -1</clus>
<clus scale="  158.632">  2  6  1 -1</clus>
<clus scale="   40.500">  1  3  2 -1</clus>
</clustering>
</event>
<event>
 6    0  0.4469832E+002  0.1521112E+03  0.7546771E-02  0.1197903E+00
         21   -1    0    0  503  501  0.00000000000E+00  0.00000000000E+00  0.36066592634E+02  0.36066592634E+02  0.00000000000E+00 0.  1.
         21   -1    0    0  506  502 -0.00000000000E+00 -0.00000000000E+00 -0.18213305115E+04  0.18213305115E+04  0.00000000000E+00 0. -1.
         21    1    1    2  503  504  0.20203004132E+03  0.40316422638E+01 -0.36993441865E+03  0.42152564078E+03  0.00000000000E+00 0.  1.
         21    1    1    2  504  502 -0.61408760036E+02 -0.32946884009E+02 -0.63667533646E+03  0.64047795983E+03  0.00000000000E+00 0. -1.
         21    1    1    2  505  501 -0.37608284449E+02 -0.22217248803E+02 -0.14689345713E+03  0.15325037341E+03  0.00000000000E+00 0. -1.
         21    1    1    2  506  505 -0.10301299683E+03  0.51132490548E+02 -0.63176070666E+03  0.64214313014E+03  0.00000000000E+00 0. -1.
<scales pt_clust_3="14000.00000" pt_clust_4="72.21200" pt_clust_5="43.68054" pt_clust_6="152.11115"></scales>
<clustering>
<clus scale="   43.681">  1  5  2 -1</clus>
<clus scale="   72.212">  2  4  1 -1</clus>
<clus scale="  152.111">  2  6  1 -1</clus>
<clus scale="   43.681">  1  3  2 -1</clus>
</clustering>
</event>
<event>
 6    0  0.4469832E+002  0.1284697E+03  0.7546771E-02  0.1229744E+00
         21   -1    0    0  505  501  0.00000000000E+00  0.00000000000E+00  0.14616932122E+03  0.14616932122E+03  0.00000000000E+00 0. -1.
         21   -1    0    0  503  502 -0.00000000000E+00 -0.00000000000E+00 -0.34106875536E+03  0.34106875536E+03  0.00000000000E+00 0. -1.
         21    1    1    2  503  501  0.11905129004E+03 -0.17620440540E+02 -0.38257990738E+02  0.12628287073E+03  0.00000000000E+00 0. -1.
         21    1    1    2  504  502 -0.32143047889E+02  0.33873003656E+02 -0.24407475934E+02  0.52690424042E+02  0.00000000000E+00 0. -1.
         21    1    1    2  505  506 -0.13310315127E+03 -0.11055359255E+03 -0.73968377639E+02  0.18817509557E+03  0.00000000000E+00 0. -1.
         21    1    1    2  506  504  0.46194909117E+02  0.94301029436E+02 -0.58265589831E+02  0.12008968623E+03  0.00000000000E+00 0. -1.
<scales pt_clust_3="128.46974" pt_clust_4="46.69642" pt_clust_5="14000.00000" pt_clust_6="110.56197"></scales>
<clustering>
<clus scale="   46.696">  2  4  1 -1</clus>
<clus scale="  110.562">  2  6  1 -1</clus>
<clus scale="  128.470">  1  3  2 -1</clus>
<clus scale="  128.470">  1  3  2 -1</clus>
</clustering>
</event>
<event>
 6    0  0.4469832E+002  0.1307442E+03  0.7546771E-02  0.1226356E+00
         21   -1    0    0  506  501  0.00000000000E+00  0.00000000000E+00  0.85401857691E+02  0.85401857691E+02  0.00000000000E+00 0.  1.
         21   -1    0    0  504  502 -0.00000000000E+00 -0.00000000000E+00 -0.49351409278E+03  0.49351409278E+03  0.00000000000E+00 0.  1.
         21    1    1    2  503  505 -0.47861003855E+02 -0.45566320886E+02 -0.15031607301E+03  0.16420075242E+03  0.00000000000E+00 0.  1.
         21    1    1    2  504  501  0.80083068267E+02  0.75820421898E+02 -0.79374460925E+02  0.13587619088E+03  0.00000000000E+00 0.  1.
         21    1    1    2  505  502 -0.69561994115E+02 -0.10405280536E+02 -0.21293760756E+03  0.22425335137E+03  0.00000000000E+00 0.  1.
         21    1    1    2  506  503  0.37339929703E+02 -0.19848820475E+02  0.34515906408E+02  0.54585655805E+02  0.00000000000E+00 0.  1.
<scales pt_clust_3="44.43940" pt_clust_4="122.76675" pt_clust_5="44.43940" pt_clust_6="42.28766"></scales>
<clustering>
<clus scale="   42.288">  1  6  2 -1</clus>
<clus scale="   44.439">  3  5 -1 -1</clus>
<clus scale="  122.767">  1  4  2 -1</clus>
<clus scale="   42.288">  1  3  2 -1</clus>
</clustering>
</event>
<event>
 6    0  0.4469832E+002  0.1435478E+03  0.7546771E-02  0.1208633E+00
         21   -1    0    0  506  501  0.00000000000E+00  0.00000000000E+00  0.28286096271E+03  0.28286096271E+03  0.00000000000E+00 0.  1.
         21   -1    0    0  503  502 -0.00000000000E+00 -0.00000000000E+00 -0.12018449369E+04  0.12018449369E+04  0.00000000000E+00 0. -1.
         21    1    1    2  503  504 -0.13900543641E+03 -0.47584338054E+02 -0.10481029831E+04  0.10583509077E+04  0.00000000000E+00 0. -1.
         21    1    1    2  504  505 -0.29942084518E+02  0.67606088315E+02  0.86050191585E+02  0.11345372217E+03  0.00000000000E+00 0.  1.
         21    1    1    2  505  501  0.30484681869E+02  0.48345606389E+02  0.12546672506E+03  0.13787136245E+03  0.00000000000E+00 0.  1.
         21    1    1    2  506  502  0.13846283906E+03 -0.68367356650E+02 -0.82397907732E+02  0.17502990731E+03  0.00000000000E+00 0. -1.
<scales pt_clust_3="14000.00000" pt_clust_4="99.98739" pt_clust_5="57.15430" pt_clust_6="143.54777"></scales>
<clustering>
<clus scale="   57.154">  1  5  2 -1</clus>
<clus scale="   99.987">  1  4  2 -1</clus>
<clus scale="  143.548">  1  6  2 -1</clus>
<clus scale="   57.154">  1  3  2 -1</clus>
</clustering>
</event>
<event>
 6    0  0.4469832E+002  0.1924482E+03  0.7546771E-02  0.1156272E+00
         21   -1    0    0  506  501  0.00000000000E+00  0.00000000000E+00  0.75930519168E+03  0.75930519168E+03  0.00000000000E+00 0.  1.
         21   -1    0    0  501  502 -0.00000000000E+00 -0.00000000000E+00 -0.54677588102E+02  0.54677588102E+02  0.00000000000E+00 0. -1.
         21    1    1    2  503  505 -0.34512287042E+02  0.74594194958E+02  0.20087769903E+03  0.21704202783E+03  0.00000000000E+00 0.  1.
         21    1    1    2  504  503  0.13980927865E+03 -0.12112052714E+03  0.31005629397E+03  0.36104254864E+03  0.00000000000E+00 0. -1.
         21    1    1    2  505  502 -0.77323303734E+02  0.63151367902E+02  0.12573102870E+03  0.16054681606E+03  0.00000000000E+00 0.  1.
         21    1    1    2  506  504 -0.27973687878E+02 -0.16625035715E+02  0.67962581874E+02  0.75351387253E+02  0.00000000000E+00 0.  1.
<scales pt_clust_3="59.41652" pt_clust_4="180.60252" pt_clust_5="59.41652" pt_clust_6="32.54104"></scales>
<clustering>
<clus scale="   32.541">  1  6  2 -1</clus>
<clus scale="   59.417">  3  5 -1 -1</clus>
<clus scale="  180.603">  1  4  2 -1</clus>
<clus scale="   32.541">  1  3  2 -1</clus>
</clustering>
</event>
<event>
 6    0  0.4469832E+002  0.1330757E+03  0.7546771E-02  0.1222962E+00
         21   -1    0    0  505  501  0.00000000000E+00  0.00000000000E+00  0.32874072656E+03  0.32874072656E+03  0.00000000000E+00 0. -1.
         21   -1    0    0  506  502 -0.00000000000E+00 -0.00000000000E+00 -0.20611047956E+03  0.20611047956E+03  0.00000000000E+00 0.  1.
         21    1    1    2  503  501 -0.31433341591E+02  0.14079118092E+03  0.19384186963E+03  0.24162963810E+03  0.00000000000E+00 0. -1.
         21    1    1    2  504  502 -0.31352214022E+02 -0.11897460024E+02 -0.14254315674E+02  0.36437568448E+02  0.00000000000E+00 0. -1.
         21    1    1    2  505  504 -0.28825661985E+01 -0.11750751769E+03  0.52419003021E+02  0.12870150651E+03  0.00000000000E+00 0.  1.
         21    1    1    2  506  503  0.65668121811E+02 -0.11386203205E+02 -0.10937630998E+03  0.12808249307E+03  0.00000000000E+00 0.  1.
<scales pt_clust_3="133.07572" pt_clust_4="33.53373" pt_clust_5="14000.00000" pt_clust_6="48.99448"></scales>
<clustering>
<clus scale="   33.534">  2  4  1 -1</clus>
<clus scale="   48.994">  2  6  1 -1</clus>
<clus scale="  133.076">  1  3  2 -1</clus>
<clus scale="  133.076">  1  3  2 -1</clus>
</clustering>
</event>
<event>
 6    0  0.4469832E+002  0.1281439E+03  0.7546771E-02  0.1230236E+00
         21   -1    0    0  506  501  0.00000000000E+00  0.00000000000E+00  0.10992643177E+03  0.10992643177E+03  0.00000000000E+00 0.  1.
         21   -1    0    0  504  502 -0.00000000000E+00 -0.00000000000E+00 -0.22952827530E+03  0.22952827530E+03  0.00000000000E+00 0.  1.
         21    1    1    2  503  505  0.68048580985E+00 -0.57719144122E+02 -0.17752105748E+01  0.57750446161E+02  0.00000000000E+00 0.  1.
         21    1    1    2  504  501 -0.48874590145E+02  0.14239187703E+02 -0.61303998325E+02  0.79684755374E+02  0.00000000000E+00 0.  1.
         21    1    1    2  505  502 -0.11963634321E+02  0.10146456336E+03 -0.59837033295E+02  0.11840040843E+03  0.00000000000E+00 0.  1.
         21    1    1    2  506  503  0.60157738657E+02 -0.57984606938E+02  0.33143986659E+01  0.83619097105E+02  0.00000000000E+00 0.  1.
<scales pt_clust_3="44.71643" pt_clust_4="50.90658" pt_clust_5="116.30356" pt_clust_6="44.71643"></scales>
<clustering>
<clus scale="   44.716">  3  6 -1 -1</clus>
<clus scale="   50.907">  2  4  1 -1</clus>
<clus scale="  116.304">  2  5  1 -1</clus>
<clus scale="  128.144">  1  3  2 -1</clus>
</clustering>
</event>
<event>
 6    0  0.4469832E+002  0.1688427E+03  0.7546771E-02  0.1179060E+00
         21   -1    0    0  506  501  0.00000000000E+00  0.00000000000E+00  0.31059663850E+03  0.31059663850E+03  0.00000000000E+00 0. -1.
         21   -1    0    0  503  502 -0.00000000000E+00 -0.00000000000E+00 -0.56875610599E+03  0.56875610599E+03  0.00000000000E+00 0. -1.
         21    1    1    2  503  501 -0.11948561529E+03 -0.83195711299E+02 -0.27030415166E+03  0.30702226800E+03  0.00000000000E+00 0. -1.
         21    1    1    2  504  502  0.73050543213E+02  0.35212745986E+02 -0.14315722971E+03  0.16453058002E+03  0.00000000000E+00 0. -1.
         21    1    1    2  505  504  0.10775593702E+03  0.25167800592E+02 -0.97000239442E+02  0.14715232449E+03  0.00000000000E+00 0. -1.
         21    1    1    2  506  505 -0.61320864942E+02  0.22815164720E+02  0.25230215332E+03  0.26064757200E+03  0.00000000000E+00 0. -1.
<scales pt_clust_3="159.29230" pt_clust_4="47.92320" pt_clust_5="47.92320" pt_clust_6="65.42767"></scales>
<clustering>
<clus scale="   47.923">  4  5 -1 -1</clus>
<clus scale="   65.428">  1  6  2 -1</clus>
<clus scale="  159.292">  2  3  1 -1</clus>
<clus scale="   65.428">  1  3  2 -1</clus>
</clustering>
</event>
<event>
 6    0  0.4469832E+002  0.8324642E+02  0.7546771E-02  0.1320083E+00
         21   -1    0    0  505  501  0.00000000000E+00  0.00000000000E+00  0.81819106767E+02  0.81819106767E+02  0.00000000000E+00 0.  1.
         21   -1    0    0  503  502 -0.00000000000E+00 -0.00000000000E+00 -0.35209431090E+03  0.35209431090E+03  0.00000000000E+00 0.  1.
         21    1    1    2  503  506  0.22580672746E+02 -0.54282904304E+02 -0.63882763003E+02  0.86818937394E+02  0.00000000000E+00 0.  1.
         21    1    1    2  504  502 -0.43432820688E+02  0.10343524214E+03 -0.21827900676E+03  0.24542001553E+03  0.00000000000E+00 0.  1.
         21    1    1    2  505  504  0.43093638166E+02 -0.64777381779E+01 -0.15562906560E+02  0.46273391953E+02  0.00000000000E+00 0.  1.
         21    1    1    2  506  501 -0.22241490224E+02 -0.42674599661E+02  0.27449472185E+02  0.55401072795E+02  0.00000000000E+00 0.  1.
<scales pt_clust_3="83.24642" pt_clust_4="14000.00000" pt_clust_5="43.57778" pt_clust_6="46.93970"></scales>
<clustering>
<clus scale="   43.578">  1  5  2 -1</clus>
<clus scale="   46.940">  1  6  2 -1</clus>
<clus scale="   83.246">  2  3  1 -1</clus>
<clus scale="   43.578">  1  3  2 -1</clus>
</clustering>
</event>
<event>
 6    0  0.4469832E+002  0.1117712E+03  0.7546771E-02  0.1257325E+00
         21   -1    0    0  504  501  0.00000000000E+00  0.00000000000E+00  0.19209616002E+03  0.19209616002E+03  0.00000000000E+00 0.  1.
         21   -1    0    0  503  502 -0.00000000000E+00 -0.00000000000E+00 -0.48841107590E+03  0.48841107590E+03  0.00000000000E+00 0.  1.
         21    1    1    2  503  506  0.48680649631E+02 -0.14798615222E+02 -0.33908098875E+03  0.34287712317E+03  0.00000000000E+00 0.  1.
         21    1    1    2  504  505 -0.13611633620E+03 -0.23982022881E+02  0.69296549210E+02  0.15461179170E+03  0.00000000000E+00 0.  1.
         21    1    1    2  505  502 -0.62278772239E+01  0.34073704003E+02 -0.71172152956E+02  0.79153516130E+02  0.00000000000E+00 0.  1.
         21    1    1    2  506  501  0.93663563790E+02  0.47069340994E+01  0.44641676616E+02  0.10386480492E+03  0.00000000000E+00 0.  1.
<scales pt_clust_3="45.53263" pt_clust_4="14000.00000" pt_clust_5="34.63818" pt_clust_6="111.77116"></scales>
<clustering>
<clus scale="   34.638">  2  5  1 -1</clus>
<clus scale="   45.533">  2  3  1 -1</clus>
<clus scale="  111.771">  1  6  2 -1</clus>
<clus scale="  111.771">  1  3  2 -1</clus>
</clustering>
</event>
<event>
 6    0  0.4469832E+002  0.2430661E+03  0.7546771E-02  0.1117767E+00
         21   -1    0    0  506  501  0.00000000000E+00  0.00000000000E+00  0.82610752693E+03  0.82610752693E+03  0.00000000000E+00 0. -1.
         21   -1    0    0  505  502 -0.00000000000E+00 -0.00000000000E+00 -0.24249324685E+03  0.24249324685E+03  0.00000000000E+00 0.  1.
         21    1    1    2  503  502 -0.10902846142E+03 -0.12942317639E+02 -0.74132534834E+02  0.13247770268E+03  0.00000000000E+00 0.  1.
         21    1    1    2  504  503 -0.12030784213E+03 -0.41234429787E+02 -0.58842100394E+02  0.14013082407E+03  0.00000000000E+00 0.  1.
         21    1    1    2  505  501  0.26840556105E+03  0.96535648151E+02  0.54738319050E+03  0.61724309134E+03  0.00000000000E+00 0. -1.
         21    1    1    2  506  504 -0.39069257499E+02 -0.42358900725E+02  0.16920572481E+03  0.17874915569E+03  0.00000000000E+00 0. -1.
<scales pt_clust_3="30.85675" pt_clust_4="30.85675" pt_clust_5="240.78665" pt_clust_6="57.62537"></scales>
<clustering>
<clus scale="   30.857">  3  4 -1 -1</clus>
<clus scale="   57.625">  1  6  2 -1</clus>
<clus scale="  240.787">  1  5  2 -1</clus>
<clus scale="   57.625">  1  3  2 -1</clus>
</clustering>
</event>
<event>
 6    0  0.4469832E+002  0.1604463E+03  0.7546771E-02  0.1188194E+00
         21   -1    0    0  503  501  0.00000000000E+00  0.00000000000E+00  0.71575019678E+02  0.71575019678E+02  0.00000000000E+00 0. -1.
         21   -1    0    0  504  502 -0.00000000000E+00 -0.00000000000E+00 -0.37271884873E+03  0.37271884873E+03  0.00000000000E+00 0.  1.
         21    1    1    2  503  506 -0.20363670497E+02 -0.38470427460E+02 -0.17006409437E+02  0.46731903739E+02  0.00000000000E+00 0. -1.
         21    1    1    2  504  505 -0.31501405405E+02  0.91774641541E+02 -0.82469011274E+02  0.12734229931E+03  0.00000000000E+00 0.  1.
         21    1    1    2  505  501  0.11461482934E+02  0.54025907684E+02 -0.11116041848E+03  0.12412414322E+03  0.00000000000E+00 0.  1.
         21    1    1    2  506  502  0.40403592967E+02 -0.10733012176E+03 -0.90507989861E+02  0.14609552215E+03  0.00000000000E+00 0. -1.
<scales pt_clust_3="38.78659" pt_clust_4="48.21133" pt_clust_5="48.21133" pt_clust_6="160.07208"></scales>
<clustering>
<clus scale="   38.787">  3  6 -1 -1</clus>
<clus scale="   48.211">  4  5 -1 -1</clus>
<clus scale="  160.072">  1  3  2 -1</clus>
<clus scale="  160.072">  1  3  2 -1</clus>
</clustering>
</event>
<event>
 6    0  0.4469832E+002  0.6335696E+02  0.7546771E-02  0.1384261E+00
         21   -1    0    0  504  501  0.00000000000E+00  0.00000000000E+00  0.12108210145E+04  0.12108210145E+04  0.00000000000E+00 0.  1.
         21   -1    0    0  505  502 -0.00000000000E+00 -0.00000000000E+00 -0.15190129134E+02  0.15190129134E+02  0.00000000000E+00 0.  1.
         21    1    1    2  503  506 -0.41067823946E+01  0.71339908023E+02  0.55842793907E+03  0.56298135962E+03  0.00000000000E+00 0.  1.
         21    1    1    2  504  503  0.27033420005E+02 -0.29345932277E+02  0.19977352860E+03  0.20371905230E+03  0.00000000000E+00 0. -1.
         21    1    1    2  505  501 -0.69201399546E+02 -0.58729740867E+02  0.27500324785E+03  0.28959420314E+03  0.00000000000E+00 0.  1.
         21    1    1    2  506  502  0.46274761936E+02  0.16735765120E+02  0.16242616986E+03  0.16971652861E+03  0.00000000000E+00 0.  1.
<scales pt_clust_3="63.35696" pt_clust_4="39.89974" pt_clust_5="14000.00000" pt_clust_6="52.10245"></scales>
<clustering>
<clus scale="   39.900">  1  4  2 -1</clus>
<clus scale="   52.102">  2  6  1 -1</clus>
<clus scale="   63.357">  1  3  2 -1</clus>
<clus scale="   39.900">  1  3  2 -1</clus>
</clustering>
</event>
<event>
 6    0  0.4469832E+002  0.9387250E+02  0.7546771E-02  0.1293736E+00
         21   -1    0    0  506  501  0.00000000000E+00  0.00000000000E+00  0.48914458972E+03  0.48914458972E+03  0.00000000000E+00 0.  1.
         21   -1    0    0  504  502 -0.00000000000E+00 -0.00000000000E+00 -0.70095229456E+02  0.70095229456E+02  0.00000000000E+00 0.  1.
         21    1    1    2  503  501  0.71505903162E+02  0.38340582496E+02  0.16802371278E+03  0.18658794845E+03  0.00000000000E+00 0.  1.
         21    1    1    2  504  503  0.71041426739E+02 -0.18084613777E+02  0.41774079454E+02  0.84374233525E+02  0.00000000000E+00 0.  1.
         21    1    1    2  505  502 -0.12456921474E+02 -0.55886462031E+02  0.32166962252E+02  0.65674842912E+02  0.00000000000E+00 0.  1.
         21    1    1    2  506  505 -0.13009040843E+03  0.35630493312E+02  0.17708460578E+03  0.22260279428E+03  0.00000000000E+00 0.  1.
<scales pt_clust_3="75.01094" pt_clust_4="14000.00000" pt_clust_5="57.25794" pt_clust_6="93.87250"></scales>
<clustering>
<clus scale="   57.258">  2  5  1 -1</clus>
<clus scale="   75.011">  1  3  2 -1</clus>
<clus scale="   93.873">  1  6  2 -1</clus>
<clus scale="   75.011">  1  3  2 -1</clus>
</clustering>
</event>
<event>
 6    0  0.4469832E+002  0.2498019E+03  0.7546771E-02  0.1113430E+00
         21   -1    0    0  504  501  0.00000000000E+00  0.00000000000E+00  0.60904053143E+03  0.60904053143E+03  0.00000000000E+00 0.  1.
         21   -1    0    0  506  502 -0.00000000000E+00 -0.00000000000E+00 -0.64261219423E+03  0.64261219423E+03  0.00000000000E+00 0. -1.
         21    1    1    2  503  501  0.31641554315E+02 -0.13410309343E+02  0.35119850636E+03  0.35287592043E+03  0.00000000000E+00 0.  1.
         21    1    1    2  504  502  0.14506721833E+03  0.27253655081E+03 -0.38491163758E+03  0.49343453275E+03  0.00000000000E+00 0. -1.
         21    1    1    2  505  503 -0.21316947873E+03 -0.13714209253E+03  0.66104789911E+02  0.26195233050E+03  0.00000000000E+00 0. -1.
         21    1    1    2  506  505  0.36460706082E+02 -0.12198414893E+03 -0.65963321481E+02  0.14338994197E+03  0.00000000000E+00 0. -1.
<scales pt_clust_3="34.36603" pt_clust_4="249.80192" pt_clust_5="14000.00000" pt_clust_6="130.67786"></scales>
<clustering>
<clus scale="   34.366">  1  3  2 -1</clus>
<clus scale="  130.678">  2  6  1 -1</clus>
<clus scale="  249.802">  2  4  1 -1</clus>
<clus scale="   34.366">  1  3  2 -1</clus>
</clustering>
</event>
<event>
 6    0  0.4469832E+002  0.9248757E+02  0.7546771E-02  0.1296937E+00
         21   -1    0    0  506  501  0.00000000000E+00  0.00000000000E+00  0.41483575829E+03  0.41483575829E+03  0.00000000000E+00 0. -1.
         21   -1    0    0  503  502 -0.00000000000E+00 -0.00000000000E+00 -0.29852469980E+04  0.29852469980E+04  0.00000000000E+00 0.  1.
         21    1    1    2  503  501 -0.25069042982E+00 -0.54945171369E+02 -0.28467580706E+04  0.28472882796E+04  0.00000000000E+00 0.  1.
         21    1    1    2  504  502  0.21004631527E+02  0.32112234661E+02 -0.79247299160E+02  0.88048421818E+02  0.00000000000E+00 0. -1.
         21    1    1    2  505  504  0.31908314705E+02 -0.57178359900E+02 -0.26641376080E+02  0.70691359497E+02  0.00000000000E+00 0. -1.
         21    1    1    2  506  505 -0.52662255802E+02  0.80011296608E+02  0.38223550614E+03  0.39405469535E+03  0.00000000000E+00 0. -1.
<scales pt_clust_3="31.04470" pt_clust_4="38.37174" pt_clust_5="92.48757" pt_clust_6="14000.00000"></scales>
<clustering>
<clus scale="   38.372">  2  4  1 -1</clus>
<clus scale="   31.045">  2  3  1 -1</clus>
<clus scale="   92.488">  2  5  1 -1</clus>
<clus scale="   92.488">  1  3  2 -1</clus>
</clustering>
</event>
<event>
 6    0  0.4469832E+002  0.1493202E+03  0.7546771E-02  0.1201311E+00
         21   -1    0    0  506  501  0.00000000000E+00  0.00000000000E+00  0.28342009378E+03  0.28342009378E+03  0.00000000000E+00 0. -1.
         21   -1    0    0  504  502 -0.00000000000E+00 -0.00000000000E+00 -0.75102210320E+03  0.75102210320E+03  0.00000000000E+00 0.  1.
         21    1    1    2  503  505  0.22944420003E+02 -0.70523173896E+02 -0.31512653469E+03  0.32373553610E+03  0.00000000000E+00 0.  1.
         21    1    1    2  504  501  0.16451832547E+02  0.17558179169E+03  0.21836776157E+03  0.28068506847E+03  0.00000000000E+00 0. -1.
         21    1    1    2  505  502 -0.11232139083E+02 -0.72754984426E+02 -0.37926595109E+03  0.38634454877E+03  0.00000000000E+00 0.  1.
         21    1    1    2  506  503 -0.28164113467E+02 -0.32303633370E+02  0.84227148068E+01  0.43677043638E+02  0.00000000000E+00 0.  1.
<scales pt_clust_3="36.83682" pt_clust_4="144.67040" pt_clust_5="36.83682" pt_clust_6="42.85723"></scales>
<clustering>
<clus scale="   36.837">  3  5 -1 -1</clus>
<clus scale="   42.857">  1  6  2 -1</clus>
<clus scale="  144.670">  1  4  2 -1</clus>
<clus scale="   42.857">  1  3  2 -1</clus>
</clustering>
</event>
<event>
 6    0  0.4469832E+002  0.1337254E+03  0.7546771E-02  0.1222030E+00
         21   -1    0    0  502  501  0.00000000000E+00  0.00000000000E+00  0.14039214572E+04  0.14039214572E+04  0.00000000000E+00 0. -1.
         21   -1    0    0  505  502 -0.00000000000E+00 -0.00000000000E+00 -0.38831527420E+02  0.38831527420E+02  0.00000000000E+00 0. -1.
         21    1    1    2  503  504  0.70981125557E+02 -0.20474955480E+02  0.36908076931E+03  0.37640159174E+03  0.00000000000E+00 0. -1.
         21    1    1    2  504  501  0.23846281521E+02  0.54788841160E+02  0.77478114282E+03  0.77708190143E+03  0.00000000000E+00 0. -1.
         21    1    1    2  505  506 -0.12616769647E+03 -0.49766586311E+02  0.11625797791E+03  0.17863627339E+03  0.00000000000E+00 0. -1.
         21    1    1    2  506  503  0.31340289388E+02  0.15452700632E+02  0.10497003979E+03  0.11063321811E+03  0.00000000000E+00 0. -1.
<scales pt_clust_3="30.63254" pt_clust_4="59.75335" pt_clust_5="126.08977" pt_clust_6="30.63254"></scales>
<clustering>
<clus scale="   30.633">  3  6 -1 -1</clus>
<clus scale="   59.753">  1  4  2 -1</clus>
<clus scale="  126.090">  2  5  1 -1</clus>
<clus scale="   59.753">  1  3  2 -1</clus>
</clustering>
</event>
<event>
 6    0  0.4469832E+002  0.1513720E+03  0.7546771E-02  0.1198797E+00
         21   -1    0    0  504  501  0.00000000000E+00  0.00000000000E+00  0.14227822000E+03  0.14227822000E+03  0.00000000000E+00 0.  1.
         21   -1    0    0  505  502 -0.00000000000E+00 -0.00000000000E+00 -0.10865120897E+04  0.10865120897E+04  0.00000000000E+00 0. -1.
         21    1    1    2  503  502 -0.12461628145E+03 -0.13525138508E+02 -0.60389925580E+03  0.61677099326E+03  0.00000000000E+00 0. -1.
         21    1    1    2  504  503  0.16751859147E+03 -0.13009213964E+02  0.63641463040E+02  0.17967179510E+03  0.00000000000E+00 0.  1.
         21    1    1    2  505  506 -0.24387092500E+02  0.54301515521E+02 -0.39260117830E+03  0.39708823966E+03  0.00000000000E+00 0. -1.
         21    1    1    2  506  501 -0.18515217525E+02 -0.27767163050E+02 -0.11374898597E+02  0.35259281642E+02  0.00000000000E+00 0. -1.
<scales pt_clust_3="151.37204" pt_clust_4="14000.00000" pt_clust_5="59.22289" pt_clust_6="33.37407"></scales>
<clustering>
<clus scale="   33.374">  1  6  2 -1</clus>
<clus scale="   59.223">  2  5  1 -1</clus>
<clus scale="  151.372">  2  3  1 -1</clus>
<clus scale="   33.374">  1  3  2 -1</clus>
</clustering>
</event>
<event>
 6    0  0.4469832E+002  0.1059421E+03  0.7546771E-02  0.1268275E+00
         21   -1    0    0  504  501  0.00000000000E+00  0.00000000000E+00  0.63090726907E+02  0.63090726907E+02  0.00000000000E+00 0.  1.
         21   -1    0    0  505  502 -0.00000000000E+00 -0.00000000000E+00 -0.45710426831E+03  0.45710426831E+03  0.00000000000E+00 0.  1.
         21    1    1    2  503  502  0.89499372812E+02 -0.37272065110E+02 -0.21857297494E+03  0.23910978638E+03  0.00000000000E+00 0.  1.
         21    1    1    2  504  506  0.19772250798E+02  0.24169413856E+02 -0.14147087127E+01  0.31258660697E+02  0.00000000000E+00 0. -1.
         21    1    1    2  505  501 -0.12000483879E+03  0.56623090840E+02 -0.11418176545E+03  0.17505659459E+03  0.00000000000E+00 0.  1.
         21    1    1    2  506  503  0.10733215176E+02 -0.43520439586E+02 -0.59844092301E+02  0.74769953544E+02  0.00000000000E+00 0.  1.
<scales pt_clust_3="105.94206" pt_clust_4="31.22663" pt_clust_5="14000.00000" pt_clust_6="42.10059"></scales>
<clustering>
<clus scale="   31.227">  1  4  2 -1</clus>
<clus scale="   42.101">  1  6  2 -1</clus>
<clus scale="  105.942">  2  3  1 -1</clus>
<clus scale="   31.227">  1  3  2 -1</clus>
</clustering>
</event>
<event>
 6    0  0.4469832E+002  0.8184828E+02  0.7546771E-02  0.1323887E+00
         21   -1    0    0  505  501  0.00000000000E+00  0.00000000000E+00  0.13510207764E+04  0.13510207764E+04  0.00000000000E+00 0.  1.
         21   -1    0    0  506  502 -0.00000000000E+00 -0.00000000000E+00 -0.19203358183E+03  0.19203358183E+03  0.00000000000E+00 0. -1.
         21    1    1    2  503  502  0.42964211994E+02  0.13752113386E+02 -0.71985229280E+02  0.84952441809E+02  0.00000000000E+00 0. -1.
         21    1    1    2  504  503 -0.11287546100E+03  0.19857633223E+02 -0.69843441531E+02  0.13421364170E+03  0.00000000000E+00 0. -1.
         21    1    1    2  505  504  0.12742681347E+03 -0.13516536835E+02  0.11944967517E+04  0.12013503982E+04  0.00000000000E+00 0.  1.
         21    1    1    2  506  501 -0.57515564459E+02 -0.20093209774E+02  0.10631911365E+03  0.12253787644E+03  0.00000000000E+00 0. -1.
<scales pt_clust_3="45.11146" pt_clust_4="14000.00000" pt_clust_5="81.84828" pt_clust_6="57.70424"></scales>
<clustering>
<clus scale="   45.111">  2  3  1 -1</clus>
<clus scale="   57.704">  1  6  2 -1</clus>
<clus scale="   81.848">  1  5  2 -1</clus>
<clus scale="   57.704">  1  3  2 -1</clus>
</clustering>
</event>
<event>
 6    0  0.4469832E+002  0.1103753E+03  0.7546771E-02  0.1259877E+00
         21   -1    0    0  503  501  0.00000000000E+00  0.00000000000E+00  0.16485968888E+04  0.16485968888E+04  0.00000000000E+00 0.  1.
         21   -1    0    0  504  502 -0.00000000000E+00 -0.00000000000E+00 -0.54591354378E+03  0.54591354378E+03  0.00000000000E+00 0.  1.
         21    1    1    2  503  506 -0.30287855208E+02 -0.51301986637E+02  0.12159915565E+04  0.12174500867E+04  0.00000000000E+00 0.  1.
         21    1    1    2  504  501  0.11712340323E+03  0.87897992819E+02  0.31882615014E+03  0.35084763465E+03  0.00000000000E+00 0. -1.
         21    1    1    2  505  502 -0.62909699290E+01  0.96109152315E+02 -0.45871543175E+03  0.46871781787E+03  0.00000000000E+00 0.  1.
         21    1    1    2  506  505 -0.80544578098E+02 -0.13270515850E+03  0.26581070106E+02  0.15749489338E+03  0.00000000000E+00 0. -1.
<scales pt_clust_3="59.57557" pt_clust_4="14000.00000" pt_clust_5="95.74571" pt_clust_6="110.37528"></scales>
<clustering>
<clus scale="   59.576">  1  3  2 -1</clus>
<clus scale="   95.746">  2  5  1 -1</clus>
<clus scale="  110.375">  2  6  1 -1</clus>
<clus scale="   59.576">  1  3  2 -1</clus>
</clustering>
</event>
<event>
 6    0  0.4469832E+002  0.9939726E+02  0.7546771E-02  0.1281569E+00
         21   -1    0    0  505  501  0.00000000000E+00  0.00000000000E+00  0.28545548154E+03  0.28545548154E+03  0.00000000000E+00 0. -1.
         21   -1    0    0  504  502 -0.00000000000E+00 -0.00000000000E+00 -0.16619625061E+03  0.16619625061E+03  0.00000000000E+00 0. -1.
         21    1    1    2  503  506 -0.90537643045E+02 -0.43094011176E+02  0.11823913502E+03  0.15503113125E+03  0.00000000000E+00 0. -1.
         21    1    1    2  504  501  0.55613285782E+02  0.55527679023E+02 -0.11936305097E+03  0.14291150629E+03  0.00000000000E+00 0. -1.
         21    1    1    2  505  503  0.25143247818E+02 -0.41127545580E+02  0.11248996479E+03  0.12238321002E+03  0.00000000000E+00 0. -1.
         21    1    1    2  506  502  0.97811094454E+01  0.28693877733E+02  0.78931820993E+01  0.31325884584E+02  0.00000000000E+00 0.  1.
<scales pt_clust_3="14000.00000" pt_clust_4="99.39726" pt_clust_5="47.58963" pt_clust_6="30.31516"></scales>
<clustering>
<clus scale="   30.315">  2  6  1 -1</clus>
<clus scale="   47.590">  1  5  2 -1</clus>
<clus scale="   99.397">  2  4  1 -1</clus>
<clus scale="   47.590">  1  3  2 -1</clus>
</clustering>
</event>
<event>
 6    0  0.4469832E+002  0.1337860E+03  0.7546771E-02  0.1221944E+00
         21   -1    0    0  503  501  0.00000000000E+00  0.00000000000E+00  0.68151750278E+02  0.68151750278E+02  0.00000000000E+00 0. -1.
         21   -1    0    0  506  502 -0.00000000000E+00 -0.00000000000E+00 -0.66453172001E+03  0.66453172001E+03  0.00000000000E+00 0. -1.
         21    1    1    2  503  505  0.10994640387E+03  0.68998379621E+02 -0.21157077426E+02  0.13151657705E+03  0.00000000000E+00 0. -1.
         21    1    1    2  504  501 -0.12050645920E+02 -0.44149980204E+02 -0.20730887959E+03  0.21230028351E+03  0.00000000000E+00 0. -1.
         21    1    1    2  505  502 -0.35624866884E+02  0.15415313200E+02 -0.55207371274E+02  0.67487901616E+02  0.00000000000E+00 0.  1.
         21    1    1    2  506  504 -0.62270891065E+02 -0.40263712618E+02 -0.31270664144E+03  0.32137870812E+03  0.00000000000E+00 0. -1.
<scales pt_clust_3="127.08635" pt_clust_4="32.84282" pt_clust_5="38.81705" pt_clust_6="32.84282"></scales>
<clustering>
<clus scale="   32.843">  4  6 -1 -1</clus>
<clus scale="   38.817">  2  5  1 -1</clus>
<clus scale="  127.086">  1  3  2 -1</clus>
<clus scale="  127.086">  1  3  2 -1</clus>
</clustering>
</event>
<event>
 6    0  0.4469832E+002  0.1421553E+03  0.7546771E-02  0.1210458E+00
         21   -1    0    0  505  501  0.00000000000E+00  0.00000000000E+00  0.28009555590E+03  0.28009555590E+03  0.00000000000E+00 0.  1.
         21   -1    0    0  504  502 -0.00000000000E+00 -0.00000000000E+00 -0.83040693345E+02  0.83040693345E+02  0.00000000000E+00 0.  1.
         21    1    1    2  503  501 -0.93786689012E+02  0.24564219527E+02  0.31204995640E+02  0.10184839552E+03  0.00000000000E+00 0.  1.
         21    1    1    2  504  503 -0.38836659872E+02 -0.18432732805E+02 -0.29411996355E+01  0.43089470222E+02  0.00000000000E+00 0.  1.
         21    1    1    2  505  506  0.82916332948E+02 -0.18333305916E+02  0.12334928103E+03  0.14975404337E+03  0.00000000000E+00 0.  1.
         21    1    1    2  506  502  0.49707015936E+02  0.12201819194E+02  0.45441785521E+02  0.68444340133E+02  0.00000000000E+00 0.  1.
<scales pt_clust_3="33.83360" pt_clust_4="33.83360" pt_clust_5="138.27549" pt_clust_6="30.00345"></scales>
<clustering>
<clus scale="   30.003">  5  6 -1 -1</clus>
<clus scale="   33.834">  3  4 -1 -1</clus>
<clus scale="  138.275">  1  5  2 -1</clus>
<clus scale="  138.275">  1  3  2 -1</clus>
</clustering>
</event>
<event>
 6    0  0.4469832E+002  0.8716115E+02  0.7546771E-02  0.1309876E+00
         21   -1    0    0  502  501  0.00000000000E+00  0.00000000000E+00  0.13844566804E+03  0.13844566804E+03  0.00000000000E+00 0.  1.
         21   -1    0    0  506  502 -0.00000000000E+00 -0.00000000000E+00 -0.21836241496E+03  0.21836241496E+03  0.00000000000E+00 0.  1.
         21    1    1    2  503  501 -0.45373891401E+02 -0.74505592054E+02  0.44161934791E+02  0.97776018290E+02  0.00000000000E+00 0.  1.
         21    1    1    2  504  505  0.14049948537E+02  0.63257125150E+02 -0.70888655400E+01  0.65185251022E+02  0.00000000000E+00 0.  1.
         21    1    1    2  505  503  0.72286116521E+02  0.56254099800E+02 -0.85619635689E+02  0.12538153134E+03  0.00000000000E+00 0.  1.
         21    1    1    2  506  504 -0.40962173657E+02 -0.45005632896E+02 -0.31370180486E+02  0.68465282347E+02  0.00000000000E+00 0.  1.
<scales pt_clust_3="87.16115" pt_clust_4="53.85958" pt_clust_5="14000.00000" pt_clust_6="60.85562"></scales>
<clustering>
<clus scale="   60.856">  2  6  1 -1</clus>
<clus scale="   53.860">  2  4  1 -1</clus>
<clus scale="   87.161">  1  3  2 -1</clus>
<clus scale="   87.161">  1  3  2 -1</clus>
</clustering>
</event>
<event>
 6    0  0.4469832E+002  0.9384210E+02  0.7546771E-02  0.1293805E+00
         21   -1    0    0  506  501  0.00000000000E+00  0.00000000000E+00  0.21001567588E+03  0.21001567588E+03  0.00000000000E+00 0. -1.
         21   -1    0    0  505  502 -0.00000000000E+00 -0.00000000000E+00 -0.51910250864E+03  0.51910250864E+03  0.00000000000E+00 0. -1.
         21    1    1    2  503  504  0.92101208395E+02 -0.15035103776E+02 -0.33592016261E+03  0.34864171090E+03  0.00000000000E+00 0. -1.
         21    1    1    2  504  501 -0.93748999217E+02 -0.35730052079E+02 -0.48505801997E+02  0.11143753543E+03  0.00000000000E+00 0.  1.
         21    1    1    2  505  503 -0.18481577786E+01 -0.30084361443E+02 -0.84590879205E+02  0.89800341509E+02  0.00000000000E+00 0.  1.
         21    1    1    2  506  502  0.34959486000E+01  0.80849517298E+02  0.15993001106E+03  0.17923859668E+03  0.00000000000E+00 0. -1.
<scales pt_clust_3="93.84210" pt_clust_4="14000.00000" pt_clust_5="30.14108" pt_clust_6="80.25144"></scales>
<clustering>
<clus scale="   30.141">  2  5  1 -1</clus>
<clus scale="   80.251">  1  6  2 -1</clus>
<clus scale="   93.842">  2  3  1 -1</clus>
<clus scale="   80.251">  1  3  2 -1</clus>
</clustering>
</event>
<event>
 6    0  0.4469832E+002  0.1845418E+03  0.7546771E-02  0.1163478E+00
         21   -1    0    0  506  501  0.00000000000E+00  0.00000000000E+00  0.40285039941E+03  0.40285039941E+03  0.00000000000E+00 0. -1.
         21   -1    0    0  505  502 -0.00000000000E+00 -0.00000000000E+00 -0.51448493629E+03  0.51448493629E+03  0.00000000000E+00 0. -1.
         21    1    1    2  503  501  0.46857278884E+02  0.34059304522E+02  0.16591860724E+03  0.17574022032E+03  0.00000000000E+00 0. -1.
         21    1    1    2  504  503  0.11679080968E+03  0.22423929737E+02  0.16196266225E+03  0.20093488949E+03  0.00000000000E+00 0. -1.
         21    1    1    2  505  504  0.23274660096E+02 -0.10965866802E+03 -0.22385050170E+03  0.25035131393E+03  0.00000000000E+00 0. -1.
         21    1    1    2  506  502 -0.18692274866E+03  0.53175433757E+02 -0.21566530467E+03  0.29030891196E+03  0.00000000000E+00 0. -1.
<scales pt_clust_3="46.33173" pt_clust_4="46.33173" pt_clust_5="112.10144" pt_clust_6="172.18805"></scales>
<clustering>
<clus scale="   46.332">  3  4 -1 -1</clus>
<clus scale="  112.101">  2  5  1 -1</clus>
<clus scale="  172.188">  2  6  1 -1</clus>
<clus scale="  184.542">  1  3  2 -1</clus>
</clustering>
</event>
<event>
 6    0  0.5174087E+002  0.1367520E+03  0.7546771E-02  0.1217767E+00
         21   -1    0    0  504  501  0.00000000000E+00  0.00000000000E+00  0.42253112458E+03  0.42253112458E+03  0.00000000000E+00 0.  1.
         21   -1    0    0  506  502 -0.00000000000E+00 -0.00000000000E+00 -0.75856535540E+03  0.75856535540E+03  0.00000000000E+00 0. -1.
         21    1    1    2  503  501 -0.46281133076E+02 -0.10865190365E-01  0.45107568455E+02  0.64626899421E+02  0.00000000000E+00 0. -1.
         21    1    1    2  504  505 -0.45413322982E+02  0.28302126400E+02  0.33728544912E+03  0.34150381323E+03  0.00000000000E+00 0.  1.
         21    1    1    2  505  502  0.13770546199E+03 -0.14713625739E+02 -0.71341443996E+03  0.72673203328E+03  0.00000000000E+00 0. -1.
         21    1    1    2  506  503 -0.46011005936E+02 -0.13577635471E+02 -0.50128084328E+01  0.48233734052E+02  0.00000000000E+00 0.  1.
<scales pt_clust_3="46.28113" pt_clust_4="136.75197" pt_clust_5="14000.00000" pt_clust_6="50.58765"></scales>
<clustering>
<clus scale="   46.281">  1  3  2 -1</clus>
<clus scale="   50.588">  1  6  2 -1</clus>
<clus scale="  136.752">  1  4  2 -1</clus>
<clus scale="   46.281">  1  3  2 -1</clus>
</clustering>
</event>
<event>
 6    0  0.4469832E+002  0.1053169E+03  0.7546771E-02  0.1269497E+00
         21   -1    0    0  505  501  0.00000000000E+00  0.00000000000E+00  0.10960258539E+04  0.10960258539E+04  0.00000000000E+00 0.  1.
         21   -1    0    0  504  502 -0.00000000000E+00 -0.00000000000E+00 -0.43071377816E+02  0.43071377816E+02  0.00000000000E+00 0.  1.
         21    1    1    2  503  506  0.14341290239E+03 -0.42592439927E+00  0.29286481761E+03  0.32609391803E+03  0.00000000000E+00 0.  1.
         21    1    1    2  504  501 -0.37600067251E+02  0.24159928044E+02  0.90911626281E+02  0.10130345983E+03  0.00000000000E+00 0.  1.
         21    1    1    2  505  503 -0.76068832555E+02 -0.69512770841E+02  0.64291028486E+03  0.65111606260E+03  0.00000000000E+00 0.  1.
         21    1    1    2  506  502 -0.29744002581E+02  0.45778767196E+02  0.26267747368E+02  0.60583791292E+02  0.00000000000E+00 0.  1.
<scales pt_clust_3="105.31687" pt_clust_4="44.69303" pt_clust_5="14000.00000" pt_clust_6="73.52325"></scales>
<clustering>
<clus scale="   44.693">  2  4  1 -1</clus>
<clus scale="   73.523">  2  6  1 -1</clus>
<clus scale="  105.317">  2  3  1 -1</clus>
<clus scale="  105.317">  1  3  2 -1</clus>
</clustering>
</event>
<event>
 6    0  0.4469832E+002  0.1007269E+03  0.7546771E-02  0.1278775E+00
         21   -1    0    0  504  501  0.00000000000E+00  0.00000000000E+00  0.10621983099E+03  0.10621983099E+03  0.00000000000E+00 0. -1.
         21   -1    0    0  506  502 -0.00000000000E+00 -0.00000000000E+00 -0.86352225681E+03  0.86352225681E+03  0.00000000000E+00 0. -1.
         21    1    1    2  503  502  0.65914616040E+02 -0.59633301091E+02 -0.60027554572E+03  0.60682089449E+03  0.00000000000E+00 0. -1.
         21    1    1    2  504  503 -0.12686486271E+03  0.26311266554E+02 -0.10267732207E+03  0.16531669185E+03  0.00000000000E+00 0. -1.
         21    1    1    2  505  501  0.32449017327E+02 -0.33643930394E+01  0.63246591412E+02  0.71164521998E+02  0.00000000000E+00 0. -1.
         21    1    1    2  506  505  0.28501229344E+02  0.36686427576E+02 -0.11759614944E+03  0.12643997946E+03  0.00000000000E+00 0. -1.
<scales pt_clust_3="100.72689" pt_clust_4="14000.00000" pt_clust_5="32.62297" pt_clust_6="48.51341"></scales>
<clustering>
<clus scale="   32.623">  1  5  2 -1</clus>
<clus scale="   48.513">  2  6  1 -1</clus>
<clus scale="  100.727">  2  3  1 -1</clus>
<clus scale="   32.623">  1  3  2 -1</clus>
</clustering>
</event>
<event>
 6    0  0.4469832E+002  0.1227971E+03  0.7546771E-02  0.1238553E+00
         21   -1    0    0  505  501  0.00000000000E+00  0.00000000000E+00  0.40099836592E+03  0.40099836592E+03  0.00000000000E+00 0.  1.
         21   -1    0    0  506  502 -0.00000000000E+00 -0.00000000000E+00 -0.69262405085E+03  0.69262405085E+03  0.00000000000E+00 0. -1.
         21    1    1    2  503  501  0.53065877124E+01 -0.40018000310E+02  0.21087820232E+03  0.21470728081E+03  0.00000000000E+00 0.  1.
         21    1    1    2  504  502 -0.98152033598E+02  0.51236482052E+01 -0.57863453557E+03  0.58692248144E+03  0.00000000000E+00 0. -1.
         21    1    1    2  505  504  0.11482178347E+03  0.69827828985E+01  0.16221683573E+03  0.19886453432E+03  0.00000000000E+00 0.  1.
         21    1    1    2  506  503 -0.21976337581E+02  0.27911569206E+02 -0.86086187411E+02  0.93128120200E+02  0.00000000000E+00 0. -1.
<scales pt_clust_3="40.27133" pt_clust_4="14000.00000" pt_clust_5="122.79706" pt_clust_6="35.52485"></scales>
<clustering>
<clus scale="   35.525">  2  6  1 -1</clus>
<clus scale="   40.271">  1  3  2 -1</clus>
<clus scale="  122.797">  1  5  2 -1</clus>
<clus scale="   40.271">  1  3  2 -1</clus>
</clustering>
</event>
<event>
 6    0  0.4469832E+002  0.1068658E+03  0.7546771E-02  0.1266487E+00
         21   -1    0    0  503  501  0.00000000000E+00  0.00000000000E+00  0.56215052781E+03  0.56215052781E+03  0.00000000000E+00 0. -1.
         21   -1    0    0  505  502 -0.00000000000E+00 -0.00000000000E+00 -0.16122813638E+04  0.16122813638E+04  0.00000000000E+00 0.  1.
         21    1    1    2  503  504 -0.37084117284E+02  0.10140701511E+02  0.43721529682E+03  0.43890235970E+03  0.00000000000E+00 0. -1.
         21    1    1    2  504  502 -0.54813355322E+02 -0.70202652989E+02 -0.14657424821E+03  0.17151363400E+03  0.00000000000E+00 0.  1.
         21    1    1    2  505  506  0.16278760192E+03  0.93418923656E+02 -0.14317232983E+04  0.14439731651E+04  0.00000000000E+00 0.  1.
         21    1    1    2  506  501 -0.70890129311E+02 -0.33356972177E+02  0.90951413757E+02  0.12004273277E+03  0.00000000000E+00 0. -1.
<scales pt_clust_3="38.44562" pt_clust_4="90.62720" pt_clust_5="106.86575" pt_clust_6="14000.00000"></scales>
<clustering>
<clus scale="   38.446">  1  3  2 -1</clus>
<clus scale="   90.627">  2  4  1 -1</clus>
<clus scale="  106.866">  2  5  1 -1</clus>
<clus scale="   38.446">  1  3  2 -1</clus>
</clustering>
</event>
<event>
 6    0  0.4469832E+002  0.1405569E+03  0.7546771E-02  0.1212582E+00
         21   -1    0    0  503  501  0.00000000000E+00  0.00000000000E+00  0.10369476201E+04  0.10369476201E+04  0.00000000000E+00 0.  1.
         21   -1    0    0  504  502 -0.00000000000E+00 -0.00000000000E+00 -0.86677098563E+02  0.86677098563E+02  0.00000000000E+00 0.  1.
         21    1    1    2  503  506  0.33712853622E+02  0.14223207815E+01  0.79592637702E+03  0.79664131021E+03  0.00000000000E+00 0.  1.
         21    1    1    2  504  505 -0.57211688426E+02 -0.66719449213E+02  0.48934345450E+02  0.10059439527E+03  0.00000000000E+00 0.  1.
         21    1    1    2  505  501 -0.57602449349E+02 -0.32542608631E+02  0.65718151412E+02  0.93252018597E+02  0.00000000000E+00 0.  1.
         21    1    1    2  506  502  0.81101284153E+02  0.97839737062E+02  0.39691647690E+02  0.13313699462E+03  0.00000000000E+00 0.  1.
<scales pt_clust_3="33.74284" pt_clust_4="32.41662" pt_clust_5="32.41662" pt_clust_6="135.50000"></scales>
<clustering>
<clus scale="   32.417">  4  5 -1 -1</clus>
<clus scale="   33.743">  1  3  2 -1</clus>
<clus scale="  135.500">  2  6  1 -1</clus>
<clus scale="   33.743">  1  3  2 -1</clus>
</clustering>
</event>
<event>
 6    0  0.4469832E+002  0.8369239E+02  0.7546771E-02  0.1318888E+00
         21   -1    0    0  503  501  0.00000000000E+00  0.00000000000E+00  0.19597661798E+03  0.19597661798E+03  0.00000000000E+00 0. -1.
         21   -1    0    0  504  502 -0.00000000000E+00 -0.00000000000E+00 -0.18711721987E+03  0.18711721987E+03  0.00000000000E+00 0. -1.
         21    1    1    2  503  505  0.30395810549E+02 -0.40534308445E+02  0.90976660862E+02  0.10413303166E+03  0.00000000000E+00 0. -1.
         21    1    1    2  504  501  0.92328270337E+02  0.65000941873E+02 -0.71093661411E+02  0.13343140800E+03  0.00000000000E+00 0. -1.
         21    1    1    2  505  506 -0.55628937236E+02 -0.10168301590E+02  0.31584072100E+02  0.64772884957E+02  0.00000000000E+00 0. -1.
         21    1    1    2  506  502 -0.67095143650E+02 -0.14298331837E+02 -0.42607673444E+02  0.80756513242E+02  0.00000000000E+00 0. -1.
<scales pt_clust_3="50.66493" pt_clust_4="83.69239" pt_clust_5="50.60799" pt_clust_6="14000.00000"></scales>
<clustering>
<clus scale="   50.665">  1  3  2 -1</clus>
<clus scale="   50.608">  1  5  2 -1</clus>
<clus scale="   83.692">  1  4  2 -1</clus>
<clus scale="   50.665">  1  3  2 -1</clus>
</clustering>
</event>
<event>
 6    0  0.4469832E+002  0.9858573E+02  0.7546771E-02  0.1283298E+00
         21   -1    0    0  504  501  0.00000000000E+00  0.00000000000E+00  0.29888671787E+03  0.29888671787E+03  0.00000000000E+00 0. -1.
         21   -1    0    0  506  502 -0.00000000000E+00 -0.00000000000E+00 -0.25657077261E+03  0.25657077261E+03  0.00000000000E+00 0. -1.
         21    1    1    2  503  505  0.41927398966E+02 -0.89351790031E+02 -0.14769248039E+03  0.17763647691E+03  0.00000000000E+00 0. -1.
         21    1    1    2  504  502 -0.55434163238E+02  0.78559554712E+02 -0.18214023072E+02  0.97858575132E+02  0.00000000000E+00 0. -1.
         21    1    1    2  505  501  0.41073141190E+02  0.26656881632E+02  0.23397163173E+03  0.23904040813E+03  0.00000000000E+00 0. -1.
         21    1    1    2  506  503 -0.27566376918E+02 -0.15864646313E+02 -0.25749183005E+02  0.40922030307E+02  0.00000000000E+00 0. -1.
<scales pt_clust_3="14000.00000" pt_clust_4="98.58573" pt_clust_5="48.60465" pt_clust_6="31.80554"></scales>
<clustering>
<clus scale="   31.806">  2  6  1 -1</clus>
<clus scale="   48.605">  1  5  2 -1</clus>
<clus scale="   98.586">  1  4  2 -1</clus>
<clus scale="   48.605">  1  3  2 -1</clus>
</clustering>
</event>
<event>
 6    0  0.4469832E+002  0.1480795E+03  0.7546771E-02  0.1202853E+00
         21   -1    0    0  506  501  0.00000000000E+00  0.00000000000E+00  0.73160403593E+03  0.73160403593E+03  0.00000000000E+00 0. -1.
         21   -1    0    0  501  502 -0.00000000000E+00 -0.00000000000E+00 -0.14917851105E+03  0.14917851105E+03  0.00000000000E+00 0.  1.
         21    1    1    2  503  504 -0.16924180914E+03  0.27183449979E+02  0.62455365258E+03  0.64764882063E+03  0.00000000000E+00 0. -1.
         21    1    1    2  504  505  0.52822702472E+02 -0.79645822232E+01 -0.13128109816E+02  0.55009269526E+02  0.00000000000E+00 0.  1.
         21    1    1    2  505  502  0.86659266369E+02 -0.10846662389E+02 -0.80031611052E+02  0.11845901106E+03  0.00000000000E+00 0.  1.
         21    1    1    2  506  503  0.29759840297E+02 -0.83722053672E+01  0.51031593168E+02  0.59665445766E+02  0.00000000000E+00 0.  1.
<scales pt_clust_3="142.56262" pt_clust_4="31.43832" pt_clust_5="31.43832" pt_clust_6="30.91508"></scales>
<clustering>
<clus scale="   30.915">  1  6  2 -1</clus>
<clus scale="   31.438">  4  5 -1 -1</clus>
<clus scale="  142.563">  1  3  2 -1</clus>
<clus scale="   30.915">  1  3  2 -1</clus>
</clustering>
</event>
<event>
 6    0  0.4469832E+002  0.9006176E+02  0.7546771E-02  0.1302702E+00
         21   -1    0    0  506  501  0.00000000000E+00  0.00000000000E+00  0.77140850818E+02  0.77140850818E+02  0.00000000000E+00 0.  1.
         21   -1    0    0  505  502 -0.00000000000E+00 -0.00000000000E+00 -0.32646143489E+03  0.32646143489E+03  0.00000000000E+00 0.  1.
         21    1    1    2  503  504  0.10666060662E+03 -0.66795573078E+02 -0.73921277954E+02  0.14595372185E+03  0.00000000000E+00 0.  1.
         21    1    1    2  504  501 -0.11940043445E+02  0.47959148851E+02 -0.25269045216E+00  0.49423764005E+02  0.00000000000E+00 0.  1.
         21    1    1    2  505  503 -0.42840692696E+02 -0.20497412628E+02 -0.75505613988E+02  0.89199588670E+02  0.00000000000E+00 0.  1.
         21    1    1    2  506  502 -0.51879870476E+02  0.39333836856E+02 -0.99641001680E+02  0.11902521119E+03  0.00000000000E+00 0.  1.
<scales pt_clust_3="90.06176" pt_clust_4="48.68307" pt_clust_5="47.49178" pt_clust_6="14000.00000"></scales>
<clustering>
<clus scale="   47.492">  2  5  1 -1</clus>
<clus scale="   48.683">  1  4  2 -1</clus>
<clus scale="   90.062">  1  3  2 -1</clus>
<clus scale="   48.683">  1  3  2 -1</clus>
</clustering>
</event>
<event>
 6    0  0.4469832E+002  0.1036320E+03  0.7546771E-02  0.1272838E+00
         21   -1    0    0  506  501  0.00000000000E+00  0.00000000000E+00  0.29930230679E+03  0.29930230679E+03  0.00000000000E+00 0.  1.
         21   -1    0    0  504  502 -0.00000000000E+00 -0.00000000000E+00 -0.81077189936E+03  0.81077189936E+03  0.00000000000E+00 0. -1.
         21    1    1    2  503  505 -0.16360995321E+02 -0.76936122493E+02  0.30399597790E+02  0.84326654493E+02  0.00000000000E+00 0.  1.
         21    1    1    2  504  503  0.83360001498E+02 -0.60985463604E+02 -0.67097962323E+03  0.67888273760E+03  0.00000000000E+00 0. -1.
         21    1    1    2  505  501 -0.26658374055E+02  0.16141136500E+02  0.19855568671E+03  0.20098648193E+03  0.00000000000E+00 0.  1.
         21    1    1    2  506  502 -0.40340632122E+02  0.12178044960E+03 -0.69445253831E+02  0.14587833213E+03  0.00000000000E+00 0.  1.
<scales pt_clust_3="74.70452" pt_clust_4="14000.00000" pt_clust_5="31.16417" pt_clust_6="103.63204"></scales>
<clustering>
<clus scale="   31.164">  1  5  2 -1</clus>
<clus scale="   74.705">  1  3  2 -1</clus>
<clus scale="  103.632">  1  6  2 -1</clus>
<clus scale="   31.164">  1  3  2 -1</clus>
</clustering>
</event>
<event>
 6    0  0.4469832E+002  0.1227247E+03  0.7546771E-02  0.1238669E+00
         21   -1    0    0  503  501  0.00000000000E+00  0.00000000000E+00  0.15790112130E+04  0.15790112130E+04  0.00000000000E+00 0.  1.
         21   -1    0    0  506  502 -0.00000000000E+00 -0.00000000000E+00 -0.56594867943E+02  0.56594867943E+02  0.00000000000E+00 0.  1.
         21    1    1    2  503  504  0.54074698029E+02 -0.73198723051E+02  0.32862800159E+03  0.34099631883E+03  0.00000000000E+00 0.  1.
         21    1    1    2  504  502  0.34928192571E+02 -0.83752560567E+02  0.74635540929E+02  0.11749439990E+03  0.00000000000E+00 0.  1.
         21    1    1    2  505  501 -0.57096477153E+01 -0.31461037718E+02  0.77753511419E+03  0.77819229678E+03  0.00000000000E+00 0.  1.
         21    1    1    2  506  505 -0.83293242885E+02  0.18841232134E+03  0.34161768831E+03  0.39892306540E+03  0.00000000000E+00 0.  1.
<scales pt_clust_3="14000.00000" pt_clust_4="93.98538" pt_clust_5="31.97494" pt_clust_6="122.72469"></scales>
<clustering>
<clus scale="   31.975">  1  5  2 -1</clus>
<clus scale="   93.985">  2  4  1 -1</clus>
<clus scale="  122.725">  2  6  1 -1</clus>
<clus scale="   31.975">  1  3  2 -1</clus>
</clustering>
</event>
<event>
 6    0  0.4469832E+002  0.1353480E+03  0.7546771E-02  0.1219729E+00
         21   -1    0    0  505  501  0.00000000000E+00  0.00000000000E+00  0.78246157645E+03  0.78246157645E+03  0.00000000000E+00 0.  1.
         21   -1    0    0  506  502 -0.00000000000E+00 -0.00000000000E+00 -0.64177973028E+02  0.64177973028E+02  0.00000000000E+00 0.  1.
         21    1    1    2  503  501 -0.36435947518E+02  0.88438820681E+01  0.54464887531E+02  0.66122738111E+02  0.00000000000E+00 0.  1.
         21    1    1    2  504  502  0.64817996330E+02 -0.14202313066E+03  0.21443390560E+03  0.26524298702E+03  0.00000000000E+00 0.  1.
         21    1    1    2  505  504  0.38744406362E+02  0.82190002322E+02  0.41399639272E+03  0.42385060893E+03  0.00000000000E+00 0.  1.
         21    1    1    2  506  503 -0.67126455174E+02  0.50989246268E+02  0.35388417568E+02  0.91423215417E+02  0.00000000000E+00 0.  1.
<scales pt_clust_3="32.95667" pt_clust_4="126.00449" pt_clust_5="90.86432" pt_clust_6="32.95667"></scales>
<clustering>
<clus scale="   32.957">  3  6 -1 -1</clus>
<clus scale="   90.864">  1  5  2 -1</clus>
<clus scale="  126.004">  1  4  2 -1</clus>
<clus scale="   90.864">  1  3  2 -1</clus>
</clustering>
</event>
<event>
 6    0  0.4469832E+002  0.7377956E+02  0.7546771E-02  0.1347693E+00
         21   -1    0    0  505  501  0.00000000000E+00  0.00000000000E+00  0.20622231506E+04  0.20622231506E+04  0.00000000000E+00 0. -1.
         21   -1    0    0  503  502 -0.00000000000E+00 -0.00000000000E+00 -0.16751403876E+03  0.16751403876E+03  0.00000000000E+00 0. -1.
         21    1    1    2  503  506 -0.57983734565E+01 -0.72848798259E+02 -0.15125723448E+03  0.16798606943E+03  0.00000000000E+00 0. -1.
         21    1    1    2  504  501  0.14302069422E+02  0.54111401451E+02  0.15326206537E+03  0.16316204717E+03  0.00000000000E+00 0. -1.
         21    1    1    2  505  502  0.68830763041E+02  0.17567706680E+01  0.10080347502E+04  0.10103835004E+04  0.00000000000E+00 0. -1.
         21    1    1    2  506  504 -0.77334459007E+02  0.16980626139E+02  0.88466953070E+03  0.88820557235E+03  0.00000000000E+00 0. -1.
<scales pt_clust_3="72.83726" pt_clust_4="55.96957" pt_clust_5="14000.00000" pt_clust_6="73.77956"></scales>
<clustering>
<clus scale="   55.970">  1  4  2 -1</clus>
<clus scale="   72.837">  2  3  1 -1</clus>
<clus scale="   73.780">  2  6  1 -1</clus>
<clus scale="   55.970">  1  3  2 -1</clus>
</clustering>
</event>
<event>
 6    0  0.4469832E+002  0.1208779E+03  0.7546771E-02  0.1241656E+00
         21   -1    0    0  506  501  0.00000000000E+00  0.00000000000E+00  0.42804971411E+03  0.42804971411E+03  0.00000000000E+00 0.  1.
         21   -1    0    0  504  502 -0.00000000000E+00 -0.00000000000E+00 -0.11561727054E+03  0.11561727054E+03  0.00000000000E+00 0. -1.
         21    1    1    2  503  502  0.55166293572E+02 -0.89447304769E+02  0.49799176014E+02  0.11629315633E+03  0.00000000000E+00 0.  1.
         21    1    1    2  504  501  0.39153415253E+02  0.53717887831E+01  0.36359757505E+02  0.53701750498E+02  0.00000000000E+00 0. -1.
         21    1    1    2  505  503  0.15588459715E+02  0.15600678167E+03  0.76477767769E+02  0.17444186701E+03  0.00000000000E+00 0. -1.
         21    1    1    2  506  505 -0.10990816854E+03 -0.71931265688E+02  0.14979574228E+03  0.19923021081E+03  0.00000000000E+00 0.  1.
<scales pt_clust_3="108.83861" pt_clust_4="39.52020" pt_clust_5="14000.00000" pt_clust_6="120.87794"></scales>
<clustering>
<clus scale="   39.520">  1  4  2 -1</clus>
<clus scale="  108.839">  2  3  1 -1</clus>
<clus scale="  120.878">  1  6  2 -1</clus>
<clus scale="   39.520">  1  3  2 -1</clus>
</clustering>
</event>
<event>
 6    0  0.4469832E+002  0.7520276E+02  0.7546771E-02  0.1343244E+00
         21   -1    0    0  505  501  0.00000000000E+00  0.00000000000E+00  0.13305263210E+03  0.13305263210E+03  0.00000000000E+00 0.  1.
         21   -1    0    0  506  502 -0.00000000000E+00 -0.00000000000E+00 -0.29847923212E+03  0.29847923212E+03  0.00000000000E+00 0.  1.
         21    1    1    2  503  502  0.46357571900E+02  0.53261001523E+02 -0.16415294903E+03  0.17869512985E+03  0.00000000000E+00 0.  1.
         21    1    1    2  504  503  0.36517504404E+02 -0.80324874850E+02 -0.37500563444E+02  0.95874427801E+02  0.00000000000E+00 0.  1.
         21    1    1    2  505  504 -0.64310187841E+02 -0.77525849742E+01  0.76730782831E+02  0.10041671110E+03  0.00000000000E+00 0.  1.
         21    1    1    2  506  501 -0.18564888463E+02  0.34816458301E+02 -0.40503870375E+02  0.56545595475E+02  0.00000000000E+00 0.  1.
<scales pt_clust_3="14000.00000" pt_clust_4="75.20276" pt_clust_5="65.47485" pt_clust_6="39.45682"></scales>
<clustering>
<clus scale="   39.457">  2  6  1 -1</clus>
<clus scale="   65.475">  1  5  2 -1</clus>
<clus scale="   75.203">  1  4  2 -1</clus>
<clus scale="   65.475">  1  3  2 -1</clus>
</clustering>
</event>
<event>
 6    0  0.4469832E+002  0.1503506E+03  0.7546771E-02  0.1200043E+00
         21   -1    0    0  504  501  0.00000000000E+00  0.00000000000E+00  0.72553796790E+03  0.72553796790E+03  0.00000000000E+00 0. -1.
         21   -1    0    0  503  502 -0.00000000000E+00 -0.00000000000E+00 -0.18338554084E+03  0.18338554084E+03  0.00000000000E+00 0. -1.
         21    1    1    2  503  505 -0.28468497320E+02 -0.95049428022E+01  0.20259102964E+02  0.36210917279E+02  0.00000000000E+00 0. -1.
         21    1    1    2  504  506  0.16832748505E+03  0.14776299810E+02  0.62755385688E+03  0.64990485807E+03  0.00000000000E+00 0. -1.
         21    1    1    2  505  501 -0.21035141122E+02  0.22583527827E+02  0.28098403762E+02  0.41737431462E+02  0.00000000000E+00 0. -1.
         21    1    1    2  506  502 -0.11882384661E+03 -0.27854884836E+02 -0.13375893655E+03  0.18107030192E+03  0.00000000000E+00 0. -1.
<scales pt_clust_3="30.01332" pt_clust_4="150.35059" pt_clust_5="31.36442" pt_clust_6="14000.00000"></scales>
<clustering>
<clus scale="   30.013">  2  3  1 -1</clus>
<clus scale="   31.364">  1  5  2 -1</clus>
<clus scale="  150.351">  1  4  2 -1</clus>
<clus scale="   31.364">  1  3  2 -1</clus>
</clustering>
</event>
<event>
 6    0  0.4469832E+002  0.1297199E+03  0.7546771E-02  0.1227872E+00
         21   -1    0    0  502  501  0.00000000000E+00  0.00000000000E+00  0.14111852893E+03  0.14111852893E+03  0.00000000000E+00 0.  1.
         21   -1    0    0  504  502 -0.00000000000E+00 -0.00000000000E+00 -0.13272781047E+04  0.13272781047E+04  0.00000000000E+00 0. -1.
         21    1    1    2  503  506 -0.46227177472E+02 -0.16872662318E+01 -0.68241138862E+03  0.68397741346E+03  0.00000000000E+00 0. -1.
         21    1    1    2  504  503 -0.74770631356E+02 -0.20460128875E+02 -0.59027809365E+03  0.59534653105E+03  0.00000000000E+00 0. -1.
         21    1    1    2  505  501  0.87222394671E+01  0.40662107804E+02 -0.65007274888E+01  0.42092088689E+02  0.00000000000E+00 0. -1.
         21    1    1    2  506  505  0.11227556936E+03 -0.18514712697E+02  0.93030633947E+02  0.14698060047E+03  0.00000000000E+00 0.  1.
<scales pt_clust_3="32.77597" pt_clust_4="32.77597" pt_clust_5="41.58707" pt_clust_6="122.58468"></scales>
<clustering>
<clus scale="   32.776">  3  4 -1 -1</clus>
<clus scale="   41.587">  1  5  2 -1</clus>
<clus scale="  122.585">  1  6  2 -1</clus>
<clus scale="   41.587">  1  3  2 -1</clus>
</clustering>
</event>
<event>
 6    0  0.4469832E+002  0.1454534E+03  0.7546771E-02  0.1206174E+00
         21   -1    0    0  506  501  0.00000000000E+00  0.00000000000E+00  0.25343077230E+02  0.25343077230E+02  0.00000000000E+00 0. -1.
         21   -1    0    0  505  502 -0.00000000000E+00 -0.00000000000E+00 -0.23745894072E+04  0.23745894072E+04  0.00000000000E+00 0. -1.
         21    1    1    2  503  501  0.75634450685E+02  0.44803373989E+01 -0.84812889387E+02  0.11372717248E+03  0.00000000000E+00 0. -1.
         21    1    1    2  504  503  0.55469006622E+02  0.40196158663E+02 -0.14637811698E+03  0.16161403094E+03  0.00000000000E+00 0. -1.
         21    1    1    2  505  504 -0.11587062771E+03 -0.11187399584E+02 -0.11591974403E+04  0.11650278391E+04  0.00000000000E+00 0. -1.
         21    1    1    2  506  502 -0.15232829599E+02 -0.33489096478E+02 -0.95885788332E+03  0.95956344193E+03  0.00000000000E+00 0. -1.
<scales pt_clust_3="52.65545" pt_clust_4="52.65545" pt_clust_5="134.07941" pt_clust_6="36.79074"></scales>
<clustering>
<clus scale="   36.791">  2  6  1 -1</clus>
<clus scale="   52.655">  3  4 -1 -1</clus>
<clus scale="  134.079">  2  5  1 -1</clus>
<clus scale="  145.453">  1  3  2 -1</clus>
</clustering>
</event>
<event>
 6    0  0.4469832E+002  0.1524526E+03  0.7546771E-02  0.1197491E+00
         21   -1    0    0  505  501  0.00000000000E+00  0.00000000000E+00  0.14532424531E+04  0.14532424531E+04  0.00000000000E+00 0. -1.
         21   -1    0    0  506  502 -0.00000000000E+00 -0.00000000000E+00 -0.28241200486E+03  0.28241200486E+03  0.00000000000E+00 0. -1.
         21    1    1    2  503  501  0.22666730621E+02  0.11564609931E+03  0.10645041129E+04  0.10710073797E+04  0.00000000000E+00 0. -1.
         21    1    1    2  504  503 -0.25296387621E+02  0.24508952782E+02  0.33423744499E+03  0.33608818132E+03  0.00000000000E+00 0. -1.
         21    1    1    2  505  502  0.62643459662E+02 -0.40467602695E+02 -0.21880124547E+01  0.74609766819E+02  0.00000000000E+00 0.  1.
         21    1    1    2  506  504 -0.60013802662E+02 -0.99687449397E+02 -0.22572309721E+03  0.25394913012E+03  0.00000000000E+00 0. -1.
<scales pt_clust_3="33.65480" pt_clust_4="33.65480" pt_clust_5="74.57768" pt_clust_6="139.47102"></scales>
<clustering>
<clus scale="   33.655">  3  4 -1 -1</clus>
<clus scale="   74.578">  2  5  1 -1</clus>
<clus scale="  139.471">  2  6  1 -1</clus>
<clus scale="  152.453">  1  3  2 -1</clus>
</clustering>
</event>
<event>
 6    0  0.4469832E+002  0.9940866E+02  0.7546771E-02  0.1281544E+00
         21   -1    0    0  506  501  0.00000000000E+00  0.00000000000E+00  0.23433907476E+03  0.23433907476E+03  0.00000000000E+00 0.  1.
         21   -1    0    0  505  502 -0.00000000000E+00 -0.00000000000E+00 -0.24066129362E+03  0.24066129362E+03  0.00000000000E+00 0. -1.
         21    1    1    2  503  502  0.40651470854E+02 -0.31315117043E+02 -0.46370119814E+02  0.69161887261E+02  0.00000000000E+00 0. -1.
         21    1    1    2  504  501 -0.95834451920E+02 -0.39516185666E+02  0.17030150987E+03  0.19936994600E+03  0.00000000000E+00 0.  1.
         21    1    1    2  505  504  0.60522185859E+02  0.84783593111E+01 -0.13026423236E+03  0.14388741359E+03  0.00000000000E+00 0. -1.
         21    1    1    2  506  503 -0.53392047927E+01  0.62352943398E+02  0.10623444171E-01  0.62581121523E+02  0.00000000000E+00 0. -1.
<scales pt_clust_3="51.31451" pt_clust_4="99.40866" pt_clust_5="14000.00000" pt_clust_6="57.01918"></scales>
<clustering>
<clus scale="   51.315">  2  3  1 -1</clus>
<clus scale="   57.019">  2  6  1 -1</clus>
<clus scale="   99.409">  1  4  2 -1</clus>
<clus scale="   99.409">  1  3  2 -1</clus>
</clustering>
</event>
<event>
 6    0  0.4469832E+002  0.1196364E+03  0.7546771E-02  0.1243698E+00
         21   -1    0    0  504  501  0.00000000000E+00  0.00000000000E+00  0.78962951898E+03  0.78962951898E+03  0.00000000000E+00 0. -1.
         21   -1    0    0  506  502 -0.00000000000E+00 -0.00000000000E+00 -0.20180173757E+03  0.20180173757E+03  0.00000000000E+00 0. -1.
         21    1    1    2  503  502 -0.45241892888E+02 -0.53950544195E+02 -0.78535154374E+02  0.10547635073E+03  0.00000000000E+00 0. -1.
         21    1    1    2  504  505  0.10972148956E+03  0.57889832297E+02 -0.47591592040E+02  0.13287210990E+03  0.00000000000E+00 0. -1.
         21    1    1    2  505  503 -0.29524034963E+02 -0.16921069554E+02 -0.39075868935E+01  0.34252889962E+02  0.00000000000E+00 0. -1.
         21    1    1    2  506  501 -0.34955561710E+02  0.12981781452E+02  0.71786211472E+03  0.71882990596E+03  0.00000000000E+00 0. -1.
<scales pt_clust_3="31.96965" pt_clust_4="110.44525" pt_clust_5="31.96965" pt_clust_6="37.28831"></scales>
<clustering>
<clus scale="   31.970">  3  5 -1 -1</clus>
<clus scale="   37.288">  1  6  2 -1</clus>
<clus scale="  110.445">  1  4  2 -1</clus>
<clus scale="   37.288">  1  3  2 -1</clus>
</clustering>
</event>
<event>
 6    0  0.4469832E+002  0.1991374E+03  0.7546771E-02  0.1150469E+00
         21   -1    0    0  505  501  0.00000000000E+00  0.00000000000E+00  0.39525612809E+03  0.39525612809E+03  0.00000000000E+00 0. -1.
         21   -1    0    0  501  502 -0.00000000000E+00 -0.00000000000E+00 -0.51515827393E+03  0.51515827393E+03  0.00000000000E+00 0.  1.
         21    1    1    2  503  502  0.13797570258E+03  0.38837124058E+01 -0.30700398996E+03  0.33660633918E+03  0.00000000000E+00 0.  1.
         21    1    1    2  504  503  0.49701364915E+02  0.40918517701E+02 -0.13688924273E+03  0.15127199192E+03  0.00000000000E+00 0.  1.
         21    1    1    2  505  506 -0.40022322951E+02  0.40597050851E+02  0.20946105608E+03  0.21708026370E+03  0.00000000000E+00 0. -1.
         21    1    1    2  506  504 -0.14765474454E+03 -0.85399280957E+02  0.11453003077E+03  0.20545580722E+03  0.00000000000E+00 0. -1.
<scales pt_clust_3="41.84441" pt_clust_4="41.84441" pt_clust_5="57.00795" pt_clust_6="189.47704"></scales>
<clustering>
<clus scale="   41.844">  3  4 -1 -1</clus>
<clus scale="   57.008">  1  5  2 -1</clus>
<clus scale="  189.477">  1  6  2 -1</clus>
<clus scale="   57.008">  1  3  2 -1</clus>
</clustering>
</event>
<event>
 6    0  0.4469832E+002  0.9756265E+02  0.7546771E-02  0.1285506E+00
         21   -1    0    0  503  501  0.00000000000E+00  0.00000000000E+00  0.10413219158E+03  0.10413219158E+03  0.00000000000E+00 0.  1.
         21   -1    0    0  504  502 -0.00000000000E+00 -0.00000000000E+00 -0.42337941300E+03  0.42337941300E+03  0.00000000000E+00 0. -1.
         21    1    1    2  503  505  0.71125844435E+02 -0.68690903549E+02  0.42756065754E+02  0.10772839522E+03  0.00000000000E+00 0.  1.
         21    1    1    2  504  506 -0.55057710034E+02  0.48609320491E+02 -0.26632102436E+03  0.27626274720E+03  0.00000000000E+00 0. -1.
         21    1    1    2  505  502  0.96484255500E+01  0.45373364396E+02 -0.96899148468E+02  0.10743034621E+03  0.00000000000E+00 0. -1.
         21    1    1    2  506  501 -0.25716559951E+02 -0.25291781337E+02  0.12168856560E+01  0.36090115955E+02  0.00000000000E+00 0. -1.
<scales pt_clust_3="14000.00000" pt_clust_4="97.56265" pt_clust_5="44.55129" pt_clust_6="36.06959"></scales>
<clustering>
<clus scale="   36.070">  1  6  2 -1</clus>
<clus scale="   44.551">  2  5  1 -1</clus>
<clus scale="   97.563">  2  4  1 -1</clus>
<clus scale="   36.070">  1  3  2 -1</clus>
</clustering>
</event>
<event>
 6    0  0.4469832E+002  0.1049939E+03  0.7546771E-02  0.1270132E+00
         21   -1    0    0  503  501  0.00000000000E+00  0.00000000000E+00  0.52904885722E+03  0.52904885722E+03  0.00000000000E+00 0. -1.
         21   -1    0    0  504  502 -0.00000000000E+00 -0.00000000000E+00 -0.57413491447E+02  0.57413491447E+02  0.00000000000E+00 0. -1.
         21    1    1    2  503  506  0.58655748108E+02  0.15245197410E+02  0.12494588913E+03  0.13886823986E+03  0.00000000000E+00 0. -1.
         21    1    1    2  504  505 -0.25626900425E+02 -0.43578573992E+02  0.16215016921E+02  0.53091966533E+02  0.00000000000E+00 0. -1.
         21    1    1    2  505  501 -0.73227532316E+02  0.10482337005E+03  0.17669827278E+03  0.21811118725E+03  0.00000000000E+00 0. -1.
         21    1    1    2  506  502  0.40198684633E+02 -0.76489993470E+02  0.15377618694E+03  0.17639095503E+03  0.00000000000E+00 0. -1.
<scales pt_clust_3="54.59099" pt_clust_4="50.55522" pt_clust_5="104.99390" pt_clust_6="14000.00000"></scales>
<clustering>
<clus scale="   50.555">  2  4  1 -1</clus>
<clus scale="   54.591">  1  3  2 -1</clus>
<clus scale="  104.994">  2  5  1 -1</clus>
<clus scale="   54.591">  1  3  2 -1</clus>
</clustering>
</event>
<event>
 6    0  0.4469832E+002  0.1900525E+03  0.7546771E-02  0.1158414E+00
         21   -1    0    0  502  501  0.00000000000E+00  0.00000000000E+00  0.46788634833E+03  0.46788634833E+03  0.00000000000E+00 0. -1.
         21   -1    0    0  506  502 -0.00000000000E+00 -0.00000000000E+00 -0.35270282434E+03  0.35270282434E+03  0.00000000000E+00 0.  1.
         21    1    1    2  503  504  0.63213794040E+02  0.12802061187E+03 -0.24220250448E+03  0.28115354168E+03  0.00000000000E+00 0.  1.
         21    1    1    2  504  505 -0.16387097745E+02 -0.86899293464E+02  0.27604480007E+03  0.28986333991E+03  0.00000000000E+00 0. -1.
         21    1    1    2  505  501 -0.37429301341E+02 -0.84761700181E+02  0.14484597912E+03  0.17194724797E+03  0.00000000000E+00 0. -1.
         21    1    1    2  506  503 -0.93973949530E+01  0.43640381777E+02 -0.63504750731E+02  0.77625043118E+02  0.00000000000E+00 0. -1.
<scales pt_clust_3="187.79017" pt_clust_4="59.87410" pt_clust_5="59.87410" pt_clust_6="30.11922"></scales>
<clustering>
<clus scale="   30.119">  3  6 -1 -1</clus>
<clus scale="   59.874">  4  5 -1 -1</clus>
<clus scale="  187.790">  2  3  1 -1</clus>
<clus scale="  190.053">  1  3  2 -1</clus>
</clustering>
</event>
<event>
 6    0  0.4469832E+002  0.1367900E+03  0.7546771E-02  0.1217715E+00
         21   -1    0    0  502  501  0.00000000000E+00  0.00000000000E+00  0.97670038288E+02  0.97670038288E+02  0.00000000000E+00 0.  1.
         21   -1    0    0  503  502 -0.00000000000E+00 -0.00000000000E+00 -0.40000627782E+03  0.40000627782E+03  0.00000000000E+00 0.  1.
         21    1    1    2  503  504  0.29731960528E+02 -0.32410674024E+02 -0.42640578443E+02  0.61258960140E+02  0.00000000000E+00 0. -1.
         21    1    1    2  504  506  0.71948080022E+02 -0.55980919848E+02 -0.27651470649E+03  0.29115420744E+03  0.00000000000E+00 0.  1.
         21    1    1    2  505  501 -0.58274028746E+02  0.70677436612E+02 -0.84731277473E+01  0.91994327902E+02  0.00000000000E+00 0.  1.
         21    1    1    2  506  505 -0.43406011804E+02  0.17714157260E+02  0.25292173147E+02  0.53268820624E+02  0.00000000000E+00 0.  1.
<scales pt_clust_3="43.98228" pt_clust_4="126.66851" pt_clust_5="36.94229" pt_clust_6="36.94229"></scales>
<clustering>
<clus scale="   36.942">  5  6 -1 -1</clus>
<clus scale="   43.982">  2  3  1 -1</clus>
<clus scale="  126.669">  2  4  1 -1</clus>
<clus scale="  136.790">  1  3  2 -1</clus>
</clustering>
</event>
<event>
 6    0  0.4469832E+002  0.1253319E+03  0.7546771E-02  0.1234551E+00
         21   -1    0    0  506  501  0.00000000000E+00  0.00000000000E+00  0.85389456685E+03  0.85389456685E+03  0.00000000000E+00 0. -1.
         21   -1    0    0  505  502 -0.00000000000E+00 -0.00000000000E+00 -0.24666813676E+04  0.24666813676E+04  0.00000000000E+00 0. -1.
         21    1    1    2  503  504  0.74963336542E+02 -0.46493079179E+02 -0.20074849726E+04  0.20094220620E+04  0.00000000000E+00 0. -1.
         21    1    1    2  504  502  0.49883105857E+02  0.34044617547E+01 -0.32609878055E+03  0.32990957744E+03  0.00000000000E+00 0. -1.
         21    1    1    2  505  501 -0.11204651460E+03 -0.20227336825E+01 -0.10532555432E+03  0.15379201956E+03  0.00000000000E+00 0.  1.
         21    1    1    2  506  503 -0.12799927795E+02  0.45111351107E+02  0.82612250667E+03  0.82745227547E+03  0.00000000000E+00 0. -1.
<scales pt_clust_3="14000.00000" pt_clust_4="49.42274" pt_clust_5="125.33193" pt_clust_6="46.89213"></scales>
<clustering>
<clus scale="   46.892">  1  6  2 -1</clus>
<clus scale="   49.423">  2  4  1 -1</clus>
<clus scale="  125.332">  1  5  2 -1</clus>
<clus scale="   46.892">  1  3  2 -1</clus>
</clustering>
</event>
<event>
 6    0  0.4469832E+002  0.1469801E+03  0.7546771E-02  0.1204234E+00
         21   -1    0    0  504  501  0.00000000000E+00  0.00000000000E+00  0.50477848277E+03  0.50477848277E+03  0.00000000000E+00 0.  1.
         21   -1    0    0  505  502 -0.00000000000E+00 -0.00000000000E+00 -0.11859644102E+03  0.11859644102E+03  0.00000000000E+00 0.  1.
         21    1    1    2  503  502  0.52320730267E+02 -0.66561513303E+02 -0.24705837815E+02  0.88194513951E+02  0.00000000000E+00 0.  1.
         21    1    1    2  504  506 -0.36905881335E+02 -0.21327392690E+02  0.98185235177E+02  0.10703850785E+03  0.00000000000E+00 0.  1.
         21    1    1    2  505  501 -0.75189160248E+02  0.11133846318E+03  0.33438927396E+03  0.36036904660E+03  0.00000000000E+00 0.  1.
         21    1    1    2  506  503  0.59774311316E+02 -0.23449557186E+02 -0.21686629583E+02  0.67772855394E+02  0.00000000000E+00 0.  1.
<scales pt_clust_3="33.79891" pt_clust_4="42.62513" pt_clust_5="141.76351" pt_clust_6="33.79891"></scales>
<clustering>
<clus scale="   33.799">  3  6 -1 -1</clus>
<clus scale="   42.625">  1  4  2 -1</clus>
<clus scale="  141.764">  1  5  2 -1</clus>
<clus scale="   42.625">  1  3  2 -1</clus>
</clustering>
</event>
<event>
 6    0  0.4469832E+002  0.2233714E+03  0.7546771E-02  0.1131394E+00
         21   -1    0    0  503  501  0.00000000000E+00  0.00000000000E+00  0.24195174803E+03  0.24195174803E+03  0.00000000000E+00 0. -1.
         21   -1    0    0  504  502 -0.00000000000E+00 -0.00000000000E+00 -0.43258348043E+03  0.43258348043E+03  0.00000000000E+00 0. -1.
         21    1    1    2  503  506  0.10092620634E+03  0.89072184235E+02  0.70324529604E+02  0.15187327808E+03  0.00000000000E+00 0. -1.
         21    1    1    2  504  505 -0.78898590431E+02  0.63399004168E+02 -0.14956069574E+03  0.18059020741E+03  0.00000000000E+00 0. -1.
         21    1    1    2  505  501 -0.13178460565E+03 -0.18056320169E+01 -0.76622300579E+02  0.15245136778E+03  0.00000000000E+00 0. -1.
         21    1    1    2  506  502  0.10975698973E+03 -0.15066555639E+03 -0.34773265685E+02  0.18962037518E+03  0.00000000000E+00 0. -1.
<scales pt_clust_3="134.61038" pt_clust_4="94.28948" pt_clust_5="94.28948" pt_clust_6="195.74980"></scales>
<clustering>
<clus scale="   94.289">  4  5 -1 -1</clus>
<clus scale="  134.610">  1  3  2 -1</clus>
<clus scale="  195.750">  1  6  2 -1</clus>
<clus scale="  134.610">  1  3  2 -1</clus>
</clustering>
</event>
<event>
 6    0  0.4469832E+002  0.9424650E+02  0.7546771E-02  0.1292882E+00
         21   -1    0    0  504  501  0.00000000000E+00  0.00000000000E+00  0.11049078490E+04  0.11049078490E+04  0.00000000000E+00 0. -1.
         21   -1    0    0  506  502 -0.00000000000E+00 -0.00000000000E+00 -0.28807407520E+02  0.28807407520E+02  0.00000000000E+00 0. -1.
         21    1    1    2  503  502 -0.18260136991E+02 -0.51042371544E+02  0.39716438172E+02  0.67202319579E+02  0.00000000000E+00 0. -1.
         21    1    1    2  504  505  0.14217569845E+02 -0.74764351005E+02  0.40960506925E+03  0.41661512242E+03  0.00000000000E+00 0. -1.
         21    1    1    2  505  503 -0.25034443488E+02  0.13343287118E+03  0.56648489770E+03  0.58252570226E+03  0.00000000000E+00 0. -1.
         21    1    1    2  506  501  0.29077010633E+02 -0.76261486345E+01  0.60294036387E+02  0.67372112288E+02  0.00000000000E+00 0. -1.
<scales pt_clust_3="55.24424" pt_clust_4="94.24650" pt_clust_5="14000.00000" pt_clust_6="30.06045"></scales>
<clustering>
<clus scale="   30.060">  2  6  1 -1</clus>
<clus scale="   55.244">  2  3  1 -1</clus>
<clus scale="   94.247">  1  4  2 -1</clus>
<clus scale="   94.247">  1  3  2 -1</clus>
</clustering>
</event>
<event>
 6    0  0.4469832E+002  0.1372019E+03  0.7546771E-02  0.1217144E+00
         21   -1    0    0  503  501  0.00000000000E+00  0.00000000000E+00  0.37280979995E+03  0.37280979995E+03  0.00000000000E+00 0.  1.
         21   -1    0    0  506  502 -0.00000000000E+00 -0.00000000000E+00 -0.40641689878E+03  0.40641689878E+03  0.00000000000E+00 0. -1.
         21    1    1    2  503  504 -0.15358737899E+03 -0.12771955585E+03 -0.26503857611E+03  0.33188373681E+03  0.00000000000E+00 0. -1.
         21    1    1    2  504  505  0.86828114887E+01  0.51483077398E+02 -0.58316602055E+02  0.78273396176E+02  0.00000000000E+00 0.  1.
         21    1    1    2  505  502  0.36813309726E+02 -0.33490824663E+01 -0.11957887194E+02  0.38851347370E+02  0.00000000000E+00 0. -1.
         21    1    1    2  506  501  0.10809125777E+03  0.79585560919E+02  0.30170596652E+03  0.33021821838E+03  0.00000000000E+00 0.  1.
<scales pt_clust_3="137.20186" pt_clust_4="53.12795" pt_clust_5="36.96534" pt_clust_6="14000.00000"></scales>
<clustering>
<clus scale="   36.965">  2  5  1 -1</clus>
<clus scale="   53.128">  2  4  1 -1</clus>
<clus scale="  137.202">  2  3  1 -1</clus>
<clus scale="  137.202">  1  3  2 -1</clus>
</clustering>
</event>
<event>
 6    0  0.4469832E+002  0.1419100E+03  0.7546771E-02  0.1210782E+00
         21   -1    0    0  503  501  0.00000000000E+00  0.00000000000E+00  0.50463576339E+03  0.50463576339E+03  0.00000000000E+00 0.  1.
         21   -1    0    0  506  502 -0.00000000000E+00 -0.00000000000E+00 -0.51826432416E+03  0.51826432416E+03  0.00000000000E+00 0.  1.
         21    1    1    2  503  505  0.12292484046E+03 -0.65483638286E+02  0.38207203838E+03  0.40666652898E+03  0.00000000000E+00 0.  1.
         21    1    1    2  504  501  0.18094972566E+02  0.41041070909E+02  0.84766960852E+02  0.95902216791E+02  0.00000000000E+00 0.  1.
         21    1    1    2  505  502 -0.11584524801E+03  0.62284338783E+02 -0.44080163551E+03  0.46000602410E+03  0.00000000000E+00 0.  1.
         21    1    1    2  506  504 -0.25174565014E+02 -0.37841771406E+02 -0.39665924486E+02  0.60325317671E+02  0.00000000000E+00 0.  1.
<scales pt_clust_3="141.90997" pt_clust_4="44.85307" pt_clust_5="14000.00000" pt_clust_6="44.34917"></scales>
<clustering>
<clus scale="   44.853">  1  4  2 -1</clus>
<clus scale="   44.349">  2  6  1 -1</clus>
<clus scale="  141.910">  1  3  2 -1</clus>
<clus scale="   44.853">  1  3  2 -1</clus>
</clustering>
</event>
<event>
 6    0  0.4469832E+002  0.7551007E+02  0.7546771E-02  0.1342299E+00
         21   -1    0    0  503  501  0.00000000000E+00  0.00000000000E+00  0.83316876624E+03  0.83316876624E+03  0.00000000000E+00 0. -1.
         21   -1    0    0  506  502 -0.00000000000E+00 -0.00000000000E+00 -0.12397608511E+04  0.12397608511E+04  0.00000000000E+00 0. -1.
         21    1    1    2  503  504 -0.57320130002E+02  0.25186490544E+02  0.78889609877E+03  0.79137665575E+03  0.00000000000E+00 0. -1.
         21    1    1    2  504  505  0.53483681611E+02 -0.97719903208E+02 -0.40656410261E+02  0.11858594932E+03  0.00000000000E+00 0. -1.
         21    1    1    2  505  502  0.37244335223E+02 -0.10773097707E+02 -0.18668200005E+03  0.19066559544E+03  0.00000000000E+00 0. -1.
         21    1    1    2  506  501 -0.33407886832E+02  0.83306510371E+02 -0.96814977334E+03  0.97230141684E+03  0.00000000000E+00 0. -1.
<scales pt_clust_3="62.56421" pt_clust_4="14000.00000" pt_clust_5="38.77113" pt_clust_6="75.51007"></scales>
<clustering>
<clus scale="   38.771">  2  5  1 -1</clus>
<clus scale="   62.564">  1  3  2 -1</clus>
<clus scale="   75.510">  2  6  1 -1</clus>
<clus scale="   62.564">  1  3  2 -1</clus>
</clustering>
</event>
<event>
 6    0  0.4469832E+002  0.1273863E+03  0.7546771E-02  0.1231386E+00
         21   -1    0    0  503  501  0.00000000000E+00  0.00000000000E+00  0.18763697203E+03  0.18763697203E+03  0.00000000000E+00 0.  1.
         21   -1    0    0  504  502 -0.00000000000E+00 -0.00000000000E+00 -0.26431934037E+04  0.26431934037E+04  0.00000000000E+00 0.  1.
         21    1    1    2  503  502  0.11849039878E+03  0.99037833708E+02  0.30218580953E+02  0.15735828463E+03  0.00000000000E+00 0.  1.
         21    1    1    2  504  506  0.18535155678E+02 -0.28164079834E+02 -0.22449173175E+04  0.22451704901E+04  0.00000000000E+00 0.  1.
         21    1    1    2  505  501 -0.88890098945E+02 -0.69278289764E+02  0.57196118410E+02  0.12638167226E+03  0.00000000000E+00 0.  1.
         21    1    1    2  506  505 -0.48135455511E+02 -0.15954641097E+01 -0.29805381353E+03  0.30191992869E+03  0.00000000000E+00 0.  1.
<scales pt_clust_3="14000.00000" pt_clust_4="33.71598" pt_clust_5="127.38635" pt_clust_6="41.08716"></scales>
<clustering>
<clus scale="   33.716">  2  4  1 -1</clus>
<clus scale="   41.087">  2  6  1 -1</clus>
<clus scale="  127.386">  1  5  2 -1</clus>
<clus scale="  127.386">  1  3  2 -1</clus>
</clustering>
</event>
<event>
 6    0  0.4469832E+002  0.1347621E+03  0.7546771E-02  0.1220556E+00
         21   -1    0    0  502  501  0.00000000000E+00  0.00000000000E+00  0.28783917019E+02  0.28783917019E+02  0.00000000000E+00 0.  1.
         21   -1    0    0  506  502 -0.00000000000E+00 -0.00000000000E+00 -0.11289862651E+04  0.11289862651E+04  0.00000000000E+00 0.  1.
         21    1    1    2  503  505  0.26866239053E+02 -0.86206104624E+02 -0.14323451940E+03  0.16932045011E+03  0.00000000000E+00 0.  1.
         21    1    1    2  504  503  0.43341443983E+02 -0.38390190837E+02 -0.19630142617E+03  0.20466200779E+03  0.00000000000E+00 0.  1.
         21    1    1    2  505  501 -0.55764248027E+02  0.11891730018E+02 -0.11682496707E+03  0.12999668277E+03  0.00000000000E+00 0.  1.
         21    1    1    2  506  504 -0.14443435009E+02  0.11270456544E+03 -0.64384143543E+03  0.65379104144E+03  0.00000000000E+00 0.  1.
<scales pt_clust_3="51.42887" pt_clust_4="51.42887" pt_clust_5="57.01811" pt_clust_6="118.47343"></scales>
<clustering>
<clus scale="   51.429">  3  4 -1 -1</clus>
<clus scale="   57.018">  1  5  2 -1</clus>
<clus scale="  118.473">  2  6  1 -1</clus>
<clus scale="   57.018">  1  3  2 -1</clus>
</clustering>
</event>
<event>
 6    0  0.4469832E+002  0.1132506E+03  0.7546771E-02  0.1254666E+00
         21   -1    0    0  505  501  0.00000000000E+00  0.00000000000E+00  0.71601976246E+03  0.71601976246E+03  0.00000000000E+00 0. -1.
         21   -1    0    0  503  502 -0.00000000000E+00 -0.00000000000E+00 -0.76774661345E+02  0.76774661345E+02  0.00000000000E+00 0.  1.
         21    1    1    2  503  504  0.82078138305E+02  0.11069979061E+02 -0.54728337672E+01  0.83001910420E+02  0.00000000000E+00 0.  1.
         21    1    1    2  504  506  0.17164819813E+02  0.28395681682E+02 -0.11716192346E+02  0.35188278453E+02  0.00000000000E+00 0.  1.
         21    1    1    2  505  502 -0.57949568446E+02  0.33215867348E+02  0.20852494694E+03  0.21896141172E+03  0.00000000000E+00 0. -1.
         21    1    1    2  506  501 -0.41293389672E+02 -0.72681528091E+02  0.44790918029E+03  0.45564282321E+03  0.00000000000E+00 0. -1.
<scales pt_clust_3="30.13511" pt_clust_4="30.13511" pt_clust_5="66.79406" pt_clust_6="102.75669"></scales>
<clustering>
<clus scale="   30.135">  3  4 -1 -1</clus>
<clus scale="   66.794">  1  5  2 -1</clus>
<clus scale="  102.757">  1  6  2 -1</clus>
<clus scale="   66.794">  1  3  2 -1</clus>
</clustering>
</event>
<event>
 6    0  0.4469832E+002  0.1031441E+03  0.7546771E-02  0.1273820E+00
         21   -1    0    0  506  501  0.00000000000E+00  0.00000000000E+00  0.47210472153E+03  0.47210472153E+03  0.00000000000E+00 0. -1.
         21   -1    0    0  503  502 -0.00000000000E+00 -0.00000000000E+00 -0.12091856435E+03  0.12091856435E+03  0.00000000000E+00 0. -1.
         21    1    1    2  503  504  0.68626000175E+02 -0.30631802276E+02 -0.31569263303E+02  0.81513517874E+02  0.00000000000E+00 0. -1.
         21    1    1    2  504  505 -0.53642509441E+02 -0.99215163145E+02  0.19901681789E+02  0.11453053896E+03  0.00000000000E+00 0. -1.
         21    1    1    2  505  501  0.87749208611E+01  0.10250100693E+03  0.33732189633E+03  0.35266062638E+03  0.00000000000E+00 0. -1.
         21    1    1    2  506  502 -0.23758411595E+02  0.27345958494E+02  0.25531842363E+02  0.44318602662E+02  0.00000000000E+00 0.  1.
<scales pt_clust_3="59.01320" pt_clust_4="103.14411" pt_clust_5="14000.00000" pt_clust_6="36.22518"></scales>
<clustering>
<clus scale="   36.225">  2  6  1 -1</clus>
<clus scale="   59.013">  2  3  1 -1</clus>
<clus scale="  103.144">  2  4  1 -1</clus>
<clus scale="  103.144">  1  3  2 -1</clus>
</clustering>
</event>
<event>
 6    0  0.4469832E+002  0.1299415E+03  0.7546771E-02  0.1227543E+00
         21   -1    0    0  504  501  0.00000000000E+00  0.00000000000E+00  0.26244837162E+03  0.26244837162E+03  0.00000000000E+00 0. -1.
         21   -1    0    0  506  502 -0.00000000000E+00 -0.00000000000E+00 -0.56620729502E+03  0.56620729502E+03  0.00000000000E+00 0. -1.
         21    1    1    2  503  501 -0.43865123927E+02  0.53193750487E-02 -0.69803297334E+02  0.82441794280E+02  0.00000000000E+00 0. -1.
         21    1    1    2  504  505 -0.75387876336E+01  0.44624277792E+02  0.22941996183E+03  0.23384113918E+03  0.00000000000E+00 0. -1.
         21    1    1    2  505  502  0.10554823394E+03 -0.89954810440E+02 -0.23025687652E+03  0.26879458104E+03  0.00000000000E+00 0. -1.
         21    1    1    2  506  503 -0.54144322382E+02  0.45325213273E+02 -0.23311871138E+03  0.24357815214E+03  0.00000000000E+00 0. -1.
<scales pt_clust_3="42.19899" pt_clust_4="45.25660" pt_clust_5="118.39869" pt_clust_6="42.19899"></scales>
<clustering>
<clus scale="   42.199">  3  6 -1 -1</clus>
<clus scale="   45.257">  1  4  2 -1</clus>
<clus scale="  118.399">  1  5  2 -1</clus>
<clus scale="   45.257">  1  3  2 -1</clus>
</clustering>
</event>
<event>
 6    0  0.4469832E+002  0.1617866E+03  0.7546771E-02  0.1186694E+00
         21   -1    0    0  506  501  0.00000000000E+00  0.00000000000E+00  0.58737652590E+03  0.58737652590E+03  0.00000000000E+00 0.  1.
         21   -1    0    0  504  502 -0.00000000000E+00 -0.00000000000E+00 -0.20637050264E+03  0.20637050264E+03  0.00000000000E+00 0. -1.
         21    1    1    2  503  502  0.40450703450E+02 -0.34176522367E+02  0.75705715998E+01  0.53493996346E+02  0.00000000000E+00 0. -1.
         21    1    1    2  504  501  0.15447017460E+03 -0.18883485898E+02  0.39115960036E+03  0.42097916081E+03  0.00000000000E+00 0.  1.
         21    1    1    2  505  503  0.22588120372E+01 -0.80206028635E+02  0.36816883454E+01  0.80322251526E+02  0.00000000000E+00 0. -1.
         21    1    1    2  506  505 -0.19717969009E+03  0.13326603690E+03 -0.21405837046E+02  0.23895161986E+03  0.00000000000E+00 0. -1.
<scales pt_clust_3="43.54234" pt_clust_4="161.78660" pt_clust_5="133.34232" pt_clust_6="14000.00000"></scales>
<clustering>
<clus scale="   43.542">  3  5 -1 -1</clus>
<clus scale="  133.342">  2  3  1 -1</clus>
<clus scale="  161.787">  1  4  2 -1</clus>
<clus scale="  161.787">  1  3  2 -1</clus>
</clustering>
</event>
<event>
 6    0  0.4469832E+002  0.1155315E+03  0.7546771E-02  0.1250656E+00
         21   -1    0    0  503  501  0.00000000000E+00  0.00000000000E+00  0.85362535262E+02  0.85362535262E+02  0.00000000000E+00 0. -1.
         21   -1    0    0  506  502 -0.00000000000E+00 -0.00000000000E+00 -0.47103405147E+03  0.47103405147E+03  0.00000000000E+00 0. -1.
         21    1    1    2  503  505  0.47130827374E+02  0.74066205231E+02 -0.72495989957E+02  0.11385423227E+03  0.00000000000E+00 0. -1.
         21    1    1    2  504  501  0.30327840567E+02 -0.66298892125E+01 -0.11028172512E+02  0.32944710249E+02  0.00000000000E+00 0. -1.
         21    1    1    2  505  502 -0.14766912378E+03  0.21394062910E+02 -0.10570149166E+03  0.18285699709E+03  0.00000000000E+00 0. -1.
         21    1    1    2  506  504  0.70210455836E+02 -0.88830378929E+02 -0.19644586208E+03  0.22674064712E+03  0.00000000000E+00 0. -1.
<scales pt_clust_3="91.12155" pt_clust_4="31.04405" pt_clust_5="115.53149" pt_clust_6="14000.00000"></scales>
<clustering>
<clus scale="   31.044">  1  4  2 -1</clus>
<clus scale="   91.122">  1  3  2 -1</clus>
<clus scale="  115.531">  1  5  2 -1</clus>
<clus scale="   31.044">  1  3  2 -1</clus>
</clustering>
</event>
<event>
 6    0  0.4469832E+002  0.9703441E+02  0.7546771E-02  0.1286659E+00
         21   -1    0    0  503  501  0.00000000000E+00  0.00000000000E+00  0.79052103524E+03  0.79052103524E+03  0.00000000000E+00 0.  1.
         21   -1    0    0  504  502 -0.00000000000E+00 -0.00000000000E+00 -0.54560162588E+02  0.54560162588E+02  0.00000000000E+00 0.  1.
         21    1    1    2  503  506 -0.17993146391E+02  0.32631598868E+02  0.12659364952E+03  0.13196411126E+03  0.00000000000E+00 0.  1.
         21    1    1    2  504  501  0.32453253568E+02  0.73462134585E+02  0.51018927312E+02  0.95146360040E+02  0.00000000000E+00 0. -1.
         21    1    1    2  505  502  0.76068900556E+02 -0.48649996162E+02  0.60456888322E+02  0.10866616356E+03  0.00000000000E+00 0.  1.
         21    1    1    2  506  505 -0.90529007733E+02 -0.57443737291E+02  0.49789140749E+03  0.50930456296E+03  0.00000000000E+00 0.  1.
<scales pt_clust_3="37.26358" pt_clust_4="82.87143" pt_clust_5="14000.00000" pt_clust_6="97.03441"></scales>
<clustering>
<clus scale="   37.264">  1  3  2 -1</clus>
<clus scale="   82.871">  2  4  1 -1</clus>
<clus scale="   97.034">  1  6  2 -1</clus>
<clus scale="   37.264">  1  3  2 -1</clus>
</clustering>
</event>
<event>
 6    0  0.4469832E+002  0.1104261E+03  0.7546771E-02  0.1259783E+00
         21   -1    0    0  503  501  0.00000000000E+00  0.00000000000E+00  0.98205234080E+03  0.98205234080E+03  0.00000000000E+00 0.  1.
         21   -1    0    0  506  502 -0.00000000000E+00 -0.00000000000E+00 -0.40092990524E+02  0.40092990524E+02  0.00000000000E+00 0.  1.
         21    1    1    2  503  505 -0.29382073910E+02 -0.46022365721E+02  0.53514234521E+03  0.53792071353E+03  0.00000000000E+00 0.  1.
         21    1    1    2  504  501 -0.24901578457E+02 -0.38985444546E+02  0.45685867211E+02  0.65016551423E+02  0.00000000000E+00 0.  1.
         21    1    1    2  505  502  0.10501938312E+03  0.97909889622E+02  0.32584325492E+03  0.35607477318E+03  0.00000000000E+00 0.  1.
         21    1    1    2  506  504 -0.50735730754E+02 -0.12902079355E+02  0.35287882937E+02  0.63133293190E+02  0.00000000000E+00 0.  1.
<scales pt_clust_3="54.60187" pt_clust_4="35.82376" pt_clust_5="103.64171" pt_clust_6="35.82376"></scales>
<clustering>
<clus scale="   35.824">  4  6 -1 -1</clus>
<clus scale="   54.602">  1  3  2 -1</clus>
<clus scale="  103.642">  1  5  2 -1</clus>
<clus scale="   54.602">  1  3  2 -1</clus>
</clustering>
</event>
<event>
 6    0  0.4469832E+002  0.1129959E+03  0.7546771E-02  0.1255120E+00
         21   -1    0    0  503  501  0.00000000000E+00  0.00000000000E+00  0.32013784048E+03  0.32013784048E+03  0.00000000000E+00 0.  1.
         21   -1    0    0  506  502 -0.00000000000E+00 -0.00000000000E+00 -0.84569111160E+02  0.84569111160E+02  0.00000000000E+00 0.  1.
         21    1    1    2  503  504 -0.41620382284E+02 -0.31727686544E+02 -0.11468217912E+01  0.52347086979E+02  0.00000000000E+00 0.  1.
         21    1    1    2  504  502 -0.14432259097E+02 -0.65076498568E+02  0.31121923469E+01  0.66730251833E+02  0.00000000000E+00 0.  1.
         21    1    1    2  505  501 -0.27430270618E+02  0.41403577381E+02  0.13987352445E+03  0.14842937313E+03  0.00000000000E+00 0.  1.
         21    1    1    2  506  505  0.83482911999E+02  0.55400607730E+02  0.93729834315E+02  0.13720023970E+03  0.00000000000E+00 0.  1.
<scales pt_clust_3="36.12960" pt_clust_4="36.12960" pt_clust_5="49.66564" pt_clust_6="105.38250"></scales>
<clustering>
<clus scale="   36.130">  3  4 -1 -1</clus>
<clus scale="   49.666">  1  5  2 -1</clus>
<clus scale="  105.383">  1  6  2 -1</clus>
<clus scale="   49.666">  1  3  2 -1</clus>
</clustering>
</event>
<event>
 6    0  0.4469832E+002  0.8657232E+02  0.7546771E-02  0.1311371E+00
         21   -1    0    0  506  501  0.00000000000E+00  0.00000000000E+00  0.37735376856E+03  0.37735376856E+03  0.00000000000E+00 0. -1.
         21   -1    0    0  505  502 -0.00000000000E+00 -0.00000000000E+00 -0.95926134152E+02  0.95926134152E+02  0.00000000000E+00 0.  1.
         21    1    1    2  503  502  0.18807518855E+02  0.37317926395E+02 -0.69411955520E+01  0.42361900236E+02  0.00000000000E+00 0. -1.
         21    1    1    2  504  503 -0.35610247385E+02  0.52962531853E+02 -0.36175296665E+02  0.73360558803E+02  0.00000000000E+00 0.  1.
         21    1    1    2  505  501 -0.42514416036E+02 -0.16919662017E+01  0.75731008040E+02  0.86864975101E+02  0.00000000000E+00 0. -1.
         21    1    1    2  506  504  0.59317144565E+02 -0.88588492046E+02  0.24881311859E+03  0.27069246857E+03  0.00000000000E+00 0. -1.
<scales pt_clust_3="41.78936" pt_clust_4="86.57232" pt_clust_5="41.06364" pt_clust_6="14000.00000"></scales>
<clustering>
<clus scale="   41.789">  2  3  1 -1</clus>
<clus scale="   41.064">  1  5  2 -1</clus>
<clus scale="   86.572">  2  4  1 -1</clus>
<clus scale="   41.064">  1  3  2 -1</clus>
</clustering>
</event>
<event>
 6    0  0.4469832E+002  0.1882689E+03  0.7546771E-02  0.1160032E+00
         21   -1    0    0  503  501  0.00000000000E+00  0.00000000000E+00  0.73377938578E+03  0.73377938578E+03  0.00000000000E+00 0. -1.
         21   -1    0    0  506  502 -0.00000000000E+00 -0.00000000000E+00 -0.26875848592E+03  0.26875848592E+03  0.00000000000E+00 0. -1.
         21    1    1    2  503  505 -0.33284776466E+02  0.22770734475E+03  0.44014288884E+03  0.49667320624E+03  0.00000000000E+00 0. -1.
         21    1    1    2  504  501  0.30292924293E+02 -0.14956517330E+03  0.21668911508E+03  0.26503127159E+03  0.00000000000E+00 0. -1.
         21    1    1    2  505  502 -0.36682934546E+02 -0.95363704985E+02 -0.14052264099E+03  0.17374258703E+03  0.00000000000E+00 0. -1.
         21    1    1    2  506  504  0.39674786718E+02  0.17221533533E+02 -0.51288463072E+02  0.67090806842E+02  0.00000000000E+00 0.  1.
<scales pt_clust_3="14000.00000" pt_clust_4="188.26887" pt_clust_5="82.74233" pt_clust_6="43.25124"></scales>
<clustering>
<clus scale="   43.251">  2  6  1 -1</clus>
<clus scale="   82.742">  2  5  1 -1</clus>
<clus scale="  188.269">  1  4  2 -1</clus>
<clus scale="  188.269">  1  3  2 -1</clus>
</clustering>
</event>
<event>
 6    0  0.4469832E+002  0.8839872E+02  0.7546771E-02  0.1306776E+00
         21   -1    0    0  505  501  0.00000000000E+00  0.00000000000E+00  0.22342425132E+03  0.22342425132E+03  0.00000000000E+00 0. -1.
         21   -1    0    0  503  502 -0.00000000000E+00 -0.00000000000E+00 -0.41967669252E+03  0.41967669252E+03  0.00000000000E+00 0. -1.
         21    1    1    2  503  506 -0.37784206290E+02  0.41609685233E+02 -0.10978493512E+03  0.12333589960E+03  0.00000000000E+00 0. -1.
         21    1    1    2  504  502  0.41755365729E+02 -0.12910425722E+02 -0.24146183516E+03  0.24538542641E+03  0.00000000000E+00 0. -1.
         21    1    1    2  505  504 -0.85047715138E+02 -0.56615916745E+02  0.58422546508E+01  0.10233576021E+03  0.00000000000E+00 0. -1.
         21    1    1    2  506  501  0.81076555698E+02  0.27916657234E+02  0.14915207443E+03  0.17204385761E+03  0.00000000000E+00 0. -1.
<scales pt_clust_3="34.60021" pt_clust_4="43.70572" pt_clust_5="14000.00000" pt_clust_6="88.39872"></scales>
<clustering>
<clus scale="   43.706">  2  4  1 -1</clus>
<clus scale="   34.600">  2  3  1 -1</clus>
<clus scale="   88.399">  1  6  2 -1</clus>
<clus scale="   88.399">  1  3  2 -1</clus>
</clustering>
</event>
<event>
 6    0  0.4469832E+002  0.7825420E+02  0.7546771E-02  0.1334080E+00
         21   -1    0    0  503  501  0.00000000000E+00  0.00000000000E+00  0.25629851357E+03  0.25629851357E+03  0.00000000000E+00 0.  1.
         21   -1    0    0  504  502 -0.00000000000E+00 -0.00000000000E+00 -0.90342388376E+02  0.90342388376E+02  0.00000000000E+00 0. -1.
         21    1    1    2  503  502  0.17743248286E+02  0.41773686806E+02 -0.30906950506E+01  0.45490836056E+02  0.00000000000E+00 0. -1.
         21    1    1    2  504  506 -0.16815450178E+01 -0.69492889255E+02  0.13542585350E+01  0.69526421358E+02  0.00000000000E+00 0. -1.
         21    1    1    2  505  501 -0.72020212396E+02  0.58462098452E+02  0.12128798707E+03  0.15269415102E+03  0.00000000000E+00 0.  1.
         21    1    1    2  506  505  0.55958509127E+02 -0.30742896003E+02  0.46404574640E+02  0.78929493511E+02  0.00000000000E+00 0. -1.
<scales pt_clust_3="45.38572" pt_clust_4="48.51479" pt_clust_5="78.25420" pt_clust_6="14000.00000"></scales>
<clustering>
<clus scale="   45.386">  2  3  1 -1</clus>
<clus scale="   48.515">  2  4  1 -1</clus>
<clus scale="   78.254">  1  5  2 -1</clus>
<clus scale="   78.254">  1  3  2 -1</clus>
</clustering>
</event>
<event>
 6    0  0.4469832E+002  0.9262399E+02  0.7546771E-02  0.1296619E+00
         21   -1    0    0  504  501  0.00000000000E+00  0.00000000000E+00  0.14761198605E+03  0.14761198605E+03  0.00000000000E+00 0. -1.
         21   -1    0    0  505  502 -0.00000000000E+00 -0.00000000000E+00 -0.14194938684E+03  0.14194938684E+03  0.00000000000E+00 0. -1.
         21    1    1    2  503  502 -0.79454811924E+02  0.46757616839E+02 -0.43881296375E+02  0.10210244876E+03  0.00000000000E+00 0. -1.
         21    1    1    2  504  503  0.54070315004E+02  0.40204092771E+02  0.59034354148E+02  0.89582492764E+02  0.00000000000E+00 0. -1.
         21    1    1    2  505  506 -0.46670973493E+01 -0.42569710274E+02 -0.11117731406E+02  0.44244389272E+02  0.00000000000E+00 0. -1.
         21    1    1    2  506  501  0.30051594270E+02 -0.44391999337E+02  0.16272728426E+01  0.53632042103E+02  0.00000000000E+00 0. -1.
<scales pt_clust_3="85.41773" pt_clust_4="67.37928" pt_clust_5="32.01484" pt_clust_6="32.01484"></scales>
<clustering>
<clus scale="   32.015">  5  6 -1 -1</clus>
<clus scale="   67.379">  1  4  2 -1</clus>
<clus scale="   85.418">  2  3  1 -1</clus>
<clus scale="   67.379">  1  3  2 -1</clus>
</clustering>
</event>
<event>
 6    0  0.4469832E+002  0.1076350E+03  0.7546771E-02  0.1265013E+00
         21   -1    0    0  504  501  0.00000000000E+00  0.00000000000E+00  0.66490903158E+03  0.66490903158E+03  0.00000000000E+00 0. -1.
         21   -1    0    0  506  502 -0.00000000000E+00 -0.00000000000E+00 -0.32145066453E+03  0.32145066453E+03  0.00000000000E+00 0.  1.
         21    1    1    2  503  502  0.46221418725E+02  0.10314771252E+02 -0.10969800133E+03  0.11948416443E+03  0.00000000000E+00 0. -1.
         21    1    1    2  504  503 -0.12692978886E+03  0.93273645690E+02  0.58508020665E+03  0.60591252875E+03  0.00000000000E+00 0. -1.
         21    1    1    2  505  501  0.42416289568E+02 -0.24731457731E+02  0.43022799974E+02  0.65282064457E+02  0.00000000000E+00 0. -1.
         21    1    1    2  506  505  0.38292080565E+02 -0.78856959212E+02 -0.17494663824E+03  0.19568093847E+03  0.00000000000E+00 0.  1.
<scales pt_clust_3="47.35836" pt_clust_4="14000.00000" pt_clust_5="50.99798" pt_clust_6="107.63501"></scales>
<clustering>
<clus scale="   47.358">  2  3  1 -1</clus>
<clus scale="   50.998">  1  5  2 -1</clus>
<clus scale="  107.635">  2  6  1 -1</clus>
<clus scale="   50.998">  1  3  2 -1</clus>
</clustering>
</event>
<event>
 6    0  0.4469832E+002  0.9049255E+02  0.7546771E-02  0.1301663E+00
         21   -1    0    0  505  501  0.00000000000E+00  0.00000000000E+00  0.73163202316E+03  0.73163202316E+03  0.00000000000E+00 0.  1.
         21   -1    0    0  506  502 -0.00000000000E+00 -0.00000000000E+00 -0.89384086254E+02  0.89384086254E+02  0.00000000000E+00 0.  1.
         21    1    1    2  503  504  0.67080014204E+01  0.34578911782E+02 -0.74583459047E+01  0.36004518421E+02  0.00000000000E+00 0. -1.
         21    1    1    2  504  501 -0.86153538067E+02 -0.85160877962E+01  0.29650009681E+03  0.30888066188E+03  0.00000000000E+00 0.  1.
         21    1    1    2  505  502  0.87581808231E+02 -0.66518216284E+02  0.39935592187E+03  0.41422264371E+03  0.00000000000E+00 0.  1.
         21    1    1    2  506  503 -0.81362715840E+01  0.40455392298E+02 -0.46149735869E+02  0.61908285407E+02  0.00000000000E+00 0.  1.
<scales pt_clust_3="30.37504" pt_clust_4="14000.00000" pt_clust_5="90.49255" pt_clust_6="81.93345"></scales>
<clustering>
<clus scale="   30.375">  3  6 -1 -1</clus>
<clus scale="   81.933">  2  3  1 -1</clus>
<clus scale="   90.493">  2  5  1 -1</clus>
<clus scale="   90.493">  1  3  2 -1</clus>
</clustering>
</event>
<event>
 6    0  0.4469832E+002  0.6287616E+02  0.7546771E-02  0.1386143E+00
         21   -1    0    0  504  501  0.00000000000E+00  0.00000000000E+00  0.11159967289E+04  0.11159967289E+04  0.00000000000E+00 0.  1.
         21   -1    0    0  506  502 -0.00000000000E+00 -0.00000000000E+00 -0.40140327818E+02  0.40140327818E+02  0.00000000000E+00 0.  1.
         21    1    1    2  503  502 -0.42196906144E+02 -0.37039121006E+02  0.21386702944E+02  0.60082164041E+02  0.00000000000E+00 0.  1.
         21    1    1    2  504  505 -0.44469959957E+02 -0.56340449833E+02  0.78040929876E+03  0.78370306699E+03  0.00000000000E+00 0.  1.
         21    1    1    2  505  503  0.50056869406E+02  0.89285530780E+02  0.14068370118E+03  0.17398132072E+03  0.00000000000E+00 0.  1.
         21    1    1    2  506  501  0.36609996694E+02  0.40940400583E+01  0.13337669822E+03  0.13837050498E+03  0.00000000000E+00 0. -1.
<scales pt_clust_3="54.89815" pt_clust_4="62.87616" pt_clust_5="14000.00000" pt_clust_6="36.83820"></scales>
<clustering>
<clus scale="   36.838">  1  6  2 -1</clus>
<clus scale="   54.898">  2  3  1 -1</clus>
<clus scale="   62.876">  1  4  2 -1</clus>
<clus scale="   36.838">  1  3  2 -1</clus>
</clustering>
</event>
<event>
 6    0  0.4469832E+002  0.1172059E+03  0.7546771E-02  0.1247779E+00
         21   -1    0    0  504  501  0.00000000000E+00  0.00000000000E+00  0.21620933599E+03  0.21620933599E+03  0.00000000000E+00 0.  1.
         21   -1    0    0  503  502 -0.00000000000E+00 -0.00000000000E+00 -0.26144393692E+03  0.26144393692E+03  0.00000000000E+00 0.  1.
         21    1    1    2  503  505 -0.12522901153E+02 -0.38414456778E+02 -0.12765331332E+03  0.13389496609E+03  0.00000000000E+00 0.  1.
         21    1    1    2  504  502 -0.85165268862E+02 -0.36188244369E+02  0.45784126009E+02  0.10324194034E+03  0.00000000000E+00 0.  1.
         21    1    1    2  505  506 -0.32904913429E+02 -0.27555620183E+02 -0.39261126626E+02  0.58167702339E+02  0.00000000000E+00 0.  1.
         21    1    1    2  506  501  0.13059308344E+03  0.10215832133E+03  0.75895713013E+02  0.18234866414E+03  0.00000000000E+00 0.  1.
<scales pt_clust_3="40.40413" pt_clust_4="14000.00000" pt_clust_5="56.26216" pt_clust_6="117.20592"></scales>
<clustering>
<clus scale="   40.404">  2  3  1 -1</clus>
<clus scale="   56.262">  2  5  1 -1</clus>
<clus scale="  117.206">  2  6  1 -1</clus>
<clus scale="  117.206">  1  3  2 -1</clus>
</clustering>
</event>
<event>
 6    0  0.4469832E+002  0.9280022E+02  0.7546771E-02  0.1296209E+00
         21   -1    0    0  506  501  0.00000000000E+00  0.00000000000E+00  0.67683186502E+02  0.67683186502E+02  0.00000000000E+00 0.  1.
         21   -1    0    0  504  502 -0.00000000000E+00 -0.00000000000E+00 -0.47165969814E+03  0.47165969814E+03  0.00000000000E+00 0.  1.
         21    1    1    2  503  505 -0.28848232363E+02 -0.74548423634E+02 -0.69203975141E+02  0.10573021400E+03  0.00000000000E+00 0.  1.
         21    1    1    2  504  501  0.47318650346E+02 -0.53452822343E+02 -0.11660024350E+03  0.13671823460E+03  0.00000000000E+00 0.  1.
         21    1    1    2  505  502 -0.23435677949E+02  0.22340058840E+02 -0.18237017930E+03  0.18522200606E+03  0.00000000000E+00 0.  1.
         21    1    1    2  506  503  0.49652599663E+01  0.10566118714E+03 -0.35802113692E+02  0.11167242998E+03  0.00000000000E+00 0.  1.
<scales pt_clust_3="92.80022" pt_clust_4="57.20583" pt_clust_5="32.37760" pt_clust_6="14000.00000"></scales>
<clustering>
<clus scale="   32.378">  2  5  1 -1</clus>
<clus scale="   57.206">  2  4  1 -1</clus>
<clus scale="   92.800">  2  3  1 -1</clus>
<clus scale="   92.800">  1  3  2 -1</clus>
</clustering>
</event>
<event>
 6    0  0.4469832E+002  0.1306332E+03  0.7546771E-02  0.1226519E+00
         21   -1    0    0  503  501  0.00000000000E+00  0.00000000000E+00  0.10960752886E+04  0.10960752886E+04  0.00000000000E+00 0.  1.
         21   -1    0    0  504  502 -0.00000000000E+00 -0.00000000000E+00 -0.19621423755E+03  0.19621423755E+03  0.00000000000E+00 0. -1.
         21    1    1    2  503  506 -0.17470734481E+02  0.39966229761E+02  0.55863478815E+03  0.56033503604E+03  0.00000000000E+00 0.  1.
         21    1    1    2  504  501  0.97573588892E+02  0.68126053586E+02 -0.14919930678E+03  0.19084600486E+03  0.00000000000E+00 0. -1.
         21    1    1    2  505  502  0.27709305969E+02 -0.26963238374E+02  0.71085392837E+01  0.39310980548E+02  0.00000000000E+00 0. -1.
         21    1    1    2  506  505 -0.10781216038E+03 -0.81129044973E+02  0.48331703038E+03  0.50179750470E+03  0.00000000000E+00 0.  1.
<scales pt_clust_3="43.44902" pt_clust_4="14000.00000" pt_clust_5="38.66293" pt_clust_6="130.63318"></scales>
<clustering>
<clus scale="   38.663">  2  5  1 -1</clus>
<clus scale="   43.449">  1  3  2 -1</clus>
<clus scale="  130.633">  1  6  2 -1</clus>
<clus scale="   43.449">  1  3  2 -1</clus>
</clustering>
</event>
<event>
 6    0  0.4469832E+002  0.1015041E+03  0.7546771E-02  0.1277165E+00
         21   -1    0    0  503  501  0.00000000000E+00  0.00000000000E+00  0.48142602027E+03  0.48142602027E+03  0.00000000000E+00 0.  1.
         21   -1    0    0  506  502 -0.00000000000E+00 -0.00000000000E+00 -0.46912637227E+03  0.46912637227E+03  0.00000000000E+00 0.  1.
         21    1    1    2  503  502  0.29409319826E+02 -0.15685336094E+02 -0.20268274460E+03  0.20540504575E+03  0.00000000000E+00 0.  1.
         21    1    1    2  504  501  0.72059267902E+02  0.20224639404E+02  0.41137745771E+03  0.41813034671E+03  0.00000000000E+00 0.  1.
         21    1    1    2  505  504  0.12901436684E+02 -0.84355286500E+02  0.97723993264E+00  0.85341762502E+02  0.00000000000E+00 0.  1.
         21    1    1    2  506  505 -0.11437002441E+03  0.79815983190E+02 -0.19737230504E+03  0.24167523757E+03  0.00000000000E+00 0.  1.
<scales pt_clust_3="33.33073" pt_clust_4="75.15091" pt_clust_5="14000.00000" pt_clust_6="101.50405"></scales>
<clustering>
<clus scale="   33.331">  2  3  1 -1</clus>
<clus scale="   75.151">  1  4  2 -1</clus>
<clus scale="  101.504">  2  6  1 -1</clus>
<clus scale="   75.151">  1  3  2 -1</clus>
</clustering>
</event>
<event>
 6    0  0.4469832E+002  0.8169725E+02  0.7546771E-02  0.1324303E+00
         21   -1    0    0  504  501  0.00000000000E+00  0.00000000000E+00  0.12918751114E+03  0.12918751114E+03  0.00000000000E+00 0. -1.
         21   -1    0    0  501  502 -0.00000000000E+00 -0.00000000000E+00 -0.34410324868E+03  0.34410324868E+03  0.00000000000E+00 0. -1.
         21    1    1    2  503  506  0.29725203725E+02  0.67462638794E+02 -0.21540363825E+02  0.76803532752E+02  0.00000000000E+00 0. -1.
         21    1    1    2  504  503 -0.58565413357E+02  0.39768928500E+02  0.70842590819E+02  0.10015062651E+03  0.00000000000E+00 0. -1.
         21    1    1    2  505  502  0.41143419806E+02 -0.29549014111E+02 -0.14424827010E+03  0.15288390581E+03  0.00000000000E+00 0. -1.
         21    1    1    2  506  505 -0.12303210173E+02 -0.77682553182E+02 -0.11996969444E+03  0.14345269475E+03  0.00000000000E+00 0. -1.
<scales pt_clust_3="14000.00000" pt_clust_4="66.99696" pt_clust_5="50.65496" pt_clust_6="81.69725"></scales>
<clustering>
<clus scale="   50.655">  2  5  1 -1</clus>
<clus scale="   66.997">  1  4  2 -1</clus>
<clus scale="   81.697">  2  6  1 -1</clus>
<clus scale="   66.997">  1  3  2 -1</clus>
</clustering>
</event>
<event>
 6    0  0.4469832E+002  0.3722834E+03  0.7546771E-02  0.1053823E+00
         21   -1    0    0  503  501  0.00000000000E+00  0.00000000000E+00  0.36704019713E+03  0.36704019713E+03  0.00000000000E+00 0. -1.
         21   -1    0    0  506  502 -0.00000000000E+00 -0.00000000000E+00 -0.12844717124E+04  0.12844717124E+04  0.00000000000E+00 0. -1.
         21    1    1    2  503  502 -0.22826522193E+03  0.19980238463E+03 -0.44901360662E+02  0.30666290391E+03  0.00000000000E+00 0. -1.
         21    1    1    2  504  501 -0.16435150421E+03 -0.13814920643E+03  0.13938551786E+03  0.25597840292E+03  0.00000000000E+00 0. -1.
         21    1    1    2  505  504  0.20895517326E+03 -0.14646061186E+02 -0.46419112106E+03  0.50926434040E+03  0.00000000000E+00 0. -1.
         21    1    1    2  506  505  0.18366155289E+03 -0.47007117015E+02 -0.54772455141E+03  0.57960626228E+03  0.00000000000E+00 0. -1.
<scales pt_clust_3="367.25746" pt_clust_4="214.70123" pt_clust_5="57.99991" pt_clust_6="57.99991"></scales>
<clustering>
<clus scale="   58.000">  5  6 -1 -1</clus>
<clus scale="  214.701">  1  4  2 -1</clus>
<clus scale="  367.257">  1  3  2 -1</clus>
<clus scale="  214.701">  1  3  2 -1</clus>
</clustering>
</event>
<event>
 6    0  0.4469832E+002  0.8894074E+02  0.7546771E-02  0.1305437E+00
         21   -1    0    0  503  501  0.00000000000E+00  0.00000000000E+00  0.38064224387E+03  0.38064224387E+03  0.00000000000E+00 0. -1.
         21   -1    0    0  506  502 -0.00000000000E+00 -0.00000000000E+00 -0.18728659286E+04  0.18728659286E+04  0.00000000000E+00 0.  1.
         21    1    1    2  503  504  0.88985590599E+02  0.75772662878E+02  0.28568787692E+03  0.30867052790E+03  0.00000000000E+00 0. -1.
         21    1    1    2  504  502 -0.99307480614E+02 -0.66585122341E+02 -0.18150833839E+04  0.18190171095E+04  0.00000000000E+00 0.  1.
         21    1    1    2  505  501 -0.12856467916E+02 -0.31618590472E+02  0.71185145532E+02  0.78945227690E+02  0.00000000000E+00 0. -1.
         21    1    1    2  506  505  0.23178357930E+02  0.22431049935E+02 -0.34013323234E+02  0.46875307305E+02  0.00000000000E+00 0.  1.
<scales pt_clust_3="14000.00000" pt_clust_4="88.94074" pt_clust_5="34.06998" pt_clust_6="32.25505"></scales>
<clustering>
<clus scale="   32.255">  2  6  1 -1</clus>
<clus scale="   34.070">  1  5  2 -1</clus>
<clus scale="   88.941">  2  4  1 -1</clus>
<clus scale="   34.070">  1  3  2 -1</clus>
</clustering>
</event>
<event>
 6    0  0.4469832E+002  0.6259821E+02  0.7546771E-02  0.1387241E+00
         21   -1    0    0  503  501  0.00000000000E+00  0.00000000000E+00  0.49945067285E+02  0.49945067285E+02  0.00000000000E+00 0.  1.
         21   -1    0    0  504  502 -0.00000000000E+00 -0.00000000000E+00 -0.13662885552E+04  0.13662885552E+04  0.00000000000E+00 0. -1.
         21    1    1    2  503  506  0.11154213687E+02  0.61189106817E+02 -0.19429175764E+02  0.65161462130E+02  0.00000000000E+00 0.  1.
         21    1    1    2  504  501 -0.68088955234E+02 -0.41350058638E+02 -0.55344341638E+02  0.96999635698E+02  0.00000000000E+00 0.  1.
         21    1    1    2  505  502 -0.16692635843E+02  0.54234721945E+02 -0.22086520113E+03  0.22803834376E+03  0.00000000000E+00 0. -1.
         21    1    1    2  506  505  0.73627377390E+02 -0.74073770124E+02 -0.10207047694E+04  0.10260341809E+04  0.00000000000E+00 0. -1.
<scales pt_clust_3="62.59821" pt_clust_4="14000.00000" pt_clust_5="56.74548" pt_clust_6="63.95537"></scales>
<clustering>
<clus scale="   56.745">  2  5  1 -1</clus>
<clus scale="   63.955">  2  6  1 -1</clus>
<clus scale="   62.598">  1  3  2 -1</clus>
<clus scale="   62.598">  1  3  2 -1</clus>
</clustering>
</event>
<event>
 6    0  0.4469832E+002  0.7446146E+02  0.7546771E-02  0.1345547E+00
         21   -1    0    0  505  501  0.00000000000E+00  0.00000000000E+00  0.14570544766E+03  0.14570544766E+03  0.00000000000E+00 0. -1.
         21   -1    0    0  503  502 -0.00000000000E+00 -0.00000000000E+00 -0.28976607825E+03  0.28976607825E+03  0.00000000000E+00 0.  1.
         21    1    1    2  503  504  0.64839337222E+02  0.22694986582E+02 -0.16843651287E+03  0.18190673691E+03  0.00000000000E+00 0.  1.
         21    1    1    2  504  501  0.54104189549E+02  0.23570204775E+02 -0.12390152369E+02  0.60302021157E+02  0.00000000000E+00 0. -1.
         21    1    1    2  505  506 -0.19918464233E+02  0.28185513886E+02  0.58071659360E+02  0.67553578967E+02  0.00000000000E+00 0. -1.
         21    1    1    2  506  502 -0.99025062538E+02 -0.74450705243E+02 -0.21305624707E+02  0.12570918887E+03  0.00000000000E+00 0. -1.
<scales pt_clust_3="14000.00000" pt_clust_4="57.82213" pt_clust_5="34.51331" pt_clust_6="74.46146"></scales>
<clustering>
<clus scale="   34.513">  1  5  2 -1</clus>
<clus scale="   57.822">  1  4  2 -1</clus>
<clus scale="   74.461">  1  6  2 -1</clus>
<clus scale="   34.513">  1  3  2 -1</clus>
</clustering>
</event>
<event>
 6    0  0.4469832E+002  0.2027057E+03  0.7546771E-02  0.1147476E+00
         21   -1    0    0  503  501  0.00000000000E+00  0.00000000000E+00  0.61344902773E+03  0.61344902773E+03  0.00000000000E+00 0. -1.
         21   -1    0    0  506  502 -0.00000000000E+00 -0.00000000000E+00 -0.91167465241E+02  0.91167465241E+02  0.00000000000E+00 0. -1.
         21    1    1    2  503  502  0.18571979140E+03  0.76092648965E+02  0.28616128758E+03  0.34952856057E+03  0.00000000000E+00 0. -1.
         21    1    1    2  504  501 -0.27030019952E+02  0.33579101663E+02  0.10912822459E+03  0.11733348818E+03  0.00000000000E+00 0. -1.
         21    1    1    2  505  504 -0.38203433139E+02 -0.21599036323E+02  0.59563095529E+02  0.73985018907E+02  0.00000000000E+00 0. -1.
         21    1    1    2  506  505 -0.12048633831E+03 -0.88072714304E+02  0.67428954793E+02  0.16376942532E+03  0.00000000000E+00 0. -1.
<scales pt_clust_3="194.67853" pt_clust_4="43.10659" pt_clust_5="30.62687" pt_clust_6="30.62687"></scales>
<clustering>
<clus scale="   30.627">  5  6 -1 -1</clus>
<clus scale="   43.107">  1  4  2 -1</clus>
<clus scale="  194.679">  1  3  2 -1</clus>
<clus scale="   43.107">  1  3  2 -1</clus>
</clustering>
</event>
<event>
 6    0  0.4469832E+002  0.9326696E+02  0.7546771E-02  0.1295128E+00
         21   -1    0    0  503  501  0.00000000000E+00  0.00000000000E+00  0.71439878263E+03  0.71439878263E+03  0.00000000000E+00 0. -1.
         21   -1    0    0  506  502 -0.00000000000E+00 -0.00000000000E+00 -0.91072736394E+03  0.91072736394E+03  0.00000000000E+00 0.  1.
         21    1    1    2  503  502  0.38695168616E+02 -0.52937477425E+00 -0.87168990477E+02  0.95373105290E+02  0.00000000000E+00 0. -1.
         21    1    1    2  504  501  0.37357629995E+02 -0.85130057301E+02  0.68300718709E+03  0.68930511154E+03  0.00000000000E+00 0. -1.
         21    1    1    2  505  504 -0.11208047873E+02  0.11141460137E+03 -0.11797679985E+03  0.16265718256E+03  0.00000000000E+00 0.  1.
         21    1    1    2  506  505 -0.64844750738E+02 -0.25755169296E+02 -0.67418997806E+03  0.67779074718E+03  0.00000000000E+00 0.  1.
<scales pt_clust_3="38.69879" pt_clust_4="93.26696" pt_clust_5="14000.00000" pt_clust_6="42.07150"></scales>
<clustering>
<clus scale="   38.699">  2  3  1 -1</clus>
<clus scale="   42.072">  2  6  1 -1</clus>
<clus scale="   93.267">  1  4  2 -1</clus>
<clus scale="   93.267">  1  3  2 -1</clus>
</clustering>
</event>
<event>
 6    0  0.4469832E+002  0.1058731E+03  0.7546771E-02  0.1268409E+00
         21   -1    0    0  505  501  0.00000000000E+00  0.00000000000E+00  0.15344251555E+02  0.15344251555E+02  0.00000000000E+00 0. -1.
         21   -1    0    0  504  502 -0.00000000000E+00 -0.00000000000E+00 -0.17769400608E+04  0.17769400608E+04  0.00000000000E+00 0. -1.
         21    1    1    2  503  502  0.53008987127E+01  0.97934815628E+02 -0.50606959005E+03  0.51548594317E+03  0.00000000000E+00 0. -1.
         21    1    1    2  504  506 -0.33012825191E+02  0.18503984557E+02 -0.31965357991E+03  0.32188609045E+03  0.00000000000E+00 0.  1.
         21    1    1    2  505  503  0.59879590518E+02 -0.47806308196E+01 -0.17057201022E+03  0.18084034523E+03  0.00000000000E+00 0. -1.
         21    1    1    2  506  501 -0.32167664039E+02 -0.11165816937E+03 -0.76530062904E+03  0.77407193348E+03  0.00000000000E+00 0. -1.
<scales pt_clust_3="14000.00000" pt_clust_4="37.84500" pt_clust_5="55.95420" pt_clust_6="105.87313"></scales>
<clustering>
<clus scale="   37.845">  2  4  1 -1</clus>
<clus scale="   55.954">  1  5  2 -1</clus>
<clus scale="  105.873">  2  6  1 -1</clus>
<clus scale="   55.954">  1  3  2 -1</clus>
</clustering>
</event>
<event>
 6    0  0.4469832E+002  0.1605500E+03  0.7546771E-02  0.1188077E+00
         21   -1    0    0  504  501  0.00000000000E+00  0.00000000000E+00  0.18215601058E+03  0.18215601058E+03  0.00000000000E+00 0.  1.
         21   -1    0    0  505  502 -0.00000000000E+00 -0.00000000000E+00 -0.50918551568E+03  0.50918551568E+03  0.00000000000E+00 0.  1.
         21    1    1    2  503  506  0.92894682714E+02 -0.17888354231E+03 -0.23970239571E+03  0.31318681693E+03  0.00000000000E+00 0.  1.
         21    1    1    2  504  503 -0.25115056945E+02  0.37262498531E+02  0.10901541482E+03  0.11791361478E+03  0.00000000000E+00 0.  1.
         21    1    1    2  505  501 -0.38925864122E+02  0.12203700317E+03 -0.11663765559E+03  0.17324143772E+03  0.00000000000E+00 0.  1.
         21    1    1    2  506  502 -0.28853761647E+02  0.19584040610E+02 -0.79704868615E+02  0.86999656831E+02  0.00000000000E+00 0.  1.
<scales pt_clust_3="160.55003" pt_clust_4="45.27454" pt_clust_5="14000.00000" pt_clust_6="34.87226"></scales>
<clustering>
<clus scale="   34.872">  2  6  1 -1</clus>
<clus scale="   45.275">  1  4  2 -1</clus>
<clus scale="  160.550">  2  3  1 -1</clus>
<clus scale="   45.275">  1  3  2 -1</clus>
</clustering>
</event>
<event>
 6    0  0.4469832E+002  0.1674745E+03  0.7546771E-02  0.1180507E+00
         21   -1    0    0  502  501  0.00000000000E+00  0.00000000000E+00  0.63405601512E+03  0.63405601512E+03  0.00000000000E+00 0.  1.
         21   -1    0    0  506  502 -0.00000000000E+00 -0.00000000000E+00 -0.44639839035E+03  0.44639839035E+03  0.00000000000E+00 0.  1.
         21    1    1    2  503  505  0.64829909042E+02  0.10567848248E+03 -0.26851721622E+03  0.29575725548E+03  0.00000000000E+00 0.  1.
         21    1    1    2  504  501  0.36932180793E+02 -0.80021040831E+02  0.39572714067E+03  0.40542240049E+03  0.00000000000E+00 0.  1.
         21    1    1    2  505  504 -0.91732265451E+02 -0.70611366351E+02  0.20067847031E+03  0.23167352466E+03  0.00000000000E+00 0.  1.
         21    1    1    2  506  503 -0.10029824385E+02  0.44953924702E+02 -0.14023076999E+03  0.14760122484E+03  0.00000000000E+00 0.  1.
<scales pt_clust_3="37.56632" pt_clust_4="88.13259" pt_clust_5="155.72105" pt_clust_6="37.56632"></scales>
<clustering>
<clus scale="   37.566">  3  6 -1 -1</clus>
<clus scale="   88.133">  1  4  2 -1</clus>
<clus scale="  155.721">  1  5  2 -1</clus>
<clus scale="   88.133">  1  3  2 -1</clus>
</clustering>
</event>
<event>
 6    0  0.4469832E+002  0.2972116E+03  0.7546771E-02  0.1086643E+00
         21   -1    0    0  503  501  0.00000000000E+00  0.00000000000E+00  0.65286251562E+03  0.65286251562E+03  0.00000000000E+00 0.  1.
         21   -1    0    0  506  502 -0.00000000000E+00 -0.00000000000E+00 -0.66853636742E+03  0.66853636742E+03  0.00000000000E+00 0. -1.
         21    1    1    2  503  505  0.13414098608E+03 -0.89948832121E+02 -0.84809645487E+02  0.18242059235E+03  0.00000000000E+00 0. -1.
         21    1    1    2  504  501  0.82847658982E+02 -0.97773445903E+02  0.50749209737E+03  0.52342297448E+03  0.00000000000E+00 0.  1.
         21    1    1    2  505  502  0.42206011844E+02 -0.56022962396E+02 -0.11537737744E+03  0.13502540123E+03  0.00000000000E+00 0. -1.
         21    1    1    2  506  504 -0.25919465690E+03  0.24374524042E+03 -0.32297892623E+03  0.48052991498E+03  0.00000000000E+00 0. -1.
<scales pt_clust_3="60.00662" pt_clust_4="128.15374" pt_clust_5="60.00662" pt_clust_6="282.91983"></scales>
<clustering>
<clus scale="   60.007">  3  5 -1 -1</clus>
<clus scale="  128.154">  1  4  2 -1</clus>
<clus scale="  282.920">  1  6  2 -1</clus>
<clus scale="  128.154">  1  3  2 -1</clus>
</clustering>
</event>
<event>
 6    0  0.4469832E+002  0.1250971E+03  0.7546771E-02  0.1234918E+00
         21   -1    0    0  505  501  0.00000000000E+00  0.00000000000E+00  0.13342859805E+03  0.13342859805E+03  0.00000000000E+00 0.  1.
         21   -1    0    0  503  502 -0.00000000000E+00 -0.00000000000E+00 -0.61727963347E+03  0.61727963347E+03  0.00000000000E+00 0.  1.
         21    1    1    2  503  501 -0.10470857927E+02  0.38846285321E+02 -0.73076551267E+02  0.83419752421E+02  0.00000000000E+00 0.  1.
         21    1    1    2  504  506  0.52430156000E+02 -0.16147083598E+03  0.13979359307E+02  0.17034428260E+03  0.00000000000E+00 0.  1.
         21    1    1    2  505  504 -0.23993595395E+01  0.45553175786E+02  0.15553738969E+02  0.48195098779E+02  0.00000000000E+00 0. -1.
         21    1    1    2  506  502 -0.39559938534E+02  0.77071374868E+02 -0.44030758243E+03  0.44874909772E+03  0.00000000000E+00 0.  1.
<scales pt_clust_3="40.23273" pt_clust_4="125.09712" pt_clust_5="46.80824" pt_clust_6="14000.00000"></scales>
<clustering>
<clus scale="   40.233">  2  3  1 -1</clus>
<clus scale="   46.808">  1  5  2 -1</clus>
<clus scale="  125.097">  1  4  2 -1</clus>
<clus scale="   46.808">  1  3  2 -1</clus>
</clustering>
</event>
<event>
 6    0  0.4469832E+002  0.1789660E+03  0.7546771E-02  0.1168808E+00
         21   -1    0    0  506  501  0.00000000000E+00  0.00000000000E+00  0.74229205789E+03  0.74229205789E+03  0.00000000000E+00 0. -1.
         21   -1    0    0  505  502 -0.00000000000E+00 -0.00000000000E+00 -0.25105848307E+03  0.25105848307E+03  0.00000000000E+00 0. -1.
         21    1    1    2  503  502  0.10867224237E+03 -0.23967341366E+02 -0.15218274657E+03  0.18853031073E+03  0.00000000000E+00 0. -1.
         21    1    1    2  504  503  0.62207490214E+02 -0.94402815339E+01 -0.42312932613E+02  0.75823973917E+02  0.00000000000E+00 0.  1.
         21    1    1    2  505  501  0.10277191097E+02  0.62603959895E+02  0.15713380601E+03  0.16945769219E+03  0.00000000000E+00 0.  1.
         21    1    1    2  506  504 -0.18115692368E+03 -0.29196336995E+02  0.52859544800E+03  0.55953856412E+03  0.00000000000E+00 0. -1.
<scales pt_clust_3="31.35346" pt_clust_4="31.35346" pt_clust_5="63.44191" pt_clust_6="174.04065"></scales>
<clustering>
<clus scale="   31.353">  3  4 -1 -1</clus>
<clus scale="   63.442">  1  5  2 -1</clus>
<clus scale="  174.041">  1  6  2 -1</clus>
<clus scale="   63.442">  1  3  2 -1</clus>
</clustering>
</event>
<event>
 6    0  0.4469832E+002  0.1263431E+03  0.7546771E-02  0.1232985E+00
         21   -1    0    0  504  501  0.00000000000E+00  0.00000000000E+00  0.11047105283E+03  0.11047105283E+03  0.00000000000E+00 0.  1.
         21   -1    0    0  506  502 -0.00000000000E+00 -0.00000000000E+00 -0.46265507331E+03  0.46265507331E+03  0.00000000000E+00 0.  1.
         21    1    1    2  503  501  0.22586080671E+02  0.29635270812E+02  0.69857600171E+02  0.79173635876E+02  0.00000000000E+00 0.  1.
         21    1    1    2  504  505  0.27601050970E+02  0.53724412585E+02 -0.79528196460E+02  0.99864230605E+02  0.00000000000E+00 0.  1.
         21    1    1    2  505  502  0.30179313423E+02  0.34987622382E+02 -0.12949952070E+03  0.13749563826E+03  0.00000000000E+00 0.  1.
         21    1    1    2  506  503 -0.80366445064E+02 -0.11834730578E+03 -0.21301390349E+03  0.25659262140E+03  0.00000000000E+00 0.  1.
<scales pt_clust_3="37.26098" pt_clust_4="33.17546" pt_clust_5="33.17546" pt_clust_6="120.51495"></scales>
<clustering>
<clus scale="   33.175">  4  5 -1 -1</clus>
<clus scale="   37.261">  1  3  2 -1</clus>
<clus scale="  120.515">  1  6  2 -1</clus>
<clus scale="   37.261">  1  3  2 -1</clus>
</clustering>
</event>
<event>
 6    0  0.4469832E+002  0.2211448E+03  0.7546771E-02  0.1133032E+00
         21   -1    0    0  505  501  0.00000000000E+00  0.00000000000E+00  0.11780080939E+03  0.11780080939E+03  0.00000000000E+00 0.  1.
         21   -1    0    0  504  502 -0.00000000000E+00 -0.00000000000E+00 -0.71141621709E+03  0.71141621709E+03  0.00000000000E+00 0. -1.
         21    1    1    2  503  501 -0.77258659741E+02 -0.20287072409E+03 -0.54028328022E+02  0.22370626148E+03  0.00000000000E+00 0.  1.
         21    1    1    2  504  506  0.42562532140E+02  0.12074386851E+03 -0.33754873900E+03  0.36101219110E+03  0.00000000000E+00 0. -1.
         21    1    1    2  505  502 -0.30933356855E+02  0.19016619083E+02 -0.21237930351E+02  0.42066067718E+02  0.00000000000E+00 0. -1.
         21    1    1    2  506  503  0.65629484456E+02  0.63110236501E+02 -0.18080041033E+03  0.20243250617E+03  0.00000000000E+00 0. -1.
<scales pt_clust_3="213.60892" pt_clust_4="47.87783" pt_clust_5="36.31122" pt_clust_6="47.87783"></scales>
<clustering>
<clus scale="   36.311">  1  5  2 -1</clus>
<clus scale="   47.878">  4  6 -1 -1</clus>
<clus scale="  213.609">  1  3  2 -1</clus>
<clus scale="   36.311">  1  3  2 -1</clus>
</clustering>
</event>
<event>
 6    0  0.4469832E+002  0.1250898E+03  0.7546771E-02  0.1234929E+00
         21   -1    0    0  504  501  0.00000000000E+00  0.00000000000E+00  0.46995399957E+03  0.46995399957E+03  0.00000000000E+00 0. -1.
         21   -1    0    0  506  502 -0.00000000000E+00 -0.00000000000E+00 -0.15294010700E+03  0.15294010700E+03  0.00000000000E+00 0. -1.
         21    1    1    2  503  501  0.46457293098E+00 -0.47612110498E+02  0.16266693155E+03  0.16949235828E+03  0.00000000000E+00 0. -1.
         21    1    1    2  504  502  0.48508789438E+02 -0.22300178203E+02 -0.50120127920E+02  0.73228599764E+02  0.00000000000E+00 0. -1.
         21    1    1    2  505  503 -0.11800031480E+03 -0.22105857259E+02  0.23259781742E+03  0.26175272279E+03  0.00000000000E+00 0. -1.
         21    1    1    2  506  505  0.69026952433E+02  0.92018145960E+02 -0.28130728477E+02  0.11842042574E+03  0.00000000000E+00 0. -1.
<scales pt_clust_3="47.61438" pt_clust_4="54.18611" pt_clust_5="14000.00000" pt_clust_6="125.08984"></scales>
<clustering>
<clus scale="   47.614">  1  3  2 -1</clus>
<clus scale="   54.186">  2  4  1 -1</clus>
<clus scale="  125.090">  2  6  1 -1</clus>
<clus scale="   47.614">  1  3  2 -1</clus>
</clustering>
</event>
<event>
 6    0  0.4469832E+002  0.1157844E+03  0.7546771E-02  0.1250218E+00
         21   -1    0    0  504  501  0.00000000000E+00  0.00000000000E+00  0.27420024873E+03  0.27420024873E+03  0.00000000000E+00 0.  1.
         21   -1    0    0  503  502 -0.00000000000E+00 -0.00000000000E+00 -0.18025241626E+03  0.18025241626E+03  0.00000000000E+00 0.  1.
         21    1    1    2  503  501  0.22666652272E+02 -0.84810649692E+02  0.10009917390E+03  0.13314078279E+03  0.00000000000E+00 0.  1.
         21    1    1    2  504  505 -0.28003286607E+02  0.63108818439E+02  0.25357456249E+02  0.73552074159E+02  0.00000000000E+00 0.  1.
         21    1    1    2  505  506  0.58708883942E+01  0.10014736232E+03  0.67891289741E+02  0.12113293826E+03  0.00000000000E+00 0.  1.
         21    1    1    2  506  502 -0.53425405997E+00 -0.78445531064E+02 -0.99400087423E+02  0.12662686978E+03  0.00000000000E+00 0.  1.
<scales pt_clust_3="106.49657" pt_clust_4="37.69420" pt_clust_5="37.69420" pt_clust_6="78.44735"></scales>
<clustering>
<clus scale="   37.694">  4  5 -1 -1</clus>
<clus scale="   78.447">  2  6  1 -1</clus>
<clus scale="  106.497">  1  3  2 -1</clus>
<clus scale="  106.497">  1  3  2 -1</clus>
</clustering>
</event>
<event>
 6    0  0.4469832E+002  0.7536252E+02  0.7546771E-02  0.1342752E+00
         21   -1    0    0  505  501  0.00000000000E+00  0.00000000000E+00  0.10178125233E+03  0.10178125233E+03  0.00000000000E+00 0.  1.
         21   -1    0    0  504  502 -0.00000000000E+00 -0.00000000000E+00 -0.52716378614E+03  0.52716378614E+03  0.00000000000E+00 0.  1.
         21    1    1    2  503  501 -0.79480248103E+02 -0.48399218682E+02  0.27957207896E+02  0.97165835976E+02  0.00000000000E+00 0.  1.
         21    1    1    2  504  503 -0.23963754547E+02  0.79723158504E+02 -0.32791331298E+03  0.33831521450E+03  0.00000000000E+00 0.  1.
         21    1    1    2  505  506  0.32945624871E+02  0.19716817213E+01  0.12282707326E+02  0.35215999577E+02  0.00000000000E+00 0. -1.
         21    1    1    2  506  502  0.70498377779E+02 -0.33295621544E+02 -0.13770913605E+03  0.15824798841E+03  0.00000000000E+00 0.  1.
<scales pt_clust_3="70.76723" pt_clust_4="14000.00000" pt_clust_5="33.00457" pt_clust_6="75.36252"></scales>
<clustering>
<clus scale="   33.005">  1  5  2 -1</clus>
<clus scale="   70.767">  1  3  2 -1</clus>
<clus scale="   75.363">  1  6  2 -1</clus>
<clus scale="   33.005">  1  3  2 -1</clus>
</clustering>
</event>
<event>
 6    0  0.4469832E+002  0.5508379E+02  0.7546771E-02  0.1419703E+00
         21   -1    0    0  505  501  0.00000000000E+00  0.00000000000E+00  0.17904992712E+03  0.17904992712E+03  0.00000000000E+00 0.  1.
         21   -1    0    0  506  502 -0.00000000000E+00 -0.00000000000E+00 -0.77208709349E+03  0.77208709349E+03  0.00000000000E+00 0. -1.
         21    1    1    2  503  501 -0.46210665250E+02  0.18283433686E+02  0.13067410459E+03  0.13980497538E+03  0.00000000000E+00 0.  1.
         21    1    1    2  504  503  0.63536420377E+02  0.33462732360E+02 -0.18235841641E+02  0.74088980906E+02  0.00000000000E+00 0.  1.
         21    1    1    2  505  502 -0.53876501877E+02  0.12552881263E+02 -0.62689137682E+03  0.62932745897E+03  0.00000000000E+00 0. -1.
         21    1    1    2  506  504  0.36550746750E+02 -0.64299047309E+02 -0.78584052492E+02  0.10791560535E+03  0.00000000000E+00 0. -1.
<scales pt_clust_3="49.69617" pt_clust_4="56.54210" pt_clust_5="55.08379" pt_clust_6="14000.00000"></scales>
<clustering>
<clus scale="   49.696">  1  3  2 -1</clus>
<clus scale="   56.542">  1  4  2 -1</clus>
<clus scale="   55.084">  2  5  1 -1</clus>
<clus scale="   49.696">  1  3  2 -1</clus>
</clustering>
</event>
<event>
 6    0  0.4469832E+002  0.1488292E+03  0.7546771E-02  0.1201919E+00
         21   -1    0    0  502  501  0.00000000000E+00  0.00000000000E+00  0.30861382280E+03  0.30861382280E+03  0.00000000000E+00 0. -1.
         21   -1    0    0  503  502 -0.00000000000E+00 -0.00000000000E+00 -0.20504926718E+03  0.20504926718E+03  0.00000000000E+00 0. -1.
         21    1    1    2  503  506 -0.43999598555E+02 -0.33119656606E+02 -0.96946707729E+02  0.11149681819E+03  0.00000000000E+00 0. -1.
         21    1    1    2  504  505  0.96915738288E+01 -0.41197624591E+02  0.93867462043E+01  0.43350684879E+02  0.00000000000E+00 0. -1.
         21    1    1    2  505  501  0.51252559341E+02  0.14008999781E+03  0.23471802998E+03  0.27810894613E+03  0.00000000000E+00 0. -1.
         21    1    1    2  506  504 -0.16944534614E+02 -0.65772716610E+02 -0.43593512835E+02  0.80706640773E+02  0.00000000000E+00 0. -1.
<scales pt_clust_3="55.07156" pt_clust_4="41.20561" pt_clust_5="139.37460" pt_clust_6="41.20561"></scales>
<clustering>
<clus scale="   41.206">  4  6 -1 -1</clus>
<clus scale="   55.072">  2  3  1 -1</clus>
<clus scale="  139.375">  1  5  2 -1</clus>
<clus scale="  139.375">  1  3  2 -1</clus>
</clustering>
</event>
<event>
 6    0  0.4469832E+002  0.1091240E+03  0.7546771E-02  0.1262201E+00
         21   -1    0    0  506  501  0.00000000000E+00  0.00000000000E+00  0.36507394089E+03  0.36507394089E+03  0.00000000000E+00 0.  1.
         21   -1    0    0  505  502 -0.00000000000E+00 -0.00000000000E+00 -0.10279653994E+03  0.10279653994E+03  0.00000000000E+00 0.  1.
         21    1    1    2  503  501 -0.89160535564E+02 -0.36435846551E+02  0.98912681829E+02  0.13806118442E+03  0.00000000000E+00 0.  1.
         21    1    1    2  504  503  0.14030968265E+01  0.59630970347E+02  0.29180782814E+01  0.59718811827E+02  0.00000000000E+00 0.  1.
         21    1    1    2  505  504 -0.52420192609E+02  0.25592941587E+02  0.10810260715E+02  0.59327371331E+02  0.00000000000E+00 0.  1.
         21    1    1    2  506  502  0.14017763135E+03 -0.48788065384E+02  0.14963638012E+03  0.21076311326E+03  0.00000000000E+00 0.  1.
<scales pt_clust_3="109.12401" pt_clust_4="71.08685" pt_clust_5="58.33417" pt_clust_6="14000.00000"></scales>
<clustering>
<clus scale="   58.334">  2  5  1 -1</clus>
<clus scale="   71.087">  2  4  1 -1</clus>
<clus scale="  109.124">  1  3  2 -1</clus>
<clus scale="  109.124">  1  3  2 -1</clus>
</clustering>
</event>
<event>
 6    0  0.4469832E+002  0.1356716E+03  0.7546771E-02  0.1219275E+00
         21   -1    0    0  503  501  0.00000000000E+00  0.00000000000E+00  0.23840627499E+03  0.23840627499E+03  0.00000000000E+00 0.  1.
         21   -1    0    0  505  502 -0.00000000000E+00 -0.00000000000E+00 -0.62728313361E+03  0.62728313361E+03  0.00000000000E+00 0.  1.
         21    1    1    2  503  504  0.65214007161E+02 -0.18997770098E+03  0.84203164447E+02  0.21779478071E+03  0.00000000000E+00 0.  1.
         21    1    1    2  504  502 -0.60265937079E+02  0.79658305145E+02 -0.46091003424E+03  0.47160946599E+03  0.00000000000E+00 0.  1.
         21    1    1    2  505  506 -0.36281316815E+01  0.39799900998E+02 -0.72948722872E+02  0.83178793136E+02  0.00000000000E+00 0.  1.
         21    1    1    2  506  501 -0.13199384002E+01  0.70519494842E+02  0.60778734049E+02  0.93106368755E+02  0.00000000000E+00 0.  1.
<scales pt_clust_3="135.67158" pt_clust_4="14000.00000" pt_clust_5="39.96493" pt_clust_6="71.70502"></scales>
<clustering>
<clus scale="   39.965">  2  5  1 -1</clus>
<clus scale="   71.705">  1  6  2 -1</clus>
<clus scale="  135.672">  1  3  2 -1</clus>
<clus scale="   71.705">  1  3  2 -1</clus>
</clustering>
</event>
<event>
 6    0  0.4469832E+002  0.1683909E+03  0.7546771E-02  0.1179536E+00
         21   -1    0    0  505  501  0.00000000000E+00  0.00000000000E+00  0.38074031574E+03  0.38074031574E+03  0.00000000000E+00 0. -1.
         21   -1    0    0  506  502 -0.00000000000E+00 -0.00000000000E+00 -0.11305229824E+04  0.11305229824E+04  0.00000000000E+00 0. -1.
         21    1    1    2  503  502 -0.49523471238E+02  0.30591821784E+02 -0.69738091057E+03  0.69980609327E+03  0.00000000000E+00 0. -1.
         21    1    1    2  504  503  0.12985266025E+03 -0.67028969066E+02  0.32832343182E+03  0.35937566967E+03  0.00000000000E+00 0. -1.
         21    1    1    2  505  504  0.37194670934E+02  0.17790859999E+02  0.11007480581E+02  0.42674616274E+02  0.00000000000E+00 0. -1.
         21    1    1    2  506  501 -0.11752385995E+03  0.18646287282E+02 -0.39173266847E+03  0.40940691889E+03  0.00000000000E+00 0. -1.
<scales pt_clust_3="58.13399" pt_clust_4="14000.00000" pt_clust_5="41.23055" pt_clust_6="168.39093"></scales>
<clustering>
<clus scale="   41.231">  1  5  2 -1</clus>
<clus scale="   58.134">  2  3  1 -1</clus>
<clus scale="  168.391">  2  6  1 -1</clus>
<clus scale="   41.231">  1  3  2 -1</clus>
</clustering>
</event>
<event>
 6    0  0.4469832E+002  0.9471527E+02  0.7546771E-02  0.1291819E+00
         21   -1    0    0  504  501  0.00000000000E+00  0.00000000000E+00  0.11855666049E+03  0.11855666049E+03  0.00000000000E+00 0. -1.
         21   -1    0    0  506  502 -0.00000000000E+00 -0.00000000000E+00 -0.15729910473E+04  0.15729910473E+04  0.00000000000E+00 0.  1.
         21    1    1    2  503  502 -0.27604968889E+02 -0.84305963063E+02 -0.13599537156E+04  0.13628439523E+04  0.00000000000E+00 0.  1.
         21    1    1    2  504  503  0.26652611319E+02  0.10479887875E+03  0.38775471324E+02  0.11487690740E+03  0.00000000000E+00 0. -1.
         21    1    1    2  505  501  0.30171153748E+02 -0.28849440869E+02  0.27653185315E+02  0.50072821121E+02  0.00000000000E+00 0.  1.
         21    1    1    2  506  505 -0.29218796179E+02  0.83565251828E+01 -0.16090932784E+03  0.16375402698E+03  0.00000000000E+00 0. -1.
<scales pt_clust_3="14000.00000" pt_clust_4="94.71527" pt_clust_5="41.53077" pt_clust_6="30.39029"></scales>
<clustering>
<clus scale="   30.390">  2  6  1 -1</clus>
<clus scale="   41.531">  1  5  2 -1</clus>
<clus scale="   94.715">  1  4  2 -1</clus>
<clus scale="   41.531">  1  3  2 -1</clus>
</clustering>
</event>
<event>
 6    0  0.4469832E+002  0.1019131E+03  0.7546771E-02  0.1276324E+00
         21   -1    0    0  504  501  0.00000000000E+00  0.00000000000E+00  0.37767036228E+03  0.37767036228E+03  0.00000000000E+00 0.  1.
         21   -1    0    0  503  502 -0.00000000000E+00 -0.00000000000E+00 -0.84780456801E+03  0.84780456801E+03  0.00000000000E+00 0. -1.
         21    1    1    2  503  505 -0.30553517337E+02  0.80448707410E+02 -0.75297504585E+03  0.75787659392E+03  0.00000000000E+00 0. -1.
         21    1    1    2  504  502 -0.31514555231E+02  0.22473352865E+01 -0.60919070368E+02  0.68624710139E+02  0.00000000000E+00 0. -1.
         21    1    1    2  505  506 -0.10066477010E+02 -0.95391179797E+02  0.29693079737E+03  0.31203959615E+03  0.00000000000E+00 0.  1.
         21    1    1    2  506  501  0.72134549577E+02  0.12695137100E+02  0.46829113126E+02  0.86934030074E+02  0.00000000000E+00 0.  1.
<scales pt_clust_3="101.91311" pt_clust_4="31.59458" pt_clust_5="14000.00000" pt_clust_6="72.45857"></scales>
<clustering>
<clus scale="   31.595">  2  4  1 -1</clus>
<clus scale="   72.459">  1  6  2 -1</clus>
<clus scale="  101.913">  2  3  1 -1</clus>
<clus scale="   72.459">  1  3  2 -1</clus>
</clustering>
</event>
<event>
 6    0  0.4469832E+002  0.1143313E+03  0.7546771E-02  0.1252753E+00
         21   -1    0    0  504  501  0.00000000000E+00  0.00000000000E+00  0.36351492926E+02  0.36351492926E+02  0.00000000000E+00 0.  1.
         21   -1    0    0  506  502 -0.00000000000E+00 -0.00000000000E+00 -0.63619305101E+03  0.63619305101E+03  0.00000000000E+00 0.  1.
         21    1    1    2  503  502 -0.75511368266E+02 -0.22039263150E+02 -0.73380383038E+02  0.10757498070E+03  0.00000000000E+00 0.  1.
         21    1    1    2  504  503 -0.13325791118E+02 -0.64959488408E+02 -0.11665156335E+03  0.13418233518E+03  0.00000000000E+00 0.  1.
         21    1    1    2  505  501  0.43134297488E+02  0.73113199081E+02 -0.25271838924E+03  0.26659462065E+03  0.00000000000E+00 0.  1.
         21    1    1    2  506  505  0.45702861896E+02  0.13885552478E+02 -0.15709122246E+03  0.16419260741E+03  0.00000000000E+00 0.  1.
<scales pt_clust_3="104.39708" pt_clust_4="66.31223" pt_clust_5="34.96650" pt_clust_6="34.96650"></scales>
<clustering>
<clus scale="   34.966">  5  6 -1 -1</clus>
<clus scale="   66.312">  1  4  2 -1</clus>
<clus scale="  104.397">  1  3  2 -1</clus>
<clus scale="   66.312">  1  3  2 -1</clus>
</clustering>
</event>
<event>
 6    0  0.4469832E+002  0.7468992E+02  0.7546771E-02  0.1344834E+00
         21   -1    0    0  505  501  0.00000000000E+00  0.00000000000E+00  0.16802386663E+03  0.16802386663E+03  0.00000000000E+00 0.  1.
         21   -1    0    0  504  502 -0.00000000000E+00 -0.00000000000E+00 -0.13327546952E+04  0.13327546952E+04  0.00000000000E+00 0. -1.
         21    1    1    2  503  506 -0.30273607780E+02  0.72074628651E+02 -0.43201335690E+03  0.43902936572E+03  0.00000000000E+00 0.  1.
         21    1    1    2  504  501  0.79295267658E+01 -0.80554569039E+02 -0.75751896672E+02  0.11086147138E+03  0.00000000000E+00 0.  1.
         21    1    1    2  505  503  0.62832199753E+02  0.39169312232E+02  0.13677131360E+03  0.15552656548E+03  0.00000000000E+00 0.  1.
         21    1    1    2  506  502 -0.40488118738E+02 -0.30689371845E+02 -0.79373688860E+03  0.79536115924E+03  0.00000000000E+00 0. -1.
<scales pt_clust_3="14000.00000" pt_clust_4="74.68992" pt_clust_5="73.15985" pt_clust_6="50.80478"></scales>
<clustering>
<clus scale="   50.805">  2  6  1 -1</clus>
<clus scale="   73.160">  1  5  2 -1</clus>
<clus scale="   74.690">  1  4  2 -1</clus>
<clus scale="   73.160">  1  3  2 -1</clus>
</clustering>
</event>
<event>
 6    0  0.4469832E+002  0.1595925E+03  0.7546771E-02  0.1189158E+00
         21   -1    0    0  506  501  0.00000000000E+00  0.00000000000E+00  0.46893727636E+03  0.46893727636E+03  0.00000000000E+00 0.  1.
         21   -1    0    0  505  502 -0.00000000000E+00 -0.00000000000E+00 -0.20730566184E+03  0.20730566184E+03  0.00000000000E+00 0. -1.
         21    1    1    2  503  502 -0.76672548196E+02 -0.40298814505E+00 -0.95324278650E+02  0.12233380623E+03  0.00000000000E+00 0. -1.
         21    1    1    2  504  501  0.17339345844E+03 -0.22804791409E+02  0.28027124022E+03  0.33035937710E+03  0.00000000000E+00 0.  1.
         21    1    1    2  505  504 -0.11127822883E+03 -0.35082161610E+02 -0.11067340154E+02  0.11720105926E+03  0.00000000000E+00 0. -1.
         21    1    1    2  506  503  0.14557318586E+02  0.58289941164E+02  0.87751993097E+02  0.10634869561E+03  0.00000000000E+00 0.  1.
<scales pt_clust_3="76.16319" pt_clust_4="159.59249" pt_clust_5="14000.00000" pt_clust_6="60.08022"></scales>
<clustering>
<clus scale="   60.080">  1  6  2 -1</clus>
<clus scale="   76.163">  2  3  1 -1</clus>
<clus scale="  159.592">  1  4  2 -1</clus>
<clus scale="   60.080">  1  3  2 -1</clus>
</clustering>
</event>
<event>
 6    0  0.4469832E+002  0.1027241E+03  0.7546771E-02  0.1274670E+00
         21   -1    0    0  506  501  0.00000000000E+00  0.00000000000E+00  0.12175355587E+03  0.12175355587E+03  0.00000000000E+00 0. -1.
         21   -1    0    0  504  502 -0.00000000000E+00 -0.00000000000E+00 -0.40511611663E+03  0.40511611663E+03  0.00000000000E+00 0.  1.
         21    1    1    2  503  502  0.46548577700E+02 -0.17775748199E+01 -0.90027041428E+02  0.10136467850E+03  0.00000000000E+00 0.  1.
         21    1    1    2  504  501 -0.40530527818E+01  0.66755005348E+02 -0.14124229723E+03  0.15627554032E+03  0.00000000000E+00 0.  1.
         21    1    1    2  505  503  0.48573205417E+02 -0.55597407795E+02 -0.12968132428E+03  0.14922357021E+03  0.00000000000E+00 0.  1.
         21    1    1    2  506  505 -0.91068730335E+02 -0.93800227335E+01  0.77588102179E+02  0.12000588349E+03  0.00000000000E+00 0. -1.
<scales pt_clust_3="37.11052" pt_clust_4="66.87793" pt_clust_5="37.11052" pt_clust_6="91.48540"></scales>
<clustering>
<clus scale="   37.111">  3  5 -1 -1</clus>
<clus scale="   66.878">  2  4  1 -1</clus>
<clus scale="   91.485">  1  6  2 -1</clus>
<clus scale="   91.485">  1  3  2 -1</clus>
</clustering>
</event>
<event>
 6    0  0.4469832E+002  0.8635351E+02  0.7546771E-02  0.1311930E+00
         21   -1    0    0  506  501  0.00000000000E+00  0.00000000000E+00  0.11944516485E+03  0.11944516485E+03  0.00000000000E+00 0. -1.
         21   -1    0    0  504  502 -0.00000000000E+00 -0.00000000000E+00 -0.33753927172E+03  0.33753927172E+03  0.00000000000E+00 0. -1.
         21    1    1    2  503  505 -0.12439280624E+02  0.59041151372E+02 -0.44877854494E+02  0.75197174692E+02  0.00000000000E+00 0. -1.
         21    1    1    2  504  501  0.78905154301E+02 -0.38123647173E+02 -0.23447074187E+03  0.25031173493E+03  0.00000000000E+00 0. -1.
         21    1    1    2  505  502 -0.75116258682E+02  0.15905101526E+02  0.51366765103E+02  0.92379484357E+02  0.00000000000E+00 0. -1.
         21    1    1    2  506  503  0.86503850037E+01 -0.36822605724E+02  0.98877243892E+01  0.39096042596E+02  0.00000000000E+00 0.  1.
<scales pt_clust_3="54.30020" pt_clust_4="14000.00000" pt_clust_5="86.35351" pt_clust_6="37.82504"></scales>
<clustering>
<clus scale="   37.825">  1  6  2 -1</clus>
<clus scale="   54.300">  1  3  2 -1</clus>
<clus scale="   86.354">  1  5  2 -1</clus>
<clus scale="   37.825">  1  3  2 -1</clus>
</clustering>
</event>
<event>
 6    0  0.4469832E+002  0.3475918E+03  0.7546771E-02  0.1063608E+00
         21   -1    0    0  506  501  0.00000000000E+00  0.00000000000E+00  0.13694082627E+04  0.13694082627E+04  0.00000000000E+00 0.  1.
         21   -1    0    0  505  502 -0.00000000000E+00 -0.00000000000E+00 -0.15267491738E+03  0.15267491738E+03  0.00000000000E+00 0.  1.
         21    1    1    2  503  501  0.91682653023E+02 -0.14540858313E+03  0.36703759867E+03  0.40529737694E+03  0.00000000000E+00 0.  1.
         21    1    1    2  504  502 -0.13577784683E+02  0.10010358005E+03 -0.10764944969E+02  0.10159216021E+03  0.00000000000E+00 0.  1.
         21    1    1    2  505  503  0.33615428433E+02 -0.20465030285E+03  0.60939714114E+03  0.64372091711E+03  0.00000000000E+00 0.  1.
         21    1    1    2  506  504 -0.11172029677E+03  0.24995530592E+03  0.25106355049E+03  0.37147272586E+03  0.00000000000E+00 0.  1.
<scales pt_clust_3="85.27718" pt_clust_4="101.02021" pt_clust_5="85.27718" pt_clust_6="334.73318"></scales>
<clustering>
<clus scale="   85.277">  3  5 -1 -1</clus>
<clus scale="  101.020">  2  4  1 -1</clus>
<clus scale="  334.733">  2  6  1 -1</clus>
<clus scale="  347.592">  1  3  2 -1</clus>
</clustering>
</event>
<event>
 6    0  0.4469832E+002  0.8760485E+02  0.7546771E-02  0.1308758E+00
         21   -1    0    0  504  501  0.00000000000E+00  0.00000000000E+00  0.27451323309E+03  0.27451323309E+03  0.00000000000E+00 0.  1.
         21   -1    0    0  506  502 -0.00000000000E+00 -0.00000000000E+00 -0.13434853289E+03  0.13434853289E+03  0.00000000000E+00 0.  1.
         21    1    1    2  503  501  0.32049595205E+02 -0.21746509976E+02  0.31706592213E+02  0.50053923310E+02  0.00000000000E+00 0.  1.
         21    1    1    2  504  505 -0.10764662456E+03 -0.79259790310E+01  0.16283580834E+03  0.19536150439E+03  0.00000000000E+00 0.  1.
         21    1    1    2  505  502  0.95810913196E+02 -0.13605449961E+02 -0.62209174250E+02  0.11504269085E+03  0.00000000000E+00 0.  1.
         21    1    1    2  506  503 -0.20213883845E+02  0.43277938968E+02  0.78314739029E+01  0.48403647434E+02  0.00000000000E+00 0.  1.
<scales pt_clust_3="38.73096" pt_clust_4="87.60485" pt_clust_5="14000.00000" pt_clust_6="43.82739"></scales>
<clustering>
<clus scale="   38.731">  1  3  2 -1</clus>
<clus scale="   43.827">  2  6  1 -1</clus>
<clus scale="   87.605">  1  4  2 -1</clus>
<clus scale="   38.731">  1  3  2 -1</clus>
</clustering>
</event>
<event>
 6    0  0.4469832E+002  0.9136898E+02  0.7546771E-02  0.1299570E+00
         21   -1    0    0  505  501  0.00000000000E+00  0.00000000000E+00  0.32407049508E+03  0.32407049508E+03  0.00000000000E+00 0. -1.
         21   -1    0    0  503  502 -0.00000000000E+00 -0.00000000000E+00 -0.14542398307E+03  0.14542398307E+03  0.00000000000E+00 0. -1.
         21    1    1    2  503  501 -0.65908702012E+02  0.89793904560E+02 -0.51849186362E+02  0.12286268931E+03  0.00000000000E+00 0. -1.
         21    1    1    2  504  506  0.43770828560E+02  0.78032458502E+01  0.60437989246E+02  0.75030171416E+02  0.00000000000E+00 0. -1.
         21    1    1    2  505  504 -0.12240032869E+02 -0.30272100443E+02  0.19051108809E+03  0.19328914391E+03  0.00000000000E+00 0. -1.
         21    1    1    2  506  502  0.34377906322E+02 -0.67325049967E+02 -0.20453378970E+02  0.78312473511E+02  0.00000000000E+00 0. -1.
<scales pt_clust_3="14000.00000" pt_clust_4="38.28263" pt_clust_5="32.65300" pt_clust_6="91.36898"></scales>
<clustering>
<clus scale="   32.653">  1  5  2 -1</clus>
<clus scale="   38.283">  1  4  2 -1</clus>
<clus scale="   91.369">  2  6  1 -1</clus>
<clus scale="   32.653">  1  3  2 -1</clus>
</clustering>
</event>
<event>
 6    0  0.4469832E+002  0.6520964E+02  0.7546771E-02  0.1377185E+00
         21   -1    0    0  503  501  0.00000000000E+00  0.00000000000E+00  0.72491269254E+02  0.72491269254E+02  0.00000000000E+00 0. -1.
         21   -1    0    0  506  502 -0.00000000000E+00 -0.00000000000E+00 -0.72416022416E+03  0.72416022416E+03  0.00000000000E+00 0. -1.
         21    1    1    2  503  502 -0.63300951027E+02 -0.70347323658E+02 -0.27453916898E+02  0.98536662719E+02  0.00000000000E+00 0. -1.
         21    1    1    2  504  505  0.70409623710E+02  0.30982634867E+02 -0.32320279624E+03  0.33223107361E+03  0.00000000000E+00 0. -1.
         21    1    1    2  505  501  0.53514477051E+02  0.84707965378E+01  0.30839631282E+01  0.54268448260E+02  0.00000000000E+00 0. -1.
         21    1    1    2  506  504 -0.60623149734E+02  0.30893892253E+02 -0.30409620490E+03  0.31161530883E+03  0.00000000000E+00 0. -1.
<scales pt_clust_3="65.20964" pt_clust_4="14000.00000" pt_clust_5="54.18075" pt_clust_6="64.33803"></scales>
<clustering>
<clus scale="   54.181">  1  5  2 -1</clus>
<clus scale="   64.338">  2  6  1 -1</clus>
<clus scale="   65.210">  1  3  2 -1</clus>
<clus scale="   54.181">  1  3  2 -1</clus>
</clustering>
</event>
<event>
 6    0  0.4469832E+002  0.1513516E+03  0.7546771E-02  0.1198822E+00
         21   -1    0    0  506  501  0.00000000000E+00  0.00000000000E+00  0.85591125469E+03  0.85591125469E+03  0.00000000000E+00 0. -1.
         21   -1    0    0  504  502 -0.00000000000E+00 -0.00000000000E+00 -0.41556176625E+02  0.41556176625E+02  0.00000000000E+00 0. -1.
         21    1    1    2  503  501 -0.61976117996E+02  0.18651419044E+02  0.14601439033E+03  0.15971573753E+03  0.00000000000E+00 0. -1.
         21    1    1    2  504  503 -0.52219025412E+02  0.24844208211E+02  0.55054595484E+02  0.79844034095E+02  0.00000000000E+00 0. -1.
         21    1    1    2  505  502 -0.50928552471E+02 -0.48403678776E+02  0.14044088979E+03  0.15703591023E+03  0.00000000000E+00 0. -1.
         21    1    1    2  506  505  0.16512369588E+03  0.49080515216E+01  0.47284520247E+03  0.50087174946E+03  0.00000000000E+00 0. -1.
<scales pt_clust_3="42.56475" pt_clust_4="42.56475" pt_clust_5="70.26118" pt_clust_6="144.49763"></scales>
<clustering>
<clus scale="   42.565">  3  4 -1 -1</clus>
<clus scale="   70.261">  2  5  1 -1</clus>
<clus scale="  144.498">  1  6  2 -1</clus>
<clus scale="  144.498">  1  3  2 -1</clus>
</clustering>
</event>
<event>
 6    0  0.4469832E+002  0.6149587E+02  0.7546771E-02  0.1391659E+00
         21   -1    0    0  506  501  0.00000000000E+00  0.00000000000E+00  0.16445760002E+03  0.16445760002E+03  0.00000000000E+00 0. -1.
         21   -1    0    0  504  502 -0.00000000000E+00 -0.00000000000E+00 -0.26872282382E+03  0.26872282382E+03  0.00000000000E+00 0. -1.
         21    1    1    2  503  501  0.80165870055E+02 -0.93387090695E+02 -0.53009320776E+02  0.13400635626E+03  0.00000000000E+00 0. -1.
         21    1    1    2  504  503 -0.48655932241E+02  0.51122799816E+01 -0.12754611571E+03  0.13660727207E+03  0.00000000000E+00 0. -1.
         21    1    1    2  505  502  0.71144651235E+01  0.47129965162E+02 -0.19411602388E+02  0.51465129335E+02  0.00000000000E+00 0. -1.
         21    1    1    2  506  505 -0.38624402937E+02  0.41144845552E+02  0.95701815078E+02  0.11110166618E+03  0.00000000000E+00 0. -1.
<scales pt_clust_3="61.49587" pt_clust_4="54.79607" pt_clust_5="47.66392" pt_clust_6="14000.00000"></scales>
<clustering>
<clus scale="   47.664">  2  5  1 -1</clus>
<clus scale="   54.796">  2  4  1 -1</clus>
<clus scale="   61.496">  2  3  1 -1</clus>
<clus scale="   61.496">  1  3  2 -1</clus>
</clustering>
</event>
<event>
 6    0  0.4469832E+002  0.1000160E+03  0.7546771E-02  0.1280262E+00
         21   -1    0    0  504  501  0.00000000000E+00  0.00000000000E+00  0.18865778912E+03  0.18865778912E+03  0.00000000000E+00 0.  1.
         21   -1    0    0  506  502 -0.00000000000E+00 -0.00000000000E+00 -0.66028441618E+03  0.66028441618E+03  0.00000000000E+00 0.  1.
         21    1    1    2  503  505  0.75995617503E+02 -0.10766187361E+02 -0.83419458055E+02  0.11335806390E+03  0.00000000000E+00 0.  1.
         21    1    1    2  504  503 -0.35114145153E+02 -0.93812080560E+02  0.14752957619E+03  0.17832185929E+03  0.00000000000E+00 0.  1.
         21    1    1    2  505  502 -0.31126192662E+02 -0.24563125516E+00 -0.41158844827E+02  0.51603785829E+02  0.00000000000E+00 0.  1.
         21    1    1    2  506  501 -0.97552796878E+01  0.10482389918E+03 -0.49457790037E+03  0.50565849627E+03  0.00000000000E+00 0.  1.
<scales pt_clust_3="71.82456" pt_clust_4="14000.00000" pt_clust_5="31.12716" pt_clust_6="100.01604"></scales>
<clustering>
<clus scale="   31.127">  2  5  1 -1</clus>
<clus scale="   71.825">  2  3  1 -1</clus>
<clus scale="  100.016">  2  6  1 -1</clus>
<clus scale="  100.016">  1  3  2 -1</clus>
</clustering>
</event>
<event>
 6    0  0.4469832E+002  0.1336709E+03  0.7546771E-02  0.1222108E+00
         21   -1    0    0  505  501  0.00000000000E+00  0.00000000000E+00  0.33231901065E+03  0.33231901065E+03  0.00000000000E+00 0.  1.
         21   -1    0    0  506  502 -0.00000000000E+00 -0.00000000000E+00 -0.66567529718E+03  0.66567529718E+03  0.00000000000E+00 0. -1.
         21    1    1    2  503  502  0.80882739459E+02  0.13060393105E+03 -0.49619085553E+03  0.51942734763E+03  0.00000000000E+00 0. -1.
         21    1    1    2  504  501 -0.21864454547E+02 -0.26180739595E+02  0.20218292850E+03  0.20504004993E+03  0.00000000000E+00 0.  1.
         21    1    1    2  505  503 -0.24397995705E+02 -0.10165821958E+03  0.91017560362E+02  0.13861404004E+03  0.00000000000E+00 0. -1.
         21    1    1    2  506  504 -0.34620289207E+02 -0.27649718760E+01 -0.13036591985E+03  0.13491287023E+03  0.00000000000E+00 0. -1.
<scales pt_clust_3="14000.00000" pt_clust_4="34.10990" pt_clust_5="133.67088" pt_clust_6="35.15496"></scales>
<clustering>
<clus scale="   34.110">  1  4  2 -1</clus>
<clus scale="   35.155">  2  6  1 -1</clus>
<clus scale="  133.671">  1  5  2 -1</clus>
<clus scale="   34.110">  1  3  2 -1</clus>
</clustering>
</event>
<event>
 6    0  0.4469832E+002  0.1353620E+03  0.7546771E-02  0.1219710E+00
         21   -1    0    0  505  501  0.00000000000E+00  0.00000000000E+00  0.48140176261E+02  0.48140176261E+02  0.00000000000E+00 0.  1.
         21   -1    0    0  503  502 -0.00000000000E+00 -0.00000000000E+00 -0.13240504921E+04  0.13240504921E+04  0.00000000000E+00 0.  1.
         21    1    1    2  503  501  0.10393902208E+03  0.11875525199E+03 -0.20384756747E+03  0.25779829509E+03  0.00000000000E+00 0.  1.
         21    1    1    2  504  502 -0.46070834710E+02 -0.57537368182E+02 -0.80590151536E+03  0.80926529828E+03  0.00000000000E+00 0.  1.
         21    1    1    2  505  506 -0.36113851179E+02 -0.16663143571E+02 -0.59274567588E+01  0.40212004977E+02  0.00000000000E+00 0.  1.
         21    1    1    2  506  504 -0.21754336186E+02 -0.44554740234E+02 -0.26023377625E+03  0.26491507002E+03  0.00000000000E+00 0.  1.
<scales pt_clust_3="126.99182" pt_clust_4="38.43369" pt_clust_5="39.77274" pt_clust_6="38.43369"></scales>
<clustering>
<clus scale="   38.434">  4  6 -1 -1</clus>
<clus scale="   39.773">  1  5  2 -1</clus>
<clus scale="  126.992">  1  3  2 -1</clus>
<clus scale="   39.773">  1  3  2 -1</clus>
</clustering>
</event>
<event>
 6    0  0.6513505E+002  0.1362012E+03  0.7546771E-02  0.1218534E+00
         21   -1    0    0  505  501  0.00000000000E+00  0.00000000000E+00  0.59674847393E+03  0.59674847393E+03  0.00000000000E+00 0.  1.
         21   -1    0    0  504  502 -0.00000000000E+00 -0.00000000000E+00 -0.16729676569E+04  0.16729676569E+04  0.00000000000E+00 0. -1.
         21    1    1    2  503  501  0.44237966344E+02 -0.27128280181E+02  0.67847918811E+02  0.85418272863E+02  0.00000000000E+00 0.  1.
         21    1    1    2  504  503 -0.14750755226E+03  0.35057569423E+02 -0.16038741839E+04  0.16110244905E+04  0.00000000000E+00 0. -1.
         21    1    1    2  505  506  0.79683657636E+02 -0.31110302739E+02  0.50781947978E+03  0.51497374717E+03  0.00000000000E+00 0.  1.
         21    1    1    2  506  502  0.23585928279E+02  0.23181013497E+02 -0.48012397656E+02  0.58299620309E+02  0.00000000000E+00 0.  1.
<scales pt_clust_3="51.93717" pt_clust_4="14000.00000" pt_clust_5="136.20118" pt_clust_6="33.07046"></scales>
<clustering>
<clus scale="   33.070">  2  6  1 -1</clus>
<clus scale="   51.937">  1  3  2 -1</clus>
<clus scale="  136.201">  1  5  2 -1</clus>
<clus scale="   51.937">  1  3  2 -1</clus>
</clustering>
</event>
<event>
 6    0  0.4469832E+002  0.1966139E+03  0.7546771E-02  0.1152628E+00
         21   -1    0    0  505  501  0.00000000000E+00  0.00000000000E+00  0.59687028714E+03  0.59687028714E+03  0.00000000000E+00 0. -1.
         21   -1    0    0  504  502 -0.00000000000E+00 -0.00000000000E+00 -0.14813731018E+04  0.14813731018E+04  0.00000000000E+00 0.  1.
         21    1    1    2  503  501 -0.40252016504E+02 -0.56088247765E+02 -0.83459789709E+02  0.10831275487E+03  0.00000000000E+00 0.  1.
         21    1    1    2  504  503  0.10801468446E+00 -0.47493284524E+02 -0.27510838088E+03  0.27917780171E+03  0.00000000000E+00 0. -1.
         21    1    1    2  505  506  0.15873394743E+03  0.11843643608E+03  0.56220519166E+03  0.59606906729E+03  0.00000000000E+00 0. -1.
         21    1    1    2  506  502 -0.11858994561E+03 -0.14854903792E+02 -0.10881398357E+04  0.10946837651E+04  0.00000000000E+00 0.  1.
<scales pt_clust_3="72.13830" pt_clust_4="47.49341" pt_clust_5="196.61387" pt_clust_6="14000.00000"></scales>
<clustering>
<clus scale="   47.493">  2  4  1 -1</clus>
<clus scale="   72.138">  2  3  1 -1</clus>
<clus scale="  196.614">  1  5  2 -1</clus>
<clus scale="  196.614">  1  3  2 -1</clus>
</clustering>
</event>
<event>
 6    0  0.4469832E+002  0.6443949E+02  0.7546771E-02  0.1380092E+00
         21   -1    0    0  504  501  0.00000000000E+00  0.00000000000E+00  0.15249583539E+03  0.15249583539E+03  0.00000000000E+00 0.  1.
         21   -1    0    0  505  502 -0.00000000000E+00 -0.00000000000E+00 -0.18696879000E+04  0.18696879000E+04  0.00000000000E+00 0.  1.
         21    1    1    2  503  502 -0.41777052547E+02  0.64333838154E+02 -0.13452879686E+04  0.13474731476E+04  0.00000000000E+00 0.  1.
         21    1    1    2  504  506 -0.60253165361E+02  0.13279948167E+02  0.10467585757E+03  0.12150652705E+03  0.00000000000E+00 0.  1.
         21    1    1    2  505  501  0.32509836334E+02 -0.18357022438E+02 -0.45858288112E+03  0.46010012887E+03  0.00000000000E+00 0. -1.
         21    1    1    2  506  503  0.69520381573E+02 -0.59256763883E+02 -0.17997072420E+02  0.93103931902E+02  0.00000000000E+00 0. -1.
<scales pt_clust_3="48.02607" pt_clust_4="14000.00000" pt_clust_5="37.33456" pt_clust_6="64.43949"></scales>
<clustering>
<clus scale="   37.335">  2  5  1 -1</clus>
<clus scale="   48.026">  2  3  1 -1</clus>
<clus scale="   64.439">  2  6  1 -1</clus>
<clus scale="   64.439">  1  3  2 -1</clus>
</clustering>
</event>
<event>
 6    0  0.4469832E+002  0.9186637E+02  0.7546771E-02  0.1298394E+00
         21   -1    0    0  506  501  0.00000000000E+00  0.00000000000E+00  0.22646152728E+03  0.22646152728E+03  0.00000000000E+00 0. -1.
         21   -1    0    0  504  502 -0.00000000000E+00 -0.00000000000E+00 -0.22833512133E+03  0.22833512133E+03  0.00000000000E+00 0.  1.
         21    1    1    2  503  502 -0.14962841517E+02 -0.31445395838E+02 -0.90509743530E+02  0.96977900676E+02  0.00000000000E+00 0.  1.
         21    1    1    2  504  505  0.87703298929E+02  0.92932606972E+02 -0.21742318159E+02  0.12961892794E+03  0.00000000000E+00 0.  1.
         21    1    1    2  505  501 -0.29192705049E+02 -0.13086174915E+02  0.14906904688E+03  0.15246325046E+03  0.00000000000E+00 0. -1.
         21    1    1    2  506  503 -0.43547752364E+02 -0.48401036220E+02 -0.38690579240E+02  0.75736569536E+02  0.00000000000E+00 0. -1.
<scales pt_clust_3="35.87555" pt_clust_4="91.86637" pt_clust_5="31.99159" pt_clust_6="14000.00000"></scales>
<clustering>
<clus scale="   31.992">  1  5  2 -1</clus>
<clus scale="   35.876">  2  3  1 -1</clus>
<clus scale="   91.866">  1  4  2 -1</clus>
<clus scale="   31.992">  1  3  2 -1</clus>
</clustering>
</event>
<event>
 6    0  0.4469832E+002  0.9054398E+02  0.7546771E-02  0.1301540E+00
         21   -1    0    0  506  501  0.00000000000E+00  0.00000000000E+00  0.21626963906E+04  0.21626963906E+04  0.00000000000E+00 0.  1.
         21   -1    0    0  503  502 -0.00000000000E+00 -0.00000000000E+00 -0.55364549147E+02  0.55364549147E+02  0.00000000000E+00 0. -1.
         21    1    1    2  503  501 -0.30240580477E+02 -0.88226374594E+01  0.23900728511E+02  0.39542084703E+02  0.00000000000E+00 0. -1.
         21    1    1    2  504  505  0.12433636613E+03 -0.72082126561E+01  0.35586929541E+03  0.37703374609E+03  0.00000000000E+00 0.  1.
         21    1    1    2  505  502 -0.59141329107E+02  0.23308858798E+02 -0.93094432635E+01  0.64246909971E+02  0.00000000000E+00 0. -1.
         21    1    1    2  506  504 -0.34954456545E+02 -0.72780086829E+01  0.17368712608E+04  0.17372381989E+04  0.00000000000E+00 0.  1.
<scales pt_clust_3="31.50130" pt_clust_4="90.54398" pt_clust_5="14000.00000" pt_clust_6="35.82530"></scales>
<clustering>
<clus scale="   31.501">  2  3  1 -1</clus>
<clus scale="   35.825">  1  6  2 -1</clus>
<clus scale="   90.544">  1  4  2 -1</clus>
<clus scale="   35.825">  1  3  2 -1</clus>
</clustering>
</event>
<event>
 6    0  0.4469832E+002  0.1686499E+03  0.7546771E-02  0.1179263E+00
         21   -1    0    0  504  501  0.00000000000E+00  0.00000000000E+00  0.13951066754E+04  0.13951066754E+04  0.00000000000E+00 0.  1.
         21   -1    0    0  505  502 -0.00000000000E+00 -0.00000000000E+00 -0.11001458993E+03  0.11001458993E+03  0.00000000000E+00 0.  1.
         21    1    1    2  503  501  0.71328848766E+02 -0.49584100883E+01  0.92115519832E+03  0.92392601971E+03  0.00000000000E+00 0.  1.
         21    1    1    2  504  506 -0.59408320242E+02 -0.26680702319E+02  0.16247875161E+03  0.17504443184E+03  0.00000000000E+00 0.  1.
         21    1    1    2  505  503  0.22953798001E+02  0.18605937079E+03  0.14869411839E+03  0.23927997648E+03  0.00000000000E+00 0.  1.
         21    1    1    2  506  502 -0.34874326524E+02 -0.15442025838E+03  0.52764017175E+02  0.16687083735E+03  0.00000000000E+00 0.  1.
<scales pt_clust_3="36.55200" pt_clust_4="65.12456" pt_clust_5="14000.00000" pt_clust_6="168.64987"></scales>
<clustering>
<clus scale="   65.125">  1  4  2 -1</clus>
<clus scale="   36.552">  1  3  2 -1</clus>
<clus scale="  168.650">  2  6  1 -1</clus>
<clus scale="   65.125">  1  3  2 -1</clus>
</clustering>
</event>
<event>
 6    0  0.4469832E+002  0.1244138E+03  0.7546771E-02  0.1235988E+00
         21   -1    0    0  503  501  0.00000000000E+00  0.00000000000E+00  0.69423186571E+03  0.69423186571E+03  0.00000000000E+00 0.  1.
         21   -1    0    0  505  502 -0.00000000000E+00 -0.00000000000E+00 -0.29198226682E+04  0.29198226682E+04  0.00000000000E+00 0. -1.
         21    1    1    2  503  504 -0.14726499092E+02 -0.44241118080E+02  0.63727160964E+03  0.63897515660E+03  0.00000000000E+00 0.  1.
         21    1    1    2  504  502 -0.12501881319E+03 -0.37662716556E+02 -0.26491427537E+04  0.26523584813E+04  0.00000000000E+00 0. -1.
         21    1    1    2  505  506  0.72502380935E+02  0.62121499568E+02 -0.23149395081E+03  0.25040991436E+03  0.00000000000E+00 0. -1.
         21    1    1    2  506  501  0.67242931345E+02  0.19782335068E+02  0.17774292380E+02  0.72310981644E+02  0.00000000000E+00 0.  1.
<scales pt_clust_3="46.62774" pt_clust_4="124.41380" pt_clust_5="14000.00000" pt_clust_6="57.61084"></scales>
<clustering>
<clus scale="   46.628">  1  3  2 -1</clus>
<clus scale="   57.611">  1  6  2 -1</clus>
<clus scale="  124.414">  2  4  1 -1</clus>
<clus scale="   46.628">  1  3  2 -1</clus>
</clustering>
</event>
<event>
 6    0  0.4469832E+002  0.1943256E+03  0.7546771E-02  0.1154617E+00
         21   -1    0    0  505  501  0.00000000000E+00  0.00000000000E+00  0.19329590603E+03  0.19329590603E+03  0.00000000000E+00 0.  1.
         21   -1    0    0  506  502 -0.00000000000E+00 -0.00000000000E+00 -0.38931909868E+03  0.38931909868E+03  0.00000000000E+00 0.  1.
         21    1    1    2  503  502 -0.80518213412E+02  0.92019237673E+01 -0.76750980329E+02  0.11161796931E+03  0.00000000000E+00 0. -1.
         21    1    1    2  504  501  0.16414233544E+02 -0.42909348327E+02  0.92100414124E+02  0.10292291056E+03  0.00000000000E+00 0.  1.
         21    1    1    2  505  503 -0.76238810879E+02  0.10009935790E+03 -0.16206803167E+03  0.20517866514E+03  0.00000000000E+00 0.  1.
         21    1    1    2  506  504  0.14034279075E+03 -0.66391933341E+02 -0.49304594767E+02  0.16289545971E+03  0.00000000000E+00 0.  1.
<scales pt_clust_3="67.46799" pt_clust_4="45.94169" pt_clust_5="67.46799" pt_clust_6="175.94426"></scales>
<clustering>
<clus scale="   45.942">  1  4  2 -1</clus>
<clus scale="   67.468">  3  5 -1 -1</clus>
<clus scale="  175.944">  1  6  2 -1</clus>
<clus scale="   45.942">  1  3  2 -1</clus>
</clustering>
</event>
<event>
 6    0  0.4469832E+002  0.1021653E+03  0.7546771E-02  0.1275808E+00
         21   -1    0    0  503  501  0.00000000000E+00  0.00000000000E+00  0.19451752102E+03  0.19451752102E+03  0.00000000000E+00 0.  1.
         21   -1    0    0  505  502 -0.00000000000E+00 -0.00000000000E+00 -0.34432684040E+03  0.34432684040E+03  0.00000000000E+00 0. -1.
         21    1    1    2  503  502 -0.12920507070E+03 -0.53346370718E+02  0.12847443238E+03  0.18985643350E+03  0.00000000000E+00 0.  1.
         21    1    1    2  504  501  0.61459603284E+02 -0.10070177107E+02 -0.10626344507E+02  0.63179193572E+02  0.00000000000E+00 0. -1.
         21    1    1    2  505  506  0.28223651449E+02  0.48225259092E+02 -0.17977138398E+03  0.18825514764E+03  0.00000000000E+00 0. -1.
         21    1    1    2  506  504  0.39521815971E+02  0.15191288733E+02 -0.87886023281E+02  0.97553586706E+02  0.00000000000E+00 0. -1.
<scales pt_clust_3="94.88257" pt_clust_4="62.27914" pt_clust_5="32.97575" pt_clust_6="32.97575"></scales>
<clustering>
<clus scale="   32.976">  5  6 -1 -1</clus>
<clus scale="   62.279">  1  4  2 -1</clus>
<clus scale="   94.883">  1  3  2 -1</clus>
<clus scale="   62.279">  1  3  2 -1</clus>
</clustering>
</event>
<event>
 6    0  0.4469832E+002  0.1203478E+03  0.7546771E-02  0.1242524E+00
         21   -1    0    0  503  501  0.00000000000E+00  0.00000000000E+00  0.11887305126E+04  0.11887305126E+04  0.00000000000E+00 0.  1.
         21   -1    0    0  505  502 -0.00000000000E+00 -0.00000000000E+00 -0.10664956792E+03  0.10664956792E+03  0.00000000000E+00 0. -1.
         21    1    1    2  503  502 -0.11351890717E+03 -0.57739175181E+01  0.82577358606E+02  0.14049519765E+03  0.00000000000E+00 0. -1.
         21    1    1    2  504  501 -0.68249031411E+01  0.39318266684E+02  0.15424223939E+03  0.15932097731E+03  0.00000000000E+00 0. -1.
         21    1    1    2  505  506  0.37324817483E+02 -0.10621413151E+03 -0.27471410820E+02  0.11588469331E+03  0.00000000000E+00 0. -1.
         21    1    1    2  506  504  0.83018992832E+02  0.72669782341E+02  0.87273275746E+03  0.87967921220E+03  0.00000000000E+00 0.  1.
<scales pt_clust_3="14000.00000" pt_clust_4="39.90621" pt_clust_5="110.89583" pt_clust_6="120.34776"></scales>
<clustering>
<clus scale="   39.906">  1  4  2 -1</clus>
<clus scale="  110.896">  2  5  1 -1</clus>
<clus scale="  120.348">  1  6  2 -1</clus>
<clus scale="   39.906">  1  3  2 -1</clus>
</clustering>
</event>
<event>
 6    0  0.4469832E+002  0.7459358E+02  0.7546771E-02  0.1345134E+00
         21   -1    0    0  503  501  0.00000000000E+00  0.00000000000E+00  0.68123947472E+02  0.68123947472E+02  0.00000000000E+00 0. -1.
         21   -1    0    0  506  502 -0.00000000000E+00 -0.00000000000E+00 -0.85891339615E+03  0.85891339615E+03  0.00000000000E+00 0. -1.
         21    1    1    2  503  505  0.38199938847E+02 -0.27761740313E+01  0.37529270855E+02  0.53622650448E+02  0.00000000000E+00 0. -1.
         21    1    1    2  504  502  0.41802221793E+02 -0.50274116198E+02 -0.25713074304E+03  0.26531327053E+03  0.00000000000E+00 0. -1.
         21    1    1    2  505  504 -0.80498418991E+02 -0.44367394895E+02 -0.15105850289E+03  0.17682514664E+03  0.00000000000E+00 0. -1.
         21    1    1    2  506  501  0.49625835126E+00  0.97417685124E+02 -0.42012947361E+03  0.43127627601E+03  0.00000000000E+00 0. -1.
<scales pt_clust_3="38.30068" pt_clust_4="70.37998" pt_clust_5="74.59358" pt_clust_6="14000.00000"></scales>
<clustering>
<clus scale="   38.301">  1  3  2 -1</clus>
<clus scale="   70.380">  2  4  1 -1</clus>
<clus scale="   74.594">  1  5  2 -1</clus>
<clus scale="   38.301">  1  3  2 -1</clus>
</clustering>
</event>
<event>
 6    0  0.4469832E+002  0.9982791E+02  0.7546771E-02  0.1280658E+00
         21   -1    0    0  506  501  0.00000000000E+00  0.00000000000E+00  0.52353593954E+03  0.52353593954E+03  0.00000000000E+00 0. -1.
         21   -1    0    0  503  502 -0.00000000000E+00 -0.00000000000E+00 -0.14976719914E+03  0.14976719914E+03  0.00000000000E+00 0.  1.
         21    1    1    2  503  505  0.59236701371E+02 -0.30431227235E+02 -0.77082193478E+02  0.10186614222E+03  0.00000000000E+00 0.  1.
         21    1    1    2  504  502  0.49535003107E+01 -0.41416659452E+02  0.12819581222E+02  0.43637352213E+02  0.00000000000E+00 0. -1.
         21    1    1    2  505  501 -0.10158248400E+03  0.10688960256E+03  0.83250839257E+02  0.16933720922E+03  0.00000000000E+00 0. -1.
         21    1    1    2  506  504  0.37392282316E+02 -0.35041715874E+02  0.35478051340E+03  0.35846243501E+03  0.00000000000E+00 0. -1.
<scales pt_clust_3="14000.00000" pt_clust_4="41.71183" pt_clust_5="99.82791" pt_clust_6="51.68441"></scales>
<clustering>
<clus scale="   41.712">  2  4  1 -1</clus>
<clus scale="   51.684">  1  6  2 -1</clus>
<clus scale="   99.828">  1  5  2 -1</clus>
<clus scale="   51.684">  1  3  2 -1</clus>
</clustering>
</event>
<event>
 6    0  0.4469832E+002  0.1389392E+03  0.7546771E-02  0.1214763E+00
         21   -1    0    0  505  501  0.00000000000E+00  0.00000000000E+00  0.42810947747E+03  0.42810947747E+03  0.00000000000E+00 0. -1.
         21   -1    0    0  503  502 -0.00000000000E+00 -0.00000000000E+00 -0.13485606823E+04  0.13485606823E+04  0.00000000000E+00 0.  1.
         21    1    1    2  503  504  0.13628428922E+01  0.61636582043E+02 -0.45221081429E+02  0.76458301003E+02  0.00000000000E+00 0. -1.
         21    1    1    2  504  501  0.89049128814E+00  0.11830758943E+03  0.18155345438E+03  0.21670056642E+03  0.00000000000E+00 0. -1.
         21    1    1    2  505  506  0.10288681611E+03 -0.19743836824E+02  0.19274413538E+03  0.21937597349E+03  0.00000000000E+00 0. -1.
         21    1    1    2  506  502 -0.10514015029E+03 -0.16020033465E+03 -0.12495277131E+04  0.12641353188E+04  0.00000000000E+00 0.  1.
<scales pt_clust_3="61.65165" pt_clust_4="138.93922" pt_clust_5="104.65971" pt_clust_6="14000.00000"></scales>
<clustering>
<clus scale="   61.652">  2  3  1 -1</clus>
<clus scale="  104.660">  1  5  2 -1</clus>
<clus scale="  138.939">  1  4  2 -1</clus>
<clus scale="  104.660">  1  3  2 -1</clus>
</clustering>
</event>
<event>
 6    0  0.4469832E+002  0.7357683E+02  0.7546771E-02  0.1348336E+00
         21   -1    0    0  503  501  0.00000000000E+00  0.00000000000E+00  0.35179192172E+03  0.35179192172E+03  0.00000000000E+00 0.  1.
         21   -1    0    0  506  502 -0.00000000000E+00 -0.00000000000E+00 -0.25766468462E+03  0.25766468462E+03  0.00000000000E+00 0.  1.
         21    1    1    2  503  505  0.48509411939E+02  0.16470247451E+01 -0.26031564056E+02  0.55077382512E+02  0.00000000000E+00 0. -1.
         21    1    1    2  504  501  0.61587985063E+02  0.38191069412E+02  0.30613898164E+03  0.31459929079E+03  0.00000000000E+00 0.  1.
         21    1    1    2  505  502 -0.26511958110E+02  0.15044189651E+02 -0.11013762490E+03  0.11427820432E+03  0.00000000000E+00 0.  1.
         21    1    1    2  506  504 -0.83585438892E+02 -0.54882283808E+02 -0.75842555591E+02  0.12550172871E+03  0.00000000000E+00 0.  1.
<scales pt_clust_3="41.53054" pt_clust_4="73.57683" pt_clust_5="30.48297" pt_clust_6="14000.00000"></scales>
<clustering>
<clus scale="   30.483">  2  5  1 -1</clus>
<clus scale="   41.531">  2  3  1 -1</clus>
<clus scale="   73.577">  1  4  2 -1</clus>
<clus scale="   73.577">  1  3  2 -1</clus>
</clustering>
</event>
<event>
 6    0  0.4469832E+002  0.1461466E+03  0.7546771E-02  0.1205290E+00
         21   -1    0    0  506  501  0.00000000000E+00  0.00000000000E+00  0.25916833387E+04  0.25916833387E+04  0.00000000000E+00 0.  1.
         21   -1    0    0  505  502 -0.00000000000E+00 -0.00000000000E+00 -0.72905436164E+02  0.72905436164E+02  0.00000000000E+00 0. -1.
         21    1    1    2  503  502  0.10541945847E+02 -0.31905263435E+02 -0.27408050802E+02  0.43362192125E+02  0.00000000000E+00 0. -1.
         21    1    1    2  504  503  0.20970192985E+01 -0.70166716481E+02  0.14327738694E+02  0.71645304715E+02  0.00000000000E+00 0.  1.
         21    1    1    2  505  501 -0.42033116072E+02  0.12782302998E+03  0.24846776508E+04  0.24883184158E+04  0.00000000000E+00 0.  1.
         21    1    1    2  506  504  0.29394150926E+02 -0.25751050066E+02  0.47180563850E+02  0.61262862269E+02  0.00000000000E+00 0. -1.
<scales pt_clust_3="33.60176" pt_clust_4="41.61329" pt_clust_5="132.92645" pt_clust_6="41.61329"></scales>
<clustering>
<clus scale="   33.602">  2  3  1 -1</clus>
<clus scale="   41.613">  4  6 -1 -1</clus>
<clus scale="  132.926">  1  5  2 -1</clus>
<clus scale="  132.926">  1  3  2 -1</clus>
</clustering>
</event>
<event>
 6    0  0.4469832E+002  0.9875449E+02  0.7546771E-02  0.1282937E+00
         21   -1    0    0  505  501  0.00000000000E+00  0.00000000000E+00  0.39265306881E+02  0.39265306881E+02  0.00000000000E+00 0.  1.
         21   -1    0    0  503  502 -0.00000000000E+00 -0.00000000000E+00 -0.16320450398E+04  0.16320450398E+04  0.00000000000E+00 0.  1.
         21    1    1    2  503  504  0.11873970008E+02 -0.46328589611E+02 -0.59198978028E+03  0.59391853763E+03  0.00000000000E+00 0.  1.
         21    1    1    2  504  501  0.69569824478E+02 -0.84042602620E+01 -0.28650056099E+02  0.75706127777E+02  0.00000000000E+00 0.  1.
         21    1    1    2  505  506  0.59826010262E+01  0.98022671005E+02 -0.19386044197E+03  0.21731568399E+03  0.00000000000E+00 0.  1.
         21    1    1    2  506  502 -0.87426395512E+02 -0.43289821132E+02 -0.77827945457E+03  0.78436999729E+03  0.00000000000E+00 0.  1.
<scales pt_clust_3="47.82603" pt_clust_4="70.98187" pt_clust_5="14000.00000" pt_clust_6="98.75449"></scales>
<clustering>
<clus scale="   47.826">  2  3  1 -1</clus>
<clus scale="   70.982">  1  4  2 -1</clus>
<clus scale="   98.754">  2  6  1 -1</clus>
<clus scale="   70.982">  1  3  2 -1</clus>
</clustering>
</event>
<event>
 6    0  0.4469832E+002  0.1071303E+03  0.7546771E-02  0.1265978E+00
         21   -1    0    0  503  501  0.00000000000E+00  0.00000000000E+00  0.49502535135E+03  0.49502535135E+03  0.00000000000E+00 0. -1.
         21   -1    0    0  504  502 -0.00000000000E+00 -0.00000000000E+00 -0.22109955814E+03  0.22109955814E+03  0.00000000000E+00 0. -1.
         21    1    1    2  503  505 -0.42280936454E+02  0.98944458114E+02  0.38683308558E+03  0.40151901509E+03  0.00000000000E+00 0. -1.
         21    1    1    2  504  506 -0.32661322141E+02 -0.51950454385E+02 -0.99360101233E+02  0.11678202512E+03  0.00000000000E+00 0. -1.
         21    1    1    2  505  502  0.32718751652E+02 -0.96311535262E+02 -0.59906711465E+02  0.11804762858E+03  0.00000000000E+00 0. -1.
         21    1    1    2  506  501  0.42223506943E+02  0.49317531534E+02  0.46359520328E+02  0.79776240700E+02  0.00000000000E+00 0.  1.
<scales pt_clust_3="14000.00000" pt_clust_4="61.36458" pt_clust_5="107.13025" pt_clust_6="55.96549"></scales>
<clustering>
<clus scale="   61.365">  2  4  1 -1</clus>
<clus scale="   55.965">  2  6  1 -1</clus>
<clus scale="  107.130">  2  5  1 -1</clus>
<clus scale="  107.130">  1  3  2 -1</clus>
</clustering>
</event>
<event>
 6    0  0.4469832E+002  0.1377232E+03  0.7546771E-02  0.1216426E+00
         21   -1    0    0  506  501  0.00000000000E+00  0.00000000000E+00  0.50823756527E+03  0.50823756527E+03  0.00000000000E+00 0.  1.
         21   -1    0    0  504  502 -0.00000000000E+00 -0.00000000000E+00 -0.21685332872E+03  0.21685332872E+03  0.00000000000E+00 0.  1.
         21    1    1    2  503  502  0.27915509312E+02 -0.24135469627E+02 -0.58137169821E+01  0.37357674706E+02  0.00000000000E+00 0.  1.
         21    1    1    2  504  505  0.21193242675E+02  0.14600064134E+03 -0.12568621941E+03  0.19381013017E+03  0.00000000000E+00 0.  1.
         21    1    1    2  505  501 -0.12020392950E+03 -0.13533515207E+03  0.32755573836E+03  0.37424236770E+03  0.00000000000E+00 0.  1.
         21    1    1    2  506  503  0.71095177513E+02  0.13469980357E+02  0.95328434586E+02  0.11968072141E+03  0.00000000000E+00 0.  1.
<scales pt_clust_3="36.90253" pt_clust_4="137.72321" pt_clust_5="14000.00000" pt_clust_6="73.81210"></scales>
<clustering>
<clus scale="   36.903">  2  3  1 -1</clus>
<clus scale="   73.812">  1  6  2 -1</clus>
<clus scale="  137.723">  2  4  1 -1</clus>
<clus scale="   73.812">  1  3  2 -1</clus>
</clustering>
</event>
<event>
 6    0  0.4469832E+002  0.9473298E+02  0.7546771E-02  0.1291779E+00
         21   -1    0    0  504  501  0.00000000000E+00  0.00000000000E+00  0.86437839406E+02  0.86437839406E+02  0.00000000000E+00 0. -1.
         21   -1    0    0  503  502 -0.00000000000E+00 -0.00000000000E+00 -0.39180095038E+03  0.39180095038E+03  0.00000000000E+00 0. -1.
         21    1    1    2  503  506  0.46319403619E+02  0.10295708654E+03 -0.17888626927E+03  0.21153237614E+03  0.00000000000E+00 0. -1.
         21    1    1    2  504  505  0.80333044068E+01 -0.57404700269E+02  0.33215368745E+02  0.66806394256E+02  0.00000000000E+00 0. -1.
         21    1    1    2  505  502 -0.38850209939E+02 -0.72703775320E+02 -0.14140780884E+03  0.16368062243E+03  0.00000000000E+00 0. -1.
         21    1    1    2  506  501 -0.15502498086E+02  0.27151389046E+02 -0.18284401605E+02  0.36219396959E+02  0.00000000000E+00 0. -1.
<scales pt_clust_3="94.73298" pt_clust_4="39.92600" pt_clust_5="14000.00000" pt_clust_6="31.26540"></scales>
<clustering>
<clus scale="   31.265">  1  6  2 -1</clus>
<clus scale="   39.926">  1  4  2 -1</clus>
<clus scale="   94.733">  1  3  2 -1</clus>
<clus scale="   31.265">  1  3  2 -1</clus>
</clustering>
</event>
<event>
 6    0  0.4469832E+002  0.1040248E+03  0.7546771E-02  0.1272053E+00
         21   -1    0    0  506  501  0.00000000000E+00  0.00000000000E+00  0.14216780010E+04  0.14216780010E+04  0.00000000000E+00 0.  1.
         21   -1    0    0  503  502 -0.00000000000E+00 -0.00000000000E+00 -0.33339627392E+03  0.33339627392E+03  0.00000000000E+00 0.  1.
         21    1    1    2  503  501  0.42111492452E+02 -0.95270163961E+01  0.10096162621E+04  0.10105390336E+04  0.00000000000E+00 0.  1.
         21    1    1    2  504  505 -0.65166309239E+02  0.10955917820E+03 -0.15838868259E+03  0.20331462357E+03  0.00000000000E+00 0.  1.
         21    1    1    2  505  502  0.48322539342E+02 -0.75989184927E+02 -0.13787191042E+03  0.16467570470E+03  0.00000000000E+00 0.  1.
         21    1    1    2  506  504 -0.25267722555E+02 -0.24042976875E+02  0.37492605805E+03  0.37654491305E+03  0.00000000000E+00 0. -1.
<scales pt_clust_3="37.22799" pt_clust_4="104.02485" pt_clust_5="14000.00000" pt_clust_6="34.87868"></scales>
<clustering>
<clus scale="   34.879">  1  6  2 -1</clus>
<clus scale="   37.228">  1  3  2 -1</clus>
<clus scale="  104.025">  1  4  2 -1</clus>
<clus scale="   34.879">  1  3  2 -1</clus>
</clustering>
</event>
<event>
 6    0  0.4469832E+002  0.7832148E+02  0.7546771E-02  0.1333883E+00
         21   -1    0    0  505  501  0.00000000000E+00  0.00000000000E+00  0.20557942160E+03  0.20557942160E+03  0.00000000000E+00 0.  1.
         21   -1    0    0  506  502 -0.00000000000E+00 -0.00000000000E+00 -0.41153849335E+03  0.41153849335E+03  0.00000000000E+00 0. -1.
         21    1    1    2  503  502 -0.18228170092E+01 -0.53752445441E+02 -0.31095518485E+02  0.62125512654E+02  0.00000000000E+00 0. -1.
         21    1    1    2  504  501 -0.43520818749E+02  0.85304510603E+02 -0.19444967761E+03  0.21675238942E+03  0.00000000000E+00 0. -1.
         21    1    1    2  505  503  0.79310878572E+02 -0.55787652984E+01  0.16688700217E+03  0.18485835003E+03  0.00000000000E+00 0.  1.
         21    1    1    2  506  504 -0.33967242814E+02 -0.25973299864E+02 -0.14730087782E+03  0.15338166284E+03  0.00000000000E+00 0. -1.
<scales pt_clust_3="58.91728" pt_clust_4="78.32148" pt_clust_5="14000.00000" pt_clust_6="42.75963"></scales>
<clustering>
<clus scale="   42.760">  2  6  1 -1</clus>
<clus scale="   58.917">  2  3  1 -1</clus>
<clus scale="   78.321">  2  4  1 -1</clus>
<clus scale="   78.321">  1  3  2 -1</clus>
</clustering>
</event>
<event>
 6    0  0.4469832E+002  0.1029717E+03  0.7546771E-02  0.1274168E+00
         21   -1    0    0  506  501  0.00000000000E+00  0.00000000000E+00  0.12004033436E+04  0.12004033436E+04  0.00000000000E+00 0. -1.
         21   -1    0    0  505  502 -0.00000000000E+00 -0.00000000000E+00 -0.16985827024E+03  0.16985827024E+03  0.00000000000E+00 0.  1.
         21    1    1    2  503  501 -0.21784260773E+02  0.22344369845E+02  0.75540492388E+02  0.81732434636E+02  0.00000000000E+00 0.  1.
         21    1    1    2  504  503 -0.10252746962E+03  0.17963937236E+02  0.93965093134E+03  0.94539857089E+03  0.00000000000E+00 0. -1.
         21    1    1    2  505  504  0.84357324205E+02 -0.59313559379E+02 -0.14435582776E+03  0.17740592290E+03  0.00000000000E+00 0.  1.
         21    1    1    2  506  502  0.39954406190E+02  0.19005252298E+02  0.15970947742E+03  0.16572468545E+03  0.00000000000E+00 0. -1.
<scales pt_clust_3="31.20617" pt_clust_4="102.97167" pt_clust_5="14000.00000" pt_clust_6="42.99695"></scales>
<clustering>
<clus scale="   31.206">  1  3  2 -1</clus>
<clus scale="   42.997">  1  6  2 -1</clus>
<clus scale="  102.972">  1  4  2 -1</clus>
<clus scale="   31.206">  1  3  2 -1</clus>
</clustering>
</event>
<event>
 6    0  0.4469832E+002  0.1133744E+03  0.7546771E-02  0.1254446E+00
         21   -1    0    0  503  501  0.00000000000E+00  0.00000000000E+00  0.78993094015E+03  0.78993094015E+03  0.00000000000E+00 0. -1.
         21   -1    0    0  504  502 -0.00000000000E+00 -0.00000000000E+00 -0.57691357150E+03  0.57691357150E+03  0.00000000000E+00 0. -1.
         21    1    1    2  503  506 -0.13810368666E+02 -0.51162170232E+02  0.12841192070E+03  0.13891693677E+03  0.00000000000E+00 0. -1.
         21    1    1    2  504  501  0.89133066463E+01  0.14329296456E+03 -0.52683400802E+03  0.54604614524E+03  0.00000000000E+00 0. -1.
         21    1    1    2  505  502 -0.53293213990E+02 -0.36424721584E+02 -0.60884867772E+00  0.64554610188E+02  0.00000000000E+00 0.  1.
         21    1    1    2  506  505  0.58190276010E+02 -0.55706072741E+02  0.61204830465E+03  0.61732681943E+03  0.00000000000E+00 0. -1.
<scales pt_clust_3="52.99334" pt_clust_4="113.37439" pt_clust_5="66.53489" pt_clust_6="14000.00000"></scales>
<clustering>
<clus scale="   52.993">  1  3  2 -1</clus>
<clus scale="   66.535">  2  5  1 -1</clus>
<clus scale="  113.374">  2  4  1 -1</clus>
<clus scale="   52.993">  1  3  2 -1</clus>
</clustering>
</event>
<event>
 6    0  0.4469832E+002  0.7172630E+02  0.7546771E-02  0.1354319E+00
         21   -1    0    0  506  501  0.00000000000E+00  0.00000000000E+00  0.10781587029E+03  0.10781587029E+03  0.00000000000E+00 0.  1.
         21   -1    0    0  503  502 -0.00000000000E+00 -0.00000000000E+00 -0.42488730247E+03  0.42488730247E+03  0.00000000000E+00 0.  1.
         21    1    1    2  503  501  0.50567901973E+02 -0.13747766890E+02 -0.19283524434E+03  0.19982878987E+03  0.00000000000E+00 0.  1.
         21    1    1    2  504  505  0.13602809346E+02  0.90810182242E+02 -0.20455787210E+02  0.94074251798E+02  0.00000000000E+00 0.  1.
         21    1    1    2  505  502 -0.17720075305E+02 -0.56506226415E+02 -0.15544725769E+03  0.16634543761E+03  0.00000000000E+00 0.  1.
         21    1    1    2  506  504 -0.46450636015E+02 -0.20556188937E+02  0.51666857051E+02  0.72454693480E+02  0.00000000000E+00 0.  1.
<scales pt_clust_3="49.45052" pt_clust_4="14000.00000" pt_clust_5="71.72630" pt_clust_6="50.79585"></scales>
<clustering>
<clus scale="   50.796">  1  6  2 -1</clus>
<clus scale="   49.451">  2  3  1 -1</clus>
<clus scale="   71.726">  2  5  1 -1</clus>
<clus scale="   50.796">  1  3  2 -1</clus>
</clustering>
</event>
<event>
 6    0  0.4469832E+002  0.9284129E+02  0.7546771E-02  0.1296113E+00
         21   -1    0    0  506  501  0.00000000000E+00  0.00000000000E+00  0.41709638534E+03  0.41709638534E+03  0.00000000000E+00 0. -1.
         21   -1    0    0  504  502 -0.00000000000E+00 -0.00000000000E+00 -0.46654689611E+03  0.46654689611E+03  0.00000000000E+00 0. -1.
         21    1    1    2  503  501  0.40467632574E+02 -0.77173737332E+01  0.32918328323E+03  0.33175114333E+03  0.00000000000E+00 0. -1.
         21    1    1    2  504  505  0.91395942879E+02  0.58915278162E+01 -0.38211341342E+03  0.39293585887E+03  0.00000000000E+00 0. -1.
         21    1    1    2  505  503 -0.10644636295E+03 -0.31577545468E+02  0.21811811045E+02  0.11315354464E+03  0.00000000000E+00 0. -1.
         21    1    1    2  506  502 -0.25417212507E+02  0.33403391385E+02 -0.18332191626E+02  0.45802734606E+02  0.00000000000E+00 0. -1.
<scales pt_clust_3="41.19693" pt_clust_4="92.84129" pt_clust_5="14000.00000" pt_clust_6="37.37078"></scales>
<clustering>
<clus scale="   41.197">  1  3  2 -1</clus>
<clus scale="   37.371">  1  6  2 -1</clus>
<clus scale="   92.841">  2  4  1 -1</clus>
<clus scale="   41.197">  1  3  2 -1</clus>
</clustering>
</event>
<event>
 6    0  0.4469832E+002  0.1037769E+03  0.7546771E-02  0.1272548E+00
         21   -1    0    0  506  501  0.00000000000E+00  0.00000000000E+00  0.72310270183E+02  0.72310270183E+02  0.00000000000E+00 0.  1.
         21   -1    0    0  505  502 -0.00000000000E+00 -0.00000000000E+00 -0.10736855667E+04  0.10736855667E+04  0.00000000000E+00 0.  1.
         21    1    1    2  503  502  0.45435647191E+02 -0.12099296263E+03 -0.66417689009E+03  0.67663478803E+03  0.00000000000E+00 0.  1.
         21    1    1    2  504  501 -0.31352115892E+02 -0.10912691076E+02 -0.29273845170E+02  0.44260592048E+02  0.00000000000E+00 0.  1.
         21    1    1    2  505  504 -0.63439334863E+02  0.22493052976E+02 -0.29704872365E+03  0.30457910444E+03  0.00000000000E+00 0.  1.
         21    1    1    2  506  503  0.49355803564E+02  0.10941260073E+03 -0.10875837656E+02  0.12052135241E+03  0.00000000000E+00 0.  1.
<scales pt_clust_3="103.77692" pt_clust_4="33.19702" pt_clust_5="68.82415" pt_clust_6="14000.00000"></scales>
<clustering>
<clus scale="   33.197">  1  4  2 -1</clus>
<clus scale="   68.824">  2  5  1 -1</clus>
<clus scale="  103.777">  2  3  1 -1</clus>
<clus scale="   33.197">  1  3  2 -1</clus>
</clustering>
</event>
<event>
 6    0  0.4469832E+002  0.1133746E+03  0.7546771E-02  0.1254445E+00
         21   -1    0    0  503  501  0.00000000000E+00  0.00000000000E+00  0.37035124046E+03  0.37035124046E+03  0.00000000000E+00 0. -1.
         21   -1    0    0  504  502 -0.00000000000E+00 -0.00000000000E+00 -0.99789315927E+02  0.99789315927E+02  0.00000000000E+00 0. -1.
         21    1    1    2  503  506 -0.47928867819E+02 -0.45901081464E+02  0.22660095498E+00  0.66363672276E+02  0.00000000000E+00 0. -1.
         21    1    1    2  504  505  0.10010299994E+03  0.24534446913E+02  0.16060539024E+03  0.19083144671E+03  0.00000000000E+00 0. -1.
         21    1    1    2  505  501 -0.29906127118E+02  0.62116287050E+02  0.14100669831E+03  0.15695763290E+03  0.00000000000E+00 0. -1.
         21    1    1    2  506  502 -0.22268005002E+02 -0.40749652499E+02 -0.31276764970E+02  0.55987804499E+02  0.00000000000E+00 0. -1.
<scales pt_clust_3="33.14311" pt_clust_4="106.22612" pt_clust_5="68.94062" pt_clust_6="33.14311"></scales>
<clustering>
<clus scale="   33.143">  3  6 -1 -1</clus>
<clus scale="   68.941">  1  5  2 -1</clus>
<clus scale="  106.226">  1  4  2 -1</clus>
<clus scale="   68.941">  1  3  2 -1</clus>
</clustering>
</event>
<event>
 6    0  0.4469832E+002  0.1177616E+03  0.7546771E-02  0.1246836E+00
         21   -1    0    0  503  501  0.00000000000E+00  0.00000000000E+00  0.25621738119E+03  0.25621738119E+03  0.00000000000E+00 0. -1.
         21   -1    0    0  506  502 -0.00000000000E+00 -0.00000000000E+00 -0.20320046403E+04  0.20320046403E+04  0.00000000000E+00 0.  1.
         21    1    1    2  503  504  0.12545210697E+01  0.44174700964E+02 -0.70772985304E+03  0.70910825895E+03  0.00000000000E+00 0.  1.
         21    1    1    2  504  502  0.64053966269E+02  0.35899599858E+02 -0.12982944838E+04  0.13003692778E+04  0.00000000000E+00 0.  1.
         21    1    1    2  505  501 -0.24070462149E+02  0.20260351642E+02  0.12011071032E+03  0.12416300468E+03  0.00000000000E+00 0. -1.
         21    1    1    2  506  505 -0.41238025190E+02 -0.10033465246E+03  0.11012636738E+03  0.15458148013E+03  0.00000000000E+00 0. -1.
<scales pt_clust_3="43.88681" pt_clust_4="43.88681" pt_clust_5="31.46218" pt_clust_6="103.33708"></scales>
<clustering>
<clus scale="   31.462">  1  5  2 -1</clus>
<clus scale="   43.887">  3  4 -1 -1</clus>
<clus scale="  103.337">  1  6  2 -1</clus>
<clus scale="   31.462">  1  3  2 -1</clus>
</clustering>
</event>
<event>
 6    0  0.4469832E+002  0.2400271E+03  0.7546771E-02  0.1119775E+00
         21   -1    0    0  505  501  0.00000000000E+00  0.00000000000E+00  0.74893575681E+03  0.74893575681E+03  0.00000000000E+00 0. -1.
         21   -1    0    0  501  502 -0.00000000000E+00 -0.00000000000E+00 -0.10257847186E+04  0.10257847186E+04  0.00000000000E+00 0. -1.
         21    1    1    2  503  504  0.12575286014E+03 -0.18560857105E+03 -0.93109902763E+03  0.95771066755E+03  0.00000000000E+00 0. -1.
         21    1    1    2  504  502  0.35325467122E+02  0.28399234275E+02 -0.53215497058E+02  0.69902033317E+02  0.00000000000E+00 0. -1.
         21    1    1    2  505  506 -0.12060800105E+03  0.14921860850E+03  0.63891942223E+03  0.66710607188E+03  0.00000000000E+00 0. -1.
         21    1    1    2  506  503 -0.40470326214E+02  0.79907282736E+01  0.68546140619E+02  0.80001702707E+02  0.00000000000E+00 0. -1.
<scales pt_clust_3="224.96997" pt_clust_4="45.32555" pt_clust_5="38.79873" pt_clust_6="38.79873"></scales>
<clustering>
<clus scale="   38.799">  5  6 -1 -1</clus>
<clus scale="   45.326">  2  4  1 -1</clus>
<clus scale="  224.970">  2  3  1 -1</clus>
<clus scale="  240.027">  1  3  2 -1</clus>
</clustering>
</event>
<event>
 6    0  0.4469832E+002  0.1051108E+03  0.7546771E-02  0.1269902E+00
         21   -1    0    0  506  501  0.00000000000E+00  0.00000000000E+00  0.72220755106E+03  0.72220755106E+03  0.00000000000E+00 0.  1.
         21   -1    0    0  503  502 -0.00000000000E+00 -0.00000000000E+00 -0.11400015632E+03  0.11400015632E+03  0.00000000000E+00 0.  1.
         21    1    1    2  503  505 -0.43094745187E+02  0.32750168369E+01 -0.14011387536E+02  0.45433487415E+02  0.00000000000E+00 0.  1.
         21    1    1    2  504  502  0.10402476017E+02  0.92067271635E+02 -0.30305751930E+02  0.97483499187E+02  0.00000000000E+00 0.  1.
         21    1    1    2  505  501 -0.18028931461E+02  0.58350894608E+02  0.28873937148E+03  0.29512758921E+03  0.00000000000E+00 0.  1.
         21    1    1    2  506  504  0.50721200631E+02 -0.15369318308E+03  0.36378516272E+03  0.39816313156E+03  0.00000000000E+00 0.  1.
<scales pt_clust_3="43.21901" pt_clust_4="14000.00000" pt_clust_5="61.69222" pt_clust_6="105.11078"></scales>
<clustering>
<clus scale="   43.219">  2  3  1 -1</clus>
<clus scale="   61.692">  1  5  2 -1</clus>
<clus scale="  105.111">  1  6  2 -1</clus>
<clus scale="   61.692">  1  3  2 -1</clus>
</clustering>
</event>
<event>
 6    0  0.4469832E+002  0.9157068E+02  0.7546771E-02  0.1299092E+00
         21   -1    0    0  504  501  0.00000000000E+00  0.00000000000E+00  0.58118039040E+03  0.58118039040E+03  0.00000000000E+00 0.  1.
         21   -1    0    0  503  502 -0.00000000000E+00 -0.00000000000E+00 -0.13417311775E+03  0.13417311775E+03  0.00000000000E+00 0. -1.
         21    1    1    2  503  506 -0.42243481748E+02  0.17832312607E+02  0.14737621792E+02  0.48163270437E+02  0.00000000000E+00 0.  1.
         21    1    1    2  504  502 -0.49780317961E+02 -0.68817111832E+01 -0.92234660719E+02  0.10503652052E+03  0.00000000000E+00 0. -1.
         21    1    1    2  505  501 -0.30833946172E+02 -0.25936564045E+02  0.32421167013E+03  0.32670574626E+03  0.00000000000E+00 0.  1.
         21    1    1    2  506  505  0.12285774588E+03  0.14985962621E+02  0.20029264145E+03  0.23544797094E+03  0.00000000000E+00 0.  1.
<scales pt_clust_3="48.30821" pt_clust_4="91.57068" pt_clust_5="40.29190" pt_clust_6="14000.00000"></scales>
<clustering>
<clus scale="   40.292">  1  5  2 -1</clus>
<clus scale="   48.308">  2  3  1 -1</clus>
<clus scale="   91.571">  2  4  1 -1</clus>
<clus scale="   40.292">  1  3  2 -1</clus>
</clustering>
</event>
<event>
 6    0  0.4469832E+002  0.1273288E+03  0.7546771E-02  0.1231474E+00
         21   -1    0    0  503  501  0.00000000000E+00  0.00000000000E+00  0.31977751173E+03  0.31977751173E+03  0.00000000000E+00 0. -1.
         21   -1    0    0  506  502 -0.00000000000E+00 -0.00000000000E+00 -0.41603579044E+03  0.41603579044E+03  0.00000000000E+00 0.  1.
         21    1    1    2  503  502  0.21707782474E+02  0.99950744690E+02  0.14516194483E+03  0.17757637627E+03  0.00000000000E+00 0. -1.
         21    1    1    2  504  505  0.34320822808E+02 -0.50780734748E+02 -0.12475544168E+03  0.13899828103E+03  0.00000000000E+00 0.  1.
         21    1    1    2  505  501 -0.90365700998E+02  0.36355773260E+01  0.13350913495E+03  0.16125714389E+03  0.00000000000E+00 0. -1.
         21    1    1    2  506  504  0.34337095717E+02 -0.52805587268E+02 -0.25017391682E+03  0.25798150097E+03  0.00000000000E+00 0.  1.
<scales pt_clust_3="120.97828" pt_clust_4="39.17156" pt_clust_5="90.43880" pt_clust_6="39.17156"></scales>
<clustering>
<clus scale="   39.172">  4  6 -1 -1</clus>
<clus scale="   90.439">  1  5  2 -1</clus>
<clus scale="  120.978">  1  3  2 -1</clus>
<clus scale="   90.439">  1  3  2 -1</clus>
</clustering>
</event>
<event>
 6    0  0.4469832E+002  0.8909553E+02  0.7546771E-02  0.1305057E+00
         21   -1    0    0  503  501  0.00000000000E+00  0.00000000000E+00  0.87517595446E+02  0.87517595446E+02  0.00000000000E+00 0. -1.
         21   -1    0    0  504  502 -0.00000000000E+00 -0.00000000000E+00 -0.34262882977E+03  0.34262882977E+03  0.00000000000E+00 0. -1.
         21    1    1    2  503  502 -0.11261529551E+03  0.24773094000E+02 -0.32144236915E+02  0.11970448169E+03  0.00000000000E+00 0. -1.
         21    1    1    2  504  505  0.20735856379E+02  0.25331625842E+02 -0.14382990701E+03  0.14750833589E+03  0.00000000000E+00 0. -1.
         21    1    1    2  505  506  0.33981568875E+02  0.49009666620E+01 -0.75557710321E+02  0.82992373664E+02  0.00000000000E+00 0. -1.
         21    1    1    2  506  501  0.57897870257E+02 -0.55005686505E+02 -0.35793800842E+01  0.79941233978E+02  0.00000000000E+00 0. -1.
<scales pt_clust_3="89.09553" pt_clust_4="32.26254" pt_clust_5="70.70821" pt_clust_6="14000.00000"></scales>
<clustering>
<clus scale="   32.263">  4  5 -1 -1</clus>
<clus scale="   70.708">  2  4  1 -1</clus>
<clus scale="   89.096">  2  3  1 -1</clus>
<clus scale="   89.096">  1  3  2 -1</clus>
</clustering>
</event>
<event>
 6    0  0.4469832E+002  0.5627477E+02  0.7546771E-02  0.1414165E+00
         21   -1    0    0  504  501  0.00000000000E+00  0.00000000000E+00  0.10994751843E+03  0.10994751843E+03  0.00000000000E+00 0.  1.
         21   -1    0    0  506  502 -0.00000000000E+00 -0.00000000000E+00 -0.37200469953E+03  0.37200469953E+03  0.00000000000E+00 0.  1.
         21    1    1    2  503  502 -0.53828393761E+02 -0.11120595074E+02 -0.62062352884E+02  0.82902950823E+02  0.00000000000E+00 0.  1.
         21    1    1    2  504  503 -0.61860991108E+02 -0.16923059834E+02  0.34377639677E+02  0.72766711378E+02  0.00000000000E+00 0.  1.
         21    1    1    2  505  501  0.26676399741E+02 -0.19887671546E+02  0.29022119894E+02  0.44152386412E+02  0.00000000000E+00 0. -1.
         21    1    1    2  506  505  0.89012985128E+02  0.47931326455E+02 -0.26339458779E+03  0.28213016934E+03  0.00000000000E+00 0.  1.
<scales pt_clust_3="51.94611" pt_clust_4="56.27477" pt_clust_5="33.27386" pt_clust_6="14000.00000"></scales>
<clustering>
<clus scale="   33.274">  1  5  2 -1</clus>
<clus scale="   51.946">  2  3  1 -1</clus>
<clus scale="   56.275">  1  4  2 -1</clus>
<clus scale="   33.274">  1  3  2 -1</clus>
</clustering>
</event>
<event>
 6    0  0.4469832E+002  0.2253196E+03  0.7546771E-02  0.1129978E+00
         21   -1    0    0  503  501  0.00000000000E+00  0.00000000000E+00  0.24389710644E+03  0.24389710644E+03  0.00000000000E+00 0.  1.
         21   -1    0    0  505  502 -0.00000000000E+00 -0.00000000000E+00 -0.20892419371E+04  0.20892419371E+04  0.00000000000E+00 0.  1.
         21    1    1    2  503  504  0.43275606801E+01  0.79304796764E+02 -0.27616206910E+02  0.84087058786E+02  0.00000000000E+00 0. -1.
         21    1    1    2  504  506 -0.55846120099E+02 -0.89174991846E+02 -0.10153341347E+04  0.10207714599E+04  0.00000000000E+00 0.  1.
         21    1    1    2  505  501  0.14038578610E+03  0.92118945932E+02  0.17551763867E+03  0.24290020712E+03  0.00000000000E+00 0.  1.
         21    1    1    2  506  502 -0.88867226677E+02 -0.82248750850E+02 -0.97791212778E+03  0.98538031777E+03  0.00000000000E+00 0.  1.
<scales pt_clust_3="79.42278" pt_clust_4="33.43161" pt_clust_5="222.44706" pt_clust_6="33.43161"></scales>
<clustering>
<clus scale="   33.432">  4  6 -1 -1</clus>
<clus scale="   79.423">  1  3  2 -1</clus>
<clus scale="  222.447">  1  5  2 -1</clus>
<clus scale="   79.423">  1  3  2 -1</clus>
</clustering>
</event>
<event>
 6    0  0.4469832E+002  0.8878957E+02  0.7546771E-02  0.1305810E+00
         21   -1    0    0  503  501  0.00000000000E+00  0.00000000000E+00  0.41915582914E+03  0.41915582914E+03  0.00000000000E+00 0.  1.
         21   -1    0    0  506  502 -0.00000000000E+00 -0.00000000000E+00 -0.11357685931E+04  0.11357685931E+04  0.00000000000E+00 0.  1.
         21    1    1    2  503  504 -0.13039660484E+02  0.70280612293E+02  0.39340702358E+03  0.39984807541E+03  0.00000000000E+00 0.  1.
         21    1    1    2  504  502  0.56616672994E+02  0.89363431794E+01 -0.81147291789E+03  0.81349468490E+03  0.00000000000E+00 0.  1.
         21    1    1    2  505  501 -0.84581457225E+02 -0.60460096730E+02 -0.12659590371E+03  0.16381687654E+03  0.00000000000E+00 0.  1.
         21    1    1    2  506  505  0.41004444715E+02 -0.18756858743E+02 -0.17195096592E+03  0.17776478537E+03  0.00000000000E+00 0. -1.
<scales pt_clust_3="71.39328" pt_clust_4="88.78957" pt_clust_5="14000.00000" pt_clust_6="45.09084"></scales>
<clustering>
<clus scale="   45.091">  2  6  1 -1</clus>
<clus scale="   71.393">  1  3  2 -1</clus>
<clus scale="   88.790">  2  4  1 -1</clus>
<clus scale="   71.393">  1  3  2 -1</clus>
</clustering>
</event>
<event>
 6    0  0.4469832E+002  0.8304126E+02  0.7546771E-02  0.1320636E+00
         21   -1    0    0  503  501  0.00000000000E+00  0.00000000000E+00  0.25879009689E+02  0.25879009689E+02  0.00000000000E+00 0. -1.
         21   -1    0    0  505  502 -0.00000000000E+00 -0.00000000000E+00 -0.10307463940E+04  0.10307463940E+04  0.00000000000E+00 0. -1.
         21    1    1    2  503  502  0.43336654717E+02  0.44819246347E+02 -0.14982134998E+03  0.16227528276E+03  0.00000000000E+00 0. -1.
         21    1    1    2  504  501 -0.91874205070E+02  0.36611516326E+02 -0.16854181552E+03  0.19541651993E+03  0.00000000000E+00 0. -1.
         21    1    1    2  505  506 -0.77188037256E+01 -0.49185449506E+02 -0.47783733594E+03  0.48042409181E+03  0.00000000000E+00 0. -1.
         21    1    1    2  506  504  0.56256354078E+02 -0.32245313166E+02 -0.20866688284E+03  0.21850950915E+03  0.00000000000E+00 0. -1.
<scales pt_clust_3="51.46547" pt_clust_4="83.04126" pt_clust_5="49.78743" pt_clust_6="14000.00000"></scales>
<clustering>
<clus scale="   49.787">  2  5  1 -1</clus>
<clus scale="   51.465">  2  3  1 -1</clus>
<clus scale="   83.041">  1  4  2 -1</clus>
<clus scale="   83.041">  1  3  2 -1</clus>
</clustering>
</event>
<event>
 6    0  0.4469832E+002  0.1044946E+03  0.7546771E-02  0.1271119E+00
         21   -1    0    0  506  501  0.00000000000E+00  0.00000000000E+00  0.36708353997E+03  0.36708353997E+03  0.00000000000E+00 0. -1.
         21   -1    0    0  505  502 -0.00000000000E+00 -0.00000000000E+00 -0.71579057394E+03  0.71579057394E+03  0.00000000000E+00 0.  1.
         21    1    1    2  503  501 -0.13461387529E+03  0.90129597996E+02  0.14448346855E+03  0.21707075469E+03  0.00000000000E+00 0. -1.
         21    1    1    2  504  503  0.38537197577E+02 -0.41476122117E+02 -0.25353785741E+03  0.25978227315E+03  0.00000000000E+00 0.  1.
         21    1    1    2  505  504  0.30943792314E+02  0.10549077844E+02 -0.41157812120E+03  0.41287449809E+03  0.00000000000E+00 0.  1.
         21    1    1    2  506  502  0.65132885399E+02 -0.59202553722E+02  0.17192547608E+03  0.19314658799E+03  0.00000000000E+00 0.  1.
<scales pt_clust_3="14000.00000" pt_clust_4="72.42944" pt_clust_5="32.69253" pt_clust_6="104.49458"></scales>
<clustering>
<clus scale="   32.693">  2  5  1 -1</clus>
<clus scale="   72.429">  2  4  1 -1</clus>
<clus scale="  104.495">  1  6  2 -1</clus>
<clus scale="  104.495">  1  3  2 -1</clus>
</clustering>
</event>
<event>
 6    0  0.4469832E+002  0.1006904E+03  0.7546771E-02  0.1278851E+00
         21   -1    0    0  506  501  0.00000000000E+00  0.00000000000E+00  0.25722703647E+03  0.25722703647E+03  0.00000000000E+00 0.  1.
         21   -1    0    0  501  502 -0.00000000000E+00 -0.00000000000E+00 -0.37217462894E+03  0.37217462894E+03  0.00000000000E+00 0. -1.
         21    1    1    2  503  505  0.46720208096E+02 -0.13734051277E+03  0.27986040280E+00  0.14506988872E+03  0.00000000000E+00 0.  1.
         21    1    1    2  504  502 -0.26766148067E+02  0.35443108139E+02 -0.21285470260E+03  0.21743910645E+03  0.00000000000E+00 0. -1.
         21    1    1    2  505  504 -0.24005335315E+02  0.34086656523E+02 -0.72539928882E+02  0.83667183285E+02  0.00000000000E+00 0. -1.
         21    1    1    2  506  503  0.40512752854E+01  0.67810748108E+02  0.17016717861E+03  0.18322548695E+03  0.00000000000E+00 0.  1.
<scales pt_clust_3="91.30056" pt_clust_4="41.13679" pt_clust_5="41.13679" pt_clust_6="67.93166"></scales>
<clustering>
<clus scale="   41.137">  4  5 -1 -1</clus>
<clus scale="   67.932">  1  6  2 -1</clus>
<clus scale="   91.301">  1  3  2 -1</clus>
<clus scale="   67.932">  1  3  2 -1</clus>
</clustering>
</event>
<event>
 6    0  0.4469832E+002  0.1073066E+03  0.7546771E-02  0.1265641E+00
         21   -1    0    0  503  501  0.00000000000E+00  0.00000000000E+00  0.17324109754E+03  0.17324109754E+03  0.00000000000E+00 0.  1.
         21   -1    0    0  504  502 -0.00000000000E+00 -0.00000000000E+00 -0.24859462248E+03  0.24859462248E+03  0.00000000000E+00 0.  1.
         21    1    1    2  503  505 -0.26611282148E+02 -0.39176146024E+02  0.56357141175E+02  0.73614252128E+02  0.00000000000E+00 0.  1.
         21    1    1    2  504  501 -0.22216144764E+02 -0.21961357630E+02 -0.29332264817E+02  0.42851371931E+02  0.00000000000E+00 0. -1.
         21    1    1    2  505  506  0.13372815714E+02  0.14366400247E+03  0.28069287550E+02  0.14699000887E+03  0.00000000000E+00 0.  1.
         21    1    1    2  506  502  0.35454611197E+02 -0.82526498814E+02 -0.13044768885E+03  0.15838008709E+03  0.00000000000E+00 0.  1.
<scales pt_clust_3="48.60473" pt_clust_4="31.23873" pt_clust_5="14000.00000" pt_clust_6="107.30657"></scales>
<clustering>
<clus scale="   31.239">  2  4  1 -1</clus>
<clus scale="   48.605">  1  3  2 -1</clus>
<clus scale="  107.307">  2  6  1 -1</clus>
<clus scale="   48.605">  1  3  2 -1</clus>
</clustering>
</event>
<event>
 6    0  0.4469832E+002  0.7562642E+02  0.7546771E-02  0.1341942E+00
         21   -1    0    0  506  501  0.00000000000E+00  0.00000000000E+00  0.28268421222E+03  0.28268421222E+03  0.00000000000E+00 0. -1.
         21   -1    0    0  504  502 -0.00000000000E+00 -0.00000000000E+00 -0.60423432059E+03  0.60423432059E+03  0.00000000000E+00 0.  1.
         21    1    1    2  503  505  0.87009583586E+02  0.80085071309E+02  0.17718221758E+03  0.21302071380E+03  0.00000000000E+00 0. -1.
         21    1    1    2  504  501 -0.45686562859E+02  0.16920162765E+02 -0.48615752696E+03  0.48859256539E+03  0.00000000000E+00 0.  1.
         21    1    1    2  505  502 -0.28186941685E+02 -0.46920131006E+02 -0.82065657688E+02  0.98644688387E+02  0.00000000000E+00 0.  1.
         21    1    1    2  506  503 -0.13136079042E+02 -0.50085103068E+02  0.69490858705E+02  0.86660565227E+02  0.00000000000E+00 0. -1.
<scales pt_clust_3="14000.00000" pt_clust_4="48.71913" pt_clust_5="75.62642" pt_clust_6="51.55141"></scales>
<clustering>
<clus scale="   48.719">  2  4  1 -1</clus>
<clus scale="   51.551">  1  6  2 -1</clus>
<clus scale="   75.626">  2  5  1 -1</clus>
<clus scale="   51.551">  1  3  2 -1</clus>
</clustering>
</event>
<event>
 6    0  0.4469832E+002  0.9947768E+02  0.7546771E-02  0.1281398E+00
         21   -1    0    0  505  501  0.00000000000E+00  0.00000000000E+00  0.38112826603E+02  0.38112826603E+02  0.00000000000E+00 0. -1.
         21   -1    0    0  503  502 -0.00000000000E+00 -0.00000000000E+00 -0.11801046732E+04  0.11801046732E+04  0.00000000000E+00 0.  1.
         21    1    1    2  503  501  0.13747023938E+03 -0.18904820478E+02 -0.15365934994E+03  0.20704264000E+03  0.00000000000E+00 0. -1.
         21    1    1    2  504  502 -0.30776702970E+02  0.20308397011E+02 -0.47581970799E+03  0.47724630009E+03  0.00000000000E+00 0.  1.
         21    1    1    2  505  506 -0.74348301574E+02 -0.43218209946E+02 -0.21160400682E+03  0.22841133799E+03  0.00000000000E+00 0.  1.
         21    1    1    2  506  504 -0.32345234837E+02  0.41814633413E+02 -0.30090878187E+03  0.30551722176E+03  0.00000000000E+00 0.  1.
<scales pt_clust_3="91.25719" pt_clust_4="33.07019" pt_clust_5="85.99700" pt_clust_6="33.07019"></scales>
<clustering>
<clus scale="   33.070">  4  6 -1 -1</clus>
<clus scale="   85.997">  1  5  2 -1</clus>
<clus scale="   91.257">  1  3  2 -1</clus>
<clus scale="   85.997">  1  3  2 -1</clus>
</clustering>
</event>
<event>
 6    0  0.4469832E+002  0.9649201E+02  0.7546771E-02  0.1287851E+00
         21   -1    0    0  504  501  0.00000000000E+00  0.00000000000E+00  0.18454451245E+04  0.18454451245E+04  0.00000000000E+00 0.  1.
         21   -1    0    0  503  502 -0.00000000000E+00 -0.00000000000E+00 -0.10434744376E+03  0.10434744376E+03  0.00000000000E+00 0.  1.
         21    1    1    2  503  501 -0.46012148373E+02  0.55364554676E+02  0.15606703886E+04  0.15623298031E+04  0.00000000000E+00 0.  1.
         21    1    1    2  504  505  0.33527791568E+02 -0.98091512005E+02  0.10985627779E+03  0.15104456066E+03  0.00000000000E+00 0.  1.
         21    1    1    2  505  506  0.11140153373E+02  0.12827935992E+03  0.77981255268E+02  0.15053495731E+03  0.00000000000E+00 0. -1.
         21    1    1    2  506  502  0.13442034329E+01 -0.85552402591E+02 -0.74102409720E+01  0.85883247163E+02  0.00000000000E+00 0.  1.
<scales pt_clust_3="71.98855" pt_clust_4="73.70452" pt_clust_5="96.49201" pt_clust_6="14000.00000"></scales>
<clustering>
<clus scale="   71.989">  1  3  2 -1</clus>
<clus scale="   73.705">  1  4  2 -1</clus>
<clus scale="   96.492">  1  5  2 -1</clus>
<clus scale="   71.989">  1  3  2 -1</clus>
</clustering>
</event>
<event>
 6    0  0.4469832E+002  0.8002406E+02  0.7546771E-02  0.1328983E+00
         21   -1    0    0  503  501  0.00000000000E+00  0.00000000000E+00  0.26880959985E+03  0.26880959985E+03  0.00000000000E+00 0. -1.
         21   -1    0    0  504  502 -0.00000000000E+00 -0.00000000000E+00 -0.20496238226E+04  0.20496238226E+04  0.00000000000E+00 0.  1.
         21    1    1    2  503  502  0.39774750415E+02 -0.58641119851E+02 -0.45508047777E+02  0.84212790718E+02  0.00000000000E+00 0. -1.
         21    1    1    2  504  506  0.47001919418E+02  0.45203509835E+02 -0.85552567167E+03  0.85800740825E+03  0.00000000000E+00 0.  1.
         21    1    1    2  505  501 -0.10352487424E+03  0.10649220039E+03  0.22379599858E+03  0.26859381472E+03  0.00000000000E+00 0. -1.
         21    1    1    2  506  505  0.16748204403E+02 -0.93054590372E+02 -0.11035765019E+04  0.11076194088E+04  0.00000000000E+00 0.  1.
<scales pt_clust_3="70.34501" pt_clust_4="65.21148" pt_clust_5="80.02406" pt_clust_6="14000.00000"></scales>
<clustering>
<clus scale="   65.211">  2  4  1 -1</clus>
<clus scale="   70.345">  1  3  2 -1</clus>
<clus scale="   80.024">  1  5  2 -1</clus>
<clus scale="   70.345">  1  3  2 -1</clus>
</clustering>
</event>
<event>
 6    0  0.4469832E+002  0.1090434E+03  0.7546771E-02  0.1262352E+00
         21   -1    0    0  504  501  0.00000000000E+00  0.00000000000E+00  0.23611287423E+02  0.23611287423E+02  0.00000000000E+00 0.  1.
         21   -1    0    0  506  502 -0.00000000000E+00 -0.00000000000E+00 -0.11798732235E+04  0.11798732235E+04  0.00000000000E+00 0.  1.
         21    1    1    2  503  501  0.78312248773E+02 -0.83705444503E+02 -0.24603258098E+03  0.27142483425E+03  0.00000000000E+00 0.  1.
         21    1    1    2  504  502 -0.47329321998E+02 -0.45200837666E+01 -0.67147837361E+02  0.82275925643E+02  0.00000000000E+00 0.  1.
         21    1    1    2  505  503  0.22480956568E+01  0.49593830437E+02 -0.27702567899E+03  0.28143885441E+03  0.00000000000E+00 0.  1.
         21    1    1    2  506  505 -0.33231022431E+02  0.38631697833E+02 -0.56605583878E+03  0.56834489665E+03  0.00000000000E+00 0.  1.
<scales pt_clust_3="96.37510" pt_clust_4="47.54467" pt_clust_5="49.13443" pt_clust_6="49.13443"></scales>
<clustering>
<clus scale="   47.545">  1  4  2 -1</clus>
<clus scale="   49.134">  5  6 -1 -1</clus>
<clus scale="   96.375">  1  3  2 -1</clus>
<clus scale="   47.545">  1  3  2 -1</clus>
</clustering>
</event>
<event>
 6    0  0.4469832E+002  0.8741836E+02  0.7546771E-02  0.1309227E+00
         21   -1    0    0  504  501  0.00000000000E+00  0.00000000000E+00  0.46303557405E+02  0.46303557405E+02  0.00000000000E+00 0.  1.
         21   -1    0    0  503  502 -0.00000000000E+00 -0.00000000000E+00 -0.81659009050E+03  0.81659009050E+03  0.00000000000E+00 0.  1.
         21    1    1    2  503  505  0.60231895648E+02  0.64691235202E+02 -0.49968646599E+03  0.50744398849E+03  0.00000000000E+00 0.  1.
         21    1    1    2  504  502 -0.17889172561E+02  0.57048951412E+02 -0.14540594198E+03  0.15721798026E+03  0.00000000000E+00 0.  1.
         21    1    1    2  505  506 -0.45602325373E+02 -0.71946018138E+02 -0.12124341761E+03  0.14817478841E+03  0.00000000000E+00 0.  1.
         21    1    1    2  506  501  0.32596022851E+01 -0.49794168476E+02 -0.39507075088E+01  0.50056890745E+02  0.00000000000E+00 0.  1.
<scales pt_clust_3="87.41836" pt_clust_4="47.56550" pt_clust_5="14000.00000" pt_clust_6="49.90074"></scales>
<clustering>
<clus scale="   49.901">  1  6  2 -1</clus>
<clus scale="   47.566">  1  4  2 -1</clus>
<clus scale="   87.418">  2  3  1 -1</clus>
<clus scale="   49.901">  1  3  2 -1</clus>
</clustering>
</event>
<event>
 6    0  0.4469832E+002  0.1800281E+03  0.7546771E-02  0.1167776E+00
         21   -1    0    0  504  501  0.00000000000E+00  0.00000000000E+00  0.31104045563E+03  0.31104045563E+03  0.00000000000E+00 0. -1.
         21   -1    0    0  505  502 -0.00000000000E+00 -0.00000000000E+00 -0.31474730244E+03  0.31474730244E+03  0.00000000000E+00 0. -1.
         21    1    1    2  503  506  0.92146737110E+02 -0.14375910204E+03 -0.12892040448E+03  0.21395834003E+03  0.00000000000E+00 0. -1.
         21    1    1    2  504  503 -0.64955677204E+02  0.14275626115E+03  0.11643089911E+03  0.19533239457E+03  0.00000000000E+00 0. -1.
         21    1    1    2  505  501 -0.69807506374E+02  0.51090595581E+01  0.96310919540E+02  0.11905874037E+03  0.00000000000E+00 0. -1.
         21    1    1    2  506  502  0.42616446468E+02 -0.41062186732E+01 -0.87528260989E+02  0.97438283098E+02  0.00000000000E+00 0. -1.
<scales pt_clust_3="14000.00000" pt_clust_4="180.02813" pt_clust_5="67.80391" pt_clust_6="42.81381"></scales>
<clustering>
<clus scale="   42.814">  2  6  1 -1</clus>
<clus scale="   67.804">  1  5  2 -1</clus>
<clus scale="  180.028">  1  4  2 -1</clus>
<clus scale="   67.804">  1  3  2 -1</clus>
</clustering>
</event>
<event>
 6    0  0.4469832E+002  0.7936775E+02  0.7546771E-02  0.1330855E+00
         21   -1    0    0  506  501  0.00000000000E+00  0.00000000000E+00  0.83170108995E+02  0.83170108995E+02  0.00000000000E+00 0. -1.
         21   -1    0    0  503  502 -0.00000000000E+00 -0.00000000000E+00 -0.41182325684E+03  0.41182325684E+03  0.00000000000E+00 0. -1.
         21    1    1    2  503  505 -0.26560727473E+01 -0.37948290813E+02 -0.17837218115E+03  0.18238355876E+03  0.00000000000E+00 0. -1.
         21    1    1    2  504  502  0.93783275345E+01  0.70375388706E+02 -0.52832653157E+02  0.88498235025E+02  0.00000000000E+00 0. -1.
         21    1    1    2  505  501  0.60268268541E+02 -0.70588951537E+02 -0.11219965029E+03  0.14561533503E+03  0.00000000000E+00 0. -1.
         21    1    1    2  506  504 -0.66990523328E+02  0.38161853644E+02  0.14751336754E+02  0.78496237014E+02  0.00000000000E+00 0. -1.
<scales pt_clust_3="38.04113" pt_clust_4="59.40991" pt_clust_5="79.36775" pt_clust_6="14000.00000"></scales>
<clustering>
<clus scale="   38.041">  2  3  1 -1</clus>
<clus scale="   59.410">  2  4  1 -1</clus>
<clus scale="   79.368">  2  5  1 -1</clus>
<clus scale="   79.368">  1  3  2 -1</clus>
</clustering>
</event>
<event>
 6    0  0.4469832E+002  0.1339614E+03  0.7546771E-02  0.1221693E+00
         21   -1    0    0  506  501  0.00000000000E+00  0.00000000000E+00  0.84877871221E+02  0.84877871221E+02  0.00000000000E+00 0. -1.
         21   -1    0    0  504  502 -0.00000000000E+00 -0.00000000000E+00 -0.41317904550E+03  0.41317904550E+03  0.00000000000E+00 0. -1.
         21    1    1    2  503  505  0.23100396549E+02 -0.43159531909E+02 -0.19841626803E+02  0.52821053279E+02  0.00000000000E+00 0. -1.
         21    1    1    2  504  503  0.13955361622E+02 -0.64993917708E+02 -0.88522444506E+02  0.11070313744E+03  0.00000000000E+00 0.  1.
         21    1    1    2  505  501  0.80602401242E+02  0.18927732116E+02 -0.18613931475E+02  0.84861561228E+02  0.00000000000E+00 0. -1.
         21    1    1    2  506  502 -0.11765815941E+03  0.89225717502E+02 -0.20132317149E+03  0.24967116477E+03  0.00000000000E+00 0. -1.
<scales pt_clust_3="37.67122" pt_clust_4="37.67122" pt_clust_5="82.79496" pt_clust_6="126.56449"></scales>
<clustering>
<clus scale="   37.671">  3  4 -1 -1</clus>
<clus scale="   82.795">  1  5  2 -1</clus>
<clus scale="  126.564">  2  6  1 -1</clus>
<clus scale="   82.795">  1  3  2 -1</clus>
</clustering>
</event>
<event>
 6    0  0.4469832E+002  0.1701324E+03  0.7546771E-02  0.1177710E+00
         21   -1    0    0  505  501  0.00000000000E+00  0.00000000000E+00  0.16396499484E+04  0.16396499484E+04  0.00000000000E+00 0. -1.
         21   -1    0    0  503  502 -0.00000000000E+00 -0.00000000000E+00 -0.13757737968E+04  0.13757737968E+04  0.00000000000E+00 0. -1.
         21    1    1    2  503  504 -0.95441401267E+02  0.22392220427E+02 -0.10450788424E+04  0.10496667373E+04  0.00000000000E+00 0. -1.
         21    1    1    2  504  501 -0.58932975809E+02 -0.18459209024E+02 -0.29887461527E+03  0.30518825942E+03  0.00000000000E+00 0. -1.
         21    1    1    2  505  506  0.39403129577E+02 -0.33057805533E+02  0.14981273688E+04  0.14990100194E+04  0.00000000000E+00 0. -1.
         21    1    1    2  506  502  0.11497124750E+03  0.29124794130E+02  0.10970224049E+03  0.16155872911E+03  0.00000000000E+00 0.  1.
<scales pt_clust_3="59.18901" pt_clust_4="59.18901" pt_clust_5="51.43370" pt_clust_6="152.87508"></scales>
<clustering>
<clus scale="   51.434">  1  5  2 -1</clus>
<clus scale="   59.189">  3  4 -1 -1</clus>
<clus scale="  152.875">  1  6  2 -1</clus>
<clus scale="   51.434">  1  3  2 -1</clus>
</clustering>
</event>
<event>
 6    0  0.4469832E+002  0.1109492E+03  0.7546771E-02  0.1258822E+00
         21   -1    0    0  504  501  0.00000000000E+00  0.00000000000E+00  0.51917784255E+03  0.51917784255E+03  0.00000000000E+00 0.  1.
         21   -1    0    0  503  502 -0.00000000000E+00 -0.00000000000E+00 -0.29116880127E+04  0.29116880127E+04  0.00000000000E+00 0.  1.
         21    1    1    2  503  501 -0.22875241971E+02  0.36118229287E+02 -0.13601673796E+04  0.13608391175E+04  0.00000000000E+00 0.  1.
         21    1    1    2  504  506 -0.10688706045E+03  0.56003538451E+02  0.38297437793E+03  0.40153532118E+03  0.00000000000E+00 0.  1.
         21    1    1    2  505  502  0.74430314296E+02 -0.98230694161E+01 -0.15214128184E+04  0.15232640377E+04  0.00000000000E+00 0.  1.
         21    1    1    2  506  505  0.55331988124E+02 -0.82298698322E+02  0.10609564992E+03  0.14522737892E+03  0.00000000000E+00 0.  1.
<scales pt_clust_3="42.75281" pt_clust_4="14000.00000" pt_clust_5="57.95285" pt_clust_6="110.94921"></scales>
<clustering>
<clus scale="   42.753">  2  3  1 -1</clus>
<clus scale="   57.953">  2  5  1 -1</clus>
<clus scale="  110.949">  2  6  1 -1</clus>
<clus scale="  110.949">  1  3  2 -1</clus>
</clustering>
</event>
<event>
 6    0  0.4469832E+002  0.8929854E+02  0.7546771E-02  0.1304559E+00
         21   -1    0    0  504  501  0.00000000000E+00  0.00000000000E+00  0.38295146832E+03  0.38295146832E+03  0.00000000000E+00 0.  1.
         21   -1    0    0  503  502 -0.00000000000E+00 -0.00000000000E+00 -0.48508253615E+03  0.48508253615E+03  0.00000000000E+00 0. -1.
         21    1    1    2  503  501  0.10145180846E+02  0.32241837342E+02 -0.20508508505E+03  0.20785175698E+03  0.00000000000E+00 0. -1.
         21    1    1    2  504  506 -0.97090232677E+02  0.28909274458E+02  0.32049147016E+03  0.33612057639E+03  0.00000000000E+00 0.  1.
         21    1    1    2  505  502  0.25858317211E+02 -0.56542681773E+02 -0.24797901455E+03  0.25565468720E+03  0.00000000000E+00 0. -1.
         21    1    1    2  506  505  0.61086734620E+02 -0.46084300269E+01  0.30441561611E+02  0.68406983906E+02  0.00000000000E+00 0. -1.
<scales pt_clust_3="33.80031" pt_clust_4="89.29854" pt_clust_5="44.47252" pt_clust_6="14000.00000"></scales>
<clustering>
<clus scale="   33.800">  2  3  1 -1</clus>
<clus scale="   44.473">  2  5  1 -1</clus>
<clus scale="   89.299">  1  4  2 -1</clus>
<clus scale="   89.299">  1  3  2 -1</clus>
</clustering>
</event>
<event>
 6    0  0.4469832E+002  0.1728498E+03  0.7546771E-02  0.1174908E+00
         21   -1    0    0  503  501  0.00000000000E+00  0.00000000000E+00  0.97743681692E+03  0.97743681692E+03  0.00000000000E+00 0.  1.
         21   -1    0    0  506  502 -0.00000000000E+00 -0.00000000000E+00 -0.22376374299E+03  0.22376374299E+03  0.00000000000E+00 0.  1.
         21    1    1    2  503  502  0.75193144097E+02  0.41157293244E+02  0.28465865268E+03  0.29728518337E+03  0.00000000000E+00 0. -1.
         21    1    1    2  504  501  0.21923988905E+02  0.10224714241E+03  0.64560218127E+03  0.65401629634E+03  0.00000000000E+00 0.  1.
         21    1    1    2  505  504 -0.56719384922E+02 -0.71835331561E+02 -0.11618147641E+03  0.14790381654E+03  0.00000000000E+00 0.  1.
         21    1    1    2  506  505 -0.40397748081E+02 -0.71569104091E+02 -0.60406283605E+02  0.10199526366E+03  0.00000000000E+00 0.  1.
<scales pt_clust_3="85.72008" pt_clust_4="169.13699" pt_clust_5="33.76547" pt_clust_6="33.76547"></scales>
<clustering>
<clus scale="   33.765">  5  6 -1 -1</clus>
<clus scale="   85.720">  1  3  2 -1</clus>
<clus scale="  169.137">  1  4  2 -1</clus>
<clus scale="   85.720">  1  3  2 -1</clus>
</clustering>
</event>
<event>
 6    0  0.4469832E+002  0.8425128E+02  0.7546771E-02  0.1317402E+00
         21   -1    0    0  504  501  0.00000000000E+00  0.00000000000E+00  0.14832687115E+02  0.14832687115E+02  0.00000000000E+00 0.  1.
         21   -1    0    0  503  502 -0.00000000000E+00 -0.00000000000E+00 -0.16679083259E+04  0.16679083259E+04  0.00000000000E+00 0.  1.
         21    1    1    2  503  506  0.11750578306E+02 -0.30460899056E+02 -0.45335532550E+03  0.45452941997E+03  0.00000000000E+00 0.  1.
         21    1    1    2  504  505  0.40984511745E+02 -0.50566252534E+02 -0.33667763369E+03  0.34291180372E+03  0.00000000000E+00 0.  1.
         21    1    1    2  505  502  0.57630880227E+02  0.47211077041E+02 -0.46228609569E+03  0.46825061497E+03  0.00000000000E+00 0.  1.
         21    1    1    2  506  501 -0.11036597028E+03  0.33816074549E+02 -0.40075658394E+03  0.41704917440E+03  0.00000000000E+00 0.  1.
<scales pt_clust_3="32.64877" pt_clust_4="84.25128" pt_clust_5="71.57887" pt_clust_6="14000.00000"></scales>
<clustering>
<clus scale="   32.649">  2  3  1 -1</clus>
<clus scale="   71.579">  2  5  1 -1</clus>
<clus scale="   84.251">  1  4  2 -1</clus>
<clus scale="   84.251">  1  3  2 -1</clus>
</clustering>
</event>
<event>
 6    0  0.4469832E+002  0.1510110E+03  0.7546771E-02  0.1199236E+00
         21   -1    0    0  503  501  0.00000000000E+00  0.00000000000E+00  0.81737571516E+03  0.81737571516E+03  0.00000000000E+00 0.  1.
         21   -1    0    0  505  502 -0.00000000000E+00 -0.00000000000E+00 -0.11444582626E+03  0.11444582626E+03  0.00000000000E+00 0. -1.
         21    1    1    2  503  506  0.93043088221E+02 -0.91449889552E+02  0.61490938201E+03  0.62859656908E+03  0.00000000000E+00 0.  1.
         21    1    1    2  504  501 -0.27795870234E+02 -0.51554847347E+02  0.10005367150E+03  0.11593640441E+03  0.00000000000E+00 0.  1.
         21    1    1    2  505  504 -0.92087767982E+02  0.11539138432E+03 -0.16366892941E+02  0.14853687681E+03  0.00000000000E+00 0. -1.
         21    1    1    2  506  502  0.26840549995E+02  0.27613352581E+02  0.43337283346E+01  0.38751691138E+02  0.00000000000E+00 0. -1.
<scales pt_clust_3="151.01097" pt_clust_4="55.55187" pt_clust_5="14000.00000" pt_clust_6="38.50860"></scales>
<clustering>
<clus scale="   38.509">  2  6  1 -1</clus>
<clus scale="   55.552">  1  4  2 -1</clus>
<clus scale="  151.011">  1  3  2 -1</clus>
<clus scale="   55.552">  1  3  2 -1</clus>
</clustering>
</event>
<event>
 6    0  0.4469832E+002  0.1690347E+03  0.7546771E-02  0.1178858E+00
         21   -1    0    0  506  501  0.00000000000E+00  0.00000000000E+00  0.94571355774E+03  0.94571355774E+03  0.00000000000E+00 0.  1.
         21   -1    0    0  505  502 -0.00000000000E+00 -0.00000000000E+00 -0.22271200353E+03  0.22271200353E+03  0.00000000000E+00 0. -1.
         21    1    1    2  503  501 -0.65664301961E+02  0.14300089404E+03  0.88684995541E+03  0.90070189278E+03  0.00000000000E+00 0.  1.
         21    1    1    2  504  503  0.29303551798E+02 -0.19949231407E+02 -0.21492480157E+02  0.41455960790E+02  0.00000000000E+00 0. -1.
         21    1    1    2  505  504  0.13655494345E+01 -0.12942190791E+03 -0.73692511652E+02  0.14893784357E+03  0.00000000000E+00 0. -1.
         21    1    1    2  506  502  0.34995200729E+02  0.63702452817E+01 -0.68663409383E+02  0.77329864134E+02  0.00000000000E+00 0. -1.
<scales pt_clust_3="156.95680" pt_clust_4="32.83884" pt_clust_5="32.83884" pt_clust_6="35.57027"></scales>
<clustering>
<clus scale="   32.839">  4  5 -1 -1</clus>
<clus scale="   35.570">  2  6  1 -1</clus>
<clus scale="  156.957">  1  3  2 -1</clus>
<clus scale="  156.957">  1  3  2 -1</clus>
</clustering>
</event>
<event>
 6    0  0.4469832E+002  0.2108152E+03  0.7546771E-02  0.1140922E+00
         21   -1    0    0  504  501  0.00000000000E+00  0.00000000000E+00  0.94396787677E+03  0.94396787677E+03  0.00000000000E+00 0. -1.
         21   -1    0    0  505  502 -0.00000000000E+00 -0.00000000000E+00 -0.31038079971E+03  0.31038079971E+03  0.00000000000E+00 0.  1.
         21    1    1    2  503  506  0.10080549576E+03  0.19162897362E+01 -0.12718025861E+03  0.16229676005E+03  0.00000000000E+00 0.  1.
         21    1    1    2  504  503 -0.21269432304E+03 -0.15875750313E+02  0.49557407134E+03  0.53952254326E+03  0.00000000000E+00 0. -1.
         21    1    1    2  505  501  0.11581759507E+02 -0.29782754085E+02  0.38726957804E+03  0.38858573787E+03  0.00000000000E+00 0. -1.
         21    1    1    2  506  502  0.10030706777E+03  0.43742214662E+02 -0.12207631371E+03  0.16394363531E+03  0.00000000000E+00 0.  1.
<scales pt_clust_3="40.49558" pt_clust_4="206.56735" pt_clust_5="31.95543" pt_clust_6="40.49558"></scales>
<clustering>
<clus scale="   31.955">  1  5  2 -1</clus>
<clus scale="   40.496">  3  6 -1 -1</clus>
<clus scale="  206.567">  1  4  2 -1</clus>
<clus scale="   31.955">  1  3  2 -1</clus>
</clustering>
</event>
<event>
 6    0  0.4469832E+002  0.2069995E+03  0.7546771E-02  0.1143964E+00
         21   -1    0    0  505  501  0.00000000000E+00  0.00000000000E+00  0.17178836997E+03  0.17178836997E+03  0.00000000000E+00 0.  1.
         21   -1    0    0  506  502 -0.00000000000E+00 -0.00000000000E+00 -0.10544321809E+04  0.10544321809E+04  0.00000000000E+00 0.  1.
         21    1    1    2  503  501 -0.95604062895E+01 -0.31287147902E+02  0.23729453108E+02  0.40415021181E+02  0.00000000000E+00 0.  1.
         21    1    1    2  504  503 -0.11230297610E+03  0.19858628679E+03  0.13864528225E+02  0.22856223854E+03  0.00000000000E+00 0.  1.
         21    1    1    2  505  502  0.14000324970E+03 -0.12393033876E+03 -0.86373969821E+03  0.88374538474E+03  0.00000000000E+00 0.  1.
         21    1    1    2  506  504 -0.18139867311E+02 -0.43368800134E+02 -0.56498094015E+02  0.73497906354E+02  0.00000000000E+00 0.  1.
<scales pt_clust_3="32.71524" pt_clust_4="206.99949" pt_clust_5="14000.00000" pt_clust_6="48.99049"></scales>
<clustering>
<clus scale="   32.715">  1  3  2 -1</clus>
<clus scale="   48.990">  2  6  1 -1</clus>
<clus scale="  206.999">  1  4  2 -1</clus>
<clus scale="   32.715">  1  3  2 -1</clus>
</clustering>
</event>
<event>
 6    0  0.4469832E+002  0.1410254E+03  0.7546771E-02  0.1211956E+00
         21   -1    0    0  502  501  0.00000000000E+00  0.00000000000E+00  0.22088875573E+03  0.22088875573E+03  0.00000000000E+00 0. -1.
         21   -1    0    0  504  502 -0.00000000000E+00 -0.00000000000E+00 -0.69563991531E+03  0.69563991531E+03  0.00000000000E+00 0. -1.
         21    1    1    2  503  501  0.24964925680E+02  0.19287645336E+02  0.87479684103E+02  0.92994386430E+02  0.00000000000E+00 0. -1.
         21    1    1    2  504  506 -0.43718027576E+02 -0.14141988742E+02 -0.36898622533E+03  0.37183611479E+03  0.00000000000E+00 0. -1.
         21    1    1    2  505  503  0.11828123453E+03  0.26214741079E+02  0.89295386244E+02  0.15050358499E+03  0.00000000000E+00 0. -1.
         21    1    1    2  506  505 -0.99528132631E+02 -0.31360397672E+02 -0.28254000460E+03  0.30119458482E+03  0.00000000000E+00 0. -1.
<scales pt_clust_3="31.54775" pt_clust_4="45.62481" pt_clust_5="14000.00000" pt_clust_6="141.02537"></scales>
<clustering>
<clus scale="   31.548">  1  3  2 -1</clus>
<clus scale="   45.625">  2  4  1 -1</clus>
<clus scale="  141.025">  2  6  1 -1</clus>
<clus scale="   31.548">  1  3  2 -1</clus>
</clustering>
</event>
<event>
 6    0  0.4469832E+002  0.1953383E+03  0.7546771E-02  0.1153733E+00
         21   -1    0    0  503  501  0.00000000000E+00  0.00000000000E+00  0.35772860124E+03  0.35772860124E+03  0.00000000000E+00 0.  1.
         21   -1    0    0  504  502 -0.00000000000E+00 -0.00000000000E+00 -0.12345446007E+04  0.12345446007E+04  0.00000000000E+00 0.  1.
         21    1    1    2  503  505 -0.19781389124E+02 -0.38768487809E+02  0.70718035336E+02  0.83038181124E+02  0.00000000000E+00 0.  1.
         21    1    1    2  504  506 -0.16953311402E+03 -0.66817819969E+02 -0.11269872689E+04  0.11416244575E+04  0.00000000000E+00 0.  1.
         21    1    1    2  505  502  0.28103491382E+01 -0.32618515428E+02 -0.37568742004E+02  0.49832479235E+02  0.00000000000E+00 0.  1.
         21    1    1    2  506  501  0.18650415401E+03  0.13820482321E+03  0.21702197607E+03  0.31777808407E+03  0.00000000000E+00 0.  1.
<scales pt_clust_3="43.66733" pt_clust_4="14000.00000" pt_clust_5="32.73936" pt_clust_6="195.33828"></scales>
<clustering>
<clus scale="   32.739">  2  5  1 -1</clus>
<clus scale="   43.667">  1  3  2 -1</clus>
<clus scale="  195.338">  1  6  2 -1</clus>
<clus scale="   43.667">  1  3  2 -1</clus>
</clustering>
</event>
<event>
 6    0  0.4469832E+002  0.9548085E+02  0.7546771E-02  0.1290097E+00
         21   -1    0    0  504  501  0.00000000000E+00  0.00000000000E+00  0.15246524058E+04  0.15246524058E+04  0.00000000000E+00 0. -1.
         21   -1    0    0  503  502 -0.00000000000E+00 -0.00000000000E+00 -0.39521783806E+02  0.39521783806E+02  0.00000000000E+00 0. -1.
         21    1    1    2  503  505 -0.12677740239E+02  0.95028032671E+02  0.57800413335E+02  0.11194614720E+03  0.00000000000E+00 0. -1.
         21    1    1    2  504  506 -0.65138454305E+02 -0.88021521866E+02  0.48582903811E+03  0.49801672744E+03  0.00000000000E+00 0. -1.
         21    1    1    2  505  501  0.35621451798E+02 -0.21413019768E+01  0.87219904684E+03  0.87292877734E+03  0.00000000000E+00 0. -1.
         21    1    1    2  506  502  0.42194742745E+02 -0.48652088287E+01  0.69302123716E+02  0.81282537632E+02  0.00000000000E+00 0. -1.
<scales pt_clust_3="95.48085" pt_clust_4="14000.00000" pt_clust_5="35.68575" pt_clust_6="46.58907"></scales>
<clustering>
<clus scale="   35.686">  1  5  2 -1</clus>
<clus scale="   46.589">  2  6  1 -1</clus>
<clus scale="   95.481">  2  3  1 -1</clus>
<clus scale="   35.686">  1  3  2 -1</clus>
</clustering>
</event>
<event>
 6    0  0.4469832E+002  0.2608967E+03  0.7546771E-02  0.1106606E+00
         21   -1    0    0  506  501  0.00000000000E+00  0.00000000000E+00  0.95169040866E+02  0.95169040866E+02  0.00000000000E+00 0. -1.
         21   -1    0    0  504  502 -0.00000000000E+00 -0.00000000000E+00 -0.11187926573E+04  0.11187926573E+04  0.00000000000E+00 0. -1.
         21    1    1    2  503  501 -0.23438704509E+03 -0.47035695900E+02 -0.35032932093E+03  0.42412294998E+03  0.00000000000E+00 0. -1.
         21    1    1    2  504  505  0.55874965355E+02 -0.56688730770E+02 -0.18084855110E+03  0.19759003614E+03  0.00000000000E+00 0. -1.
         21    1    1    2  505  503  0.19401531407E+03 -0.31450924125E+01 -0.41871357500E+03  0.46148986077E+03  0.00000000000E+00 0. -1.
         21    1    1    2  506  502 -0.15503234336E+02  0.10686951908E+03 -0.73732169427E+02  0.13075885130E+03  0.00000000000E+00 0. -1.
<scales pt_clust_3="243.27092" pt_clust_4="60.37568" pt_clust_5="60.37568" pt_clust_6="107.98817"></scales>
<clustering>
<clus scale="   60.376">  4  5 -1 -1</clus>
<clus scale="  107.988">  1  6  2 -1</clus>
<clus scale="  243.271">  1  3  2 -1</clus>
<clus scale="  107.988">  1  3  2 -1</clus>
</clustering>
</event>
<event>
 6    0  0.4469832E+002  0.1622218E+03  0.7546771E-02  0.1186211E+00
         21   -1    0    0  505  501  0.00000000000E+00  0.00000000000E+00  0.31697489337E+03  0.31697489337E+03  0.00000000000E+00 0.  1.
         21   -1    0    0  504  502 -0.00000000000E+00 -0.00000000000E+00 -0.55371135435E+03  0.55371135435E+03  0.00000000000E+00 0. -1.
         21    1    1    2  503  506  0.13821701701E+03  0.86978745861E+01 -0.40689735059E+03  0.42981978867E+03  0.00000000000E+00 0. -1.
         21    1    1    2  504  503  0.47766622082E+02 -0.90354904506E+01 -0.29050002203E+02  0.56632083670E+02  0.00000000000E+00 0.  1.
         21    1    1    2  505  502 -0.32993475029E+02 -0.59693401977E+02 -0.50799553104E+02  0.85043907658E+02  0.00000000000E+00 0.  1.
         21    1    1    2  506  501 -0.15299016406E+03  0.60031017842E+02  0.25001044493E+03  0.29919046772E+03  0.00000000000E+00 0.  1.
<scales pt_clust_3="162.22180" pt_clust_4="48.61368" pt_clust_5="66.46804" pt_clust_6="14000.00000"></scales>
<clustering>
<clus scale="   48.614">  2  4  1 -1</clus>
<clus scale="   66.468">  2  5  1 -1</clus>
<clus scale="  162.222">  2  3  1 -1</clus>
<clus scale="  162.222">  1  3  2 -1</clus>
</clustering>
</event>
<event>
 6    0  0.4469832E+002  0.1289863E+03  0.7546771E-02  0.1228968E+00
         21   -1    0    0  506  501  0.00000000000E+00  0.00000000000E+00  0.10385492722E+03  0.10385492722E+03  0.00000000000E+00 0. -1.
         21   -1    0    0  504  502 -0.00000000000E+00 -0.00000000000E+00 -0.41987295987E+03  0.41987295987E+03  0.00000000000E+00 0. -1.
         21    1    1    2  503  505 -0.77690864983E+02  0.18298637028E+02 -0.24266382842E+03  0.25545340915E+03  0.00000000000E+00 0. -1.
         21    1    1    2  504  503 -0.34217354949E+02  0.37706565824E+02 -0.83033099144E+02  0.97401786634E+02  0.00000000000E+00 0. -1.
         21    1    1    2  505  501  0.53586938013E+02 -0.88281919682E+02 -0.15064020026E+01  0.10328371854E+03  0.00000000000E+00 0. -1.
         21    1    1    2  506  502  0.58321281919E+02  0.32276716829E+02  0.11185296923E+02  0.67588972778E+02  0.00000000000E+00 0. -1.
<scales pt_clust_3="42.02343" pt_clust_4="42.02343" pt_clust_5="117.76760" pt_clust_6="66.65702"></scales>
<clustering>
<clus scale="   42.023">  3  4 -1 -1</clus>
<clus scale="   66.657">  1  6  2 -1</clus>
<clus scale="  117.768">  1  5  2 -1</clus>
<clus scale="   66.657">  1  3  2 -1</clus>
</clustering>
</event>
<event>
 6    0  0.4469832E+002  0.9098753E+02  0.7546771E-02  0.1300478E+00
         21   -1    0    0  506  501  0.00000000000E+00  0.00000000000E+00  0.21249610917E+03  0.21249610917E+03  0.00000000000E+00 0. -1.
         21   -1    0    0  505  502 -0.00000000000E+00 -0.00000000000E+00 -0.33267913946E+03  0.33267913946E+03  0.00000000000E+00 0.  1.
         21    1    1    2  503  504  0.50819628360E+02 -0.47891600188E+02  0.53165544892E+02  0.87765683265E+02  0.00000000000E+00 0. -1.
         21    1    1    2  504  502  0.30020173565E+02  0.57708417208E+02 -0.65619352927E+02  0.92397898873E+02  0.00000000000E+00 0. -1.
         21    1    1    2  505  501 -0.90960026327E+02  0.23518311715E+02 -0.22438768396E+03  0.24326255382E+03  0.00000000000E+00 0.  1.
         21    1    1    2  506  503  0.10120224402E+02 -0.33335128735E+02  0.11665846170E+03  0.12174911267E+03  0.00000000000E+00 0. -1.
<scales pt_clust_3="14000.00000" pt_clust_4="61.57511" pt_clust_5="90.98753" pt_clust_6="34.83748"></scales>
<clustering>
<clus scale="   34.837">  1  6  2 -1</clus>
<clus scale="   61.575">  2  4  1 -1</clus>
<clus scale="   90.988">  2  5  1 -1</clus>
<clus scale="   34.837">  1  3  2 -1</clus>
</clustering>
</event>
<event>
 6    0  0.4469832E+002  0.7150322E+02  0.7546771E-02  0.1355055E+00
         21   -1    0    0  506  501  0.00000000000E+00  0.00000000000E+00  0.10022495622E+04  0.10022495622E+04  0.00000000000E+00 0. -1.
         21   -1    0    0  505  502 -0.00000000000E+00 -0.00000000000E+00 -0.24090565243E+03  0.24090565243E+03  0.00000000000E+00 0. -1.
         21    1    1    2  503  501 -0.44014198050E+02  0.54216636290E+02  0.62192737213E+03  0.62583572084E+03  0.00000000000E+00 0. -1.
         21    1    1    2  504  502 -0.12582605232E+02  0.37173782892E+02 -0.76061364428E+02  0.85589387471E+02  0.00000000000E+00 0. -1.
         21    1    1    2  505  503 -0.11374199556E+02 -0.10059761926E+03  0.35881654490E+03  0.37282511491E+03  0.00000000000E+00 0. -1.
         21    1    1    2  506  504  0.67971002838E+02  0.92072000820E+01 -0.14333864284E+03  0.15890499140E+03  0.00000000000E+00 0. -1.
<scales pt_clust_3="70.28265" pt_clust_4="39.24554" pt_clust_5="14000.00000" pt_clust_6="71.50322"></scales>
<clustering>
<clus scale="   39.246">  2  4  1 -1</clus>
<clus scale="   70.283">  1  3  2 -1</clus>
<clus scale="   71.503">  2  6  1 -1</clus>
<clus scale="   70.283">  1  3  2 -1</clus>
</clustering>
</event>
<event>
 6    0  0.4469832E+002  0.5911024E+02  0.7546771E-02  0.1401604E+00
         21   -1    0    0  505  501  0.00000000000E+00  0.00000000000E+00  0.40940579803E+03  0.40940579803E+03  0.00000000000E+00 0. -1.
         21   -1    0    0  503  502 -0.00000000000E+00 -0.00000000000E+00 -0.62841971108E+03  0.62841971108E+03  0.00000000000E+00 0. -1.
         21    1    1    2  503  504 -0.24266488141E+02  0.37122004490E+02 -0.50830782828E+03  0.51023891850E+03  0.00000000000E+00 0. -1.
         21    1    1    2  504  501 -0.83882093467E+02 -0.66111132265E+02 -0.44298101594E+02  0.11562529662E+03  0.00000000000E+00 0. -1.
         21    1    1    2  505  506  0.55261372672E+02  0.17253445894E+02  0.35047006299E+03  0.35521932064E+03  0.00000000000E+00 0. -1.
         21    1    1    2  506  502  0.52887208936E+02  0.11735681880E+02 -0.16878046167E+02  0.56741973358E+02  0.00000000000E+00 0.  1.
<scales pt_clust_3="44.34981" pt_clust_4="59.11024" pt_clust_5="14000.00000" pt_clust_6="50.97755"></scales>
<clustering>
<clus scale="   44.350">  2  3  1 -1</clus>
<clus scale="   50.978">  2  6  1 -1</clus>
<clus scale="   59.110">  2  4  1 -1</clus>
<clus scale="   59.110">  1  3  2 -1</clus>
</clustering>
</event>
<event>
 6    0  0.4469832E+002  0.1486442E+03  0.7546771E-02  0.1202149E+00
         21   -1    0    0  503  501  0.00000000000E+00  0.00000000000E+00  0.12632393513E+04  0.12632393513E+04  0.00000000000E+00 0.  1.
         21   -1    0    0  506  502 -0.00000000000E+00 -0.00000000000E+00 -0.14962529023E+03  0.14962529023E+03  0.00000000000E+00 0.  1.
         21    1    1    2  503  502  0.25583961709E+02  0.25900514987E+02  0.28339612329E+02  0.46135771374E+02  0.00000000000E+00 0. -1.
         21    1    1    2  504  505 -0.30838672051E+02  0.42579169605E+02 -0.53993211238E+02  0.75360972910E+02  0.00000000000E+00 0.  1.
         21    1    1    2  505  501  0.13600641423E+02 -0.14416829877E+03  0.11907032535E+04  0.11994764331E+04  0.00000000000E+00 0.  1.
         21    1    1    2  506  504 -0.83459310808E+01  0.75688614179E+02 -0.51435593550E+02  0.91891464052E+02  0.00000000000E+00 0.  1.
<scales pt_clust_3="36.40571" pt_clust_4="30.36478" pt_clust_5="144.08216" pt_clust_6="30.36478"></scales>
<clustering>
<clus scale="   30.365">  4  6 -1 -1</clus>
<clus scale="   36.406">  2  3  1 -1</clus>
<clus scale="  144.082">  1  5  2 -1</clus>
<clus scale="  144.082">  1  3  2 -1</clus>
</clustering>
</event>
<event>
 6    0  0.4469832E+002  0.8260084E+02  0.7546771E-02  0.1321829E+00
         21   -1    0    0  503  501  0.00000000000E+00  0.00000000000E+00  0.11269819775E+03  0.11269819775E+03  0.00000000000E+00 0.  1.
         21   -1    0    0  504  502 -0.00000000000E+00 -0.00000000000E+00 -0.45496215690E+03  0.45496215690E+03  0.00000000000E+00 0.  1.
         21    1    1    2  503  502  0.28158079953E+02  0.67051243167E+02 -0.77098283152E+02  0.10598533833E+03  0.00000000000E+00 0.  1.
         21    1    1    2  504  506 -0.40009855017E+02  0.29251940506E+02 -0.24429567511E+03  0.24927262465E+03  0.00000000000E+00 0.  1.
         21    1    1    2  505  501 -0.45124596801E+02 -0.72103539589E+02  0.64642742405E+02  0.10683554560E+03  0.00000000000E+00 0.  1.
         21    1    1    2  506  505  0.56976371864E+02 -0.24199644085E+02 -0.85512743295E+02  0.10556684608E+03  0.00000000000E+00 0.  1.
<scales pt_clust_3="82.60084" pt_clust_4="49.56273" pt_clust_5="14000.00000" pt_clust_6="40.08966"></scales>
<clustering>
<clus scale="   49.563">  2  4  1 -1</clus>
<clus scale="   40.090">  2  6  1 -1</clus>
<clus scale="   82.601">  2  3  1 -1</clus>
<clus scale="   82.601">  1  3  2 -1</clus>
</clustering>
</event>
<event>
 6    0  0.4469832E+002  0.1417038E+03  0.7546771E-02  0.1211055E+00
         21   -1    0    0  506  501  0.00000000000E+00  0.00000000000E+00  0.44195648302E+03  0.44195648302E+03  0.00000000000E+00 0. -1.
         21   -1    0    0  505  502 -0.00000000000E+00 -0.00000000000E+00 -0.27128865042E+03  0.27128865042E+03  0.00000000000E+00 0. -1.
         21    1    1    2  503  502 -0.66664424208E+02  0.11957506534E+02 -0.42275475965E+02  0.79839484502E+02  0.00000000000E+00 0. -1.
         21    1    1    2  504  501  0.14040700719E+03  0.30286709913E+02  0.33639681930E+03  0.36577893939E+03  0.00000000000E+00 0. -1.
         21    1    1    2  505  504  0.50132937866E+02  0.11102106550E+02 -0.12241599113E+03  0.13274879703E+03  0.00000000000E+00 0. -1.
         21    1    1    2  506  503 -0.12387552084E+03 -0.53346322997E+02 -0.10375196057E+01  0.13487791253E+03  0.00000000000E+00 0. -1.
<scales pt_clust_3="48.33157" pt_clust_4="141.70376" pt_clust_5="51.34752" pt_clust_6="14000.00000"></scales>
<clustering>
<clus scale="   51.348">  2  5  1 -1</clus>
<clus scale="   48.332">  2  3  1 -1</clus>
<clus scale="  141.704">  1  4  2 -1</clus>
<clus scale="  141.704">  1  3  2 -1</clus>
</clustering>
</event>
<event>
 6    0  0.4469832E+002  0.1523054E+03  0.7546771E-02  0.1197668E+00
         21   -1    0    0  504  501  0.00000000000E+00  0.00000000000E+00  0.13704057073E+04  0.13704057073E+04  0.00000000000E+00 0. -1.
         21   -1    0    0  505  502 -0.00000000000E+00 -0.00000000000E+00 -0.21098428610E+03  0.21098428610E+03  0.00000000000E+00 0.  1.
         21    1    1    2  503  502  0.26784011873E+02  0.10124791521E+03 -0.10930889263E+03  0.15138347874E+03  0.00000000000E+00 0.  1.
         21    1    1    2  504  506  0.32959310923E+02  0.28297957496E+02  0.87837975316E+03  0.87945328548E+03  0.00000000000E+00 0. -1.
         21    1    1    2  505  501 -0.38533820306E+02 -0.17002983168E+03  0.44581067352E+03  0.47868795221E+03  0.00000000000E+00 0. -1.
         21    1    1    2  506  503 -0.21209502490E+02  0.40483958977E+02 -0.55460112795E+02  0.71865277023E+02  0.00000000000E+00 0.  1.
<scales pt_clust_3="33.50331" pt_clust_4="43.44066" pt_clust_5="143.61321" pt_clust_6="33.50331"></scales>
<clustering>
<clus scale="   33.503">  3  6 -1 -1</clus>
<clus scale="   43.441">  1  4  2 -1</clus>
<clus scale="  143.613">  1  5  2 -1</clus>
<clus scale="   43.441">  1  3  2 -1</clus>
</clustering>
</event>
<event>
 6    0  0.4469832E+002  0.9434381E+02  0.7546771E-02  0.1292661E+00
         21   -1    0    0  506  501  0.00000000000E+00  0.00000000000E+00  0.34290198012E+04  0.34290198012E+04  0.00000000000E+00 0.  1.
         21   -1    0    0  503  502 -0.00000000000E+00 -0.00000000000E+00 -0.21477492652E+02  0.21477492652E+02  0.00000000000E+00 0.  1.
         21    1    1    2  503  504 -0.34438744886E+02  0.10716471846E+02  0.21383600523E+02  0.41930040418E+02  0.00000000000E+00 0.  1.
         21    1    1    2  504  505  0.30436122499E+02  0.26223558275E+02  0.57951529398E+02  0.70515333942E+02  0.00000000000E+00 0.  1.
         21    1    1    2  505  501  0.92337902552E+02 -0.28427128962E+02  0.28526253628E+04  0.28542609990E+04  0.00000000000E+00 0.  1.
         21    1    1    2  506  502 -0.88335280166E+02 -0.85129011587E+01  0.47558181584E+03  0.48379092050E+03  0.00000000000E+00 0.  1.
<scales pt_clust_3="36.06757" pt_clust_4="34.09864" pt_clust_5="94.34381" pt_clust_6="14000.00000"></scales>
<clustering>
<clus scale="   36.068">  2  3  1 -1</clus>
<clus scale="   34.099">  2  4  1 -1</clus>
<clus scale="   94.344">  1  5  2 -1</clus>
<clus scale="   94.344">  1  3  2 -1</clus>
</clustering>
</event>
<event>
 6    0  0.4469832E+002  0.7733017E+02  0.7546771E-02  0.1336803E+00
         21   -1    0    0  505  501  0.00000000000E+00  0.00000000000E+00  0.81848430367E+03  0.81848430367E+03  0.00000000000E+00 0.  1.
         21   -1    0    0  506  502 -0.00000000000E+00 -0.00000000000E+00 -0.90517886318E+02  0.90517886318E+02  0.00000000000E+00 0.  1.
         21    1    1    2  503  501  0.80924237543E+02 -0.28775924908E+02  0.10955586918E+03  0.13920946285E+03  0.00000000000E+00 0.  1.
         21    1    1    2  504  502  0.10039232175E+02  0.35400888474E+02  0.15046234611E+02  0.39754223215E+02  0.00000000000E+00 0. -1.
         21    1    1    2  505  504 -0.52228510604E+02  0.57035172730E+02  0.64162689118E+03  0.64627076039E+03  0.00000000000E+00 0.  1.
         21    1    1    2  506  503 -0.38734959113E+02 -0.63660136297E+02 -0.38262577617E+02  0.83767743534E+02  0.00000000000E+00 0.  1.
<scales pt_clust_3="77.33017" pt_clust_4="36.79686" pt_clust_5="14000.00000" pt_clust_6="47.46132"></scales>
<clustering>
<clus scale="   36.797">  2  4  1 -1</clus>
<clus scale="   47.461">  2  6  1 -1</clus>
<clus scale="   77.330">  2  3  1 -1</clus>
<clus scale="   77.330">  1  3  2 -1</clus>
</clustering>
</event>
<event>
 6    0  0.4469832E+002  0.1428561E+03  0.7546771E-02  0.1209537E+00
         21   -1    0    0  503  501  0.00000000000E+00  0.00000000000E+00  0.22970076407E+04  0.22970076407E+04  0.00000000000E+00 0.  1.
         21   -1    0    0  501  502 -0.00000000000E+00 -0.00000000000E+00 -0.35059333644E+02  0.35059333644E+02  0.00000000000E+00 0. -1.
         21    1    1    2  503  504  0.24810469632E+02 -0.58723150836E+02  0.13286439564E+04  0.13301724440E+04  0.00000000000E+00 0.  1.
         21    1    1    2  504  506  0.10621503025E+03  0.14842977093E+02  0.78051344595E+03  0.78784718437E+03  0.00000000000E+00 0.  1.
         21    1    1    2  505  502 -0.75926654092E+02 -0.50841370170E+01  0.73785175050E+02  0.10599508153E+03  0.00000000000E+00 0. -1.
         21    1    1    2  506  505 -0.55098845785E+02  0.48964310761E+02  0.79005729634E+02  0.10805226444E+03  0.00000000000E+00 0. -1.
<scales pt_clust_3="63.74926" pt_clust_4="130.49834" pt_clust_5="57.20291" pt_clust_6="57.20291"></scales>
<clustering>
<clus scale="   57.203">  5  6 -1 -1</clus>
<clus scale="   63.749">  1  3  2 -1</clus>
<clus scale="  130.498">  1  4  2 -1</clus>
<clus scale="   63.749">  1  3  2 -1</clus>
</clustering>
</event>
<event>
 6    0  0.4469832E+002  0.1263823E+03  0.7546771E-02  0.1232925E+00
         21   -1    0    0  505  501  0.00000000000E+00  0.00000000000E+00  0.10087495177E+04  0.10087495177E+04  0.00000000000E+00 0.  1.
         21   -1    0    0  506  502 -0.00000000000E+00 -0.00000000000E+00 -0.95531221432E+02  0.95531221432E+02  0.00000000000E+00 0.  1.
         21    1    1    2  503  502  0.32805950151E+02  0.22694022195E+02 -0.35419045997E+02  0.53345644883E+02  0.00000000000E+00 0. -1.
         21    1    1    2  504  501 -0.18522023199E+02 -0.12250023860E+03  0.77994595503E+02  0.14639853390E+03  0.00000000000E+00 0.  1.
         21    1    1    2  505  503  0.28922743281E+02  0.12343731714E+03  0.83289048518E+03  0.84248433614E+03  0.00000000000E+00 0.  1.
         21    1    1    2  506  504 -0.43206670233E+02 -0.23631100739E+02  0.37752261588E+02  0.62052224213E+02  0.00000000000E+00 0.  1.
<scales pt_clust_3="39.89046" pt_clust_4="126.38231" pt_clust_5="14000.00000" pt_clust_6="39.83533"></scales>
<clustering>
<clus scale="   39.890">  2  3  1 -1</clus>
<clus scale="   39.835">  2  6  1 -1</clus>
<clus scale="  126.382">  2  4  1 -1</clus>
<clus scale="  126.382">  1  3  2 -1</clus>
</clustering>
</event>
<event>
 6    0  0.4469832E+002  0.1233545E+03  0.7546771E-02  0.1237664E+00
         21   -1    0    0  505  501  0.00000000000E+00  0.00000000000E+00  0.16697221286E+03  0.16697221286E+03  0.00000000000E+00 0.  1.
         21   -1    0    0  504  502 -0.00000000000E+00 -0.00000000000E+00 -0.12600909582E+04  0.12600909582E+04  0.00000000000E+00 0. -1.
         21    1    1    2  503  501  0.31132187077E+02  0.72051079506E+02  0.71801213622E+02  0.10637662059E+03  0.00000000000E+00 0.  1.
         21    1    1    2  504  506 -0.65494735502E+02 -0.10739122242E+03 -0.49977649070E+03  0.51536295530E+03  0.00000000000E+00 0. -1.
         21    1    1    2  505  502  0.55437315474E+02 -0.22118473866E+01 -0.72746202763E+03  0.72957466367E+03  0.00000000000E+00 0. -1.
         21    1    1    2  506  503 -0.21074767049E+02  0.37551990299E+02  0.62318559373E+02  0.75748931503E+02  0.00000000000E+00 0.  1.
<scales pt_clust_3="41.02422" pt_clust_4="110.22123" pt_clust_5="55.48142" pt_clust_6="41.02422"></scales>
<clustering>
<clus scale="   41.024">  3  6 -1 -1</clus>
<clus scale="   55.481">  2  5  1 -1</clus>
<clus scale="  110.221">  2  4  1 -1</clus>
<clus scale="  123.355">  1  3  2 -1</clus>
</clustering>
</event>
<event>
 6    0  0.4469832E+002  0.8978004E+02  0.7546771E-02  0.1303385E+00
         21   -1    0    0  502  501  0.00000000000E+00  0.00000000000E+00  0.17277589333E+04  0.17277589333E+04  0.00000000000E+00 0.  1.
         21   -1    0    0  505  502 -0.00000000000E+00 -0.00000000000E+00 -0.90573496652E+02  0.90573496652E+02  0.00000000000E+00 0. -1.
         21    1    1    2  503  504  0.62239237878E+02 -0.68937910004E+02  0.78831441113E+02  0.12182181363E+03  0.00000000000E+00 0. -1.
         21    1    1    2  504  506 -0.88444204927E+02 -0.76541499001E+01  0.10986794653E+04  0.11022601920E+04  0.00000000000E+00 0.  1.
         21    1    1    2  505  503  0.25519019233E+02  0.41329403551E+02 -0.57843003517E+02  0.75532463195E+02  0.00000000000E+00 0. -1.
         21    1    1    2  506  501  0.68594781598E+00  0.35262656354E+02  0.51751753373E+03  0.51871796111E+03  0.00000000000E+00 0.  1.
<scales pt_clust_3="14000.00000" pt_clust_4="89.78004" pt_clust_5="48.79523" pt_clust_6="35.26933"></scales>
<clustering>
<clus scale="   35.269">  1  6  2 -1</clus>
<clus scale="   48.795">  2  5  1 -1</clus>
<clus scale="   89.780">  1  4  2 -1</clus>
<clus scale="   35.269">  1  3  2 -1</clus>
</clustering>
</event>
<event>
 6    0  0.4469832E+002  0.1376437E+03  0.7546771E-02  0.1216535E+00
         21   -1    0    0  506  501  0.00000000000E+00  0.00000000000E+00  0.11732450068E+03  0.11732450068E+03  0.00000000000E+00 0.  1.
         21   -1    0    0  503  502 -0.00000000000E+00 -0.00000000000E+00 -0.53414165665E+03  0.53414165665E+03  0.00000000000E+00 0. -1.
         21    1    1    2  503  505  0.76824257233E+02  0.14636846144E+02 -0.22091479687E+03  0.23434920790E+03  0.00000000000E+00 0. -1.
         21    1    1    2  504  501 -0.50095155206E+02 -0.92430929885E+02  0.61122547917E+02  0.12160989778E+03  0.00000000000E+00 0.  1.
         21    1    1    2  505  504  0.25672826160E+02  0.55803957556E+02 -0.21820149077E+03  0.22668274362E+03  0.00000000000E+00 0. -1.
         21    1    1    2  506  502 -0.52401928187E+02  0.21990126185E+02 -0.38823416251E+02  0.68824308037E+02  0.00000000000E+00 0.  1.
<scales pt_clust_3="59.00040" pt_clust_4="121.18578" pt_clust_5="59.00040" pt_clust_6="56.82893"></scales>
<clustering>
<clus scale="   56.829">  1  6  2 -1</clus>
<clus scale="   59.000">  3  5 -1 -1</clus>
<clus scale="  121.186">  1  4  2 -1</clus>
<clus scale="   56.829">  1  3  2 -1</clus>
</clustering>
</event>
<event>
 6    0  0.4469832E+002  0.7954208E+02  0.7546771E-02  0.1330356E+00
         21   -1    0    0  504  501  0.00000000000E+00  0.00000000000E+00  0.58603550008E+02  0.58603550008E+02  0.00000000000E+00 0. -1.
         21   -1    0    0  503  502 -0.00000000000E+00 -0.00000000000E+00 -0.17801509002E+04  0.17801509002E+04  0.00000000000E+00 0. -1.
         21    1    1    2  503  505 -0.19470881404E+02  0.84612473013E+02 -0.10665597527E+04  0.10700878898E+04  0.00000000000E+00 0. -1.
         21    1    1    2  504  502  0.97466110474E+02 -0.15801432015E+02 -0.40212113143E+03  0.41406609652E+03  0.00000000000E+00 0. -1.
         21    1    1    2  505  506 -0.16661909678E+02 -0.66183431833E+02 -0.27947849339E+03  0.28769096988E+03  0.00000000000E+00 0. -1.
         21    1    1    2  506  501 -0.61333319393E+02 -0.26276091645E+01  0.26612027288E+02  0.66909494050E+02  0.00000000000E+00 0. -1.
<scales pt_clust_3="79.54208" pt_clust_4="68.70377" pt_clust_5="14000.00000" pt_clust_6="61.38958"></scales>
<clustering>
<clus scale="   61.390">  1  6  2 -1</clus>
<clus scale="   68.704">  1  4  2 -1</clus>
<clus scale="   79.542">  2  3  1 -1</clus>
<clus scale="   61.390">  1  3  2 -1</clus>
</clustering>
</event>
<event>
 6    0  0.4469832E+002  0.1483408E+03  0.7546771E-02  0.1202527E+00
         21   -1    0    0  504  501  0.00000000000E+00  0.00000000000E+00  0.67664000539E+02  0.67664000539E+02  0.00000000000E+00 0. -1.
         21   -1    0    0  505  502 -0.00000000000E+00 -0.00000000000E+00 -0.56322102231E+03  0.56322102231E+03  0.00000000000E+00 0. -1.
         21    1    1    2  503  501  0.20761082948E+02  0.35773623221E+02 -0.18773926451E+02  0.45422846651E+02  0.00000000000E+00 0. -1.
         21    1    1    2  504  502  0.39208500578E+02  0.43092477327E+01  0.16678049948E+02  0.42825617143E+02  0.00000000000E+00 0.  1.
         21    1    1    2  505  506 -0.13270864630E+03 -0.63571303071E+02 -0.35865203904E+03  0.38766503645E+03  0.00000000000E+00 0. -1.
         21    1    1    2  506  503  0.72739062775E+02  0.23488432118E+02 -0.13480910623E+03  0.15497152261E+03  0.00000000000E+00 0. -1.
<scales pt_clust_3="50.29044" pt_clust_4="39.44460" pt_clust_5="133.00045" pt_clust_6="50.29044"></scales>
<clustering>
<clus scale="   39.445">  1  4  2 -1</clus>
<clus scale="   50.290">  3  6 -1 -1</clus>
<clus scale="  133.000">  2  5  1 -1</clus>
<clus scale="   39.445">  1  3  2 -1</clus>
</clustering>
</event>
<event>
 6    0  0.4469832E+002  0.8242683E+02  0.7546771E-02  0.1322302E+00
         21   -1    0    0  502  501  0.00000000000E+00  0.00000000000E+00  0.18490458422E+04  0.18490458422E+04  0.00000000000E+00 0.  1.
         21   -1    0    0  503  502 -0.00000000000E+00 -0.00000000000E+00 -0.30728592358E+03  0.30728592358E+03  0.00000000000E+00 0. -1.
         21    1    1    2  503  505  0.38978013277E+02  0.72952231632E+02 -0.25710618334E+03  0.27008314115E+03  0.00000000000E+00 0. -1.
         21    1    1    2  504  506 -0.55198121626E+02 -0.10951369015E+02  0.13842460010E+04  0.13853893880E+04  0.00000000000E+00 0.  1.
         21    1    1    2  505  504  0.28447865691E+01 -0.90883127373E+02  0.61332909194E+01  0.91134257605E+02  0.00000000000E+00 0. -1.
         21    1    1    2  506  501  0.13375321780E+02  0.28882264756E+02  0.40848681006E+03  0.40972497903E+03  0.00000000000E+00 0. -1.
<scales pt_clust_3="14000.00000" pt_clust_4="45.55575" pt_clust_5="82.42683" pt_clust_6="31.82899"></scales>
<clustering>
<clus scale="   31.829">  1  6  2 -1</clus>
<clus scale="   45.556">  1  4  2 -1</clus>
<clus scale="   82.427">  1  5  2 -1</clus>
<clus scale="   31.829">  1  3  2 -1</clus>
</clustering>
</event>
<event>
 6    0  0.4469832E+002  0.1069005E+03  0.7546771E-02  0.1266420E+00
         21   -1    0    0  504  501  0.00000000000E+00  0.00000000000E+00  0.82411396153E+03  0.82411396153E+03  0.00000000000E+00 0. -1.
         21   -1    0    0  503  502 -0.00000000000E+00 -0.00000000000E+00 -0.17494850770E+03  0.17494850770E+03  0.00000000000E+00 0. -1.
         21    1    1    2  503  505 -0.20784739546E+02 -0.22466008269E+02  0.21059917777E+02  0.37151676440E+02  0.00000000000E+00 0.  1.
         21    1    1    2  504  506  0.22674477601E+02 -0.28778766806E+02  0.70123532419E+03  0.70219180374E+03  0.00000000000E+00 0. -1.
         21    1    1    2  505  501 -0.11445816008E+03  0.29051345844E+02  0.92849124100E+01  0.11845193414E+03  0.00000000000E+00 0. -1.
         21    1    1    2  506  502  0.11256842202E+03  0.22193429231E+02 -0.82414700549E+02  0.14126705491E+03  0.00000000000E+00 0. -1.
<scales pt_clust_3="30.60599" pt_clust_4="36.65190" pt_clust_5="106.90047" pt_clust_6="14000.00000"></scales>
<clustering>
<clus scale="   30.606">  2  3  1 -1</clus>
<clus scale="   36.652">  1  4  2 -1</clus>
<clus scale="  106.900">  1  5  2 -1</clus>
<clus scale="   36.652">  1  3  2 -1</clus>
</clustering>
</event>
<event>
 6    0  0.4469832E+002  0.1684367E+03  0.7546771E-02  0.1179488E+00
         21   -1    0    0  506  501  0.00000000000E+00  0.00000000000E+00  0.13171553808E+04  0.13171553808E+04  0.00000000000E+00 0. -1.
         21   -1    0    0  505  502 -0.00000000000E+00 -0.00000000000E+00 -0.37659478920E+03  0.37659478920E+03  0.00000000000E+00 0.  1.
         21    1    1    2  503  504 -0.24892595355E+02 -0.22426111412E+02 -0.39925844143E+02  0.52121442873E+02  0.00000000000E+00 0. -1.
         21    1    1    2  504  501  0.10420277490E+03  0.25538358564E+01  0.11782329146E+04  0.11828345368E+04  0.00000000000E+00 0. -1.
         21    1    1    2  505  503 -0.13091397047E+03  0.76755207184E+01 -0.30893104736E+03  0.33561253449E+03  0.00000000000E+00 0.  1.
         21    1    1    2  506  502  0.51603790927E+02  0.12196754837E+02  0.11118456849E+03  0.12318165584E+03  0.00000000000E+00 0. -1.
<scales pt_clust_3="32.53554" pt_clust_4="155.65245" pt_clust_5="32.53554" pt_clust_6="53.02558"></scales>
<clustering>
<clus scale="   32.536">  3  5 -1 -1</clus>
<clus scale="   53.026">  1  6  2 -1</clus>
<clus scale="  155.652">  1  4  2 -1</clus>
<clus scale="   53.026">  1  3  2 -1</clus>
</clustering>
</event>
<event>
 6    0  0.4469832E+002  0.1384950E+03  0.7546771E-02  0.1215369E+00
         21   -1    0    0  503  501  0.00000000000E+00  0.00000000000E+00  0.11490029676E+04  0.11490029676E+04  0.00000000000E+00 0. -1.
         21   -1    0    0  501  502 -0.00000000000E+00 -0.00000000000E+00 -0.11406771852E+03  0.11406771852E+03  0.00000000000E+00 0.  1.
         21    1    1    2  503  504  0.48804431161E+02 -0.49171656471E+02  0.51050684532E+03  0.51518633854E+03  0.00000000000E+00 0. -1.
         21    1    1    2  504  505  0.61110706652E+02 -0.91335661170E+01  0.59099930157E+03  0.59422059452E+03  0.00000000000E+00 0. -1.
         21    1    1    2  505  506 -0.30088159873E+02  0.49840281004E+02 -0.27544924619E+02  0.64405542055E+02  0.00000000000E+00 0.  1.
         21    1    1    2  506  502 -0.79826977939E+02  0.84649415835E+01 -0.39025973204E+02  0.89258210980E+02  0.00000000000E+00 0.  1.
<scales pt_clust_3="132.16638" pt_clust_4="42.09832" pt_clust_5="51.80155" pt_clust_6="51.80155"></scales>
<clustering>
<clus scale="   42.098">  3  4 -1 -1</clus>
<clus scale="   51.802">  5  6 -1 -1</clus>
<clus scale="  132.166">  1  3  2 -1</clus>
<clus scale="  132.166">  1  3  2 -1</clus>
</clustering>
</event>
<event>
 6    0  0.4469832E+002  0.1317143E+03  0.7546771E-02  0.1224934E+00
         21   -1    0    0  505  501  0.00000000000E+00  0.00000000000E+00  0.91537154248E+03  0.91537154248E+03  0.00000000000E+00 0. -1.
         21   -1    0    0  506  502 -0.00000000000E+00 -0.00000000000E+00 -0.67038856340E+03  0.67038856340E+03  0.00000000000E+00 0. -1.
         21    1    1    2  503  502  0.75360022850E+01  0.77284414383E+02 -0.19116499356E+03  0.20633401755E+03  0.00000000000E+00 0.  1.
         21    1    1    2  504  503 -0.28317936862E+01  0.43488980415E+02 -0.47489367300E+02  0.64455802528E+02  0.00000000000E+00 0. -1.
         21    1    1    2  505  504 -0.11942737303E+03 -0.57101361802E+02  0.88389656319E+03  0.89375421530E+03  0.00000000000E+00 0. -1.
         21    1    1    2  506  501  0.11472316443E+03 -0.63672032996E+02 -0.40025922325E+03  0.42121607050E+03  0.00000000000E+00 0. -1.
<scales pt_clust_3="127.95008" pt_clust_4="31.45480" pt_clust_5="131.71426" pt_clust_6="14000.00000"></scales>
<clustering>
<clus scale="   31.455">  3  4 -1 -1</clus>
<clus scale="  127.950">  2  3  1 -1</clus>
<clus scale="  131.714">  1  5  2 -1</clus>
<clus scale="  131.714">  1  3  2 -1</clus>
</clustering>
</event>
<event>
 6    0  0.4469832E+002  0.7680718E+02  0.7546771E-02  0.1338364E+00
         21   -1    0    0  503  501  0.00000000000E+00  0.00000000000E+00  0.44575004020E+03  0.44575004020E+03  0.00000000000E+00 0.  1.
         21   -1    0    0  505  502 -0.00000000000E+00 -0.00000000000E+00 -0.61208571437E+03  0.61208571437E+03  0.00000000000E+00 0. -1.
         21    1    1    2  503  504  0.60393614706E+02  0.44667623279E+02  0.33187935957E+03  0.34027414621E+03  0.00000000000E+00 0.  1.
         21    1    1    2  504  502 -0.40539212995E+02 -0.46592287696E+01 -0.21155836277E+03  0.21545783129E+03  0.00000000000E+00 0.  1.
         21    1    1    2  505  506  0.18114155355E+02  0.48469781987E+02 -0.37070494116E+03  0.37429880549E+03  0.00000000000E+00 0. -1.
         21    1    1    2  506  501 -0.37968557066E+02 -0.88478176496E+02  0.84048270184E+02  0.12780497159E+03  0.00000000000E+00 0.  1.
<scales pt_clust_3="76.80718" pt_clust_4="40.80608" pt_clust_5="48.34391" pt_clust_6="14000.00000"></scales>
<clustering>
<clus scale="   40.806">  2  4  1 -1</clus>
<clus scale="   48.344">  2  5  1 -1</clus>
<clus scale="   76.807">  1  3  2 -1</clus>
<clus scale="   76.807">  1  3  2 -1</clus>
</clustering>
</event>
<event>
 6    0  0.4469832E+002  0.1033397E+03  0.7546771E-02  0.1273426E+00
         21   -1    0    0  503  501  0.00000000000E+00  0.00000000000E+00  0.70677590335E+03  0.70677590335E+03  0.00000000000E+00 0. -1.
         21   -1    0    0  505  502 -0.00000000000E+00 -0.00000000000E+00 -0.17260064708E+04  0.17260064708E+04  0.00000000000E+00 0.  1.
         21    1    1    2  503  506 -0.78158612704E+02 -0.10639071119E+02  0.61090858235E+03  0.61597991410E+03  0.00000000000E+00 0. -1.
         21    1    1    2  504  502 -0.95615323340E+01  0.10319201886E+03 -0.16576480147E+04  0.16608843898E+04  0.00000000000E+00 0.  1.
         21    1    1    2  505  501  0.44703374263E+02 -0.69093667564E+01 -0.19394522676E+02  0.49216648903E+02  0.00000000000E+00 0. -1.
         21    1    1    2  506  504  0.43016770776E+02 -0.85643580980E+02  0.46903387639E+02  0.10670142128E+03  0.00000000000E+00 0. -1.
<scales pt_clust_3="42.01233" pt_clust_4="103.33969" pt_clust_5="45.23418" pt_clust_6="14000.00000"></scales>
<clustering>
<clus scale="   45.234">  1  5  2 -1</clus>
<clus scale="   42.012">  1  3  2 -1</clus>
<clus scale="  103.340">  2  4  1 -1</clus>
<clus scale="   45.234">  1  3  2 -1</clus>
</clustering>
</event>
<event>
 6    0  0.4469832E+002  0.1053283E+03  0.7546771E-02  0.1269474E+00
         21   -1    0    0  503  501  0.00000000000E+00  0.00000000000E+00  0.17829869445E+03  0.17829869445E+03  0.00000000000E+00 0. -1.
         21   -1    0    0  505  502 -0.00000000000E+00 -0.00000000000E+00 -0.21636582044E+04  0.21636582044E+04  0.00000000000E+00 0. -1.
         21    1    1    2  503  502 -0.34607459382E+02 -0.21750007199E+01 -0.18442825181E+04  0.18446084716E+04  0.00000000000E+00 0. -1.
         21    1    1    2  504  506 -0.52037605355E+02  0.94399397345E+02 -0.43069916615E+02  0.11607831971E+03  0.00000000000E+00 0. -1.
         21    1    1    2  505  504 -0.33785225820E+01 -0.33783472971E+02 -0.21779904387E+03  0.22042949207E+03  0.00000000000E+00 0. -1.
         21    1    1    2  506  501  0.90023587319E+02 -0.58440923654E+02  0.11979196865E+03  0.16084061547E+03  0.00000000000E+00 0. -1.
<scales pt_clust_3="50.99726" pt_clust_4="14000.00000" pt_clust_5="33.95199" pt_clust_6="105.32828"></scales>
<clustering>
<clus scale="   33.952">  2  5  1 -1</clus>
<clus scale="   50.997">  2  3  1 -1</clus>
<clus scale="  105.328">  1  6  2 -1</clus>
<clus scale="  105.328">  1  3  2 -1</clus>
</clustering>
</event>
<event>
 6    0  0.4469832E+002  0.6110868E+02  0.7546771E-02  0.1393237E+00
         21   -1    0    0  506  501  0.00000000000E+00  0.00000000000E+00  0.30428994254E+03  0.30428994254E+03  0.00000000000E+00 0.  1.
         21   -1    0    0  503  502 -0.00000000000E+00 -0.00000000000E+00 -0.91717260646E+02  0.91717260646E+02  0.00000000000E+00 0.  1.
         21    1    1    2  503  505 -0.48698343437E+02  0.16453923841E+02 -0.14172651850E+01  0.51422455250E+02  0.00000000000E+00 0.  1.
         21    1    1    2  504  502  0.87739975701E+02 -0.14247936957E+02 -0.51295305118E+01  0.89037178341E+02  0.00000000000E+00 0.  1.
         21    1    1    2  505  501 -0.61389600414E+01 -0.53472175747E+02  0.42078365952E+02  0.68319464948E+02  0.00000000000E+00 0.  1.
         21    1    1    2  506  504 -0.32902672223E+02  0.51266188864E+02  0.17704111164E+03  0.18722810465E+03  0.00000000000E+00 0.  1.
<scales pt_clust_3="51.40292" pt_clust_4="14000.00000" pt_clust_5="52.63276" pt_clust_6="61.10868"></scales>
<clustering>
<clus scale="   51.403">  2  3  1 -1</clus>
<clus scale="   52.633">  2  5  1 -1</clus>
<clus scale="   61.109">  1  6  2 -1</clus>
<clus scale="   61.109">  1  3  2 -1</clus>
</clustering>
</event>
<event>
 6    0  0.4469832E+002  0.6612388E+02  0.7546771E-02  0.1373793E+00
         21   -1    0    0  503  501  0.00000000000E+00  0.00000000000E+00  0.16475847011E+04  0.16475847011E+04  0.00000000000E+00 0.  1.
         21   -1    0    0  504  502 -0.00000000000E+00 -0.00000000000E+00 -0.69955325324E+03  0.69955325324E+03  0.00000000000E+00 0.  1.
         21    1    1    2  503  505  0.65410412117E+02 -0.13184660389E+02  0.15910231151E+04  0.15924217124E+04  0.00000000000E+00 0.  1.
         21    1    1    2  504  501  0.46945828568E+02 -0.23707142078E+01 -0.25862575971E+03  0.26286272975E+03  0.00000000000E+00 0.  1.
         21    1    1    2  505  506 -0.53115061735E+02 -0.49602596274E+02  0.22097314904E+02  0.75959980688E+02  0.00000000000E+00 0.  1.
         21    1    1    2  506  502 -0.59241178951E+02  0.65157970870E+02 -0.40646322239E+03  0.41589353157E+03  0.00000000000E+00 0.  1.
<scales pt_clust_3="66.12388" pt_clust_4="47.00565" pt_clust_5="14000.00000" pt_clust_6="64.75811"></scales>
<clustering>
<clus scale="   47.006">  2  4  1 -1</clus>
<clus scale="   64.758">  2  6  1 -1</clus>
<clus scale="   66.124">  1  3  2 -1</clus>
<clus scale="   66.124">  1  3  2 -1</clus>
</clustering>
</event>
<event>
 6    0  0.4469832E+002  0.1553084E+03  0.7546771E-02  0.1194098E+00
         21   -1    0    0  504  501  0.00000000000E+00  0.00000000000E+00  0.55571747266E+03  0.55571747266E+03  0.00000000000E+00 0. -1.
         21   -1    0    0  506  502 -0.00000000000E+00 -0.00000000000E+00 -0.28579055785E+03  0.28579055785E+03  0.00000000000E+00 0. -1.
         21    1    1    2  503  502 -0.11072056807E+02  0.33518081977E+02 -0.17046721899E+02  0.39200038123E+02  0.00000000000E+00 0. -1.
         21    1    1    2  504  503 -0.19207636063E+03  0.62720513514E+02  0.40226424534E+03  0.45015965413E+03  0.00000000000E+00 0. -1.
         21    1    1    2  505  501  0.50882602077E+02 -0.16540226733E+02  0.77309229592E+02  0.94017739149E+02  0.00000000000E+00 0. -1.
         21    1    1    2  506  505  0.15226581536E+03 -0.79698368757E+02 -0.19259983823E+03  0.25813059910E+03  0.00000000000E+00 0. -1.
<scales pt_clust_3="35.29947" pt_clust_4="14000.00000" pt_clust_5="52.83414" pt_clust_6="155.30844"></scales>
<clustering>
<clus scale="   35.299">  2  3  1 -1</clus>
<clus scale="   52.834">  1  5  2 -1</clus>
<clus scale="  155.308">  2  6  1 -1</clus>
<clus scale="   52.834">  1  3  2 -1</clus>
</clustering>
</event>
<event>
 6    0  0.4469832E+002  0.1509735E+03  0.7546771E-02  0.1199282E+00
         21   -1    0    0  504  501  0.00000000000E+00  0.00000000000E+00  0.32647723140E+03  0.32647723140E+03  0.00000000000E+00 0.  1.
         21   -1    0    0  506  502 -0.00000000000E+00 -0.00000000000E+00 -0.16045819567E+03  0.16045819567E+03  0.00000000000E+00 0.  1.
         21    1    1    2  503  501 -0.33112547198E+02  0.31282364929E+02  0.18627835389E+03  0.19176718245E+03  0.00000000000E+00 0.  1.
         21    1    1    2  504  502  0.15583063968E+03 -0.18310832489E+02 -0.27094277966E+02  0.15922491875E+03  0.00000000000E+00 0.  1.
         21    1    1    2  505  503 -0.36114907433E+02  0.91987707616E+01  0.24792928397E+02  0.44761514953E+02  0.00000000000E+00 0.  1.
         21    1    1    2  506  505 -0.86603185054E+02 -0.22170303202E+02 -0.17957968589E+02  0.91181810913E+02  0.00000000000E+00 0.  1.
<scales pt_clust_3="45.55247" pt_clust_4="139.95395" pt_clust_5="36.55803" pt_clust_6="36.55803"></scales>
<clustering>
<clus scale="   36.558">  5  6 -1 -1</clus>
<clus scale="   45.552">  1  3  2 -1</clus>
<clus scale="  139.954">  2  4  1 -1</clus>
<clus scale="   45.552">  1  3  2 -1</clus>
</clustering>
</event>
<event>
 6    0  0.4469832E+002  0.1204974E+03  0.7546771E-02  0.1242279E+00
         21   -1    0    0  505  501  0.00000000000E+00  0.00000000000E+00  0.11998003763E+04  0.11998003763E+04  0.00000000000E+00 0.  1.
         21   -1    0    0  501  502 -0.00000000000E+00 -0.00000000000E+00 -0.34503539776E+02  0.34503539776E+02  0.00000000000E+00 0. -1.
         21    1    1    2  503  506 -0.38512287970E+02  0.55263052290E+01  0.54406189620E+02  0.66886245546E+02  0.00000000000E+00 0. -1.
         21    1    1    2  504  503 -0.39330663057E+02  0.39229360897E+02  0.17502126271E+03  0.18362539643E+03  0.00000000000E+00 0.  1.
         21    1    1    2  505  504 -0.80134911273E+01  0.54569071362E+02  0.77130035501E+03  0.77326983468E+03  0.00000000000E+00 0.  1.
         21    1    1    2  506  502  0.85856442155E+02 -0.99324737487E+02  0.16456902922E+03  0.21052243946E+03  0.00000000000E+00 0. -1.
<scales pt_clust_3="37.95219" pt_clust_4="37.95219" pt_clust_5="55.15433" pt_clust_6="111.63819"></scales>
<clustering>
<clus scale="   37.952">  3  4 -1 -1</clus>
<clus scale="   55.154">  1  5  2 -1</clus>
<clus scale="  111.638">  2  6  1 -1</clus>
<clus scale="   55.154">  1  3  2 -1</clus>
</clustering>
</event>
<event>
 6    0  0.4469832E+002  0.1874309E+03  0.7546771E-02  0.1160799E+00
         21   -1    0    0  503  501  0.00000000000E+00  0.00000000000E+00  0.14041584896E+03  0.14041584896E+03  0.00000000000E+00 0. -1.
         21   -1    0    0  504  502 -0.00000000000E+00 -0.00000000000E+00 -0.46870252143E+03  0.46870252143E+03  0.00000000000E+00 0. -1.
         21    1    1    2  503  506 -0.80843687740E+02  0.25535900675E+01  0.19586199222E+01  0.80907718183E+02  0.00000000000E+00 0. -1.
         21    1    1    2  504  501  0.15389624134E+03 -0.91913026879E+02 -0.38447608819E+02  0.18333105638E+03  0.00000000000E+00 0. -1.
         21    1    1    2  505  502  0.14872695126E+02  0.60385505414E+02 -0.21738025964E+03  0.22610126847E+03  0.00000000000E+00 0. -1.
         21    1    1    2  506  505 -0.87925248729E+02  0.28973931398E+02 -0.74417423933E+02  0.11877832736E+03  0.00000000000E+00 0.  1.
<scales pt_clust_3="64.74524" pt_clust_4="173.15607" pt_clust_5="62.19008" pt_clust_6="64.74524"></scales>
<clustering>
<clus scale="   62.190">  2  5  1 -1</clus>
<clus scale="   64.745">  3  6 -1 -1</clus>
<clus scale="  173.156">  1  4  2 -1</clus>
<clus scale="  173.156">  1  3  2 -1</clus>
</clustering>
</event>
<event>
 6    0  0.4469832E+002  0.1214325E+03  0.7546771E-02  0.1240752E+00
         21   -1    0    0  506  501  0.00000000000E+00  0.00000000000E+00  0.36340716559E+03  0.36340716559E+03  0.00000000000E+00 0. -1.
         21   -1    0    0  504  502 -0.00000000000E+00 -0.00000000000E+00 -0.67660893928E+02  0.67660893928E+02  0.00000000000E+00 0. -1.
         21    1    1    2  503  505  0.37293593914E+02  0.39453163511E+02  0.28396386056E+02  0.61267601545E+02  0.00000000000E+00 0. -1.
         21    1    1    2  504  503  0.57425732075E+02 -0.59582804650E+01 -0.34016790493E+00  0.57735011255E+02  0.00000000000E+00 0.  1.
         21    1    1    2  505  501  0.29147671182E+02 -0.85118815224E+01  0.82157653453E+02  0.87589490713E+02  0.00000000000E+00 0.  1.
         21    1    1    2  506  502 -0.12386699717E+03 -0.24983001523E+02  0.18553240006E+03  0.22447595600E+03  0.00000000000E+00 0. -1.
<scales pt_clust_3="55.29915" pt_clust_4="55.29915" pt_clust_5="30.36509" pt_clust_6="107.07495"></scales>
<clustering>
<clus scale="   30.365">  1  5  2 -1</clus>
<clus scale="   55.299">  3  4 -1 -1</clus>
<clus scale="  107.075">  1  6  2 -1</clus>
<clus scale="   30.365">  1  3  2 -1</clus>
</clustering>
</event>
<event>
 6    0  0.4469832E+002  0.8645951E+02  0.7546771E-02  0.1311659E+00
         21   -1    0    0  503  501  0.00000000000E+00  0.00000000000E+00  0.36508125079E+02  0.36508125079E+02  0.00000000000E+00 0.  1.
         21   -1    0    0  506  502 -0.00000000000E+00 -0.00000000000E+00 -0.10644744304E+04  0.10644744304E+04  0.00000000000E+00 0. -1.
         21    1    1    2  503  505  0.57047936569E+01  0.74303740480E+02 -0.42523100210E+02  0.85800959035E+02  0.00000000000E+00 0.  1.
         21    1    1    2  504  501  0.65524872968E+02 -0.48894391156E+01 -0.89549185307E+02  0.11106967265E+03  0.00000000000E+00 0.  1.
         21    1    1    2  505  502 -0.22872674695E+01 -0.38588046918E+02 -0.17205604596E+03  0.17634497982E+03  0.00000000000E+00 0. -1.
         21    1    1    2  506  504 -0.68942399155E+02 -0.30826254446E+02 -0.72383797387E+03  0.72776694400E+03  0.00000000000E+00 0. -1.
<scales pt_clust_3="14000.00000" pt_clust_4="65.91759" pt_clust_5="38.65578" pt_clust_6="86.45951"></scales>
<clustering>
<clus scale="   38.656">  2  5  1 -1</clus>
<clus scale="   65.918">  1  4  2 -1</clus>
<clus scale="   86.460">  2  6  1 -1</clus>
<clus scale="   65.918">  1  3  2 -1</clus>
</clustering>
</event>
<event>
 6    0  0.4469832E+002  0.2010938E+03  0.7546771E-02  0.1148819E+00
         21   -1    0    0  506  501  0.00000000000E+00  0.00000000000E+00  0.47369232199E+03  0.47369232199E+03  0.00000000000E+00 0. -1.
         21   -1    0    0  505  502 -0.00000000000E+00 -0.00000000000E+00 -0.44918131264E+03  0.44918131264E+03  0.00000000000E+00 0. -1.
         21    1    1    2  503  501 -0.79020375513E+02 -0.17977823849E+02  0.41112151355E+02  0.90871507556E+02  0.00000000000E+00 0.  1.
         21    1    1    2  504  502  0.84119562823E+02  0.14073365771E+03 -0.53789337426E+02  0.17255537106E+03  0.00000000000E+00 0. -1.
         21    1    1    2  505  503 -0.17442831124E+03  0.47702008496E+02 -0.23490998301E+03  0.29645137458E+03  0.00000000000E+00 0. -1.
         21    1    1    2  506  504  0.16932912392E+03 -0.17045784236E+03  0.27209817843E+03  0.36299538142E+03  0.00000000000E+00 0. -1.
<scales pt_clust_3="81.03963" pt_clust_4="156.03844" pt_clust_5="201.09381" pt_clust_6="14000.00000"></scales>
<clustering>
<clus scale="   81.040">  1  3  2 -1</clus>
<clus scale="  156.038">  2  4  1 -1</clus>
<clus scale="  201.094">  2  5  1 -1</clus>
<clus scale="   81.040">  1  3  2 -1</clus>
</clustering>
</event>
<event>
 6    0  0.4469832E+002  0.1519710E+03  0.7546771E-02  0.1198072E+00
         21   -1    0    0  504  501  0.00000000000E+00  0.00000000000E+00  0.20652031478E+04  0.20652031478E+04  0.00000000000E+00 0.  1.
         21   -1    0    0  505  502 -0.00000000000E+00 -0.00000000000E+00 -0.32645084915E+03  0.32645084915E+03  0.00000000000E+00 0.  1.
         21    1    1    2  503  501  0.32831674461E+02  0.20848751448E+02  0.81484850371E+02  0.90290476380E+02  0.00000000000E+00 0.  1.
         21    1    1    2  504  502 -0.71389497831E+02  0.98435379706E+02  0.18621802759E+04  0.18661461262E+04  0.00000000000E+00 0.  1.
         21    1    1    2  505  506 -0.49311695052E+02 -0.14202854760E+03 -0.27974184750E+03  0.31758345808E+03  0.00000000000E+00 0.  1.
         21    1    1    2  506  503  0.87869518421E+02  0.22744416446E+02  0.74829019855E+02  0.11763393626E+03  0.00000000000E+00 0. -1.
<scales pt_clust_3="31.59304" pt_clust_4="121.59763" pt_clust_5="144.10338" pt_clust_6="31.59304"></scales>
<clustering>
<clus scale="   31.593">  3  6 -1 -1</clus>
<clus scale="  121.598">  1  4  2 -1</clus>
<clus scale="  144.103">  2  5  1 -1</clus>
<clus scale="  121.598">  1  3  2 -1</clus>
</clustering>
</event>
<event>
 6    0  0.4469832E+002  0.9151080E+02  0.7546771E-02  0.1299234E+00
         21   -1    0    0  503  501  0.00000000000E+00  0.00000000000E+00  0.50430494843E+02  0.50430494843E+02  0.00000000000E+00 0. -1.
         21   -1    0    0  506  502 -0.00000000000E+00 -0.00000000000E+00 -0.99215745422E+03  0.99215745422E+03  0.00000000000E+00 0. -1.
         21    1    1    2  503  505 -0.17414069718E+02 -0.65084444253E+02 -0.19440462089E+02  0.70122509041E+02  0.00000000000E+00 0. -1.
         21    1    1    2  504  501 -0.61710157867E+02  0.11836612213E+03 -0.19037746709E+03  0.23251292959E+03  0.00000000000E+00 0. -1.
         21    1    1    2  505  502  0.39496101584E+02 -0.50218396203E+02 -0.55318858566E+03  0.55686572947E+03  0.00000000000E+00 0. -1.
         21    1    1    2  506  504  0.39628126000E+02 -0.30632816769E+01 -0.17872044454E+03  0.18308678096E+03  0.00000000000E+00 0. -1.
<scales pt_clust_3="67.00652" pt_clust_4="91.51080" pt_clust_5="14000.00000" pt_clust_6="39.74635"></scales>
<clustering>
<clus scale="   39.746">  2  6  1 -1</clus>
<clus scale="   67.007">  1  3  2 -1</clus>
<clus scale="   91.511">  1  4  2 -1</clus>
<clus scale="   67.007">  1  3  2 -1</clus>
</clustering>
</event>
<event>
 6    0  0.4469832E+002  0.9865464E+02  0.7546771E-02  0.1283151E+00
         21   -1    0    0  505  501  0.00000000000E+00  0.00000000000E+00  0.63823207754E+02  0.63823207754E+02  0.00000000000E+00 0. -1.
         21   -1    0    0  503  502 -0.00000000000E+00 -0.00000000000E+00 -0.48408555458E+03  0.48408555458E+03  0.00000000000E+00 0. -1.
         21    1    1    2  503  506  0.97608666877E+00  0.70393143914E+02 -0.27247652221E+03  0.28142423956E+03  0.00000000000E+00 0. -1.
         21    1    1    2  504  502  0.33753653934E+02  0.26474679396E+02 -0.76587064710E+02  0.87782665054E+02  0.00000000000E+00 0. -1.
         21    1    1    2  505  504 -0.14702364078E+02  0.26760695542E+02  0.66350252234E+01  0.31246086076E+02  0.00000000000E+00 0. -1.
         21    1    1    2  506  501 -0.20027376525E+02 -0.12362851885E+03 -0.77833785129E+02  0.14745577165E+03  0.00000000000E+00 0. -1.
<scales pt_clust_3="14000.00000" pt_clust_4="43.67673" pt_clust_5="30.53350" pt_clust_6="98.65464"></scales>
<clustering>
<clus scale="   30.533">  1  5  2 -1</clus>
<clus scale="   43.677">  2  4  1 -1</clus>
<clus scale="   98.655">  1  6  2 -1</clus>
<clus scale="   30.533">  1  3  2 -1</clus>
</clustering>
</event>
<event>
 6    0  0.4469832E+002  0.1551768E+03  0.7546771E-02  0.1194252E+00
         21   -1    0    0  503  501  0.00000000000E+00  0.00000000000E+00  0.60463477117E+03  0.60463477117E+03  0.00000000000E+00 0.  1.
         21   -1    0    0  504  502 -0.00000000000E+00 -0.00000000000E+00 -0.75407135564E+03  0.75407135564E+03  0.00000000000E+00 0.  1.
         21    1    1    2  503  505  0.95323890313E+02 -0.56394976250E+02  0.55025875339E+03  0.56129469363E+03  0.00000000000E+00 0.  1.
         21    1    1    2  504  506  0.20393861800E+01  0.57804468809E+02 -0.51611049005E+02  0.77519133701E+02  0.00000000000E+00 0. -1.
         21    1    1    2  505  502 -0.14910386387E+03 -0.34779757144E+00 -0.65119524359E+03  0.66804739986E+03  0.00000000000E+00 0.  1.
         21    1    1    2  506  501  0.51740587373E+02 -0.10616949880E+01  0.31109547313E+01  0.51844899626E+02  0.00000000000E+00 0.  1.
<scales pt_clust_3="14000.00000" pt_clust_4="57.86922" pt_clust_5="155.17675" pt_clust_6="51.75148"></scales>
<clustering>
<clus scale="   51.751">  1  6  2 -1</clus>
<clus scale="   57.869">  2  4  1 -1</clus>
<clus scale="  155.177">  2  5  1 -1</clus>
<clus scale="   51.751">  1  3  2 -1</clus>
</clustering>
</event>
<event>
 6    0  0.4469832E+002  0.1152995E+03  0.7546771E-02  0.1251059E+00
         21   -1    0    0  506  501  0.00000000000E+00  0.00000000000E+00  0.14082238375E+04  0.14082238375E+04  0.00000000000E+00 0. -1.
         21   -1    0    0  503  502 -0.00000000000E+00 -0.00000000000E+00 -0.47467719614E+03  0.47467719614E+03  0.00000000000E+00 0.  1.
         21    1    1    2  503  504  0.39935974937E+02 -0.14250961627E+02 -0.32965743707E+02  0.53709517403E+02  0.00000000000E+00 0.  1.
         21    1    1    2  504  505 -0.70020511662E+02  0.88096932197E+02  0.32928253978E+03  0.34798122437E+03  0.00000000000E+00 0. -1.
         21    1    1    2  505  501  0.30229621157E+02  0.21314241165E+02  0.10535266360E+04  0.10541757442E+04  0.00000000000E+00 0. -1.
         21    1    1    2  506  502 -0.14508443309E+00 -0.95160211735E+02 -0.41629679072E+03  0.42703454768E+03  0.00000000000E+00 0.  1.
<scales pt_clust_3="43.03524" pt_clust_4="14000.00000" pt_clust_5="36.98820" pt_clust_6="115.29947"></scales>
<clustering>
<clus scale="   36.988">  1  5  2 -1</clus>
<clus scale="   43.035">  2  3  1 -1</clus>
<clus scale="  115.299">  2  6  1 -1</clus>
<clus scale="   36.988">  1  3  2 -1</clus>
</clustering>
</event>
<event>
 6    0  0.4469832E+002  0.1018995E+03  0.7546771E-02  0.1276351E+00
         21   -1    0    0  504  501  0.00000000000E+00  0.00000000000E+00  0.91704096487E+02  0.91704096487E+02  0.00000000000E+00 0.  1.
         21   -1    0    0  506  502 -0.00000000000E+00 -0.00000000000E+00 -0.21222463892E+04  0.21222463892E+04  0.00000000000E+00 0. -1.
         21    1    1    2  503  502  0.19322281701E+02  0.49502985516E+02 -0.13916960375E+04  0.13927102200E+04  0.00000000000E+00 0. -1.
         21    1    1    2  504  503  0.27445827592E+02 -0.32820569044E+02 -0.38800747042E+01  0.42959494693E+02  0.00000000000E+00 0.  1.
         21    1    1    2  505  501 -0.10289798231E+03 -0.42229937527E+02  0.26178706600E+02  0.11426586134E+03  0.00000000000E+00 0.  1.
         21    1    1    2  506  505  0.56129873020E+02  0.25547521055E+02 -0.66114488715E+03  0.66401490969E+03  0.00000000000E+00 0. -1.
<scales pt_clust_3="52.99628" pt_clust_4="42.78391" pt_clust_5="14000.00000" pt_clust_6="101.89954"></scales>
<clustering>
<clus scale="   42.784">  1  4  2 -1</clus>
<clus scale="   52.996">  2  3  1 -1</clus>
<clus scale="  101.900">  2  6  1 -1</clus>
<clus scale="   42.784">  1  3  2 -1</clus>
</clustering>
</event>
<event>
 6    0  0.4469832E+002  0.7839934E+02  0.7546771E-02  0.1333656E+00
         21   -1    0    0  503  501  0.00000000000E+00  0.00000000000E+00  0.16606944451E+03  0.16606944451E+03  0.00000000000E+00 0.  1.
         21   -1    0    0  505  502 -0.00000000000E+00 -0.00000000000E+00 -0.53221682849E+03  0.53221682849E+03  0.00000000000E+00 0.  1.
         21    1    1    2  503  506 -0.34408738723E+02  0.12701335745E+02  0.77902027584E+02  0.86104652209E+02  0.00000000000E+00 0.  1.
         21    1    1    2  504  501  0.84853473440E+02 -0.68074257302E+02  0.27485366728E+02  0.11220366236E+03  0.00000000000E+00 0.  1.
         21    1    1    2  505  504 -0.66824395486E+02 -0.34104735192E+02 -0.19974883804E+03  0.21337345452E+03  0.00000000000E+00 0.  1.
         21    1    1    2  506  502  0.16379660769E+02  0.89477656749E+02 -0.27178594025E+03  0.28660450391E+03  0.00000000000E+00 0.  1.
<scales pt_clust_3="36.67813" pt_clust_4="14000.00000" pt_clust_5="77.07086" pt_clust_6="78.39934"></scales>
<clustering>
<clus scale="   36.678">  1  3  2 -1</clus>
<clus scale="   77.071">  2  5  1 -1</clus>
<clus scale="   78.399">  2  6  1 -1</clus>
<clus scale="   36.678">  1  3  2 -1</clus>
</clustering>
</event>
<event>
 6    0  0.4469832E+002  0.9423925E+02  0.7546771E-02  0.1292899E+00
         21   -1    0    0  505  501  0.00000000000E+00  0.00000000000E+00  0.13298018691E+04  0.13298018691E+04  0.00000000000E+00 0.  1.
         21   -1    0    0  506  502 -0.00000000000E+00 -0.00000000000E+00 -0.32805515260E+02  0.32805515260E+02  0.00000000000E+00 0.  1.
         21    1    1    2  503  501 -0.10280547835E+02 -0.91316343159E+02  0.17740492505E+03  0.19979207097E+03  0.00000000000E+00 0.  1.
         21    1    1    2  504  502 -0.11980243283E+03  0.57505522297E+02  0.31083346953E+03  0.33804874469E+03  0.00000000000E+00 0.  1.
         21    1    1    2  505  504  0.77460411665E+02  0.45618973473E+02  0.66815363485E+03  0.67417392851E+03  0.00000000000E+00 0.  1.
         21    1    1    2  506  503  0.52622569005E+02 -0.11808152611E+02  0.14060432446E+03  0.15059264023E+03  0.00000000000E+00 0.  1.
<scales pt_clust_3="14000.00000" pt_clust_4="90.57319" pt_clust_5="94.23925" pt_clust_6="53.93113"></scales>
<clustering>
<clus scale="   53.931">  2  6  1 -1</clus>
<clus scale="   94.239">  1  5  2 -1</clus>
<clus scale="   90.573">  2  4  1 -1</clus>
<clus scale="   94.239">  1  3  2 -1</clus>
</clustering>
</event>
<event>
 6    0  0.4469832E+002  0.8289157E+02  0.7546771E-02  0.1321040E+00
         21   -1    0    0  506  501  0.00000000000E+00  0.00000000000E+00  0.25789988265E+03  0.25789988265E+03  0.00000000000E+00 0.  1.
         21   -1    0    0  505  502 -0.00000000000E+00 -0.00000000000E+00 -0.44912568894E+03  0.44912568894E+03  0.00000000000E+00 0.  1.
         21    1    1    2  503  502  0.22240985013E+02  0.53965643902E+02 -0.77011889767E+02  0.96632206337E+02  0.00000000000E+00 0.  1.
         21    1    1    2  504  503 -0.44127325109E+02 -0.85681184293E+02  0.11744213328E+03  0.15192478676E+03  0.00000000000E+00 0.  1.
         21    1    1    2  505  501  0.37455315822E+02 -0.47238828578E+02 -0.32768128791E+03  0.33318078284E+03  0.00000000000E+00 0.  1.
         21    1    1    2  506  504 -0.15568975726E+02  0.78954368970E+02  0.96025238107E+02  0.12528779565E+03  0.00000000000E+00 0.  1.
<scales pt_clust_3="58.36910" pt_clust_4="14000.00000" pt_clust_5="57.77363" pt_clust_6="82.89157"></scales>
<clustering>
<clus scale="   58.369">  2  3  1 -1</clus>
<clus scale="   57.774">  2  5  1 -1</clus>
<clus scale="   82.892">  1  6  2 -1</clus>
<clus scale="   82.892">  1  3  2 -1</clus>
</clustering>
</event>
<event>
 6    0  0.4469832E+002  0.1639142E+03  0.7546771E-02  0.1184347E+00
         21   -1    0    0  504  501  0.00000000000E+00  0.00000000000E+00  0.11469011192E+03  0.11469011192E+03  0.00000000000E+00 0.  1.
         21   -1    0    0  506  502 -0.00000000000E+00 -0.00000000000E+00 -0.10096223815E+04  0.10096223815E+04  0.00000000000E+00 0. -1.
         21    1    1    2  503  501 -0.17513274786E+03 -0.12962838046E+01 -0.48419863514E+03  0.51489948339E+03  0.00000000000E+00 0. -1.
         21    1    1    2  504  505  0.39369894905E+02 -0.58521624542E+02  0.62292366222E+02  0.94101583692E+02  0.00000000000E+00 0.  1.
         21    1    1    2  505  502  0.15333945293E+03  0.13954387642E+02 -0.38233318808E+03  0.41217275440E+03  0.00000000000E+00 0.  1.
         21    1    1    2  506  503 -0.17576599971E+02  0.45863520705E+02 -0.90692812630E+02  0.10313867199E+03  0.00000000000E+00 0.  1.
<scales pt_clust_3="163.91424" pt_clust_4="69.69823" pt_clust_5="14000.00000" pt_clust_6="49.11618"></scales>
<clustering>
<clus scale="   49.116">  2  6  1 -1</clus>
<clus scale="   69.698">  1  4  2 -1</clus>
<clus scale="  163.914">  1  3  2 -1</clus>
<clus scale="   69.698">  1  3  2 -1</clus>
</clustering>
</event>
<event>
 6    0  0.4469832E+002  0.1617725E+03  0.7546771E-02  0.1186710E+00
         21   -1    0    0  505  501  0.00000000000E+00  0.00000000000E+00  0.39579091306E+03  0.39579091306E+03  0.00000000000E+00 0. -1.
         21   -1    0    0  504  502 -0.00000000000E+00 -0.00000000000E+00 -0.12492750096E+03  0.12492750096E+03  0.00000000000E+00 0.  1.
         21    1    1    2  503  502 -0.50082737646E+02 -0.23421617985E+02  0.87672743835E+01  0.55979620392E+02  0.00000000000E+00 0. -1.
         21    1    1    2  504  501  0.12787964128E+03 -0.12965737517E+03  0.82991453215E+02  0.20012950531E+03  0.00000000000E+00 0.  1.
         21    1    1    2  505  506  0.11394644756E+02  0.40355284667E+02  0.79016595282E+02  0.89453950498E+02  0.00000000000E+00 0. -1.
         21    1    1    2  506  503 -0.89191548393E+02  0.11272370849E+03  0.10008808922E+03  0.17515533781E+03  0.00000000000E+00 0. -1.
<scales pt_clust_3="52.54346" pt_clust_4="161.77254" pt_clust_5="41.93312" pt_clust_6="14000.00000"></scales>
<clustering>
<clus scale="   41.933">  1  5  2 -1</clus>
<clus scale="   52.543">  2  3  1 -1</clus>
<clus scale="  161.773">  2  4  1 -1</clus>
<clus scale="   41.933">  1  3  2 -1</clus>
</clustering>
</event>
<event>
 6    0  0.4469832E+002  0.1488126E+03  0.7546771E-02  0.1201940E+00
         21   -1    0    0  506  501  0.00000000000E+00  0.00000000000E+00  0.26615265411E+03  0.26615265411E+03  0.00000000000E+00 0.  1.
         21   -1    0    0  504  502 -0.00000000000E+00 -0.00000000000E+00 -0.11738229823E+04  0.11738229823E+04  0.00000000000E+00 0.  1.
         21    1    1    2  503  505 -0.15652074740E+03  0.11921359321E+02 -0.24006122224E+03  0.28682791635E+03  0.00000000000E+00 0.  1.
         21    1    1    2  504  501 -0.34178668781E+02  0.19967650666E+00  0.22858450340E+03  0.23112571571E+03  0.00000000000E+00 0.  1.
         21    1    1    2  505  502  0.14658849206E+03 -0.25432016929E+01 -0.82353774596E+03  0.83648614627E+03  0.00000000000E+00 0.  1.
         21    1    1    2  506  503  0.44110924114E+02 -0.95778341349E+01 -0.72655863427E+02  0.85535858113E+02  0.00000000000E+00 0.  1.
<scales pt_clust_3="14000.00000" pt_clust_4="34.17925" pt_clust_5="148.81256" pt_clust_6="39.22526"></scales>
<clustering>
<clus scale="   34.179">  1  4  2 -1</clus>
<clus scale="   39.225">  1  6  2 -1</clus>
<clus scale="  148.813">  2  5  1 -1</clus>
<clus scale="   34.179">  1  3  2 -1</clus>
</clustering>
</event>
<event>
 6    0  0.4469832E+002  0.1604496E+03  0.7546771E-02  0.1188190E+00
         21   -1    0    0  503  501  0.00000000000E+00  0.00000000000E+00  0.17218312000E+04  0.17218312000E+04  0.00000000000E+00 0.  1.
         21   -1    0    0  506  502 -0.00000000000E+00 -0.00000000000E+00 -0.68462415165E+02  0.68462415165E+02  0.00000000000E+00 0.  1.
         21    1    1    2  503  502 -0.39014812034E+02  0.68593065862E+01  0.37362313874E+03  0.37571725466E+03  0.00000000000E+00 0.  1.
         21    1    1    2  504  501  0.44743671714E+02  0.14647179984E+03  0.12393334133E+04  0.12487607031E+04  0.00000000000E+00 0.  1.
         21    1    1    2  505  504 -0.22687409980E+02 -0.41966347942E+02  0.17807207911E+02  0.50921405958E+02  0.00000000000E+00 0.  1.
         21    1    1    2  506  505  0.16958550300E+02 -0.11136475849E+03  0.22605024871E+02  0.11489425143E+03  0.00000000000E+00 0.  1.
<scales pt_clust_3="39.61320" pt_clust_4="153.05441" pt_clust_5="31.33449" pt_clust_6="31.33449"></scales>
<clustering>
<clus scale="   31.334">  5  6 -1 -1</clus>
<clus scale="   39.613">  1  3  2 -1</clus>
<clus scale="  153.054">  1  4  2 -1</clus>
<clus scale="   39.613">  1  3  2 -1</clus>
</clustering>
</event>
<event>
 6    0  0.4469832E+002  0.7530011E+02  0.7546771E-02  0.1342944E+00
         21   -1    0    0  505  501  0.00000000000E+00  0.00000000000E+00  0.14492592922E+03  0.14492592922E+03  0.00000000000E+00 0. -1.
         21   -1    0    0  503  502 -0.00000000000E+00 -0.00000000000E+00 -0.94051735532E+03  0.94051735532E+03  0.00000000000E+00 0.  1.
         21    1    1    2  503  501 -0.44083031861E+02 -0.28049505783E+02  0.94054841311E+02  0.10759368776E+03  0.00000000000E+00 0. -1.
         21    1    1    2  504  506 -0.50554457085E+02 -0.66520057808E+02 -0.28748634393E+03  0.29938114364E+03  0.00000000000E+00 0.  1.
         21    1    1    2  505  504  0.10559679353E+03  0.53023811299E+02 -0.56244944102E+02  0.13086520204E+03  0.00000000000E+00 0. -1.
         21    1    1    2  506  502 -0.10959304587E+02  0.41545752292E+02 -0.54591497937E+03  0.54760325108E+03  0.00000000000E+00 0.  1.
<scales pt_clust_3="52.03054" pt_clust_4="14000.00000" pt_clust_5="75.30011" pt_clust_6="42.96692"></scales>
<clustering>
<clus scale="   42.967">  2  6  1 -1</clus>
<clus scale="   52.031">  1  3  2 -1</clus>
<clus scale="   75.300">  1  5  2 -1</clus>
<clus scale="   52.031">  1  3  2 -1</clus>
</clustering>
</event>
<event>
 6    0  0.4469832E+002  0.7411034E+02  0.7546771E-02  0.1346648E+00
         21   -1    0    0  504  501  0.00000000000E+00  0.00000000000E+00  0.19434788081E+03  0.19434788081E+03  0.00000000000E+00 0. -1.
         21   -1    0    0  503  502 -0.00000000000E+00 -0.00000000000E+00 -0.26540945101E+04  0.26540945101E+04  0.00000000000E+00 0.  1.
         21    1    1    2  503  506 -0.30005757306E+02 -0.57628333670E+02 -0.71133122835E+03  0.71429229783E+03  0.00000000000E+00 0. -1.
         21    1    1    2  504  505  0.23653411920E+01 -0.73780434825E+02  0.18172277844E+03  0.19614360965E+03  0.00000000000E+00 0. -1.
         21    1    1    2  505  502  0.46215134499E+02  0.10445225245E+02 -0.76297875005E+03  0.76444850344E+03  0.00000000000E+00 0. -1.
         21    1    1    2  506  501 -0.18574718385E+02  0.12096354325E+03 -0.11671594294E+04  0.11735579800E+04  0.00000000000E+00 0.  1.
<scales pt_clust_3="55.14367" pt_clust_4="14000.00000" pt_clust_5="47.38081" pt_clust_6="74.11034"></scales>
<clustering>
<clus scale="   47.381">  2  5  1 -1</clus>
<clus scale="   55.144">  2  3  1 -1</clus>
<clus scale="   74.110">  2  6  1 -1</clus>
<clus scale="   74.110">  1  3  2 -1</clus>
</clustering>
</event>
<event>
 6    0  0.4469832E+002  0.1424584E+03  0.7546771E-02  0.1210059E+00
         21   -1    0    0  504  501  0.00000000000E+00  0.00000000000E+00  0.79122405822E+02  0.79122405822E+02  0.00000000000E+00 0. -1.
         21   -1    0    0  501  502 -0.00000000000E+00 -0.00000000000E+00 -0.27744721023E+03  0.27744721023E+03  0.00000000000E+00 0. -1.
         21    1    1    2  503  505  0.94361806069E+02 -0.15734506323E+02 -0.30508810377E+02  0.10041171567E+03  0.00000000000E+00 0. -1.
         21    1    1    2  504  503  0.31377212764E+02  0.34503337995E+02 -0.10045746295E+02  0.47706674923E+02  0.00000000000E+00 0. -1.
         21    1    1    2  505  506 -0.40131838122E+02  0.16005753339E+02 -0.41192901525E+02  0.59695927055E+02  0.00000000000E+00 0. -1.
         21    1    1    2  506  502 -0.85607180712E+02 -0.34774585010E+02 -0.11657734621E+03  0.14875529840E+03  0.00000000000E+00 0. -1.
<scales pt_clust_3="44.88074" pt_clust_4="44.88074" pt_clust_5="33.48490" pt_clust_6="136.23679"></scales>
<clustering>
<clus scale="   33.485">  5  6 -1 -1</clus>
<clus scale="   44.881">  3  4 -1 -1</clus>
<clus scale="  136.237">  2  5  1 -1</clus>
<clus scale="  142.458">  1  3  2 -1</clus>
</clustering>
</event>
<event>
 6    0  0.4469832E+002  0.1703876E+03  0.7546771E-02  0.1177444E+00
         21   -1    0    0  506  501  0.00000000000E+00  0.00000000000E+00  0.15778222079E+03  0.15778222079E+03  0.00000000000E+00 0. -1.
         21   -1    0    0  505  502 -0.00000000000E+00 -0.00000000000E+00 -0.16501405161E+03  0.16501405161E+03  0.00000000000E+00 0. -1.
         21    1    1    2  503  502  0.29673871251E+02 -0.87685128741E+01 -0.71784711523E+01  0.31764066193E+02  0.00000000000E+00 0. -1.
         21    1    1    2  504  503  0.12936486684E+02 -0.48800909896E+02 -0.91045960965E+01  0.51300830057E+02  0.00000000000E+00 0. -1.
         21    1    1    2  505  501 -0.58845990129E+02  0.13686391236E+03 -0.26519604914E+02  0.15132042329E+03  0.00000000000E+00 0. -1.
         21    1    1    2  506  504  0.16235632194E+02 -0.79294489586E+02  0.35570841346E+02  0.88410952859E+02  0.00000000000E+00 0. -1.
<scales pt_clust_3="30.36841" pt_clust_4="56.51029" pt_clust_5="148.97846" pt_clust_6="56.51029"></scales>
<clustering>
<clus scale="   30.368">  3  4 -1 -1</clus>
<clus scale="   56.510">  3  6 -1 -1</clus>
<clus scale="  148.978">  2  5  1 -1</clus>
<clus scale="  170.388">  1  3  2 -1</clus>
</clustering>
</event>
<event>
 6    0  0.4469832E+002  0.2329027E+03  0.7546771E-02  0.1124613E+00
         21   -1    0    0  506  501  0.00000000000E+00  0.00000000000E+00  0.71592586530E+03  0.71592586530E+03  0.00000000000E+00 0.  1.
         21   -1    0    0  504  502 -0.00000000000E+00 -0.00000000000E+00 -0.10083887391E+04  0.10083887391E+04  0.00000000000E+00 0.  1.
         21    1    1    2  503  505 -0.21538415141E+03  0.10297868552E+02 -0.81930429194E+03  0.84720475775E+03  0.00000000000E+00 0.  1.
         21    1    1    2  504  503 -0.15529155702E+02  0.34188708363E+02 -0.12907158453E+03  0.13442282690E+03  0.00000000000E+00 0.  1.
         21    1    1    2  505  501  0.20016148029E+03  0.20308033641E+02  0.63770681280E+03  0.66869052148E+03  0.00000000000E+00 0.  1.
         21    1    1    2  506  502  0.30751826817E+02 -0.64794610556E+02  0.18206189858E+02  0.73996498288E+02  0.00000000000E+00 0.  1.
<scales pt_clust_3="232.90274" pt_clust_4="37.55027" pt_clust_5="14000.00000" pt_clust_6="70.52710"></scales>
<clustering>
<clus scale="   37.550">  2  4  1 -1</clus>
<clus scale="   70.527">  1  6  2 -1</clus>
<clus scale="  232.903">  2  3  1 -1</clus>
<clus scale="   70.527">  1  3  2 -1</clus>
</clustering>
</event>
<event>
 6    0  0.4469832E+002  0.1385537E+03  0.7546771E-02  0.1215288E+00
         21   -1    0    0  506  501  0.00000000000E+00  0.00000000000E+00  0.31693898459E+03  0.31693898459E+03  0.00000000000E+00 0.  1.
         21   -1    0    0  503  502 -0.00000000000E+00 -0.00000000000E+00 -0.56578127200E+03  0.56578127200E+03  0.00000000000E+00 0. -1.
         21    1    1    2  503  505  0.11158834602E+03  0.70958585095E+02 -0.35633023630E+03  0.38007672523E+03  0.00000000000E+00 0. -1.
         21    1    1    2  504  502 -0.71444700209E+02 -0.20057024388E+01 -0.68995273355E+02  0.99341410175E+02  0.00000000000E+00 0. -1.
         21    1    1    2  505  501  0.12641526523E+02 -0.32989378323E+02  0.27969933749E+03  0.28192166761E+03  0.00000000000E+00 0.  1.
         21    1    1    2  506  504 -0.52785172331E+02 -0.35963504333E+02 -0.10321611525E+03  0.12138045357E+03  0.00000000000E+00 0. -1.
<scales pt_clust_3="130.42415" pt_clust_4="46.23228" pt_clust_5="35.32856" pt_clust_6="46.23228"></scales>
<clustering>
<clus scale="   35.329">  1  5  2 -1</clus>
<clus scale="   46.232">  4  6 -1 -1</clus>
<clus scale="  130.424">  2  3  1 -1</clus>
<clus scale="   35.329">  1  3  2 -1</clus>
</clustering>
</event>
<event>
 6    0  0.4469832E+002  0.8331625E+02  0.7546771E-02  0.1319895E+00
         21   -1    0    0  504  501  0.00000000000E+00  0.00000000000E+00  0.84082190193E+03  0.84082190193E+03  0.00000000000E+00 0. -1.
         21   -1    0    0  506  502 -0.00000000000E+00 -0.00000000000E+00 -0.28045951822E+03  0.28045951822E+03  0.00000000000E+00 0.  1.
         21    1    1    2  503  505  0.36277057001E+02 -0.14037981680E+03  0.58556508783E+03  0.60324869657E+03  0.00000000000E+00 0. -1.
         21    1    1    2  504  503 -0.45283141256E+00  0.72411637333E+02  0.18703255900E+03  0.20056128342E+03  0.00000000000E+00 0.  1.
         21    1    1    2  505  502  0.61383391101E+02 -0.48082126403E+01  0.11754151360E+02  0.62683328613E+02  0.00000000000E+00 0.  1.
         21    1    1    2  506  501 -0.97207616689E+02  0.72776392106E+02 -0.22398941448E+03  0.25478811155E+03  0.00000000000E+00 0.  1.
<scales pt_clust_3="83.31625" pt_clust_4="72.29365" pt_clust_5="61.57142" pt_clust_6="14000.00000"></scales>
<clustering>
<clus scale="   61.571">  2  5  1 -1</clus>
<clus scale="   72.294">  1  4  2 -1</clus>
<clus scale="   83.316">  1  3  2 -1</clus>
<clus scale="   72.294">  1  3  2 -1</clus>
</clustering>
</event>
<event>
 6    0  0.4469832E+002  0.6007851E+02  0.7546771E-02  0.1397503E+00
         21   -1    0    0  503  501  0.00000000000E+00  0.00000000000E+00  0.93124781296E+03  0.93124781296E+03  0.00000000000E+00 0.  1.
         21   -1    0    0  504  502 -0.00000000000E+00 -0.00000000000E+00 -0.29563672261E+03  0.29563672261E+03  0.00000000000E+00 0.  1.
         21    1    1    2  503  506  0.28109406978E+02  0.20403659267E+02  0.25003772059E+02  0.42797624810E+02  0.00000000000E+00 0.  1.
         21    1    1    2  504  505  0.17474592935E+02  0.98445057137E+02 -0.21558272480E+03  0.23763985757E+03  0.00000000000E+00 0.  1.
         21    1    1    2  505  501 -0.82729167432E+01 -0.75498527608E+02  0.87067932365E+03  0.87398567120E+03  0.00000000000E+00 0.  1.
         21    1    1    2  506  502 -0.37311083170E+02 -0.43350188797E+02 -0.44489280560E+02  0.72461381996E+02  0.00000000000E+00 0.  1.
<scales pt_clust_3="34.73396" pt_clust_4="60.07851" pt_clust_5="14000.00000" pt_clust_6="56.66908"></scales>
<clustering>
<clus scale="   34.734">  1  3  2 -1</clus>
<clus scale="   56.669">  2  6  1 -1</clus>
<clus scale="   60.079">  2  4  1 -1</clus>
<clus scale="   34.734">  1  3  2 -1</clus>
</clustering>
</event>
<event>
 6    0  0.4469832E+002  0.1240171E+03  0.7546771E-02  0.1236613E+00
         21   -1    0    0  503  501  0.00000000000E+00  0.00000000000E+00  0.56324316671E+03  0.56324316671E+03  0.00000000000E+00 0. -1.
         21   -1    0    0  505  502 -0.00000000000E+00 -0.00000000000E+00 -0.18358783721E+04  0.18358783721E+04  0.00000000000E+00 0.  1.
         21    1    1    2  503  502 -0.51380332415E+02 -0.50409738437E+02  0.49587020665E+03  0.50106720321E+03  0.00000000000E+00 0. -1.
         21    1    1    2  504  506  0.10363136168E+03 -0.77067297246E+01 -0.11679821200E+04  0.11725958747E+04  0.00000000000E+00 0.  1.
         21    1    1    2  505  504  0.20543037661E+02  0.43612132712E+02 -0.63971024388E+03  0.64152414658E+03  0.00000000000E+00 0.  1.
         21    1    1    2  506  501 -0.72794066921E+02  0.14504335449E+02  0.39186951820E+02  0.83934314310E+02  0.00000000000E+00 0. -1.
<scales pt_clust_3="71.88145" pt_clust_4="14000.00000" pt_clust_5="48.20824" pt_clust_6="124.01715"></scales>
<clustering>
<clus scale="   48.208">  2  5  1 -1</clus>
<clus scale="   71.881">  1  3  2 -1</clus>
<clus scale="  124.017">  1  6  2 -1</clus>
<clus scale="   71.881">  1  3  2 -1</clus>
</clustering>
</event>
<event>
 6    0  0.4469832E+002  0.1949003E+03  0.7546771E-02  0.1154114E+00
         21   -1    0    0  506  501  0.00000000000E+00  0.00000000000E+00  0.75376069165E+02  0.75376069165E+02  0.00000000000E+00 0. -1.
         21   -1    0    0  505  502 -0.00000000000E+00 -0.00000000000E+00 -0.20927583225E+04  0.20927583225E+04  0.00000000000E+00 0. -1.
         21    1    1    2  503  502 -0.19274371114E+03  0.48058194216E+02 -0.17109926425E+04  0.17224852832E+04  0.00000000000E+00 0. -1.
         21    1    1    2  504  501  0.95274646638E+02 -0.33042557294E+02 -0.25634653855E+03  0.27546799581E+03  0.00000000000E+00 0. -1.
         21    1    1    2  505  504  0.55457629300E+02  0.13794873821E+02 -0.89195347542E+02  0.10593232375E+03  0.00000000000E+00 0. -1.
         21    1    1    2  506  503  0.42011435199E+02 -0.28810510742E+02  0.39152275259E+02  0.64248788897E+02  0.00000000000E+00 0. -1.
<scales pt_clust_3="187.10908" pt_clust_4="41.06939" pt_clust_5="41.06939" pt_clust_6="50.94120"></scales>
<clustering>
<clus scale="   41.069">  4  5 -1 -1</clus>
<clus scale="   50.941">  1  6  2 -1</clus>
<clus scale="  187.109">  2  3  1 -1</clus>
<clus scale="   50.941">  1  3  2 -1</clus>
</clustering>
</event>
<event>
 6    0  0.4469832E+002  0.6913175E+02  0.7546771E-02  0.1363071E+00
         21   -1    0    0  504  501  0.00000000000E+00  0.00000000000E+00  0.40040885362E+03  0.40040885362E+03  0.00000000000E+00 0. -1.
         21   -1    0    0  505  502 -0.00000000000E+00 -0.00000000000E+00 -0.59398693495E+02  0.59398693495E+02  0.00000000000E+00 0. -1.
         21    1    1    2  503  502 -0.38924392863E+02  0.21022941150E+02  0.27875532374E+01  0.44326548111E+02  0.00000000000E+00 0. -1.
         21    1    1    2  504  506  0.16684052358E+02  0.84069632327E+02  0.13313437504E+03  0.15833768503E+03  0.00000000000E+00 0. -1.
         21    1    1    2  505  501 -0.19193763991E+02 -0.32773893757E+02  0.15569266791E+03  0.16025833997E+03  0.00000000000E+00 0. -1.
         21    1    1    2  506  503  0.41434104496E+02 -0.72318679720E+02  0.49395563934E+02  0.96884974006E+02  0.00000000000E+00 0. -1.
<scales pt_clust_3="44.51948" pt_clust_4="14000.00000" pt_clust_5="37.98064" pt_clust_6="69.13175"></scales>
<clustering>
<clus scale="   37.981">  1  5  2 -1</clus>
<clus scale="   44.519">  2  3  1 -1</clus>
<clus scale="   69.132">  2  6  1 -1</clus>
<clus scale="   37.981">  1  3  2 -1</clus>
</clustering>
</event>
<event>
 6    0  0.4469832E+002  0.2081760E+03  0.7546771E-02  0.1143019E+00
         21   -1    0    0  503  501  0.00000000000E+00  0.00000000000E+00  0.23236263388E+04  0.23236263388E+04  0.00000000000E+00 0.  1.
         21   -1    0    0  504  502 -0.00000000000E+00 -0.00000000000E+00 -0.50238883173E+03  0.50238883173E+03  0.00000000000E+00 0. -1.
         21    1    1    2  503  505  0.88994078318E+01  0.83868879270E+02  0.16156587823E+04  0.16178586123E+04  0.00000000000E+00 0.  1.
         21    1    1    2  504  501 -0.17793241977E+03  0.25578391424E+02  0.67268674037E+03  0.69629135481E+03  0.00000000000E+00 0. -1.
         21    1    1    2  505  506  0.39558473905E+02 -0.29685964001E+02 -0.63022277200E+02  0.80112026187E+02  0.00000000000E+00 0.  1.
         21    1    1    2  506  502  0.12947453803E+03 -0.79761306693E+02 -0.40408573845E+03  0.43175317725E+03  0.00000000000E+00 0. -1.
<scales pt_clust_3="84.33972" pt_clust_4="200.18001" pt_clust_5="32.58768" pt_clust_6="32.58768"></scales>
<clustering>
<clus scale="   32.588">  5  6 -1 -1</clus>
<clus scale="   84.340">  1  3  2 -1</clus>
<clus scale="  200.180">  1  4  2 -1</clus>
<clus scale="   84.340">  1  3  2 -1</clus>
</clustering>
</event>
<event>
 6    0  0.4469832E+002  0.1340148E+03  0.7546771E-02  0.1221617E+00
         21   -1    0    0  504  501  0.00000000000E+00  0.00000000000E+00  0.73421621237E+02  0.73421621237E+02  0.00000000000E+00 0. -1.
         21   -1    0    0  505  502 -0.00000000000E+00 -0.00000000000E+00 -0.13101780010E+04  0.13101780010E+04  0.00000000000E+00 0.  1.
         21    1    1    2  503  502 -0.18450191032E+02  0.26576372395E+02 -0.31626201220E+03  0.31791252488E+03  0.00000000000E+00 0.  1.
         21    1    1    2  504  503 -0.10945031287E+03 -0.81296475516E+02 -0.78719277583E+03  0.79891235704E+03  0.00000000000E+00 0.  1.
         21    1    1    2  505  506 -0.51651906024E+01  0.31877683883E+02 -0.12762081652E+03  0.13164322517E+03  0.00000000000E+00 0.  1.
         21    1    1    2  506  501  0.13306569451E+03  0.22842419238E+02 -0.56807751956E+01  0.13513151512E+03  0.00000000000E+00 0. -1.
<scales pt_clust_3="40.35149" pt_clust_4="14000.00000" pt_clust_5="32.29343" pt_clust_6="134.01481"></scales>
<clustering>
<clus scale="   32.293">  2  5  1 -1</clus>
<clus scale="   40.351">  2  3  1 -1</clus>
<clus scale="  134.015">  1  6  2 -1</clus>
<clus scale="  134.015">  1  3  2 -1</clus>
</clustering>
</event>
<event>
 6    0  0.4469832E+002  0.1800535E+03  0.7546771E-02  0.1167751E+00
         21   -1    0    0  505  501  0.00000000000E+00  0.00000000000E+00  0.22176444482E+04  0.22176444482E+04  0.00000000000E+00 0.  1.
         21   -1    0    0  504  502 -0.00000000000E+00 -0.00000000000E+00 -0.55948209378E+03  0.55948209378E+03  0.00000000000E+00 0.  1.
         21    1    1    2  503  502 -0.85524289601E+02 -0.13835806773E+03  0.56232519853E+03  0.58537764556E+03  0.00000000000E+00 0. -1.
         21    1    1    2  504  506  0.11356959192E+03  0.14035725453E+03 -0.51903803334E+03  0.54954407573E+03  0.00000000000E+00 0.  1.
         21    1    1    2  505  503  0.33889914522E+02  0.18277331737E+02  0.15492148151E+04  0.15496932375E+04  0.00000000000E+00 0.  1.
         21    1    1    2  506  501 -0.61935216844E+02 -0.20276518533E+02  0.65660374219E+02  0.92511583231E+02  0.00000000000E+00 0. -1.
<scales pt_clust_3="14000.00000" pt_clust_4="180.05353" pt_clust_5="38.50438" pt_clust_6="60.69008"></scales>
<clustering>
<clus scale="   38.504">  1  5  2 -1</clus>
<clus scale="   60.690">  1  6  2 -1</clus>
<clus scale="  180.054">  2  4  1 -1</clus>
<clus scale="   38.504">  1  3  2 -1</clus>
</clustering>
</event>
<event>
 6    0  0.4469832E+002  0.1335929E+03  0.7546771E-02  0.1222220E+00
         21   -1    0    0  506  501  0.00000000000E+00  0.00000000000E+00  0.25524497998E+04  0.25524497998E+04  0.00000000000E+00 0.  1.
         21   -1    0    0  504  502 -0.00000000000E+00 -0.00000000000E+00 -0.17323473161E+03  0.17323473161E+03  0.00000000000E+00 0. -1.
         21    1    1    2  503  505 -0.87753373255E+02  0.62858775179E+02  0.48486890918E+03  0.49673910579E+03  0.00000000000E+00 0.  1.
         21    1    1    2  504  503  0.11860698338E+03 -0.43415415216E+02 -0.76161114503E+02  0.14748908484E+03  0.00000000000E+00 0. -1.
         21    1    1    2  505  501 -0.65248956692E+01  0.39046527591E+02  0.20076381674E+04  0.20080284402E+04  0.00000000000E+00 0.  1.
         21    1    1    2  506  502 -0.24328714460E+02 -0.58489887554E+02 -0.37130893899E+02  0.73427900522E+02  0.00000000000E+00 0. -1.
<scales pt_clust_3="133.59285" pt_clust_4="14000.00000" pt_clust_5="39.58795" pt_clust_6="62.23394"></scales>
<clustering>
<clus scale="   39.588">  1  5  2 -1</clus>
<clus scale="   62.234">  2  6  1 -1</clus>
<clus scale="  133.593">  1  3  2 -1</clus>
<clus scale="   39.588">  1  3  2 -1</clus>
</clustering>
</event>
<event>
 6    0  0.4469832E+002  0.7057524E+02  0.7546771E-02  0.1358148E+00
         21   -1    0    0  506  501  0.00000000000E+00  0.00000000000E+00  0.15385679877E+04  0.15385679877E+04  0.00000000000E+00 0.  1.
         21   -1    0    0  504  502 -0.00000000000E+00 -0.00000000000E+00 -0.21622460741E+03  0.21622460741E+03  0.00000000000E+00 0. -1.
         21    1    1    2  503  505 -0.10533005549E+03 -0.10641337009E+02 -0.23347181690E+01  0.10589197114E+03  0.00000000000E+00 0. -1.
         21    1    1    2  504  501 -0.21842540235E+02 -0.21513692678E+02  0.52346800261E+02  0.60664017622E+02  0.00000000000E+00 0. -1.
         21    1    1    2  505  502  0.62190483183E+02  0.22653387776E+02 -0.15022791081E+03  0.16416228971E+03  0.00000000000E+00 0. -1.
         21    1    1    2  506  503  0.64982112539E+02  0.95016419103E+01  0.14225592090E+04  0.14240743166E+04  0.00000000000E+00 0.  1.
<scales pt_clust_3="70.57524" pt_clust_4="30.65837" pt_clust_5="14000.00000" pt_clust_6="45.39826"></scales>
<clustering>
<clus scale="   30.658">  1  4  2 -1</clus>
<clus scale="   45.398">  1  6  2 -1</clus>
<clus scale="   70.575">  1  3  2 -1</clus>
<clus scale="   30.658">  1  3  2 -1</clus>
</clustering>
</event>
<event>
 6    0  0.4469832E+002  0.6821192E+02  0.7546771E-02  0.1366281E+00
         21   -1    0    0  504  501  0.00000000000E+00  0.00000000000E+00  0.19367330189E+02  0.19367330189E+02  0.00000000000E+00 0. -1.
         21   -1    0    0  505  502 -0.00000000000E+00 -0.00000000000E+00 -0.21088310405E+04  0.21088310405E+04  0.00000000000E+00 0. -1.
         21    1    1    2  503  502  0.30283410623E+02 -0.62750813903E+02 -0.13764505171E+04  0.13782128920E+04  0.00000000000E+00 0. -1.
         21    1    1    2  504  503 -0.74738676990E+02  0.10643190406E+02 -0.14732806114E+03  0.16554366476E+03  0.00000000000E+00 0. -1.
         21    1    1    2  505  506  0.13661337766E+02  0.73433331998E+02 -0.52012409976E+03  0.52545995618E+03  0.00000000000E+00 0. -1.
         21    1    1    2  506  501  0.30793928601E+02 -0.21325708501E+02 -0.45561032335E+02  0.58981857797E+02  0.00000000000E+00 0. -1.
<scales pt_clust_3="14000.00000" pt_clust_4="52.78952" pt_clust_5="68.21192" pt_clust_6="37.45733"></scales>
<clustering>
<clus scale="   37.457">  1  6  2 -1</clus>
<clus scale="   52.790">  1  4  2 -1</clus>
<clus scale="   68.212">  1  5  2 -1</clus>
<clus scale="   37.457">  1  3  2 -1</clus>
</clustering>
</event>
<event>
 6    0  0.4469832E+002  0.7445247E+02  0.7546771E-02  0.1345575E+00
         21   -1    0    0  505  501  0.00000000000E+00  0.00000000000E+00  0.19321492810E+03  0.19321492810E+03  0.00000000000E+00 0. -1.
         21   -1    0    0  504  502 -0.00000000000E+00 -0.00000000000E+00 -0.33394961213E+03  0.33394961213E+03  0.00000000000E+00 0.  1.
         21    1    1    2  503  501  0.44700337827E+02 -0.26506033894E+00  0.39776123666E+02  0.59835862764E+02  0.00000000000E+00 0.  1.
         21    1    1    2  504  506 -0.73790769362E+02  0.12847253282E+01 -0.53715255569E+02  0.91280101024E+02  0.00000000000E+00 0.  1.
         21    1    1    2  505  502  0.46423194575E+02  0.72123511008E+02 -0.23165818423E+03  0.24702718101E+03  0.00000000000E+00 0.  1.
         21    1    1    2  506  503 -0.17332763040E+02 -0.73143175997E+02  0.10486263210E+03  0.12902139543E+03  0.00000000000E+00 0. -1.
<scales pt_clust_3="44.70112" pt_clust_4="67.94782" pt_clust_5="74.45247" pt_clust_6="14000.00000"></scales>
<clustering>
<clus scale="   44.701">  1  3  2 -1</clus>
<clus scale="   67.948">  2  4  1 -1</clus>
<clus scale="   74.452">  2  5  1 -1</clus>
<clus scale="   44.701">  1  3  2 -1</clus>
</clustering>
</event>
<event>
 6    0  0.4469832E+002  0.8889736E+02  0.7546771E-02  0.1305544E+00
         21   -1    0    0  503  501  0.00000000000E+00  0.00000000000E+00  0.16363444454E+04  0.16363444454E+04  0.00000000000E+00 0.  1.
         21   -1    0    0  504  502 -0.00000000000E+00 -0.00000000000E+00 -0.55368024514E+03  0.55368024514E+03  0.00000000000E+00 0.  1.
         21    1    1    2  503  505 -0.72343830969E+02 -0.93793001412E+02  0.76746642971E+02  0.14114107907E+03  0.00000000000E+00 0.  1.
         21    1    1    2  504  506  0.32176051906E+02 -0.12755303375E+02  0.16671526771E+02  0.38417910996E+02  0.00000000000E+00 0. -1.
         21    1    1    2  505  502  0.25671120929E+02  0.70621671619E+02 -0.50759329447E+03  0.51312511100E+03  0.00000000000E+00 0.  1.
         21    1    1    2  506  501  0.14496658134E+02  0.35926633167E+02  0.14968393250E+04  0.14973405895E+04  0.00000000000E+00 0.  1.
<scales pt_clust_3="88.89736" pt_clust_4="34.61208" pt_clust_5="14000.00000" pt_clust_6="38.74124"></scales>
<clustering>
<clus scale="   34.612">  2  4  1 -1</clus>
<clus scale="   38.741">  1  6  2 -1</clus>
<clus scale="   88.897">  1  3  2 -1</clus>
<clus scale="   38.741">  1  3  2 -1</clus>
</clustering>
</event>
<event>
 6    0  0.4469832E+002  0.9053193E+02  0.7546771E-02  0.1301569E+00
         21   -1    0    0  506  501  0.00000000000E+00  0.00000000000E+00  0.17548863282E+04  0.17548863282E+04  0.00000000000E+00 0. -1.
         21   -1    0    0  504  502 -0.00000000000E+00 -0.00000000000E+00 -0.25833657230E+02  0.25833657230E+02  0.00000000000E+00 0. -1.
         21    1    1    2  503  501 -0.29633609241E+02  0.37547164176E+02  0.21505786440E+03  0.22031301680E+03  0.00000000000E+00 0. -1.
         21    1    1    2  504  503 -0.93823377201E+02 -0.19672125577E+01  0.22868993178E+03  0.24719583518E+03  0.00000000000E+00 0. -1.
         21    1    1    2  505  502  0.47586719616E+02 -0.83861521614E+02  0.17952547547E+03  0.20378087995E+03  0.00000000000E+00 0. -1.
         21    1    1    2  506  505  0.75870266827E+02  0.48281569996E+02  0.11057793994E+04  0.11094302535E+04  0.00000000000E+00 0. -1.
<scales pt_clust_3="47.83242" pt_clust_4="85.49680" pt_clust_5="90.53193" pt_clust_6="14000.00000"></scales>
<clustering>
<clus scale="   47.832">  1  3  2 -1</clus>
<clus scale="   90.532">  2  5  1 -1</clus>
<clus scale="   85.497">  2  4  1 -1</clus>
<clus scale="   47.832">  1  3  2 -1</clus>
</clustering>
</event>
<event>
 6    0  0.4469832E+002  0.8685530E+02  0.7546771E-02  0.1310651E+00
         21   -1    0    0  506  501  0.00000000000E+00  0.00000000000E+00  0.10429524917E+03  0.10429524917E+03  0.00000000000E+00 0. -1.
         21   -1    0    0  504  502 -0.00000000000E+00 -0.00000000000E+00 -0.75803216711E+03  0.75803216711E+03  0.00000000000E+00 0. -1.
         21    1    1    2  503  502  0.63694040172E+02  0.32089065775E+02 -0.57119309115E+03  0.57562851413E+03  0.00000000000E+00 0. -1.
         21    1    1    2  504  505 -0.37387400785E+02  0.41087186402E+01 -0.79209780620E+02  0.87686308237E+02  0.00000000000E+00 0. -1.
         21    1    1    2  505  501 -0.10443575845E+03 -0.41754697457E+02 -0.29767536510E+02  0.11634598675E+03  0.00000000000E+00 0. -1.
         21    1    1    2  506  503  0.78129119061E+02  0.55569130425E+01  0.26433490346E+02  0.82666607162E+02  0.00000000000E+00 0. -1.
<scales pt_clust_3="47.79695" pt_clust_4="37.61249" pt_clust_5="14000.00000" pt_clust_6="86.85530"></scales>
<clustering>
<clus scale="   37.612">  2  4  1 -1</clus>
<clus scale="   47.797">  2  3  1 -1</clus>
<clus scale="   86.855">  1  6  2 -1</clus>
<clus scale="   86.855">  1  3  2 -1</clus>
</clustering>
</event>
<event>
 6    0  0.4469832E+002  0.1170968E+03  0.7546771E-02  0.1247965E+00
         21   -1    0    0  502  501  0.00000000000E+00  0.00000000000E+00  0.66657057530E+03  0.66657057530E+03  0.00000000000E+00 0. -1.
         21   -1    0    0  506  502 -0.00000000000E+00 -0.00000000000E+00 -0.13046838161E+03  0.13046838161E+03  0.00000000000E+00 0.  1.
         21    1    1    2  503  504  0.43897123497E+02  0.71288446614E+02 -0.45959138497E+02  0.95505196107E+02  0.00000000000E+00 0.  1.
         21    1    1    2  504  505  0.61334716774E+02 -0.11717388127E+03  0.39382178894E+03  0.41543623744E+03  0.00000000000E+00 0. -1.
         21    1    1    2  505  501 -0.93047870346E+02  0.15744852283E+02  0.22077785885E+03  0.24010137340E+03  0.00000000000E+00 0. -1.
         21    1    1    2  506  503 -0.12183969925E+02  0.30140582372E+02 -0.32538315609E+02  0.45996149964E+02  0.00000000000E+00 0.  1.
<scales pt_clust_3="31.57370" pt_clust_4="105.56731" pt_clust_5="94.37058" pt_clust_6="31.57370"></scales>
<clustering>
<clus scale="   31.574">  3  6 -1 -1</clus>
<clus scale="   94.371">  1  5  2 -1</clus>
<clus scale="  105.567">  1  4  2 -1</clus>
<clus scale="   94.371">  1  3  2 -1</clus>
</clustering>
</event>
<event>
 6    0  0.4469832E+002  0.1386383E+03  0.7546771E-02  0.1215173E+00
         21   -1    0    0  505  501  0.00000000000E+00  0.00000000000E+00  0.18444283978E+04  0.18444283978E+04  0.00000000000E+00 0. -1.
         21   -1    0    0  504  502 -0.00000000000E+00 -0.00000000000E+00 -0.21367884499E+02  0.21367884499E+02  0.00000000000E+00 0. -1.
         21    1    1    2  503  506 -0.27629321259E+02  0.54003702860E+02  0.20215301156E+03  0.21105833174E+03  0.00000000000E+00 0.  1.
         21    1    1    2  504  503 -0.53185611797E+02  0.44551861437E+02  0.13042884058E+03  0.14773374738E+03  0.00000000000E+00 0. -1.
         21    1    1    2  505  502  0.12924735293E+03 -0.71724287138E+02  0.74807961007E+03  0.76254334606E+03  0.00000000000E+00 0. -1.
         21    1    1    2  506  501 -0.48432419873E+02 -0.26831277159E+02  0.74239905107E+03  0.74446085710E+03  0.00000000000E+00 0. -1.
<scales pt_clust_3="40.50878" pt_clust_4="40.50878" pt_clust_5="131.69574" pt_clust_6="55.36801"></scales>
<clustering>
<clus scale="   40.509">  3  4 -1 -1</clus>
<clus scale="   55.368">  1  6  2 -1</clus>
<clus scale="  131.696">  1  5  2 -1</clus>
<clus scale="   55.368">  1  3  2 -1</clus>
</clustering>
</event>
<event>
 6    0  0.4469832E+002  0.1243911E+03  0.7546771E-02  0.1236024E+00
         21   -1    0    0  505  501  0.00000000000E+00  0.00000000000E+00  0.54950328760E+03  0.54950328760E+03  0.00000000000E+00 0. -1.
         21   -1    0    0  503  502 -0.00000000000E+00 -0.00000000000E+00 -0.42885673926E+02  0.42885673926E+02  0.00000000000E+00 0. -1.
         21    1    1    2  503  501  0.15092276873E+02  0.31420412088E+02  0.67103288118E+02  0.75616601308E+02  0.00000000000E+00 0. -1.
         21    1    1    2  504  502  0.53970488851E+02 -0.11461255621E+02  0.49178684299E+02  0.73910195756E+02  0.00000000000E+00 0. -1.
         21    1    1    2  505  506 -0.11418573216E+03  0.33668505764E+02  0.32847107534E+03  0.34937830076E+03  0.00000000000E+00 0. -1.
         21    1    1    2  506  504  0.45122966434E+02 -0.53627662231E+02  0.61864565914E+02  0.93483863698E+02  0.00000000000E+00 0. -1.
<scales pt_clust_3="34.85712" pt_clust_4="36.82797" pt_clust_5="117.63950" pt_clust_6="36.82797"></scales>
<clustering>
<clus scale="   34.857">  1  3  2 -1</clus>
<clus scale="   36.828">  4  6 -1 -1</clus>
<clus scale="  117.639">  1  5  2 -1</clus>
<clus scale="   34.857">  1  3  2 -1</clus>
</clustering>
</event>
<event>
 6    0  0.4469832E+002  0.1457839E+03  0.7546771E-02  0.1205752E+00
         21   -1    0    0  506  501  0.00000000000E+00  0.00000000000E+00  0.10710812716E+03  0.10710812716E+03  0.00000000000E+00 0.  1.
         21   -1    0    0  504  502 -0.00000000000E+00 -0.00000000000E+00 -0.13014133324E+04  0.13014133324E+04  0.00000000000E+00 0. -1.
         21    1    1    2  503  502  0.19912908963E+02  0.34133070063E+02 -0.67034455435E+03  0.67150831117E+03  0.00000000000E+00 0. -1.
         21    1    1    2  504  501  0.52991735946E+02  0.29358858740E+01 -0.34063333047E+03  0.34474310628E+03  0.00000000000E+00 0.  1.
         21    1    1    2  505  503  0.55132381522E+02  0.67995465800E+02 -0.20719945621E+03  0.22493238432E+03  0.00000000000E+00 0. -1.
         21    1    1    2  506  505 -0.12803702643E+03 -0.10506442174E+03  0.23872135783E+02  0.16733765780E+03  0.00000000000E+00 0.  1.
<scales pt_clust_3="39.51696" pt_clust_4="67.33570" pt_clust_5="145.78392" pt_clust_6="14000.00000"></scales>
<clustering>
<clus scale="   39.517">  2  3  1 -1</clus>
<clus scale="   67.336">  2  4  1 -1</clus>
<clus scale="  145.784">  2  5  1 -1</clus>
<clus scale="  145.784">  1  3  2 -1</clus>
</clustering>
</event>
<event>
 6    0  0.4469832E+002  0.1296193E+03  0.7546771E-02  0.1228022E+00
         21   -1    0    0  502  501  0.00000000000E+00  0.00000000000E+00  0.89236840401E+03  0.89236840401E+03  0.00000000000E+00 0. -1.
         21   -1    0    0  505  502 -0.00000000000E+00 -0.00000000000E+00 -0.86898388380E+02  0.86898388380E+02  0.00000000000E+00 0.  1.
         21    1    1    2  503  501  0.49164512920E+02  0.64679691474E+02  0.30685535968E+03  0.31742845428E+03  0.00000000000E+00 0. -1.
         21    1    1    2  504  503  0.73420145908E+02 -0.49407407072E+02  0.51822042476E+03  0.52572237763E+03  0.00000000000E+00 0. -1.
         21    1    1    2  505  506 -0.94539061910E+02 -0.34069012045E+02 -0.19440132547E+02  0.10235355667E+03  0.00000000000E+00 0.  1.
         21    1    1    2  506  504 -0.28045596917E+02  0.18796727643E+02 -0.16563626129E+00  0.33762403823E+02  0.00000000000E+00 0. -1.
<scales pt_clust_3="81.24415" pt_clust_4="117.97556" pt_clust_5="31.12207" pt_clust_6="31.12207"></scales>
<clustering>
<clus scale="   31.122">  5  6 -1 -1</clus>
<clus scale="   81.244">  1  3  2 -1</clus>
<clus scale="  117.976">  1  4  2 -1</clus>
<clus scale="   81.244">  1  3  2 -1</clus>
</clustering>
</event>
<event>
 6    0  0.4469832E+002  0.1443378E+03  0.7546771E-02  0.1207609E+00
         21   -1    0    0  505  501  0.00000000000E+00  0.00000000000E+00  0.81621463605E+03  0.81621463605E+03  0.00000000000E+00 0.  1.
         21   -1    0    0  503  502 -0.00000000000E+00 -0.00000000000E+00 -0.13587847970E+03  0.13587847970E+03  0.00000000000E+00 0.  1.
         21    1    1    2  503  506 -0.10840790487E+03  0.54803377350E+01  0.71361794020E+02  0.12990309306E+03  0.00000000000E+00 0.  1.
         21    1    1    2  504  502  0.56280996607E+02 -0.86467129081E+01 -0.13750325283E+02  0.58578047668E+02  0.00000000000E+00 0.  1.
         21    1    1    2  505  504  0.11975907851E+03  0.12666185658E+03  0.61266053763E+02  0.18476740010E+03  0.00000000000E+00 0.  1.
         21    1    1    2  506  501 -0.67632170246E+02 -0.12349548141E+03  0.56145863385E+03  0.57884457491E+03  0.00000000000E+00 0.  1.
<scales pt_clust_3="91.93398" pt_clust_4="56.94134" pt_clust_5="14000.00000" pt_clust_6="144.33776"></scales>
<clustering>
<clus scale="   56.941">  2  4  1 -1</clus>
<clus scale="   91.934">  2  3  1 -1</clus>
<clus scale="  144.338">  1  6  2 -1</clus>
<clus scale="  144.338">  1  3  2 -1</clus>
</clustering>
</event>
<event>
 6    0  0.4469832E+002  0.1514079E+03  0.7546771E-02  0.1198754E+00
         21   -1    0    0  505  501  0.00000000000E+00  0.00000000000E+00  0.45154885445E+03  0.45154885445E+03  0.00000000000E+00 0.  1.
         21   -1    0    0  506  502 -0.00000000000E+00 -0.00000000000E+00 -0.12419779768E+03  0.12419779768E+03  0.00000000000E+00 0. -1.
         21    1    1    2  503  504  0.39563048962E+02 -0.23397197169E+02  0.16389267515E+03  0.17021595884E+03  0.00000000000E+00 0.  1.
         21    1    1    2  504  502 -0.42951860608E+02  0.99483200302E+01  0.21905026141E+02  0.49230697450E+02  0.00000000000E+00 0.  1.
         21    1    1    2  505  503  0.10611856373E+03  0.56320251864E+01  0.20809097897E+03  0.23365514076E+03  0.00000000000E+00 0.  1.
         21    1    1    2  506  501 -0.10272975208E+03  0.78168519523E+01 -0.66537623491E+02  0.12264485508E+03  0.00000000000E+00 0. -1.
<scales pt_clust_3="37.21082" pt_clust_4="44.08890" pt_clust_5="37.21082" pt_clust_6="140.43884"></scales>
<clustering>
<clus scale="   37.211">  3  5 -1 -1</clus>
<clus scale="   44.089">  2  4  1 -1</clus>
<clus scale="  140.439">  2  6  1 -1</clus>
<clus scale="  151.408">  1  3  2 -1</clus>
</clustering>
</event>
<event>
 6    0  0.4620237E+002  0.1114178E+03  0.7546771E-02  0.1257967E+00
         21   -1    0    0  506  501  0.00000000000E+00  0.00000000000E+00  0.10995752113E+04  0.10995752113E+04  0.00000000000E+00 0. -1.
         21   -1    0    0  505  502 -0.00000000000E+00 -0.00000000000E+00 -0.15160524452E+04  0.15160524452E+04  0.00000000000E+00 0. -1.
         21    1    1    2  503  501 -0.11754834772E+02 -0.63644779402E+02  0.63780595422E+01  0.65034711726E+02  0.00000000000E+00 0. -1.
         21    1    1    2  504  503  0.15934754391E+01 -0.76341060148E+02 -0.40971850913E+02  0.86655577983E+02  0.00000000000E+00 0. -1.
         21    1    1    2  505  504 -0.32390518756E+02  0.95275762609E+02 -0.14202136037E+04  0.14237743138E+04  0.00000000000E+00 0. -1.
         21    1    1    2  506  502  0.42551878089E+02  0.44710076941E+02  0.10383301612E+04  0.10401630530E+04  0.00000000000E+00 0. -1.
<scales pt_clust_3="42.32936" pt_clust_4="42.32936" pt_clust_5="101.48895" pt_clust_6="61.72239"></scales>
<clustering>
<clus scale="   42.329">  3  4 -1 -1</clus>
<clus scale="   61.722">  1  6  2 -1</clus>
<clus scale="  101.489">  2  5  1 -1</clus>
<clus scale="   61.722">  1  3  2 -1</clus>
</clustering>
</event>
<event>
 6    0  0.4469832E+002  0.6613184E+02  0.7546771E-02  0.1373764E+00
         21   -1    0    0  506  501  0.00000000000E+00  0.00000000000E+00  0.55852429588E+03  0.55852429588E+03  0.00000000000E+00 0.  1.
         21   -1    0    0  503  502 -0.00000000000E+00 -0.00000000000E+00 -0.32938130317E+03  0.32938130317E+03  0.00000000000E+00 0.  1.
         21    1    1    2  503  504  0.26236043451E+02 -0.44805585909E+02 -0.82057406853E+01  0.52566193364E+02  0.00000000000E+00 0. -1.
         21    1    1    2  504  501  0.44128952684E+02 -0.10564951314E+03  0.46064961442E+03  0.47466540990E+03  0.00000000000E+00 0.  1.
         21    1    1    2  505  502 -0.46825795048E+02  0.10110828346E+03 -0.26787999842E+03  0.29012968414E+03  0.00000000000E+00 0.  1.
         21    1    1    2  506  505 -0.23539201088E+02  0.49346815588E+02  0.44579117404E+02  0.70544311642E+02  0.00000000000E+00 0.  1.
<scales pt_clust_3="51.92177" pt_clust_4="66.13184" pt_clust_5="14000.00000" pt_clust_6="52.42753"></scales>
<clustering>
<clus scale="   51.922">  2  3  1 -1</clus>
<clus scale="   52.428">  1  6  2 -1</clus>
<clus scale="   66.132">  1  4  2 -1</clus>
<clus scale="   52.428">  1  3  2 -1</clus>
</clustering>
</event>
<event>
 6    0  0.4469832E+002  0.1099979E+03  0.7546771E-02  0.1260574E+00
         21   -1    0    0  503  501  0.00000000000E+00  0.00000000000E+00  0.12334351068E+04  0.12334351068E+04  0.00000000000E+00 0.  1.
         21   -1    0    0  504  502 -0.00000000000E+00 -0.00000000000E+00 -0.48255720878E+02  0.48255720878E+02  0.00000000000E+00 0.  1.
         21    1    1    2  503  505 -0.54485610362E+02 -0.20119434929E+02  0.77410357225E+03  0.77627946898E+03  0.00000000000E+00 0.  1.
         21    1    1    2  504  506  0.11654606672E+03 -0.21606665067E+02  0.72347956012E+02  0.13886706010E+03  0.00000000000E+00 0.  1.
         21    1    1    2  505  502 -0.92041342107E+02  0.43806705499E+01  0.21936025777E+03  0.23792797570E+03  0.00000000000E+00 0.  1.
         21    1    1    2  506  501  0.29980885752E+02  0.37345429445E+02  0.11936759991E+03  0.12861632291E+03  0.00000000000E+00 0.  1.
<scales pt_clust_3="34.06535" pt_clust_4="14000.00000" pt_clust_5="109.99788" pt_clust_6="47.89086"></scales>
<clustering>
<clus scale="   47.891">  1  6  2 -1</clus>
<clus scale="   34.065">  1  3  2 -1</clus>
<clus scale="  109.998">  1  5  2 -1</clus>
<clus scale="   47.891">  1  3  2 -1</clus>
</clustering>
</event>
<event>
 6    0  0.4469832E+002  0.7932112E+02  0.7546771E-02  0.1330989E+00
         21   -1    0    0  506  501  0.00000000000E+00  0.00000000000E+00  0.32132727065E+03  0.32132727065E+03  0.00000000000E+00 0.  1.
         21   -1    0    0  504  502 -0.00000000000E+00 -0.00000000000E+00 -0.26505535613E+03  0.26505535613E+03  0.00000000000E+00 0.  1.
         21    1    1    2  503  501 -0.14348526079E+01  0.80308184122E+02  0.23622091969E+03  0.24950307841E+03  0.00000000000E+00 0.  1.
         21    1    1    2  504  503 -0.19598472549E+02 -0.33358396142E+02 -0.71999674233E+02  0.81736379961E+02  0.00000000000E+00 0.  1.
         21    1    1    2  505  502 -0.50188500906E+02  0.20881017599E+02 -0.14121452864E+03  0.15131571504E+03  0.00000000000E+00 0.  1.
         21    1    1    2  506  505  0.71221826063E+02 -0.67830805579E+02  0.33265197704E+02  0.10382745336E+03  0.00000000000E+00 0.  1.
<scales pt_clust_3="14000.00000" pt_clust_4="38.68957" pt_clust_5="65.61538" pt_clust_6="79.32112"></scales>
<clustering>
<clus scale="   38.690">  2  4  1 -1</clus>
<clus scale="   65.615">  2  5  1 -1</clus>
<clus scale="   79.321">  2  6  1 -1</clus>
<clus scale="   79.321">  1  3  2 -1</clus>
</clustering>
</event>
<event>
 6    0  0.4469832E+002  0.1553439E+03  0.7546771E-02  0.1194056E+00
         21   -1    0    0  505  501  0.00000000000E+00  0.00000000000E+00  0.94386682799E+03  0.94386682799E+03  0.00000000000E+00 0. -1.
         21   -1    0    0  503  502 -0.00000000000E+00 -0.00000000000E+00 -0.38913170703E+03  0.38913170703E+03  0.00000000000E+00 0. -1.
         21    1    1    2  503  501  0.10027223081E+03 -0.83612897994E+02 -0.19242339175E+03  0.23253472574E+03  0.00000000000E+00 0. -1.
         21    1    1    2  504  506 -0.30838026989E+02  0.38978526537E+02 -0.12555483791E+02  0.51263531021E+02  0.00000000000E+00 0. -1.
         21    1    1    2  505  504  0.45811914931E+02  0.89894143215E+01  0.87859473821E+03  0.87983422025E+03  0.00000000000E+00 0. -1.
         21    1    1    2  506  502 -0.11524611875E+03  0.35644957135E+02 -0.11888074170E+03  0.16936605801E+03  0.00000000000E+00 0. -1.
<scales pt_clust_3="140.13932" pt_clust_4="43.02380" pt_clust_5="46.68556" pt_clust_6="43.02380"></scales>
<clustering>
<clus scale="   43.024">  4  6 -1 -1</clus>
<clus scale="   46.686">  1  5  2 -1</clus>
<clus scale="  140.139">  2  3  1 -1</clus>
<clus scale="   46.686">  1  3  2 -1</clus>
</clustering>
</event>
<event>
 6    0  0.4469832E+002  0.9371410E+02  0.7546771E-02  0.1294099E+00
         21   -1    0    0  504  501  0.00000000000E+00  0.00000000000E+00  0.61547798863E+03  0.61547798863E+03  0.00000000000E+00 0.  1.
         21   -1    0    0  505  502 -0.00000000000E+00 -0.00000000000E+00 -0.34419120154E+03  0.34419120154E+03  0.00000000000E+00 0. -1.
         21    1    1    2  503  502  0.48910231290E+02  0.60979447747E+02 -0.13156473986E+03  0.15303589300E+03  0.00000000000E+00 0. -1.
         21    1    1    2  504  506  0.36382535789E+02  0.67164269336E+02  0.86433447420E+01  0.76872852128E+02  0.00000000000E+00 0. -1.
         21    1    1    2  505  501 -0.44080165549E+02  0.15551155788E+02  0.52744594841E+03  0.52951310459E+03  0.00000000000E+00 0.  1.
         21    1    1    2  506  503 -0.41212601530E+02 -0.14369487287E+03 -0.13323776620E+03  0.20024734045E+03  0.00000000000E+00 0. -1.
<scales pt_clust_3="14000.00000" pt_clust_4="76.24146" pt_clust_5="46.74291" pt_clust_6="93.71410"></scales>
<clustering>
<clus scale="   46.743">  1  5  2 -1</clus>
<clus scale="   76.241">  1  4  2 -1</clus>
<clus scale="   93.714">  1  6  2 -1</clus>
<clus scale="   46.743">  1  3  2 -1</clus>
</clustering>
</event>
<event>
 6    0  0.4469832E+002  0.1065446E+03  0.7546771E-02  0.1267106E+00
         21   -1    0    0  504  501  0.00000000000E+00  0.00000000000E+00  0.10120321270E+04  0.10120321270E+04  0.00000000000E+00 0.  1.
         21   -1    0    0  505  502 -0.00000000000E+00 -0.00000000000E+00 -0.21226921133E+03  0.21226921133E+03  0.00000000000E+00 0. -1.
         21    1    1    2  503  502  0.16001578013E+01 -0.45157340105E+02 -0.60718544657E+02  0.75686772527E+02  0.00000000000E+00 0. -1.
         21    1    1    2  504  506 -0.61027533760E+02 -0.13377896549E+02  0.18908056070E+03  0.19913509592E+03  0.00000000000E+00 0. -1.
         21    1    1    2  505  501  0.91525808376E+02  0.10775434009E+03  0.79772566822E+03  0.81015690650E+03  0.00000000000E+00 0.  1.
         21    1    1    2  506  503 -0.32098432417E+02 -0.49219103432E+02 -0.12632476860E+03  0.13932256338E+03  0.00000000000E+00 0. -1.
<scales pt_clust_3="32.89016" pt_clust_4="62.47662" pt_clust_5="99.72465" pt_clust_6="32.89016"></scales>
<clustering>
<clus scale="   32.890">  3  6 -1 -1</clus>
<clus scale="   62.477">  1  4  2 -1</clus>
<clus scale="   99.725">  1  5  2 -1</clus>
<clus scale="   62.477">  1  3  2 -1</clus>
</clustering>
</event>
<event>
 6    0  0.4469832E+002  0.1583127E+03  0.7546771E-02  0.1190615E+00
         21   -1    0    0  504  501  0.00000000000E+00  0.00000000000E+00  0.40482350236E+03  0.40482350236E+03  0.00000000000E+00 0.  1.
         21   -1    0    0  506  502 -0.00000000000E+00 -0.00000000000E+00 -0.24906468768E+04  0.24906468768E+04  0.00000000000E+00 0.  1.
         21    1    1    2  503  501  0.40669972282E+02 -0.12287040604E+02  0.11376057984E+03  0.12143511658E+03  0.00000000000E+00 0.  1.
         21    1    1    2  504  502  0.19953595735E+02  0.65653827280E+02 -0.11844712209E+03  0.13688788022E+03  0.00000000000E+00 0.  1.
         21    1    1    2  505  503  0.67901893307E+02  0.12778357884E+03  0.25354053974E+03  0.29192827103E+03  0.00000000000E+00 0.  1.
         21    1    1    2  506  505 -0.12852546132E+03 -0.18115036552E+03 -0.23346773719E+04  0.23452191113E+04  0.00000000000E+00 0.  1.
<scales pt_clust_3="42.48550" pt_clust_4="68.63484" pt_clust_5="158.31273" pt_clust_6="14000.00000"></scales>
<clustering>
<clus scale="   42.486">  1  3  2 -1</clus>
<clus scale="   68.635">  2  4  1 -1</clus>
<clus scale="  158.313">  1  5  2 -1</clus>
<clus scale="   42.486">  1  3  2 -1</clus>
</clustering>
</event>
<event>
 6    0  0.4469832E+002  0.8163381E+02  0.7546771E-02  0.1324478E+00
         21   -1    0    0  506  501  0.00000000000E+00  0.00000000000E+00  0.25073533628E+03  0.25073533628E+03  0.00000000000E+00 0.  1.
         21   -1    0    0  503  502 -0.00000000000E+00 -0.00000000000E+00 -0.28719268769E+03  0.28719268769E+03  0.00000000000E+00 0.  1.
         21    1    1    2  503  504  0.27183529461E+02 -0.19584302295E+02 -0.66300567013E+02  0.74284953770E+02  0.00000000000E+00 0.  1.
         21    1    1    2  504  501  0.11960286375E+03  0.49336868521E+02 -0.95324242729E+02  0.16070371142E+03  0.00000000000E+00 0.  1.
         21    1    1    2  505  502 -0.67748495192E+02 -0.26237719903E+02 -0.64676624095E+02  0.97269431225E+02  0.00000000000E+00 0.  1.
         21    1    1    2  506  505 -0.79037898019E+02 -0.35148463227E+01  0.18984408242E+03  0.20566992755E+03  0.00000000000E+00 0.  1.
<scales pt_clust_3="33.50357" pt_clust_4="81.63381" pt_clust_5="66.65831" pt_clust_6="14000.00000"></scales>
<clustering>
<clus scale="   33.504">  2  3  1 -1</clus>
<clus scale="   66.658">  2  5  1 -1</clus>
<clus scale="   81.634">  2  4  1 -1</clus>
<clus scale="   81.634">  1  3  2 -1</clus>
</clustering>
</event>
<event>
 6    0  0.4469832E+002  0.2717389E+03  0.7546771E-02  0.1100288E+00
         21   -1    0    0  505  501  0.00000000000E+00  0.00000000000E+00  0.57052544331E+03  0.57052544331E+03  0.00000000000E+00 0. -1.
         21   -1    0    0  504  502 -0.00000000000E+00 -0.00000000000E+00 -0.27382087272E+03  0.27382087272E+03  0.00000000000E+00 0. -1.
         21    1    1    2  503  502 -0.32242768614E+02  0.29255503909E+02  0.42355270249E+01  0.43742660253E+02  0.00000000000E+00 0.  1.
         21    1    1    2  504  506  0.96046386559E+02  0.20567347204E+03  0.19839527626E+03  0.30147499252E+03  0.00000000000E+00 0. -1.
         21    1    1    2  505  503 -0.21286658773E+03 -0.21721877711E+03 -0.28315441970E+02  0.30544712400E+03  0.00000000000E+00 0. -1.
         21    1    1    2  506  501  0.14906296979E+03 -0.17710198838E+02  0.12238920928E+03  0.19368153927E+03  0.00000000000E+00 0. -1.
<scales pt_clust_3="43.53712" pt_clust_4="14000.00000" pt_clust_5="271.73891" pt_clust_6="145.17818"></scales>
<clustering>
<clus scale="   43.537">  2  3  1 -1</clus>
<clus scale="  145.178">  1  6  2 -1</clus>
<clus scale="  271.739">  2  5  1 -1</clus>
<clus scale="  145.178">  1  3  2 -1</clus>
</clustering>
</event>
<event>
 6    0  0.4469832E+002  0.1418512E+03  0.7546771E-02  0.1210860E+00
         21   -1    0    0  503  501  0.00000000000E+00  0.00000000000E+00  0.79358485605E+03  0.79358485605E+03  0.00000000000E+00 0.  1.
         21   -1    0    0  505  502 -0.00000000000E+00 -0.00000000000E+00 -0.88059736582E+03  0.88059736582E+03  0.00000000000E+00 0. -1.
         21    1    1    2  503  502  0.11405115587E+03  0.80649464917E+02  0.72696687499E+03  0.74026538463E+03  0.00000000000E+00 0.  1.
         21    1    1    2  504  506 -0.60188975054E+02 -0.21965590526E+02 -0.31267577533E+03  0.31917290042E+03  0.00000000000E+00 0. -1.
         21    1    1    2  505  504 -0.24840883904E+02 -0.70619941974E+02 -0.55094947140E+03  0.55601219928E+03  0.00000000000E+00 0. -1.
         21    1    1    2  506  501 -0.29021296913E+02  0.11936067583E+02  0.49645861965E+02  0.58731737537E+02  0.00000000000E+00 0. -1.
<scales pt_clust_3="125.79158" pt_clust_4="60.70301" pt_clust_5="60.70301" pt_clust_6="31.38002"></scales>
<clustering>
<clus scale="   31.380">  1  6  2 -1</clus>
<clus scale="   60.703">  4  5 -1 -1</clus>
<clus scale="  125.792">  1  3  2 -1</clus>
<clus scale="   31.380">  1  3  2 -1</clus>
</clustering>
</event>
<event>
 6    0  0.4469832E+002  0.1186192E+03  0.7546771E-02  0.1245393E+00
         21   -1    0    0  503  501  0.00000000000E+00  0.00000000000E+00  0.10184885451E+03  0.10184885451E+03  0.00000000000E+00 0. -1.
         21   -1    0    0  506  502 -0.00000000000E+00 -0.00000000000E+00 -0.37819545884E+03  0.37819545884E+03  0.00000000000E+00 0. -1.
         21    1    1    2  503  505  0.18660779906E+02  0.38305942011E+02  0.16371505010E+02  0.45646424574E+02  0.00000000000E+00 0. -1.
         21    1    1    2  504  502  0.50283703413E+02 -0.25659872826E+01 -0.22358907448E+03  0.22918793456E+03  0.00000000000E+00 0. -1.
         21    1    1    2  505  504  0.51873140206E+02  0.25416618177E+02 -0.18859269771E+02  0.60765937915E+02  0.00000000000E+00 0. -1.
         21    1    1    2  506  501 -0.12081762353E+03 -0.61156572905E+02 -0.50269765086E+02  0.14444401630E+03  0.00000000000E+00 0. -1.
<scales pt_clust_3="41.02598" pt_clust_4="50.34913" pt_clust_5="41.02598" pt_clust_6="108.57578"></scales>
<clustering>
<clus scale="   41.026">  3  5 -1 -1</clus>
<clus scale="   50.349">  2  4  1 -1</clus>
<clus scale="  108.576">  2  6  1 -1</clus>
<clus scale="  118.619">  1  3  2 -1</clus>
</clustering>
</event>
<event>
 6    0  0.4469832E+002  0.6666420E+02  0.7546771E-02  0.1371819E+00
         21   -1    0    0  503  501  0.00000000000E+00  0.00000000000E+00  0.42118735474E+02  0.42118735474E+02  0.00000000000E+00 0.  1.
         21   -1    0    0  505  502 -0.00000000000E+00 -0.00000000000E+00 -0.19170448810E+04  0.19170448810E+04  0.00000000000E+00 0.  1.
         21    1    1    2  503  506  0.56053758298E+02 -0.65524277719E+02 -0.41021172774E+03  0.41917671258E+03  0.00000000000E+00 0.  1.
         21    1    1    2  504  501 -0.20128293005E+02  0.38393260963E+02  0.20684928182E+02  0.48031832367E+02  0.00000000000E+00 0.  1.
         21    1    1    2  505  504 -0.17858592571E+02  0.79740959897E+02 -0.74470600211E+03  0.74917593367E+03  0.00000000000E+00 0.  1.
         21    1    1    2  506  502 -0.18066872722E+02 -0.52609943140E+02 -0.74069334382E+03  0.74277913782E+03  0.00000000000E+00 0.  1.
<scales pt_clust_3="66.66420" pt_clust_4="43.34963" pt_clust_5="14000.00000" pt_clust_6="51.79775"></scales>
<clustering>
<clus scale="   43.350">  1  4  2 -1</clus>
<clus scale="   51.798">  2  6  1 -1</clus>
<clus scale="   66.664">  1  3  2 -1</clus>
<clus scale="   43.350">  1  3  2 -1</clus>
</clustering>
</event>
<event>
 6    0  0.4469832E+002  0.1055926E+03  0.7546771E-02  0.1268956E+00
         21   -1    0    0  505  501  0.00000000000E+00  0.00000000000E+00  0.26456649395E+03  0.26456649395E+03  0.00000000000E+00 0. -1.
         21   -1    0    0  504  502 -0.00000000000E+00 -0.00000000000E+00 -0.25477815539E+03  0.25477815539E+03  0.00000000000E+00 0. -1.
         21    1    1    2  503  501 -0.77799215737E+02  0.82818567033E+02  0.14601203514E+03  0.18501661391E+03  0.00000000000E+00 0. -1.
         21    1    1    2  504  503  0.11034078273E+03 -0.25857809593E+02 -0.19399181578E+03  0.22466984498E+03  0.00000000000E+00 0. -1.
         21    1    1    2  505  506 -0.11333678151E+02 -0.28098521376E+02  0.66251647023E+02  0.72850943008E+02  0.00000000000E+00 0. -1.
         21    1    1    2  506  502 -0.21207888846E+02 -0.28862236064E+02 -0.84835278242E+01  0.36807247442E+02  0.00000000000E+00 0. -1.
<scales pt_clust_3="105.59265" pt_clust_4="14000.00000" pt_clust_5="30.29817" pt_clust_6="37.95182"></scales>
<clustering>
<clus scale="   30.298">  1  5  2 -1</clus>
<clus scale="   37.952">  2  6  1 -1</clus>
<clus scale="  105.593">  1  3  2 -1</clus>
<clus scale="   30.298">  1  3  2 -1</clus>
</clustering>
</event>
<event>
 6    0  0.4469832E+002  0.2919448E+03  0.7546771E-02  0.1089338E+00
         21   -1    0    0  506  501  0.00000000000E+00  0.00000000000E+00  0.61024062191E+03  0.61024062191E+03  0.00000000000E+00 0. -1.
         21   -1    0    0  504  502 -0.00000000000E+00 -0.00000000000E+00 -0.15725515394E+03  0.15725515394E+03  0.00000000000E+00 0. -1.
         21    1    1    2  503  505 -0.17836865641E+03 -0.75367856751E+02  0.39200880610E+02  0.19756619261E+03  0.00000000000E+00 0. -1.
         21    1    1    2  504  503 -0.75309073138E+02  0.29372406550E+01  0.85298606649E+02  0.11382414584E+03  0.00000000000E+00 0. -1.
         21    1    1    2  505  501  0.26328191453E+03  0.10418511009E+03  0.29763667389E+03  0.41080347287E+03  0.00000000000E+00 0. -1.
         21    1    1    2  506  502 -0.96041849813E+01 -0.31754493993E+02  0.30849306827E+02  0.45301964522E+02  0.00000000000E+00 0.  1.
<scales pt_clust_3="67.92235" pt_clust_4="67.92235" pt_clust_5="270.86262" pt_clust_6="33.17512"></scales>
<clustering>
<clus scale="   33.175">  1  6  2 -1</clus>
<clus scale="   67.922">  3  4 -1 -1</clus>
<clus scale="  270.863">  1  5  2 -1</clus>
<clus scale="   33.175">  1  3  2 -1</clus>
</clustering>
</event>
<event>
 6    0  0.4469832E+002  0.7911351E+02  0.7546771E-02  0.1331586E+00
         21   -1    0    0  505  501  0.00000000000E+00  0.00000000000E+00  0.13186755494E+03  0.13186755494E+03  0.00000000000E+00 0. -1.
         21   -1    0    0  503  502 -0.00000000000E+00 -0.00000000000E+00 -0.15939291597E+03  0.15939291597E+03  0.00000000000E+00 0. -1.
         21    1    1    2  503  501 -0.74749049605E+02  0.72689843064E+02 -0.19741636567E+02  0.10611769841E+03  0.00000000000E+00 0. -1.
         21    1    1    2  504  502  0.35510236655E+02 -0.98089173486E+00 -0.53144609785E+02  0.63924084702E+02  0.00000000000E+00 0. -1.
         21    1    1    2  505  506 -0.18052843622E+02 -0.45673559305E+02  0.24776170863E+02  0.55007616064E+02  0.00000000000E+00 0. -1.
         21    1    1    2  506  504  0.57291656572E+02 -0.26035392024E+02  0.20584714457E+02  0.66211071732E+02  0.00000000000E+00 0. -1.
<scales pt_clust_3="14000.00000" pt_clust_4="35.52378" pt_clust_5="47.55629" pt_clust_6="79.11351"></scales>
<clustering>
<clus scale="   35.524">  2  4  1 -1</clus>
<clus scale="   47.556">  1  5  2 -1</clus>
<clus scale="   79.114">  1  6  2 -1</clus>
<clus scale="   47.556">  1  3  2 -1</clus>
</clustering>
</event>
<event>
 6    0  0.4469832E+002  0.1040444E+03  0.7546771E-02  0.1272014E+00
         21   -1    0    0  503  501  0.00000000000E+00  0.00000000000E+00  0.57603862008E+03  0.57603862008E+03  0.00000000000E+00 0. -1.
         21   -1    0    0  504  502 -0.00000000000E+00 -0.00000000000E+00 -0.11378546296E+03  0.11378546296E+03  0.00000000000E+00 0.  1.
         21    1    1    2  503  505 -0.10342943355E+03 -0.18823622228E+02  0.48027994500E+03  0.49165109788E+03  0.00000000000E+00 0. -1.
         21    1    1    2  504  501  0.10667022710E+02  0.42608737423E+02  0.90215603614E+01  0.44840589087E+02  0.00000000000E+00 0.  1.
         21    1    1    2  505  506  0.92113473213E+02  0.25454666066E+02  0.30573040087E+01  0.95614743004E+02  0.00000000000E+00 0.  1.
         21    1    1    2  506  502  0.64893762879E+00 -0.49239781262E+02 -0.30105652253E+02  0.57717653074E+02  0.00000000000E+00 0.  1.
<scales pt_clust_3="104.04439" pt_clust_4="43.92368" pt_clust_5="14000.00000" pt_clust_6="30.23562"></scales>
<clustering>
<clus scale="   43.924">  2  4  1 -1</clus>
<clus scale="   30.236">  2  6  1 -1</clus>
<clus scale="  104.044">  1  3  2 -1</clus>
<clus scale="  104.044">  1  3  2 -1</clus>
</clustering>
</event>
<event>
 6    0  0.4469832E+002  0.1053112E+03  0.7546771E-02  0.1269508E+00
         21   -1    0    0  503  501  0.00000000000E+00  0.00000000000E+00  0.88254041004E+02  0.88254041004E+02  0.00000000000E+00 0. -1.
         21   -1    0    0  506  502 -0.00000000000E+00 -0.00000000000E+00 -0.29603082511E+03  0.29603082511E+03  0.00000000000E+00 0.  1.
         21    1    1    2  503  504 -0.19307408520E+01 -0.32320937405E+02 -0.24230902233E+01  0.32469094863E+02  0.00000000000E+00 0. -1.
         21    1    1    2  504  505  0.44078454323E+01 -0.47372688409E+02 -0.70079580982E+02  0.84703886447E+02  0.00000000000E+00 0.  1.
         21    1    1    2  505  502 -0.19683430680E+02 -0.45386179947E+02 -0.13183066983E+03  0.14080720252E+03  0.00000000000E+00 0. -1.
         21    1    1    2  506  501  0.17206326100E+02  0.12507980576E+03 -0.34434430708E+01  0.12630468229E+03  0.00000000000E+00 0. -1.
<scales pt_clust_3="32.37855" pt_clust_4="35.15978" pt_clust_5="35.15978" pt_clust_6="99.19924"></scales>
<clustering>
<clus scale="   32.379">  1  3  2 -1</clus>
<clus scale="   35.160">  4  5 -1 -1</clus>
<clus scale="   99.199">  1  6  2 -1</clus>
<clus scale="   32.379">  1  3  2 -1</clus>
</clustering>
</event>
<event>
 6    0  0.4469832E+002  0.1014142E+03  0.7546771E-02  0.1277350E+00
         21   -1    0    0  504  501  0.00000000000E+00  0.00000000000E+00  0.31197749802E+04  0.31197749802E+04  0.00000000000E+00 0.  1.
         21   -1    0    0  506  502 -0.00000000000E+00 -0.00000000000E+00 -0.56993427120E+02  0.56993427120E+02  0.00000000000E+00 0. -1.
         21    1    1    2  503  502 -0.15601295873E+03 -0.26749556396E+02  0.12916419050E+03  0.20430117515E+03  0.00000000000E+00 0. -1.
         21    1    1    2  504  503  0.56542632424E+02  0.75571206668E+01  0.26608406982E+04  0.26614521225E+04  0.00000000000E+00 0.  1.
         21    1    1    2  505  501  0.56138378911E+02  0.11980793063E+02  0.25854296212E+03  0.26483866834E+03  0.00000000000E+00 0. -1.
         21    1    1    2  506  505  0.43331947396E+02  0.72116426666E+01  0.14233702338E+02  0.46176441367E+02  0.00000000000E+00 0. -1.
<scales pt_clust_3="14000.00000" pt_clust_4="57.37262" pt_clust_5="101.41422" pt_clust_6="43.92796"></scales>
<clustering>
<clus scale="   43.928">  2  6  1 -1</clus>
<clus scale="   57.373">  1  4  2 -1</clus>
<clus scale="  101.414">  1  5  2 -1</clus>
<clus scale="   57.373">  1  3  2 -1</clus>
</clustering>
</event>
<event>
 6    0  0.4469832E+002  0.8874391E+02  0.7546771E-02  0.1305922E+00
         21   -1    0    0  503  501  0.00000000000E+00  0.00000000000E+00  0.67531840249E+02  0.67531840249E+02  0.00000000000E+00 0. -1.
         21   -1    0    0  504  502 -0.00000000000E+00 -0.00000000000E+00 -0.44712171688E+03  0.44712171688E+03  0.00000000000E+00 0. -1.
         21    1    1    2  503  505 -0.27741594532E+02 -0.35926285640E+02 -0.21146844566E+02  0.50074775109E+02  0.00000000000E+00 0. -1.
         21    1    1    2  504  506  0.76453838766E+02 -0.40903152091E+02 -0.86216340775E+02  0.12227638664E+03  0.00000000000E+00 0. -1.
         21    1    1    2  505  502 -0.94718269156E+02 -0.59246258073E+01 -0.20584207396E+03  0.22666629903E+03  0.00000000000E+00 0. -1.
         21    1    1    2  506  501  0.46006024922E+02  0.82754063539E+02 -0.66384617325E+02  0.11563609635E+03  0.00000000000E+00 0. -1.
<scales pt_clust_3="45.39046" pt_clust_4="88.74391" pt_clust_5="14000.00000" pt_clust_6="73.92367"></scales>
<clustering>
<clus scale="   45.390">  1  3  2 -1</clus>
<clus scale="   73.924">  1  6  2 -1</clus>
<clus scale="   88.744">  1  4  2 -1</clus>
<clus scale="   45.390">  1  3  2 -1</clus>
</clustering>
</event>
<event>
 6    0  0.4469832E+002  0.1577077E+03  0.7546771E-02  0.1191309E+00
         21   -1    0    0  504  501  0.00000000000E+00  0.00000000000E+00  0.43998523209E+03  0.43998523209E+03  0.00000000000E+00 0.  1.
         21   -1    0    0  503  502 -0.00000000000E+00 -0.00000000000E+00 -0.10879049666E+04  0.10879049666E+04  0.00000000000E+00 0. -1.
         21    1    1    2  503  506 -0.36642429528E+02 -0.48573874926E+02 -0.15850394887E+03  0.16978100829E+03  0.00000000000E+00 0.  1.
         21    1    1    2  504  502  0.93243914382E+02  0.11773102913E+03  0.32912396363E+03  0.36177010134E+03  0.00000000000E+00 0.  1.
         21    1    1    2  505  501 -0.19706191033E+02  0.23679395933E+02  0.83387518016E+02  0.88896152435E+02  0.00000000000E+00 0. -1.
         21    1    1    2  506  505 -0.36895293821E+02 -0.92836550139E+02 -0.90192726728E+03  0.90744293661E+03  0.00000000000E+00 0. -1.
<scales pt_clust_3="60.73455" pt_clust_4="157.70767" pt_clust_5="30.80662" pt_clust_6="14000.00000"></scales>
<clustering>
<clus scale="   30.807">  1  5  2 -1</clus>
<clus scale="   60.735">  2  3  1 -1</clus>
<clus scale="  157.708">  1  4  2 -1</clus>
<clus scale="   30.807">  1  3  2 -1</clus>
</clustering>
</event>
<event>
 6    0  0.4469832E+002  0.2283351E+03  0.7546771E-02  0.1127817E+00
         21   -1    0    0  503  501  0.00000000000E+00  0.00000000000E+00  0.12268599786E+03  0.12268599786E+03  0.00000000000E+00 0. -1.
         21   -1    0    0  506  502 -0.00000000000E+00 -0.00000000000E+00 -0.33736340800E+04  0.33736340800E+04  0.00000000000E+00 0.  1.
         21    1    1    2  503  505  0.40047645475E+02  0.22802648096E+03 -0.14449519938E+02  0.23196697729E+03  0.00000000000E+00 0. -1.
         21    1    1    2  504  501  0.29071735405E+02 -0.20692326486E+03 -0.10997669589E+04  0.11194417212E+04  0.00000000000E+00 0. -1.
         21    1    1    2  505  502  0.33219493261E+02  0.17229960571E+02 -0.13196434557E+03  0.13716776143E+03  0.00000000000E+00 0. -1.
         21    1    1    2  506  504 -0.10233887414E+03 -0.38333176672E+02 -0.20047672578E+04  0.20077436179E+04  0.00000000000E+00 0.  1.
<scales pt_clust_3="14000.00000" pt_clust_4="228.33511" pt_clust_5="37.42200" pt_clust_6="86.31521"></scales>
<clustering>
<clus scale="   37.422">  2  5  1 -1</clus>
<clus scale="   86.315">  2  6  1 -1</clus>
<clus scale="  228.335">  2  4  1 -1</clus>
<clus scale="  228.335">  1  3  2 -1</clus>
</clustering>
</event>
<event>
 6    0  0.4469832E+002  0.2297484E+03  0.7546771E-02  0.1126817E+00
         21   -1    0    0  506  501  0.00000000000E+00  0.00000000000E+00  0.95004584072E+03  0.95004584072E+03  0.00000000000E+00 0. -1.
         21   -1    0    0  503  502 -0.00000000000E+00 -0.00000000000E+00 -0.22189867593E+03  0.22189867593E+03  0.00000000000E+00 0.  1.
         21    1    1    2  503  501 -0.23220705469E+03 -0.53425410749E+02  0.77468785266E+03  0.81050333733E+03  0.00000000000E+00 0. -1.
         21    1    1    2  504  502  0.45782483558E+02 -0.32864033206E+02 -0.51649233292E+02  0.76444252753E+02  0.00000000000E+00 0.  1.
         21    1    1    2  505  504  0.16542284906E+03  0.33351797555E+02 -0.76661550107E+02  0.18534846818E+03  0.00000000000E+00 0. -1.
         21    1    1    2  506  505  0.21001722078E+02  0.52937646401E+02  0.81770095533E+02  0.99648458393E+02  0.00000000000E+00 0. -1.
<scales pt_clust_3="212.88613" pt_clust_4="49.92640" pt_clust_5="49.92640" pt_clust_6="56.95144"></scales>
<clustering>
<clus scale="   49.926">  4  5 -1 -1</clus>
<clus scale="   56.951">  1  6  2 -1</clus>
<clus scale="  212.886">  1  3  2 -1</clus>
<clus scale="   56.951">  1  3  2 -1</clus>
</clustering>
</event>
<event>
 6    0  0.4469832E+002  0.7760498E+02  0.7546771E-02  0.1335989E+00
         21   -1    0    0  506  501  0.00000000000E+00  0.00000000000E+00  0.14242105580E+03  0.14242105580E+03  0.00000000000E+00 0.  1.
         21   -1    0    0  503  502 -0.00000000000E+00 -0.00000000000E+00 -0.55202478554E+03  0.55202478554E+03  0.00000000000E+00 0. -1.
         21    1    1    2  503  505 -0.55915960710E+02 -0.52242813982E+02 -0.46715807815E+03  0.47338417406E+03  0.00000000000E+00 0. -1.
         21    1    1    2  504  501 -0.14593500758E+02  0.26625830474E+02 -0.20180369561E+02  0.36457542820E+02  0.00000000000E+00 0.  1.
         21    1    1    2  505  504  0.59087001643E+02  0.77625148906E+02  0.94485774608E+01  0.98011290788E+02  0.00000000000E+00 0.  1.
         21    1    1    2  506  502  0.11422459824E+02 -0.52008165398E+02  0.68286140513E+02  0.86592833668E+02  0.00000000000E+00 0.  1.
<scales pt_clust_3="14000.00000" pt_clust_4="30.36289" pt_clust_5="77.60498" pt_clust_6="36.77639"></scales>
<clustering>
<clus scale="   30.363">  1  4  2 -1</clus>
<clus scale="   36.776">  1  6  2 -1</clus>
<clus scale="   77.605">  1  5  2 -1</clus>
<clus scale="   30.363">  1  3  2 -1</clus>
</clustering>
</event>
<event>
 6    0  0.4469832E+002  0.1570045E+03  0.7546771E-02  0.1192121E+00
         21   -1    0    0  502  501  0.00000000000E+00  0.00000000000E+00  0.16580019608E+04  0.16580019608E+04  0.00000000000E+00 0. -1.
         21   -1    0    0  505  502 -0.00000000000E+00 -0.00000000000E+00 -0.61222389235E+02  0.61222389235E+02  0.00000000000E+00 0. -1.
         21    1    1    2  503  506  0.80418411279E+02 -0.31036769914E+02  0.16262663722E+03  0.18405929776E+03  0.00000000000E+00 0. -1.
         21    1    1    2  504  503  0.50743987963E+02  0.96735654373E+01  0.73192421021E+02  0.89586051803E+02  0.00000000000E+00 0. -1.
         21    1    1    2  505  504 -0.15152928433E+03  0.67447405171E+02  0.12275040743E+03  0.20634422453E+03  0.00000000000E+00 0. -1.
         21    1    1    2  506  501  0.20366885086E+02 -0.46084200695E+02  0.12382101059E+04  0.12392347759E+04  0.00000000000E+00 0. -1.
<scales pt_clust_3="31.07335" pt_clust_4="31.07335" pt_clust_5="151.78675" pt_clust_6="50.38416"></scales>
<clustering>
<clus scale="   31.073">  3  4 -1 -1</clus>
<clus scale="   50.384">  1  6  2 -1</clus>
<clus scale="  151.787">  2  5  1 -1</clus>
<clus scale="   50.384">  1  3  2 -1</clus>
</clustering>
</event>
<event>
 6    0  0.4469832E+002  0.2750608E+03  0.7546771E-02  0.1098418E+00
         21   -1    0    0  506  501  0.00000000000E+00  0.00000000000E+00  0.77318325746E+03  0.77318325746E+03  0.00000000000E+00 0.  1.
         21   -1    0    0  503  502 -0.00000000000E+00 -0.00000000000E+00 -0.22659340460E+03  0.22659340460E+03  0.00000000000E+00 0.  1.
         21    1    1    2  503  501 -0.14415644009E+03 -0.32999390291E+02  0.38522677202E+03  0.41263749812E+03  0.00000000000E+00 0.  1.
         21    1    1    2  504  505 -0.11681114086E+03 -0.79846660809E+02  0.72934649947E+02  0.15918478267E+03  0.00000000000E+00 0.  1.
         21    1    1    2  505  502  0.30240999596E+03  0.14601465925E+03  0.13445613165E+02  0.33608461864E+03  0.00000000000E+00 0.  1.
         21    1    1    2  506  504 -0.41442415010E+02 -0.33168608154E+02  0.74982817737E+02  0.91869762623E+02  0.00000000000E+00 0.  1.
<scales pt_clust_3="147.88522" pt_clust_4="35.35629" pt_clust_5="268.93544" pt_clust_6="35.35629"></scales>
<clustering>
<clus scale="   35.356">  4  6 -1 -1</clus>
<clus scale="  147.885">  1  3  2 -1</clus>
<clus scale="  268.935">  2  5  1 -1</clus>
<clus scale="  147.885">  1  3  2 -1</clus>
</clustering>
</event>
<event>
 6    0  0.4469832E+002  0.1909909E+03  0.7546771E-02  0.1157571E+00
         21   -1    0    0  504  501  0.00000000000E+00  0.00000000000E+00  0.10066844591E+04  0.10066844591E+04  0.00000000000E+00 0.  1.
         21   -1    0    0  505  502 -0.00000000000E+00 -0.00000000000E+00 -0.46541978455E+03  0.46541978455E+03  0.00000000000E+00 0.  1.
         21    1    1    2  503  506  0.22484040477E+02 -0.12247131593E+03 -0.14732155209E+03  0.19289477704E+03  0.00000000000E+00 0.  1.
         21    1    1    2  504  503  0.45397026216E+02  0.18224487654E+03  0.72952857146E+03  0.75331668081E+03  0.00000000000E+00 0.  1.
         21    1    1    2  505  501  0.30136355036E+02  0.16041116980E+01  0.22964910234E+03  0.23162358100E+03  0.00000000000E+00 0. -1.
         21    1    1    2  506  502 -0.98017421728E+02 -0.61377672315E+02 -0.27059144716E+03  0.29426920481E+03  0.00000000000E+00 0.  1.
<scales pt_clust_3="14000.00000" pt_clust_4="190.99086" pt_clust_5="30.17902" pt_clust_6="115.24633"></scales>
<clustering>
<clus scale="   30.179">  1  5  2 -1</clus>
<clus scale="  115.246">  2  6  1 -1</clus>
<clus scale="  190.991">  1  4  2 -1</clus>
<clus scale="   30.179">  1  3  2 -1</clus>
</clustering>
</event>
<event>
 6    0  0.4469832E+002  0.1015728E+03  0.7546771E-02  0.1277023E+00
         21   -1    0    0  505  501  0.00000000000E+00  0.00000000000E+00  0.59412240961E+03  0.59412240961E+03  0.00000000000E+00 0.  1.
         21   -1    0    0  506  502 -0.00000000000E+00 -0.00000000000E+00 -0.46125949647E+02  0.46125949647E+02  0.00000000000E+00 0.  1.
         21    1    1    2  503  501 -0.11814265517E+02  0.34506676690E+02  0.60588310178E+02  0.70719381616E+02  0.00000000000E+00 0.  1.
         21    1    1    2  504  503  0.80172317067E+02  0.20331895273E+02  0.60827034630E+02  0.10266895602E+03  0.00000000000E+00 0.  1.
         21    1    1    2  505  502 -0.10587511647E+03 -0.10433059455E+02  0.37273710296E+03  0.38762267341E+03  0.00000000000E+00 0.  1.
         21    1    1    2  506  504  0.37517064922E+02 -0.44405512509E+02  0.53844012190E+02  0.79237348203E+02  0.00000000000E+00 0.  1.
<scales pt_clust_3="36.47311" pt_clust_4="101.57279" pt_clust_5="14000.00000" pt_clust_6="53.87935"></scales>
<clustering>
<clus scale="   36.473">  1  3  2 -1</clus>
<clus scale="   53.879">  2  6  1 -1</clus>
<clus scale="  101.573">  2  4  1 -1</clus>
<clus scale="   36.473">  1  3  2 -1</clus>
</clustering>
</event>
<event>
 6    0  0.4469832E+002  0.1618389E+03  0.7546771E-02  0.1186636E+00
         21   -1    0    0  503  501  0.00000000000E+00  0.00000000000E+00  0.44768049704E+03  0.44768049704E+03  0.00000000000E+00 0. -1.
         21   -1    0    0  505  502 -0.00000000000E+00 -0.00000000000E+00 -0.40081016513E+03  0.40081016513E+03  0.00000000000E+00 0. -1.
         21    1    1    2  503  504 -0.93488973902E+01 -0.21812353599E+03  0.29728961313E+03  0.36884467315E+03  0.00000000000E+00 0. -1.
         21    1    1    2  504  502  0.70036437510E+02 -0.20987566932E+02 -0.19722809452E+02  0.75726942085E+02  0.00000000000E+00 0. -1.
         21    1    1    2  505  506 -0.17335963136E+02  0.16637007396E+03 -0.26432588181E+03  0.31280618428E+03  0.00000000000E+00 0. -1.
         21    1    1    2  506  501 -0.43351576984E+02  0.72741028964E+02  0.33629410042E+02  0.91112862657E+02  0.00000000000E+00 0. -1.
<scales pt_clust_3="14000.00000" pt_clust_4="73.11348" pt_clust_5="161.83891" pt_clust_6="80.39397"></scales>
<clustering>
<clus scale="   73.113">  2  4  1 -1</clus>
<clus scale="   80.394">  1  6  2 -1</clus>
<clus scale="  161.839">  2  5  1 -1</clus>
<clus scale="   80.394">  1  3  2 -1</clus>
</clustering>
</event>
<event>
 6    0  0.4469832E+002  0.9790344E+02  0.7546771E-02  0.1284768E+00
         21   -1    0    0  504  501  0.00000000000E+00  0.00000000000E+00  0.24060715825E+03  0.24060715825E+03  0.00000000000E+00 0. -1.
         21   -1    0    0  505  502 -0.00000000000E+00 -0.00000000000E+00 -0.13316900941E+04  0.13316900941E+04  0.00000000000E+00 0.  1.
         21    1    1    2  503  501 -0.90673626402E+02  0.48183373399E+02  0.19603369839E+03  0.22129743537E+03  0.00000000000E+00 0. -1.
         21    1    1    2  504  506 -0.86820719443E+01 -0.49381169180E+02 -0.11613452930E+02  0.51466013366E+02  0.00000000000E+00 0.  1.
         21    1    1    2  505  503  0.35978469782E+02  0.93186798363E+02 -0.27073973467E+03  0.28857968329E+03  0.00000000000E+00 0. -1.
         21    1    1    2  506  502  0.63377228564E+02 -0.91989002582E+02 -0.10047634466E+04  0.10109541203E+04  0.00000000000E+00 0.  1.
<scales pt_clust_3="97.54851" pt_clust_4="50.13859" pt_clust_5="97.90344" pt_clust_6="14000.00000"></scales>
<clustering>
<clus scale="   50.139">  1  4  2 -1</clus>
<clus scale="   97.903">  2  5  1 -1</clus>
<clus scale="   97.549">  1  3  2 -1</clus>
<clus scale="   50.139">  1  3  2 -1</clus>
</clustering>
</event>
<event>
 6    0  0.4469832E+002  0.9196930E+02  0.7546771E-02  0.1298152E+00
         21   -1    0    0  503  501  0.00000000000E+00  0.00000000000E+00  0.11510930700E+04  0.11510930700E+04  0.00000000000E+00 0.  1.
         21   -1    0    0  506  502 -0.00000000000E+00 -0.00000000000E+00 -0.59271886092E+02  0.59271886092E+02  0.00000000000E+00 0.  1.
         21    1    1    2  503  505  0.50320061957E+02  0.79537931995E+02  0.78334383192E+03  0.78897778820E+03  0.00000000000E+00 0.  1.
         21    1    1    2  504  501  0.42747420556E+02 -0.46890274488E+02  0.29131516259E+03  0.29814520583E+03  0.00000000000E+00 0.  1.
         21    1    1    2  505  502 -0.53485934966E+02 -0.33530315759E+02 -0.22676201613E+02  0.67076355250E+02  0.00000000000E+00 0.  1.
         21    1    1    2  506  504 -0.39581547547E+02  0.88265825258E+00  0.39838391060E+02  0.56165606861E+02  0.00000000000E+00 0. -1.
<scales pt_clust_3="91.96930" pt_clust_4="61.65541" pt_clust_5="14000.00000" pt_clust_6="39.59139"></scales>
<clustering>
<clus scale="   39.591">  2  6  1 -1</clus>
<clus scale="   61.655">  1  4  2 -1</clus>
<clus scale="   91.969">  1  3  2 -1</clus>
<clus scale="   61.655">  1  3  2 -1</clus>
</clustering>
</event>
<event>
 6    0  0.4469832E+002  0.9981716E+02  0.7546771E-02  0.1280681E+00
         21   -1    0    0  506  501  0.00000000000E+00  0.00000000000E+00  0.22700103953E+03  0.22700103953E+03  0.00000000000E+00 0. -1.
         21   -1    0    0  503  502 -0.00000000000E+00 -0.00000000000E+00 -0.63453205313E+03  0.63453205313E+03  0.00000000000E+00 0.  1.
         21    1    1    2  503  504 -0.25595830304E+02 -0.46141806214E+02 -0.45889164173E+03  0.46191530788E+03  0.00000000000E+00 0.  1.
         21    1    1    2  504  505 -0.88331936301E+02  0.84632530976E+02 -0.80302257168E+02  0.14633403150E+03  0.00000000000E+00 0.  1.
         21    1    1    2  505  501  0.78330700190E+02 -0.57816104947E+02  0.17103106974E+03  0.19679945985E+03  0.00000000000E+00 0. -1.
         21    1    1    2  506  502  0.35597066415E+02  0.19325380186E+02 -0.39368184436E+02  0.56484293414E+02  0.00000000000E+00 0.  1.
<scales pt_clust_3="31.06257" pt_clust_4="99.81716" pt_clust_5="14000.00000" pt_clust_6="40.50459"></scales>
<clustering>
<clus scale="   40.505">  2  6  1 -1</clus>
<clus scale="   31.063">  2  3  1 -1</clus>
<clus scale="   99.817">  2  4  1 -1</clus>
<clus scale="   99.817">  1  3  2 -1</clus>
</clustering>
</event>
<event>
 6    0  0.4469832E+002  0.1170558E+03  0.7546771E-02  0.1248035E+00
         21   -1    0    0  505  501  0.00000000000E+00  0.00000000000E+00  0.20485143569E+03  0.20485143569E+03  0.00000000000E+00 0. -1.
         21   -1    0    0  504  502 -0.00000000000E+00 -0.00000000000E+00 -0.17355379258E+03  0.17355379258E+03  0.00000000000E+00 0. -1.
         21    1    1    2  503  502 -0.17587636997E+02  0.34290582736E+02 -0.33540416317E+02  0.51089417360E+02  0.00000000000E+00 0. -1.
         21    1    1    2  504  501  0.11272771848E+03  0.46314623746E+02  0.11119469324E+03  0.16497527903E+03  0.00000000000E+00 0. -1.
         21    1    1    2  505  506 -0.64357998674E+02 -0.98612376618E+02 -0.46697182730E+02  0.12667667382E+03  0.00000000000E+00 0. -1.
         21    1    1    2  506  503 -0.30782082807E+02  0.18007170137E+02  0.34054891691E+00  0.35663858061E+02  0.00000000000E+00 0. -1.
<scales pt_clust_3="80.14923" pt_clust_4="14000.00000" pt_clust_5="117.05585" pt_clust_6="35.33465"></scales>
<clustering>
<clus scale="   35.335">  3  6 -1 -1</clus>
<clus scale="   80.149">  2  3  1 -1</clus>
<clus scale="  117.056">  2  5  1 -1</clus>
<clus scale="  117.056">  1  3  2 -1</clus>
</clustering>
</event>
<event>
 6    0  0.4469832E+002  0.1119695E+03  0.7546771E-02  0.1256966E+00
         21   -1    0    0  503  501  0.00000000000E+00  0.00000000000E+00  0.55027112744E+03  0.55027112744E+03  0.00000000000E+00 0. -1.
         21   -1    0    0  505  502 -0.00000000000E+00 -0.00000000000E+00 -0.58827918361E+02  0.58827918361E+02  0.00000000000E+00 0. -1.
         21    1    1    2  503  504  0.62238332753E+01 -0.37207570308E+02  0.84643907213E+02  0.92670008186E+02  0.00000000000E+00 0.  1.
         21    1    1    2  504  502  0.89860146554E+02 -0.88864375918E+02  0.10535935048E+03  0.16453667062E+03  0.00000000000E+00 0. -1.
         21    1    1    2  505  506 -0.87421158592E+02  0.41957342815E+02  0.15799348808E+03  0.18537750635E+03  0.00000000000E+00 0.  1.
         21    1    1    2  506  501 -0.86628212381E+01  0.84114603411E+02  0.14344646330E+03  0.16651486063E+03  0.00000000000E+00 0. -1.
<scales pt_clust_3="37.72452" pt_clust_4="14000.00000" pt_clust_5="111.96949" pt_clust_6="71.92367"></scales>
<clustering>
<clus scale="   37.725">  1  3  2 -1</clus>
<clus scale="   71.924">  1  6  2 -1</clus>
<clus scale="  111.969">  1  5  2 -1</clus>
<clus scale="   37.725">  1  3  2 -1</clus>
</clustering>
</event>
<event>
 6    0  0.4469832E+002  0.1101583E+03  0.7546771E-02  0.1260277E+00
         21   -1    0    0  506  501  0.00000000000E+00  0.00000000000E+00  0.27175124763E+03  0.27175124763E+03  0.00000000000E+00 0.  1.
         21   -1    0    0  504  502 -0.00000000000E+00 -0.00000000000E+00 -0.33691508497E+03  0.33691508497E+03  0.00000000000E+00 0.  1.
         21    1    1    2  503  501  0.13761393345E+02 -0.66620055681E+02  0.31053122788E+02  0.74779035836E+02  0.00000000000E+00 0.  1.
         21    1    1    2  504  505 -0.18290017016E+02  0.81156074658E+02 -0.24026990081E+03  0.25426454415E+03  0.00000000000E+00 0.  1.
         21    1    1    2  505  503  0.19730256855E+00 -0.83656485798E+02 -0.32673279856E+02  0.89810855474E+02  0.00000000000E+00 0.  1.
         21    1    1    2  506  502  0.43313211029E+01  0.69120466821E+02  0.17672622053E+03  0.18981189714E+03  0.00000000000E+00 0.  1.
<scales pt_clust_3="59.19612" pt_clust_4="88.46199" pt_clust_5="59.19612" pt_clust_6="69.25604"></scales>
<clustering>
<clus scale="   59.196">  3  5 -1 -1</clus>
<clus scale="   69.256">  1  6  2 -1</clus>
<clus scale="   88.462">  2  4  1 -1</clus>
<clus scale="   69.256">  1  3  2 -1</clus>
</clustering>
</event>
<event>
 6    0  0.4469832E+002  0.3028718E+03  0.7546771E-02  0.1083814E+00
         21   -1    0    0  503  501  0.00000000000E+00  0.00000000000E+00  0.39267634031E+04  0.39267634031E+04  0.00000000000E+00 0. -1.
         21   -1    0    0  506  502 -0.00000000000E+00 -0.00000000000E+00 -0.86436935783E+03  0.86436935783E+03  0.00000000000E+00 0. -1.
         21    1    1    2  503  504 -0.30458134843E+01 -0.13294779379E+03  0.37219903206E+03  0.39524234632E+03  0.00000000000E+00 0.  1.
         21    1    1    2  504  502 -0.12591607058E+02  0.88453972728E+02  0.96569031024E+01  0.89866064992E+02  0.00000000000E+00 0. -1.
         21    1    1    2  505  501  0.15818845178E+03 -0.13178401332E+03  0.34743651442E+04  0.34804602810E+04  0.00000000000E+00 0. -1.
         21    1    1    2  506  505 -0.14255103123E+03  0.17627783438E+03 -0.79382703408E+03  0.82556406864E+03  0.00000000000E+00 0. -1.
<scales pt_clust_3="131.75077" pt_clust_4="89.34570" pt_clust_5="14000.00000" pt_clust_6="302.87177"></scales>
<clustering>
<clus scale="   89.346">  2  4  1 -1</clus>
<clus scale="  131.751">  1  3  2 -1</clus>
<clus scale="  302.872">  2  6  1 -1</clus>
<clus scale="  131.751">  1  3  2 -1</clus>
</clustering>
</event>
<event>
 6    0  0.4469832E+002  0.1172162E+03  0.7546771E-02  0.1247761E+00
         21   -1    0    0  503  501  0.00000000000E+00  0.00000000000E+00  0.14775145307E+04  0.14775145307E+04  0.00000000000E+00 0. -1.
         21   -1    0    0  504  502 -0.00000000000E+00 -0.00000000000E+00 -0.49455710141E+02  0.49455710141E+02  0.00000000000E+00 0. -1.
         21    1    1    2  503  502 -0.92760067998E+02 -0.77108976499E+02  0.12959020128E+04  0.13015038422E+04  0.00000000000E+00 0. -1.
         21    1    1    2  504  506  0.48049302346E+02  0.19626841633E+02 -0.41402221955E+01  0.52068126606E+02  0.00000000000E+00 0. -1.
         21    1    1    2  505  501 -0.74226148351E+01  0.30802345785E+02  0.99048112851E+02  0.10399234768E+03  0.00000000000E+00 0.  1.
         21    1    1    2  506  505  0.52133380487E+02  0.26679789082E+02  0.37248917037E+02  0.69405924293E+02  0.00000000000E+00 0. -1.
<scales pt_clust_3="110.72823" pt_clust_4="36.14108" pt_clust_5="31.68406" pt_clust_6="36.14108"></scales>
<clustering>
<clus scale="   31.684">  1  5  2 -1</clus>
<clus scale="   36.141">  4  6 -1 -1</clus>
<clus scale="  110.728">  1  3  2 -1</clus>
<clus scale="   31.684">  1  3  2 -1</clus>
</clustering>
</event>
<event>
 6    0  0.4469832E+002  0.1990678E+03  0.7546771E-02  0.1150528E+00
         21   -1    0    0  505  501  0.00000000000E+00  0.00000000000E+00  0.65092626529E+03  0.65092626529E+03  0.00000000000E+00 0. -1.
         21   -1    0    0  506  502 -0.00000000000E+00 -0.00000000000E+00 -0.18649005788E+03  0.18649005788E+03  0.00000000000E+00 0. -1.
         21    1    1    2  503  502 -0.12997482212E+03 -0.37413428631E+02 -0.92869087603E+02  0.16406671344E+03  0.00000000000E+00 0. -1.
         21    1    1    2  504  503 -0.28541540284E+02 -0.48470573227E+02 -0.58030272557E+01  0.56548130969E+02  0.00000000000E+00 0. -1.
         21    1    1    2  505  504  0.15224725706E+03  0.12647448610E+03  0.37250696203E+03  0.42182515297E+03  0.00000000000E+00 0. -1.
         21    1    1    2  506  501  0.62691053459E+01 -0.40590484245E+02  0.19060136023E+03  0.19497632578E+03  0.00000000000E+00 0.  1.
<scales pt_clust_3="52.44296" pt_clust_4="52.44296" pt_clust_5="182.19978" pt_clust_6="41.07176"></scales>
<clustering>
<clus scale="   41.072">  1  6  2 -1</clus>
<clus scale="   52.443">  3  4 -1 -1</clus>
<clus scale="  182.200">  1  5  2 -1</clus>
<clus scale="   41.072">  1  3  2 -1</clus>
</clustering>
</event>
<event>
 6    0  0.4469832E+002  0.1198541E+03  0.7546771E-02  0.1243338E+00
         21   -1    0    0  505  501  0.00000000000E+00  0.00000000000E+00  0.26540767988E+04  0.26540767988E+04  0.00000000000E+00 0. -1.
         21   -1    0    0  504  502 -0.00000000000E+00 -0.00000000000E+00 -0.18403064333E+02  0.18403064333E+02  0.00000000000E+00 0.  1.
         21    1    1    2  503  502 -0.10271152912E+02  0.73134027533E+02  0.12997103152E+03  0.14948763026E+03  0.00000000000E+00 0.  1.
         21    1    1    2  504  501 -0.16968633574E+02 -0.14058037342E+03  0.91566158257E+03  0.92654568679E+03  0.00000000000E+00 0.  1.
         21    1    1    2  505  506  0.73166949431E+01  0.37694760419E+02  0.14845078952E+04  0.14850044175E+04  0.00000000000E+00 0. -1.
         21    1    1    2  506  503  0.19923091543E+02  0.29751585464E+02  0.10553322514E+03  0.11144212858E+03  0.00000000000E+00 0.  1.
<scales pt_clust_3="30.69646" pt_clust_4="111.45195" pt_clust_5="38.39829" pt_clust_6="30.69646"></scales>
<clustering>
<clus scale="   30.696">  3  6 -1 -1</clus>
<clus scale="   38.398">  1  5  2 -1</clus>
<clus scale="  111.452">  1  4  2 -1</clus>
<clus scale="   38.398">  1  3  2 -1</clus>
</clustering>
</event>
<event>
 6    0  0.4469832E+002  0.1291077E+03  0.7546771E-02  0.1228786E+00
         21   -1    0    0  505  501  0.00000000000E+00  0.00000000000E+00  0.28143847972E+03  0.28143847972E+03  0.00000000000E+00 0.  1.
         21   -1    0    0  506  502 -0.00000000000E+00 -0.00000000000E+00 -0.43394728247E+03  0.43394728247E+03  0.00000000000E+00 0.  1.
         21    1    1    2  503  504 -0.11020692577E+03 -0.43620961384E+02 -0.28064014731E+03  0.30464281880E+03  0.00000000000E+00 0.  1.
         21    1    1    2  504  501  0.79318952470E+02  0.19671351138E+02  0.16461523482E+03  0.18378420446E+03  0.00000000000E+00 0.  1.
         21    1    1    2  505  502  0.29595352606E+02  0.83809921368E+02  0.64320283241E+02  0.10971365754E+03  0.00000000000E+00 0.  1.
         21    1    1    2  506  503  0.12926206947E+01 -0.59860311122E+02 -0.10080417349E+03  0.11724508138E+03  0.00000000000E+00 0.  1.
<scales pt_clust_3="14000.00000" pt_clust_4="81.35206" pt_clust_5="129.10766" pt_clust_6="59.87427"></scales>
<clustering>
<clus scale="   59.874">  2  6  1 -1</clus>
<clus scale="   81.352">  1  4  2 -1</clus>
<clus scale="  129.108">  1  5  2 -1</clus>
<clus scale="   81.352">  1  3  2 -1</clus>
</clustering>
</event>
<event>
 6    0  0.4469832E+002  0.1211876E+03  0.7546771E-02  0.1241151E+00
         21   -1    0    0  506  501  0.00000000000E+00  0.00000000000E+00  0.18426210637E+03  0.18426210637E+03  0.00000000000E+00 0.  1.
         21   -1    0    0  504  502 -0.00000000000E+00 -0.00000000000E+00 -0.11730601710E+04  0.11730601710E+04  0.00000000000E+00 0.  1.
         21    1    1    2  503  505 -0.85642310574E+02 -0.22201809587E+02 -0.72290718173E+03  0.72830098113E+03  0.00000000000E+00 0.  1.
         21    1    1    2  504  501  0.12764871363E+03  0.92359600588E+02  0.13459867268E+03  0.20722280908E+03  0.00000000000E+00 0.  1.
         21    1    1    2  505  502 -0.10715990872E+02 -0.54847741593E+02 -0.37369448696E+03  0.37785007186E+03  0.00000000000E+00 0.  1.
         21    1    1    2  506  503 -0.31290412188E+02 -0.15310049408E+02 -0.26795068663E+02  0.43948415358E+02  0.00000000000E+00 0.  1.
<scales pt_clust_3="121.18757" pt_clust_4="14000.00000" pt_clust_5="56.13440" pt_clust_6="34.83515"></scales>
<clustering>
<clus scale="   34.835">  1  6  2 -1</clus>
<clus scale="   56.134">  2  5  1 -1</clus>
<clus scale="  121.188">  2  3  1 -1</clus>
<clus scale="   34.835">  1  3  2 -1</clus>
</clustering>
</event>
<event>
 6    0  0.4469832E+002  0.9603028E+02  0.7546771E-02  0.1288872E+00
         21   -1    0    0  503  501  0.00000000000E+00  0.00000000000E+00  0.29377473795E+03  0.29377473795E+03  0.00000000000E+00 0. -1.
         21   -1    0    0  504  502 -0.00000000000E+00 -0.00000000000E+00 -0.40479618342E+03  0.40479618342E+03  0.00000000000E+00 0.  1.
         21    1    1    2  503  502 -0.57334746089E+02 -0.10563521986E+02 -0.29583790701E+03  0.30152765766E+03  0.00000000000E+00 0.  1.
         21    1    1    2  504  505 -0.30538266735E+02 -0.58349255089E+01 -0.45965399817E+02  0.55492792967E+02  0.00000000000E+00 0. -1.
         21    1    1    2  505  506  0.80393613255E+02 -0.82452260701E+02  0.32161692282E+02  0.11956539130E+03  0.00000000000E+00 0.  1.
         21    1    1    2  506  501  0.74793995692E+01  0.98850708196E+02  0.19862016908E+03  0.22198507944E+03  0.00000000000E+00 0. -1.
<scales pt_clust_3="84.52676" pt_clust_4="31.09071" pt_clust_5="14000.00000" pt_clust_6="96.03028"></scales>
<clustering>
<clus scale="   31.091">  2  4  1 -1</clus>
<clus scale="   84.527">  2  3  1 -1</clus>
<clus scale="   96.030">  1  6  2 -1</clus>
<clus scale="   96.030">  1  3  2 -1</clus>
</clustering>
</event>
<event>
 6    0  0.4469832E+002  0.1442100E+03  0.7546771E-02  0.1207774E+00
         21   -1    0    0  504  501  0.00000000000E+00  0.00000000000E+00  0.14509350712E+04  0.14509350712E+04  0.00000000000E+00 0. -1.
         21   -1    0    0  501  502 -0.00000000000E+00 -0.00000000000E+00 -0.16412967231E+03  0.16412967231E+03  0.00000000000E+00 0.  1.
         21    1    1    2  503  502 -0.64359084814E+02  0.39396329872E+02 -0.73340075626E+02  0.10522798724E+03  0.00000000000E+00 0.  1.
         21    1    1    2  504  505  0.48487702568E+02 -0.11621559603E+02  0.92189398256E+03  0.92324137312E+03  0.00000000000E+00 0. -1.
         21    1    1    2  505  506  0.84121584510E+02 -0.79230542333E+01  0.49091471380E+03  0.49813298626E+03  0.00000000000E+00 0.  1.
         21    1    1    2  506  503 -0.68250202264E+02 -0.19851716036E+02 -0.52663221818E+02  0.88462396932E+02  0.00000000000E+00 0.  1.
<scales pt_clust_3="58.76222" pt_clust_4="49.86099" pt_clust_5="130.86101" pt_clust_6="58.76222"></scales>
<clustering>
<clus scale="   49.861">  1  4  2 -1</clus>
<clus scale="   58.762">  3  6 -1 -1</clus>
<clus scale="  130.861">  1  5  2 -1</clus>
<clus scale="   49.861">  1  3  2 -1</clus>
</clustering>
</event>
<event>
 6    0  0.4469832E+002  0.1323583E+03  0.7546771E-02  0.1223998E+00
         21   -1    0    0  503  501  0.00000000000E+00  0.00000000000E+00  0.88501283178E+02  0.88501283178E+02  0.00000000000E+00 0. -1.
         21   -1    0    0  505  502 -0.00000000000E+00 -0.00000000000E+00 -0.12416815714E+04  0.12416815714E+04  0.00000000000E+00 0.  1.
         21    1    1    2  503  504  0.25134149462E+02  0.27616862710E+02  0.59396612992E+02  0.70159633765E+02  0.00000000000E+00 0. -1.
         21    1    1    2  504  506  0.49058556090E+02 -0.35506394173E+02 -0.15093495452E+03  0.16263089020E+03  0.00000000000E+00 0.  1.
         21    1    1    2  505  501  0.78109548528E+02  0.58942588737E+02 -0.22329093231E+03  0.24379124428E+03  0.00000000000E+00 0. -1.
         21    1    1    2  506  502 -0.15230225408E+03 -0.51053057274E+02 -0.83835101439E+03  0.85360108633E+03  0.00000000000E+00 0.  1.
<scales pt_clust_3="37.34189" pt_clust_4="62.26277" pt_clust_5="14000.00000" pt_clust_6="132.35828"></scales>
<clustering>
<clus scale="   37.342">  1  3  2 -1</clus>
<clus scale="   62.263">  1  4  2 -1</clus>
<clus scale="  132.358">  2  6  1 -1</clus>
<clus scale="   37.342">  1  3  2 -1</clus>
</clustering>
</event>
<event>
 6    0  0.4469832E+002  0.8483668E+02  0.7546771E-02  0.1315860E+00
         21   -1    0    0  505  501  0.00000000000E+00  0.00000000000E+00  0.23689787811E+03  0.23689787811E+03  0.00000000000E+00 0.  1.
         21   -1    0    0  504  502 -0.00000000000E+00 -0.00000000000E+00 -0.11975652725E+03  0.11975652725E+03  0.00000000000E+00 0.  1.
         21    1    1    2  503  501  0.19201653079E+02  0.85454815702E+02  0.13520257119E+03  0.16109302984E+03  0.00000000000E+00 0.  1.
         21    1    1    2  504  506 -0.40519825645E+02  0.57044069802E+01  0.13999197455E+02  0.43247821433E+02  0.00000000000E+00 0.  1.
         21    1    1    2  505  502  0.58844713640E+02 -0.27362343300E+02  0.12259913105E+02  0.66043195135E+02  0.00000000000E+00 0.  1.
         21    1    1    2  506  503 -0.37526541073E+02 -0.63796879382E+02 -0.44320330885E+02  0.86270358951E+02  0.00000000000E+00 0.  1.
<scales pt_clust_3="84.83668" pt_clust_4="40.91939" pt_clust_5="54.96641" pt_clust_6="14000.00000"></scales>
<clustering>
<clus scale="   40.919">  2  4  1 -1</clus>
<clus scale="   54.966">  2  5  1 -1</clus>
<clus scale="   84.837">  1  3  2 -1</clus>
<clus scale="   84.837">  1  3  2 -1</clus>
</clustering>
</event>
<event>
 6    0  0.4469832E+002  0.8458206E+02  0.7546771E-02  0.1316529E+00
         21   -1    0    0  506  501  0.00000000000E+00  0.00000000000E+00  0.14439266789E+03  0.14439266789E+03  0.00000000000E+00 0.  1.
         21   -1    0    0  505  502 -0.00000000000E+00 -0.00000000000E+00 -0.56570729046E+03  0.56570729046E+03  0.00000000000E+00 0. -1.
         21    1    1    2  503  502 -0.33548331817E+02 -0.44516229542E+01 -0.29612765649E+03  0.29805519028E+03  0.00000000000E+00 0. -1.
         21    1    1    2  504  503 -0.60263681828E+02 -0.13893232991E+02 -0.19447388515E+03  0.20407063795E+03  0.00000000000E+00 0.  1.
         21    1    1    2  505  501  0.57973293006E+02  0.88322140684E+02  0.39078301174E+01  0.10572121061E+03  0.00000000000E+00 0.  1.
         21    1    1    2  506  504  0.35838720639E+02 -0.69977284738E+02  0.65379088947E+02  0.10225291951E+03  0.00000000000E+00 0.  1.
<scales pt_clust_3="33.84239" pt_clust_4="84.58206" pt_clust_5="14000.00000" pt_clust_6="77.87390"></scales>
<clustering>
<clus scale="   33.842">  2  3  1 -1</clus>
<clus scale="   77.874">  1  6  2 -1</clus>
<clus scale="   84.582">  2  4  1 -1</clus>
<clus scale="   77.874">  1  3  2 -1</clus>
</clustering>
</event>
<event>
 6    0  0.4469832E+002  0.9522018E+02  0.7546771E-02  0.1290681E+00
         21   -1    0    0  503  501  0.00000000000E+00  0.00000000000E+00  0.76174325532E+03  0.76174325532E+03  0.00000000000E+00 0.  1.
         21   -1    0    0  504  502 -0.00000000000E+00 -0.00000000000E+00 -0.13215810865E+03  0.13215810865E+03  0.00000000000E+00 0.  1.
         21    1    1    2  503  502 -0.29388328013E+02  0.20716938259E+02  0.56329428532E+02  0.66827164184E+02  0.00000000000E+00 0.  1.
         21    1    1    2  504  506 -0.46960487075E+02  0.78584947471E+02 -0.86220933656E+02  0.12575742807E+03  0.00000000000E+00 0.  1.
         21    1    1    2  505  501  0.16741219996E+02  0.50243939465E+02  0.33432540686E+03  0.33849401704E+03  0.00000000000E+00 0.  1.
         21    1    1    2  506  505  0.59607595091E+02 -0.14954582520E+03  0.32515124493E+03  0.36282275467E+03  0.00000000000E+00 0.  1.
<scales pt_clust_3="35.95644" pt_clust_4="95.22018" pt_clust_5="60.25488" pt_clust_6="14000.00000"></scales>
<clustering>
<clus scale="   35.956">  1  3  2 -1</clus>
<clus scale="   60.255">  1  5  2 -1</clus>
<clus scale="   95.220">  2  4  1 -1</clus>
<clus scale="   35.956">  1  3  2 -1</clus>
</clustering>
</event>
<event>
 6    0  0.4469832E+002  0.1123559E+03  0.7546771E-02  0.1256268E+00
         21   -1    0    0  503  501  0.00000000000E+00  0.00000000000E+00  0.51354483355E+03  0.51354483355E+03  0.00000000000E+00 0.  1.
         21   -1    0    0  504  502 -0.00000000000E+00 -0.00000000000E+00 -0.80299996918E+03  0.80299996918E+03  0.00000000000E+00 0.  1.
         21    1    1    2  503  506 -0.78450940853E+01  0.11267938199E+03  0.49280193022E+03  0.50558078589E+03  0.00000000000E+00 0.  1.
         21    1    1    2  504  505 -0.44005994287E+02 -0.11285997473E+02 -0.30547761663E+03  0.30883729621E+03  0.00000000000E+00 0.  1.
         21    1    1    2  505  501 -0.12352452620E+02 -0.81333833229E+02 -0.33852587690E+03  0.34837845060E+03  0.00000000000E+00 0.  1.
         21    1    1    2  506  502  0.64203540993E+02 -0.20059551284E+02 -0.13825357233E+03  0.15374827002E+03  0.00000000000E+00 0.  1.
<scales pt_clust_3="14000.00000" pt_clust_4="45.43018" pt_clust_5="112.35591" pt_clust_6="56.32851"></scales>
<clustering>
<clus scale="   45.430">  2  4  1 -1</clus>
<clus scale="   56.329">  2  6  1 -1</clus>
<clus scale="  112.356">  2  5  1 -1</clus>
<clus scale="  112.356">  1  3  2 -1</clus>
</clustering>
</event>
<event>
 6    0  0.4469832E+002  0.1362803E+03  0.7546771E-02  0.1218424E+00
         21   -1    0    0  505  501  0.00000000000E+00  0.00000000000E+00  0.16158241507E+04  0.16158241507E+04  0.00000000000E+00 0. -1.
         21   -1    0    0  504  502 -0.00000000000E+00 -0.00000000000E+00 -0.77075661062E+03  0.77075661062E+03  0.00000000000E+00 0. -1.
         21    1    1    2  503  506  0.18728826003E+03 -0.29670486698E+02 -0.28934997476E+03  0.34594889510E+03  0.00000000000E+00 0. -1.
         21    1    1    2  504  503 -0.92460371837E+02 -0.80052399489E+01 -0.37782986583E+03  0.38906093577E+03  0.00000000000E+00 0. -1.
         21    1    1    2  505  502 -0.47159283535E+02  0.58550883989E+01 -0.60974342281E+02  0.77305565778E+02  0.00000000000E+00 0. -1.
         21    1    1    2  506  501 -0.47668604658E+02  0.31820638248E+02  0.15732217229E+04  0.15742653646E+04  0.00000000000E+00 0. -1.
<scales pt_clust_3="136.28031" pt_clust_4="14000.00000" pt_clust_5="47.52136" pt_clust_6="57.34519"></scales>
<clustering>
<clus scale="   47.521">  2  5  1 -1</clus>
<clus scale="   57.345">  1  6  2 -1</clus>
<clus scale="  136.280">  1  3  2 -1</clus>
<clus scale="   57.345">  1  3  2 -1</clus>
</clustering>
</event>
<event>
 6    0  0.4469832E+002  0.1206208E+03  0.7546771E-02  0.1242076E+00
         21   -1    0    0  506  501  0.00000000000E+00  0.00000000000E+00  0.38978477165E+03  0.38978477165E+03  0.00000000000E+00 0.  1.
         21   -1    0    0  504  502 -0.00000000000E+00 -0.00000000000E+00 -0.78386340801E+03  0.78386340801E+03  0.00000000000E+00 0.  1.
         21    1    1    2  503  502  0.40827639830E+02  0.51279546041E+02  0.15946499035E+03  0.17241105290E+03  0.00000000000E+00 0.  1.
         21    1    1    2  504  505 -0.72213979164E+01 -0.12247188452E+03 -0.72940067543E+03  0.73964644013E+03  0.00000000000E+00 0.  1.
         21    1    1    2  505  501 -0.12184135331E+02  0.46698960864E+02 -0.27567073448E+02  0.55580478930E+02  0.00000000000E+00 0.  1.
         21    1    1    2  506  503 -0.21422106583E+02  0.24493377616E+02  0.20342412216E+03  0.20601020770E+03  0.00000000000E+00 0.  1.
<scales pt_clust_3="14000.00000" pt_clust_4="120.62078" pt_clust_5="50.47730" pt_clust_6="32.53970"></scales>
<clustering>
<clus scale="   32.540">  1  6  2 -1</clus>
<clus scale="   50.477">  1  5  2 -1</clus>
<clus scale="  120.621">  2  4  1 -1</clus>
<clus scale="   32.540">  1  3  2 -1</clus>
</clustering>
</event>
<event>
 6    0  0.4469832E+002  0.1211363E+03  0.7546771E-02  0.1241234E+00
         21   -1    0    0  504  501  0.00000000000E+00  0.00000000000E+00  0.17532191464E+04  0.17532191464E+04  0.00000000000E+00 0.  1.
         21   -1    0    0  501  502 -0.00000000000E+00 -0.00000000000E+00 -0.69583497720E+02  0.69583497720E+02  0.00000000000E+00 0. -1.
         21    1    1    2  503  502  0.44673328254E+02 -0.14347272924E+02 -0.32951687260E+02  0.57335540382E+02  0.00000000000E+00 0. -1.
         21    1    1    2  504  506  0.13921069127E+02 -0.50262538867E+02  0.57428832901E+03  0.57665171795E+03  0.00000000000E+00 0. -1.
         21    1    1    2  505  503  0.80638798949E+02 -0.18196093505E+02  0.82796175893E+02  0.11699966007E+03  0.00000000000E+00 0. -1.
         21    1    1    2  506  505 -0.13923319633E+03  0.82805905296E+02  0.10595028311E+04  0.10718157258E+04  0.00000000000E+00 0.  1.
<scales pt_clust_3="46.92068" pt_clust_4="53.43351" pt_clust_5="14000.00000" pt_clust_6="121.13632"></scales>
<clustering>
<clus scale="   46.921">  2  3  1 -1</clus>
<clus scale="   53.434">  1  4  2 -1</clus>
<clus scale="  121.136">  1  6  2 -1</clus>
<clus scale="   53.434">  1  3  2 -1</clus>
</clustering>
</event>
<event>
 6    0  0.4469832E+002  0.1034862E+03  0.7546771E-02  0.1273131E+00
         21   -1    0    0  506  501  0.00000000000E+00  0.00000000000E+00  0.50026587193E+02  0.50026587193E+02  0.00000000000E+00 0. -1.
         21   -1    0    0  503  502 -0.00000000000E+00 -0.00000000000E+00 -0.96368924558E+03  0.96368924558E+03  0.00000000000E+00 0. -1.
         21    1    1    2  503  501  0.34352852282E+01  0.49196601374E+02  0.12555802321E+02  0.50889634930E+02  0.00000000000E+00 0. -1.
         21    1    1    2  504  505  0.74511082164E+02 -0.42841510635E+02 -0.53841734259E+03  0.54523438190E+03  0.00000000000E+00 0. -1.
         21    1    1    2  505  502  0.27982544249E+02 -0.35285743705E+02 -0.10781912166E+03  0.11684634991E+03  0.00000000000E+00 0.  1.
         21    1    1    2  506  504 -0.10592891164E+03  0.28930652966E+02 -0.27998199645E+03  0.30074546603E+03  0.00000000000E+00 0.  1.
<scales pt_clust_3="48.57262" pt_clust_4="103.48625" pt_clust_5="45.03450" pt_clust_6="14000.00000"></scales>
<clustering>
<clus scale="   45.035">  2  5  1 -1</clus>
<clus scale="   48.573">  1  3  2 -1</clus>
<clus scale="  103.486">  2  4  1 -1</clus>
<clus scale="   48.573">  1  3  2 -1</clus>
</clustering>
</event>
<event>
 6    0  0.4469832E+002  0.1469944E+03  0.7546771E-02  0.1204216E+00
         21   -1    0    0  504  501  0.00000000000E+00  0.00000000000E+00  0.94554966928E+03  0.94554966928E+03  0.00000000000E+00 0. -1.
         21   -1    0    0  505  502 -0.00000000000E+00 -0.00000000000E+00 -0.13505598189E+03  0.13505598189E+03  0.00000000000E+00 0.  1.
         21    1    1    2  503  501  0.10909124640E+03  0.22007473875E+02 -0.65398815977E+02  0.12908227639E+03  0.00000000000E+00 0.  1.
         21    1    1    2  504  506 -0.22046251555E+02  0.24553792839E+02  0.47265306421E+03  0.47380359333E+03  0.00000000000E+00 0. -1.
         21    1    1    2  505  503  0.28079128752E+02 -0.24758543935E+02 -0.17244079447E+02  0.41216274033E+02  0.00000000000E+00 0.  1.
         21    1    1    2  506  502 -0.11512412360E+03 -0.21802722779E+02  0.42048351861E+03  0.43650350741E+03  0.00000000000E+00 0. -1.
<scales pt_clust_3="33.35367" pt_clust_4="32.99888" pt_clust_5="33.35367" pt_clust_6="135.12548"></scales>
<clustering>
<clus scale="   32.999">  1  4  2 -1</clus>
<clus scale="   33.354">  3  5 -1 -1</clus>
<clus scale="  135.125">  1  6  2 -1</clus>
<clus scale="   32.999">  1  3  2 -1</clus>
</clustering>
</event>
<event>
 6    0  0.4469832E+002  0.1538122E+03  0.7546771E-02  0.1195865E+00
         21   -1    0    0  503  501  0.00000000000E+00  0.00000000000E+00  0.45177148608E+03  0.45177148608E+03  0.00000000000E+00 0.  1.
         21   -1    0    0  505  502 -0.00000000000E+00 -0.00000000000E+00 -0.49137559294E+03  0.49137559294E+03  0.00000000000E+00 0. -1.
         21    1    1    2  503  506 -0.13526141952E+02 -0.30748742921E+02  0.96329768583E+02  0.10201894933E+03  0.00000000000E+00 0.  1.
         21    1    1    2  504  502  0.53951626457E+02  0.13960025308E+03  0.17928501399E+02  0.15073300840E+03  0.00000000000E+00 0.  1.
         21    1    1    2  505  501 -0.49424613176E+01 -0.15569253628E+03 -0.40423992723E+03  0.43321416476E+03  0.00000000000E+00 0. -1.
         21    1    1    2  506  504 -0.35483023187E+02  0.46841026123E+02  0.25037755040E+03  0.25718095654E+03  0.00000000000E+00 0.  1.
<scales pt_clust_3="33.59229" pt_clust_4="153.81218" pt_clust_5="14000.00000" pt_clust_6="51.52938"></scales>
<clustering>
<clus scale="   33.592">  1  3  2 -1</clus>
<clus scale="   51.529">  1  6  2 -1</clus>
<clus scale="  153.812">  1  4  2 -1</clus>
<clus scale="   33.592">  1  3  2 -1</clus>
</clustering>
</event>
<event>
 6    0  0.4469832E+002  0.1918134E+03  0.7546771E-02  0.1156836E+00
         21   -1    0    0  506  501  0.00000000000E+00  0.00000000000E+00  0.88032753311E+03  0.88032753311E+03  0.00000000000E+00 0.  1.
         21   -1    0    0  504  502 -0.00000000000E+00 -0.00000000000E+00 -0.17343270682E+03  0.17343270682E+03  0.00000000000E+00 0.  1.
         21    1    1    2  503  502 -0.38940587015E+02  0.15438631737E+03 -0.73018160807E+02  0.17516608152E+03  0.00000000000E+00 0.  1.
         21    1    1    2  504  501 -0.16728544506E+02  0.31389397281E+02  0.18780466362E+02  0.40222436273E+02  0.00000000000E+00 0. -1.
         21    1    1    2  505  503  0.12281293337E+03 -0.19312831674E+03  0.32771923373E+03  0.39972673101E+03  0.00000000000E+00 0.  1.
         21    1    1    2  506  505 -0.67143801852E+02  0.73526020896E+01  0.43341328702E+03  0.43864499113E+03  0.00000000000E+00 0.  1.
<scales pt_clust_3="191.81341" pt_clust_4="35.56878" pt_clust_5="14000.00000" pt_clust_6="67.86909"></scales>
<clustering>
<clus scale="   35.569">  2  4  1 -1</clus>
<clus scale="   67.869">  1  6  2 -1</clus>
<clus scale="  191.813">  2  3  1 -1</clus>
<clus scale="   67.869">  1  3  2 -1</clus>
</clustering>
</event>
<event>
 6    0  0.4469832E+002  0.5634543E+02  0.7546771E-02  0.1413841E+00
         21   -1    0    0  505  501  0.00000000000E+00  0.00000000000E+00  0.27709781318E+04  0.27709781318E+04  0.00000000000E+00 0.  1.
         21   -1    0    0  504  502 -0.00000000000E+00 -0.00000000000E+00 -0.20074602302E+03  0.20074602302E+03  0.00000000000E+00 0.  1.
         21    1    1    2  503  506 -0.52906073967E+02 -0.74469942162E+02  0.74367379122E+03  0.74926332668E+03  0.00000000000E+00 0.  1.
         21    1    1    2  504  503  0.65911286628E+02  0.57072815862E+02 -0.16651196125E+03  0.18795700906E+03  0.00000000000E+00 0.  1.
         21    1    1    2  505  502 -0.41754023620E+02 -0.80942736900E+01  0.14946683714E+01  0.42557605531E+02  0.00000000000E+00 0.  1.
         21    1    1    2  506  501  0.28748810958E+02  0.25491399990E+02  0.19915756104E+04  0.19919462135E+04  0.00000000000E+00 0.  1.
<scales pt_clust_3="56.34543" pt_clust_4="14000.00000" pt_clust_5="41.60010" pt_clust_6="38.42272"></scales>
<clustering>
<clus scale="   38.423">  1  6  2 -1</clus>
<clus scale="   41.600">  2  5  1 -1</clus>
<clus scale="   56.345">  1  3  2 -1</clus>
<clus scale="   38.423">  1  3  2 -1</clus>
</clustering>
</event>
<event>
 6    0  0.4469832E+002  0.1320146E+03  0.7546771E-02  0.1224497E+00
         21   -1    0    0  503  501  0.00000000000E+00  0.00000000000E+00  0.18063496889E+03  0.18063496889E+03  0.00000000000E+00 0. -1.
         21   -1    0    0  504  502 -0.00000000000E+00 -0.00000000000E+00 -0.19536187309E+03  0.19536187309E+03  0.00000000000E+00 0. -1.
         21    1    1    2  503  505 -0.76309805900E+02  0.50099388340E+02 -0.65326004066E+02  0.11225249216E+03  0.00000000000E+00 0. -1.
         21    1    1    2  504  506 -0.25737799207E+02 -0.24909987287E+02 -0.46311619539E+02  0.58546629954E+02  0.00000000000E+00 0. -1.
         21    1    1    2  505  502 -0.91637602116E+00  0.37681983952E+02 -0.15070853641E+02  0.40594362775E+02  0.00000000000E+00 0.  1.
         21    1    1    2  506  501  0.10296398113E+03 -0.62871385005E+02  0.11198157305E+03  0.16460335709E+03  0.00000000000E+00 0. -1.
<scales pt_clust_3="33.05774" pt_clust_4="35.81818" pt_clust_5="33.05774" pt_clust_6="119.15873"></scales>
<clustering>
<clus scale="   35.818">  2  4  1 -1</clus>
<clus scale="   33.058">  3  5 -1 -1</clus>
<clus scale="  119.159">  1  6  2 -1</clus>
<clus scale="  119.159">  1  3  2 -1</clus>
</clustering>
</event>
<event>
 6    0  0.4469832E+002  0.2337366E+03  0.7546771E-02  0.1124037E+00
         21   -1    0    0  504  501  0.00000000000E+00  0.00000000000E+00  0.63649742986E+03  0.63649742986E+03  0.00000000000E+00 0.  1.
         21   -1    0    0  505  502 -0.00000000000E+00 -0.00000000000E+00 -0.14267260872E+03  0.14267260872E+03  0.00000000000E+00 0.  1.
         21    1    1    2  503  506  0.23530402583E+03  0.12987604126E+03  0.17310708487E+03  0.31969021489E+03  0.00000000000E+00 0.  1.
         21    1    1    2  504  502  0.91808954979E+01 -0.35780702454E+02  0.47049076916E+02  0.59817749447E+02  0.00000000000E+00 0.  1.
         21    1    1    2  505  503 -0.18526338190E+03 -0.92608700932E+02  0.13071269905E+03  0.24491774508E+03  0.00000000000E+00 0.  1.
         21    1    1    2  506  501 -0.59221539431E+02 -0.14866378695E+01  0.14295596030E+03  0.15474432917E+03  0.00000000000E+00 0. -1.
<scales pt_clust_3="233.73655" pt_clust_4="36.93978" pt_clust_5="14000.00000" pt_clust_6="57.86092"></scales>
<clustering>
<clus scale="   36.940">  1  4  2 -1</clus>
<clus scale="   57.861">  1  6  2 -1</clus>
<clus scale="  233.737">  1  3  2 -1</clus>
<clus scale="   36.940">  1  3  2 -1</clus>
</clustering>
</event>
<event>
 6    0  0.4469832E+002  0.1027576E+03  0.7546771E-02  0.1274602E+00
         21   -1    0    0  504  501  0.00000000000E+00  0.00000000000E+00  0.78997992366E+03  0.78997992366E+03  0.00000000000E+00 0. -1.
         21   -1    0    0  505  502 -0.00000000000E+00 -0.00000000000E+00 -0.25881992654E+04  0.25881992654E+04  0.00000000000E+00 0. -1.
         21    1    1    2  503  501  0.24668437143E+02 -0.11314319523E+03  0.76390435379E+03  0.77263172091E+03  0.00000000000E+00 0. -1.
         21    1    1    2  504  502 -0.35253221550E+02  0.10337206841E+02  0.36112540264E+01  0.36914612697E+02  0.00000000000E+00 0.  1.
         21    1    1    2  505  506 -0.27420175044E+02  0.45070455638E+02 -0.11628292692E+04  0.11640253955E+04  0.00000000000E+00 0. -1.
         21    1    1    2  506  503  0.38004959451E+02  0.57735532754E+02 -0.14029056803E+04  0.14046074600E+04  0.00000000000E+00 0. -1.
<scales pt_clust_3="14000.00000" pt_clust_4="36.73755" pt_clust_5="52.77726" pt_clust_6="102.75759"></scales>
<clustering>
<clus scale="   36.738">  1  4  2 -1</clus>
<clus scale="   52.777">  2  5  1 -1</clus>
<clus scale="  102.758">  2  6  1 -1</clus>
<clus scale="   36.738">  1  3  2 -1</clus>
</clustering>
</event>
<event>
 6    0  0.4469832E+002  0.1578884E+03  0.7546771E-02  0.1191102E+00
         21   -1    0    0  506  501  0.00000000000E+00  0.00000000000E+00  0.39448556854E+03  0.39448556854E+03  0.00000000000E+00 0.  1.
         21   -1    0    0  503  502 -0.00000000000E+00 -0.00000000000E+00 -0.48988674072E+03  0.48988674072E+03  0.00000000000E+00 0. -1.
         21    1    1    2  503  504 -0.58679027904E+02 -0.96831465940E+02 -0.39522581262E+03  0.41112407382E+03  0.00000000000E+00 0. -1.
         21    1    1    2  504  501  0.79027442984E+02  0.18167857733E+03  0.27886164137E+03  0.34207639093E+03  0.00000000000E+00 0.  1.
         21    1    1    2  505  502 -0.12838912413E+02 -0.44744408750E+02 -0.37571874277E+02  0.59820945521E+02  0.00000000000E+00 0. -1.
         21    1    1    2  506  505 -0.75095026674E+01 -0.40102702634E+02  0.58534873352E+02  0.71350898994E+02  0.00000000000E+00 0.  1.
<scales pt_clust_3="14000.00000" pt_clust_4="157.88841" pt_clust_5="47.92132" pt_clust_6="40.79975"></scales>
<clustering>
<clus scale="   40.800">  1  6  2 -1</clus>
<clus scale="   47.921">  2  5  1 -1</clus>
<clus scale="  157.888">  1  4  2 -1</clus>
<clus scale="   40.800">  1  3  2 -1</clus>
</clustering>
</event>
<event>
 6    0  0.4469832E+002  0.1655660E+03  0.7546771E-02  0.1182552E+00
         21   -1    0    0  504  501  0.00000000000E+00  0.00000000000E+00  0.87769847929E+02  0.87769847929E+02  0.00000000000E+00 0. -1.
         21   -1    0    0  506  502 -0.00000000000E+00 -0.00000000000E+00 -0.17064743019E+04  0.17064743019E+04  0.00000000000E+00 0. -1.
         21    1    1    2  503  501 -0.39468819277E+02 -0.11012617292E+01  0.87896655306E+01  0.40450694588E+02  0.00000000000E+00 0. -1.
         21    1    1    2  504  505 -0.34496717615E+02 -0.15079815526E+03 -0.51703100569E+02  0.16310523525E+03  0.00000000000E+00 0. -1.
         21    1    1    2  505  502  0.43552313875E+02 -0.32081551264E+01 -0.15195190601E+03  0.15810274521E+03  0.00000000000E+00 0.  1.
         21    1    1    2  506  503  0.30413223017E+02  0.15510757212E+03 -0.14238391129E+04  0.14325854747E+04  0.00000000000E+00 0. -1.
<scales pt_clust_3="39.48418" pt_clust_4="165.56605" pt_clust_5="41.75775" pt_clust_6="14000.00000"></scales>
<clustering>
<clus scale="   39.484">  1  3  2 -1</clus>
<clus scale="   41.758">  2  5  1 -1</clus>
<clus scale="  165.566">  1  4  2 -1</clus>
<clus scale="   39.484">  1  3  2 -1</clus>
</clustering>
</event>
<event>
 6    0  0.4469832E+002  0.1684404E+03  0.7546771E-02  0.1179484E+00
         21   -1    0    0  506  501  0.00000000000E+00  0.00000000000E+00  0.14851260042E+03  0.14851260042E+03  0.00000000000E+00 0. -1.
         21   -1    0    0  504  502 -0.00000000000E+00 -0.00000000000E+00 -0.49380665017E+03  0.49380665017E+03  0.00000000000E+00 0.  1.
         21    1    1    2  503  502  0.12455436044E+03 -0.11926849276E+03 -0.29596663803E+03  0.34254198706E+03  0.00000000000E+00 0.  1.
         21    1    1    2  504  501 -0.35729312084E+02 -0.32196191323E+01 -0.11569164205E+03  0.12112599114E+03  0.00000000000E+00 0.  1.
         21    1    1    2  505  503 -0.41257093151E+02  0.45194573797E+02  0.63004934476E+02  0.87831196076E+02  0.00000000000E+00 0. -1.
         21    1    1    2  506  505 -0.47567955207E+02  0.77293538092E+02  0.33592958601E+01  0.90820076316E+02  0.00000000000E+00 0. -1.
<scales pt_clust_3="154.12119" pt_clust_4="35.87408" pt_clust_5="55.54554" pt_clust_6="55.54554"></scales>
<clustering>
<clus scale="   35.874">  2  4  1 -1</clus>
<clus scale="   55.546">  5  6 -1 -1</clus>
<clus scale="  154.121">  2  3  1 -1</clus>
<clus scale="  168.440">  1  3  2 -1</clus>
</clustering>
</event>
<event>
 6    0  0.4469832E+002  0.1222827E+03  0.7546771E-02  0.1239378E+00
         21   -1    0    0  503  501  0.00000000000E+00  0.00000000000E+00  0.37082453546E+03  0.37082453546E+03  0.00000000000E+00 0.  1.
         21   -1    0    0  505  502 -0.00000000000E+00 -0.00000000000E+00 -0.16366201312E+03  0.16366201312E+03  0.00000000000E+00 0. -1.
         21    1    1    2  503  506 -0.26773660142E+01  0.80287029704E+02 -0.65478778418E+02  0.10363708723E+03  0.00000000000E+00 0. -1.
         21    1    1    2  504  501  0.57722234826E+02 -0.26505238065E+02  0.22738354928E+03  0.23608825155E+03  0.00000000000E+00 0.  1.
         21    1    1    2  505  504 -0.19787302381E+02 -0.89639871730E+02  0.89186233065E+02  0.12798839052E+03  0.00000000000E+00 0.  1.
         21    1    1    2  506  502 -0.35257566431E+02  0.35858080091E+02 -0.43928481587E+02  0.66772819268E+02  0.00000000000E+00 0. -1.
<scales pt_clust_3="36.60849" pt_clust_4="63.51680" pt_clust_5="113.19105" pt_clust_6="36.60849"></scales>
<clustering>
<clus scale="   36.608">  3  6 -1 -1</clus>
<clus scale="   63.517">  1  4  2 -1</clus>
<clus scale="  113.191">  1  5  2 -1</clus>
<clus scale="   63.517">  1  3  2 -1</clus>
</clustering>
</event>
<event>
 6    0  0.4469832E+002  0.2512175E+03  0.7546771E-02  0.1112538E+00
         21   -1    0    0  506  501  0.00000000000E+00  0.00000000000E+00  0.31060760107E+03  0.31060760107E+03  0.00000000000E+00 0.  1.
         21   -1    0    0  505  502 -0.00000000000E+00 -0.00000000000E+00 -0.11312858094E+04  0.11312858094E+04  0.00000000000E+00 0.  1.
         21    1    1    2  503  502 -0.12139565124E+03  0.93028918014E+01 -0.33362426586E+03  0.35514588370E+03  0.00000000000E+00 0.  1.
         21    1    1    2  504  501  0.38327272677E+02  0.54688582461E+02  0.11550056474E+03  0.13341739518E+03  0.00000000000E+00 0.  1.
         21    1    1    2  505  504  0.19564084176E+03 -0.57046603313E+02  0.11022137259E+03  0.23168600494E+03  0.00000000000E+00 0.  1.
         21    1    1    2  506  503 -0.11257246319E+03 -0.69448709492E+01 -0.71277587984E+03  0.72164412669E+03  0.00000000000E+00 0.  1.
<scales pt_clust_3="95.50821" pt_clust_4="66.78189" pt_clust_5="230.94032" pt_clust_6="95.50821"></scales>
<clustering>
<clus scale="   66.782">  1  4  2 -1</clus>
<clus scale="   95.508">  3  6 -1 -1</clus>
<clus scale="  230.940">  1  5  2 -1</clus>
<clus scale="   66.782">  1  3  2 -1</clus>
</clustering>
</event>
<event>
 6    0  0.4469832E+002  0.2063009E+03  0.7546771E-02  0.1144529E+00
         21   -1    0    0  503  501  0.00000000000E+00  0.00000000000E+00  0.76954135429E+03  0.76954135429E+03  0.00000000000E+00 0.  1.
         21   -1    0    0  505  502 -0.00000000000E+00 -0.00000000000E+00 -0.38249278111E+03  0.38249278111E+03  0.00000000000E+00 0.  1.
         21    1    1    2  503  506 -0.41037861972E+02 -0.22550144921E+03  0.22148648165E+03  0.31873385648E+03  0.00000000000E+00 0.  1.
         21    1    1    2  504  502  0.27204017895E+02  0.10853348762E+03 -0.19336981898E+03  0.22340873621E+03  0.00000000000E+00 0.  1.
         21    1    1    2  505  501  0.29926806842E+02  0.29185903260E+02  0.46749185791E+03  0.46935707934E+03  0.00000000000E+00 0.  1.
         21    1    1    2  506  504 -0.16092962766E+02  0.87782058327E+02 -0.10855994740E+03  0.14053446337E+03  0.00000000000E+00 0.  1.
<scales pt_clust_3="199.82555" pt_clust_4="45.75784" pt_clust_5="41.80228" pt_clust_6="45.75784"></scales>
<clustering>
<clus scale="   41.802">  1  5  2 -1</clus>
<clus scale="   45.758">  4  6 -1 -1</clus>
<clus scale="  199.826">  1  3  2 -1</clus>
<clus scale="   41.802">  1  3  2 -1</clus>
</clustering>
</event>
<event>
 6    0  0.4469832E+002  0.1025709E+03  0.7546771E-02  0.1274981E+00
         21   -1    0    0  505  501  0.00000000000E+00  0.00000000000E+00  0.19248778318E+03  0.19248778318E+03  0.00000000000E+00 0. -1.
         21   -1    0    0  506  502 -0.00000000000E+00 -0.00000000000E+00 -0.50187161988E+03  0.50187161988E+03  0.00000000000E+00 0.  1.
         21    1    1    2  503  501 -0.49004014750E+02  0.32254266863E+02  0.11937992878E+03  0.13301615912E+03  0.00000000000E+00 0. -1.
         21    1    1    2  504  502 -0.26624162225E+02 -0.10283583070E+03 -0.40253438648E+03  0.41631476840E+03  0.00000000000E+00 0.  1.
         21    1    1    2  505  504  0.36234437089E+02 -0.10071932522E+02  0.21549116889E+02  0.43344465559E+02  0.00000000000E+00 0.  1.
         21    1    1    2  506  503  0.39393739885E+02  0.80653496357E+02 -0.47778495884E+02  0.10168400998E+03  0.00000000000E+00 0.  1.
<scales pt_clust_3="31.75758" pt_clust_4="102.57093" pt_clust_5="37.60822" pt_clust_6="14000.00000"></scales>
<clustering>
<clus scale="   37.608">  1  5  2 -1</clus>
<clus scale="   31.758">  1  3  2 -1</clus>
<clus scale="  102.571">  2  4  1 -1</clus>
<clus scale="   37.608">  1  3  2 -1</clus>
</clustering>
</event>
<event>
 6    0  0.4469832E+002  0.1349024E+03  0.7546771E-02  0.1220358E+00
         21   -1    0    0  506  501  0.00000000000E+00  0.00000000000E+00  0.21285091683E+02  0.21285091683E+02  0.00000000000E+00 0.  1.
         21   -1    0    0  505  502 -0.00000000000E+00 -0.00000000000E+00 -0.15033708530E+04  0.15033708530E+04  0.00000000000E+00 0.  1.
         21    1    1    2  503  501 -0.51184934309E+02 -0.52188947462E+02 -0.21077554072E+03  0.22309171277E+03  0.00000000000E+00 0.  1.
         21    1    1    2  504  503 -0.22502874538E+02 -0.65803566522E+02 -0.21669542650E+03  0.22758162623E+03  0.00000000000E+00 0.  1.
         21    1    1    2  505  504  0.24748833897E+02  0.12812578610E+03 -0.93905764661E+03  0.94808121250E+03  0.00000000000E+00 0.  1.
         21    1    1    2  506  502  0.48938974950E+02 -0.10133272116E+02 -0.11555714751E+03  0.12590139322E+03  0.00000000000E+00 0.  1.
<scales pt_clust_3="31.19549" pt_clust_4="31.19549" pt_clust_5="131.05628" pt_clust_6="49.97706"></scales>
<clustering>
<clus scale="   31.195">  3  4 -1 -1</clus>
<clus scale="   49.977">  1  6  2 -1</clus>
<clus scale="  131.056">  2  5  1 -1</clus>
<clus scale="   49.977">  1  3  2 -1</clus>
</clustering>
</event>
<event>
 6    0  0.4469832E+002  0.1261601E+03  0.7546771E-02  0.1233267E+00
         21   -1    0    0  503  501  0.00000000000E+00  0.00000000000E+00  0.11661770537E+03  0.11661770537E+03  0.00000000000E+00 0.  1.
         21   -1    0    0  504  502 -0.00000000000E+00 -0.00000000000E+00 -0.54239362325E+03  0.54239362325E+03  0.00000000000E+00 0. -1.
         21    1    1    2  503  506  0.24013739256E+01  0.31967955458E+02  0.17735227372E+02  0.36636799299E+02  0.00000000000E+00 0. -1.
         21    1    1    2  504  501 -0.49138691327E+02  0.38078762049E+02 -0.63569512492E+02  0.88913924798E+02  0.00000000000E+00 0. -1.
         21    1    1    2  505  502 -0.19423444815E+02  0.73460650907E+02 -0.36713794417E+03  0.37491866783E+03  0.00000000000E+00 0. -1.
         21    1    1    2  506  505  0.66160762216E+02 -0.14350736841E+03 -0.12803688588E+02  0.15854193668E+03  0.00000000000E+00 0.  1.
<scales pt_clust_3="32.05802" pt_clust_4="64.78250" pt_clust_5="14000.00000" pt_clust_6="126.16014"></scales>
<clustering>
<clus scale="   32.058">  1  3  2 -1</clus>
<clus scale="   64.783">  2  4  1 -1</clus>
<clus scale="  126.160">  1  6  2 -1</clus>
<clus scale="   32.058">  1  3  2 -1</clus>
</clustering>
</event>
<event>
 6    0  0.4469832E+002  0.6087389E+02  0.7546771E-02  0.1394201E+00
         21   -1    0    0  506  501  0.00000000000E+00  0.00000000000E+00  0.19008172980E+04  0.19008172980E+04  0.00000000000E+00 0. -1.
         21   -1    0    0  504  502 -0.00000000000E+00 -0.00000000000E+00 -0.18750486348E+03  0.18750486348E+03  0.00000000000E+00 0. -1.
         21    1    1    2  503  501  0.50438047298E+02  0.38569025435E+02  0.10699256648E+04  0.10718080493E+04  0.00000000000E+00 0. -1.
         21    1    1    2  504  503 -0.13936767421E+00 -0.86162835211E+02 -0.16221103267E+03  0.18367491041E+03  0.00000000000E+00 0. -1.
         21    1    1    2  505  502  0.20796690825E+02  0.31480382878E+02  0.17873567654E+02  0.41749027247E+02  0.00000000000E+00 0. -1.
         21    1    1    2  506  505 -0.71095370449E+02  0.16113426897E+02  0.78772423469E+03  0.79109017447E+03  0.00000000000E+00 0. -1.
<scales pt_clust_3="14000.00000" pt_clust_4="58.78631" pt_clust_5="37.72952" pt_clust_6="60.87389"></scales>
<clustering>
<clus scale="   37.730">  2  5  1 -1</clus>
<clus scale="   58.786">  2  4  1 -1</clus>
<clus scale="   60.874">  2  6  1 -1</clus>
<clus scale="   60.874">  1  3  2 -1</clus>
</clustering>
</event>
<event>
 6    0  0.4469832E+002  0.1783569E+03  0.7546771E-02  0.1169403E+00
         21   -1    0    0  504  501  0.00000000000E+00  0.00000000000E+00  0.15793837145E+03  0.15793837145E+03  0.00000000000E+00 0. -1.
         21   -1    0    0  505  502 -0.00000000000E+00 -0.00000000000E+00 -0.31050841473E+04  0.31050841473E+04  0.00000000000E+00 0.  1.
         21    1    1    2  503  506 -0.18894919003E+03  0.28584342821E+02 -0.10041447940E+04  0.10221671236E+04  0.00000000000E+00 0.  1.
         21    1    1    2  504  502  0.13748412777E+03 -0.10298604796E+03  0.63131694216E+02  0.18301262874E+03  0.00000000000E+00 0. -1.
         21    1    1    2  505  503  0.23474619458E+02  0.38779799589E+02 -0.20116893254E+04  0.20122000081E+04  0.00000000000E+00 0.  1.
         21    1    1    2  506  501  0.27990442799E+02  0.35621905549E+02  0.55566493352E+01  0.45642758406E+02  0.00000000000E+00 0. -1.
<scales pt_clust_3="178.35689" pt_clust_4="14000.00000" pt_clust_5="45.41811" pt_clust_6="45.30326"></scales>
<clustering>
<clus scale="   45.303">  1  6  2 -1</clus>
<clus scale="   45.418">  2  5  1 -1</clus>
<clus scale="  178.357">  2  3  1 -1</clus>
<clus scale="   45.303">  1  3  2 -1</clus>
</clustering>
</event>
<event>
 6    0  0.4469832E+002  0.1998867E+03  0.7546771E-02  0.1149835E+00
         21   -1    0    0  506  501  0.00000000000E+00  0.00000000000E+00  0.13142546564E+03  0.13142546564E+03  0.00000000000E+00 0. -1.
         21   -1    0    0  505  502 -0.00000000000E+00 -0.00000000000E+00 -0.10725441526E+04  0.10725441526E+04  0.00000000000E+00 0.  1.
         21    1    1    2  503  504 -0.96306857026E+02 -0.69096829429E+02 -0.34726473481E+03  0.36693620507E+03  0.00000000000E+00 0.  1.
         21    1    1    2  504  501 -0.39621147332E+02 -0.52031745091E+02 -0.67166987574E+02  0.93747224134E+02  0.00000000000E+00 0. -1.
         21    1    1    2  505  503  0.15559688760E+03  0.92511837698E+02 -0.61885861697E+03  0.64479052361E+03  0.00000000000E+00 0.  1.
         21    1    1    2  506  502 -0.19668883247E+02  0.28616736822E+02  0.92171652410E+02  0.98495665400E+02  0.00000000000E+00 0. -1.
<scales pt_clust_3="62.15462" pt_clust_4="62.15462" pt_clust_5="180.63136" pt_clust_6="34.72438"></scales>
<clustering>
<clus scale="   34.724">  1  6  2 -1</clus>
<clus scale="   62.155">  3  4 -1 -1</clus>
<clus scale="  180.631">  2  5  1 -1</clus>
<clus scale="   34.724">  1  3  2 -1</clus>
</clustering>
</event>
<event>
 6    0  0.4469832E+002  0.1353934E+03  0.7546771E-02  0.1219665E+00
         21   -1    0    0  506  501  0.00000000000E+00  0.00000000000E+00  0.56017652472E+03  0.56017652472E+03  0.00000000000E+00 0.  1.
         21   -1    0    0  501  502 -0.00000000000E+00 -0.00000000000E+00 -0.11159983131E+04  0.11159983131E+04  0.00000000000E+00 0. -1.
         21    1    1    2  503  505 -0.11667553561E+03 -0.68549538721E+02  0.14816429316E+03  0.20066110145E+03  0.00000000000E+00 0.  1.
         21    1    1    2  504  502  0.66540312214E+02  0.24095683403E+02 -0.80285893603E+03  0.80597188926E+03  0.00000000000E+00 0. -1.
         21    1    1    2  505  504  0.54814718551E+02 -0.19653611430E+01 -0.28125914671E+03  0.28655753981E+03  0.00000000000E+00 0. -1.
         21    1    1    2  506  503 -0.46794951524E+01  0.46419216461E+02  0.38013200118E+03  0.38298430732E+03  0.00000000000E+00 0.  1.
<scales pt_clust_3="123.44892" pt_clust_4="48.87708" pt_clust_5="48.87708" pt_clust_6="46.65449"></scales>
<clustering>
<clus scale="   46.654">  1  6  2 -1</clus>
<clus scale="   48.877">  4  5 -1 -1</clus>
<clus scale="  123.449">  1  3  2 -1</clus>
<clus scale="   46.654">  1  3  2 -1</clus>
</clustering>
</event>
<event>
 6    0  0.4469832E+002  0.1713603E+03  0.7546771E-02  0.1176437E+00
         21   -1    0    0  505  501  0.00000000000E+00  0.00000000000E+00  0.99330946805E+03  0.99330946805E+03  0.00000000000E+00 0. -1.
         21   -1    0    0  506  502 -0.00000000000E+00 -0.00000000000E+00 -0.17458394633E+04  0.17458394633E+04  0.00000000000E+00 0. -1.
         21    1    1    2  503  502  0.10137229957E+03 -0.51626623676E+02 -0.14492151791E+04  0.14536733769E+04  0.00000000000E+00 0. -1.
         21    1    1    2  504  501  0.93021702129E+02  0.25968268183E+02  0.82011421333E+02  0.12670146506E+03  0.00000000000E+00 0.  1.
         21    1    1    2  505  503 -0.22731851066E+03  0.81998148769E+02  0.86601543064E+03  0.89909962062E+03  0.00000000000E+00 0. -1.
         21    1    1    2  506  504  0.32924508959E+02 -0.56339793275E+02 -0.25134166815E+03  0.25967446880E+03  0.00000000000E+00 0. -1.
<scales pt_clust_3="171.36028" pt_clust_4="96.83137" pt_clust_5="14000.00000" pt_clust_6="65.25485"></scales>
<clustering>
<clus scale="   65.255">  2  6  1 -1</clus>
<clus scale="   96.831">  1  4  2 -1</clus>
<clus scale="  171.360">  2  3  1 -1</clus>
<clus scale="   96.831">  1  3  2 -1</clus>
</clustering>
</event>
<event>
 6    0  0.4469832E+002  0.7448863E+02  0.7546771E-02  0.1345462E+00
         21   -1    0    0  506  501  0.00000000000E+00  0.00000000000E+00  0.79490781915E+03  0.79490781915E+03  0.00000000000E+00 0. -1.
         21   -1    0    0  505  502 -0.00000000000E+00 -0.00000000000E+00 -0.25149922694E+03  0.25149922694E+03  0.00000000000E+00 0. -1.
         21    1    1    2  503  501 -0.12415326471E+02  0.33961436747E+02  0.69256780258E+03  0.69351112514E+03  0.00000000000E+00 0. -1.
         21    1    1    2  504  502  0.36723663384E+01  0.69208463195E+02 -0.16873262586E+03  0.18241161335E+03  0.00000000000E+00 0. -1.
         21    1    1    2  505  503  0.38458271823E+02 -0.12072077547E+03 -0.70538018550E+01  0.12689484002E+03  0.00000000000E+00 0.  1.
         21    1    1    2  506  504 -0.29715311691E+02  0.17550875529E+02  0.26627217354E+02  0.43589467589E+02  0.00000000000E+00 0.  1.
<scales pt_clust_3="63.70892" pt_clust_4="14000.00000" pt_clust_5="74.48863" pt_clust_6="34.51135"></scales>
<clustering>
<clus scale="   34.511">  1  6  2 -1</clus>
<clus scale="   63.709">  1  3  2 -1</clus>
<clus scale="   74.489">  1  5  2 -1</clus>
<clus scale="   34.511">  1  3  2 -1</clus>
</clustering>
</event>
<event>
 6    0  0.4469832E+002  0.8770089E+02  0.7546771E-02  0.1308517E+00
         21   -1    0    0  504  501  0.00000000000E+00  0.00000000000E+00  0.20066220707E+03  0.20066220707E+03  0.00000000000E+00 0.  1.
         21   -1    0    0  505  502 -0.00000000000E+00 -0.00000000000E+00 -0.10216983479E+04  0.10216983479E+04  0.00000000000E+00 0. -1.
         21    1    1    2  503  501  0.34731344966E+02 -0.71709161972E+02  0.55832609265E+02  0.97292088534E+02  0.00000000000E+00 0.  1.
         21    1    1    2  504  506  0.21696166566E+02  0.10500106446E+03  0.98717270661E+02  0.14574308460E+03  0.00000000000E+00 0.  1.
         21    1    1    2  505  503 -0.51430419042E+02 -0.11256241851E+01 -0.50448051828E+03  0.50709658681E+03  0.00000000000E+00 0. -1.
         21    1    1    2  506  502 -0.49970924892E+01 -0.32166278302E+02 -0.47110550251E+03  0.47222879507E+03  0.00000000000E+00 0. -1.
<scales pt_clust_3="87.70089" pt_clust_4="14000.00000" pt_clust_5="63.88766" pt_clust_6="32.55212"></scales>
<clustering>
<clus scale="   32.552">  2  6  1 -1</clus>
<clus scale="   63.888">  2  5  1 -1</clus>
<clus scale="   87.701">  1  3  2 -1</clus>
<clus scale="   87.701">  1  3  2 -1</clus>
</clustering>
</event>
<event>
 6    0  0.4469832E+002  0.1467957E+03  0.7546771E-02  0.1204467E+00
         21   -1    0    0  503  501  0.00000000000E+00  0.00000000000E+00  0.10372092230E+04  0.10372092230E+04  0.00000000000E+00 0. -1.
         21   -1    0    0  505  502 -0.00000000000E+00 -0.00000000000E+00 -0.77900558111E+02  0.77900558111E+02  0.00000000000E+00 0. -1.
         21    1    1    2  503  506 -0.47970263970E+02 -0.57046278536E+01  0.68583637314E+03  0.68753561343E+03  0.00000000000E+00 0. -1.
         21    1    1    2  504  501  0.86816721968E+02  0.52330867012E+02  0.19206554365E+03  0.21717466683E+03  0.00000000000E+00 0. -1.
         21    1    1    2  505  504  0.63942180001E+02  0.20577537787E+02  0.49714985952E+02  0.83568039781E+02  0.00000000000E+00 0. -1.
         21    1    1    2  506  502 -0.10278863800E+03 -0.67203776946E+02  0.31691762183E+02  0.12683146111E+03  0.00000000000E+00 0. -1.
<scales pt_clust_3="48.30827" pt_clust_4="54.75465" pt_clust_5="54.75465" pt_clust_6="132.68194"></scales>
<clustering>
<clus scale="   48.308">  1  3  2 -1</clus>
<clus scale="   54.755">  4  5 -1 -1</clus>
<clus scale="  132.682">  2  6  1 -1</clus>
<clus scale="   48.308">  1  3  2 -1</clus>
</clustering>
</event>
<event>
 6    0  0.4469832E+002  0.1378424E+03  0.7546771E-02  0.1216262E+00
         21   -1    0    0  503  501  0.00000000000E+00  0.00000000000E+00  0.66772891907E+03  0.66772891907E+03  0.00000000000E+00 0.  1.
         21   -1    0    0  504  502 -0.00000000000E+00 -0.00000000000E+00 -0.56372183037E+03  0.56372183037E+03  0.00000000000E+00 0. -1.
         21    1    1    2  503  505  0.25790255336E+02 -0.12318125014E+03  0.41019818078E+03  0.42907027999E+03  0.00000000000E+00 0.  1.
         21    1    1    2  504  501  0.91480000732E+01 -0.66382454864E+02 -0.46492925964E+03  0.46973346984E+03  0.00000000000E+00 0. -1.
         21    1    1    2  505  506 -0.60625271868E+02  0.17282370670E+03  0.20642035961E+03  0.27595800777E+03  0.00000000000E+00 0.  1.
         21    1    1    2  506  502  0.25687016459E+02  0.16739998299E+02 -0.47682192054E+02  0.56688991848E+02  0.00000000000E+00 0. -1.
<scales pt_clust_3="137.84244" pt_clust_4="60.61226" pt_clust_5="14000.00000" pt_clust_6="30.66024"></scales>
<clustering>
<clus scale="   30.660">  2  6  1 -1</clus>
<clus scale="   60.612">  2  4  1 -1</clus>
<clus scale="  137.842">  1  3  2 -1</clus>
<clus scale="  137.842">  1  3  2 -1</clus>
</clustering>
</event>
<event>
 6    0  0.4469832E+002  0.1235650E+03  0.7546771E-02  0.1237329E+00
         21   -1    0    0  506  501  0.00000000000E+00  0.00000000000E+00  0.10036115982E+04  0.10036115982E+04  0.00000000000E+00 0. -1.
         21   -1    0    0  505  502 -0.00000000000E+00 -0.00000000000E+00 -0.36053423649E+03  0.36053423649E+03  0.00000000000E+00 0.  1.
         21    1    1    2  503  504 -0.39055647444E+02 -0.16210827422E+03  0.33943489533E+03  0.37818049175E+03  0.00000000000E+00 0. -1.
         21    1    1    2  504  502  0.19397187907E+02  0.29003403514E+02 -0.46298483029E+00  0.34895023557E+02  0.00000000000E+00 0. -1.
         21    1    1    2  505  501  0.24077648891E+02  0.85319070395E+02 -0.31646478718E+03  0.32864728582E+03  0.00000000000E+00 0.  1.
         21    1    1    2  506  503 -0.44191893535E+01  0.47785800308E+02  0.62057023840E+03  0.62242303358E+03  0.00000000000E+00 0. -1.
<scales pt_clust_3="123.56496" pt_clust_4="34.89195" pt_clust_5="14000.00000" pt_clust_6="48.06295"></scales>
<clustering>
<clus scale="   34.892">  2  4  1 -1</clus>
<clus scale="   48.063">  1  6  2 -1</clus>
<clus scale="  123.565">  1  3  2 -1</clus>
<clus scale="   48.063">  1  3  2 -1</clus>
</clustering>
</event>
<event>
 6    0  0.4469832E+002  0.9813645E+02  0.7546771E-02  0.1284264E+00
         21   -1    0    0  506  501  0.00000000000E+00  0.00000000000E+00  0.10224982626E+03  0.10224982626E+03  0.00000000000E+00 0.  1.
         21   -1    0    0  503  502 -0.00000000000E+00 -0.00000000000E+00 -0.17941683305E+04  0.17941683305E+04  0.00000000000E+00 0. -1.
         21    1    1    2  503  504  0.33543072162E+02 -0.14767069779E+03 -0.13253352820E+03  0.20123843761E+03  0.00000000000E+00 0.  1.
         21    1    1    2  504  501 -0.31318097011E+02  0.90641946118E+01  0.58441807494E+02  0.66921055636E+02  0.00000000000E+00 0.  1.
         21    1    1    2  505  502  0.16050105085E+01  0.95922009181E+02 -0.14967439131E+04  0.14998153051E+04  0.00000000000E+00 0. -1.
         21    1    1    2  506  505 -0.38299856595E+01  0.42684493994E+02 -0.12108287041E+03  0.12844335843E+03  0.00000000000E+00 0. -1.
<scales pt_clust_3="14000.00000" pt_clust_4="32.60342" pt_clust_5="98.13645" pt_clust_6="44.04673"></scales>
<clustering>
<clus scale="   32.603">  1  4  2 -1</clus>
<clus scale="   44.047">  1  6  2 -1</clus>
<clus scale="   98.136">  2  5  1 -1</clus>
<clus scale="   32.603">  1  3  2 -1</clus>
</clustering>
</event>
<event>
 6    0  0.4469832E+002  0.9180169E+02  0.7546771E-02  0.1298546E+00
         21   -1    0    0  503  501  0.00000000000E+00  0.00000000000E+00  0.12763971013E+04  0.12763971013E+04  0.00000000000E+00 0.  1.
         21   -1    0    0  505  502 -0.00000000000E+00 -0.00000000000E+00 -0.64404016671E+02  0.64404016671E+02  0.00000000000E+00 0.  1.
         21    1    1    2  503  502  0.12721026456E+03 -0.19107839088E+02  0.77832597016E+02  0.15035116921E+03  0.00000000000E+00 0.  1.
         21    1    1    2  504  506 -0.17634961956E+02  0.90673369520E+02  0.84218498647E+02  0.12500162934E+03  0.00000000000E+00 0.  1.
         21    1    1    2  505  504 -0.35366129251E+02 -0.17765475552E+02  0.63957860721E+02  0.75212918889E+02  0.00000000000E+00 0.  1.
         21    1    1    2  506  501 -0.74209173356E+02 -0.53800054880E+02  0.98598412826E+03  0.99023540055E+03  0.00000000000E+00 0.  1.
<scales pt_clust_3="14000.00000" pt_clust_4="89.64495" pt_clust_5="39.57746" pt_clust_6="91.80169"></scales>
<clustering>
<clus scale="   39.577">  2  5  1 -1</clus>
<clus scale="   89.645">  2  4  1 -1</clus>
<clus scale="   91.802">  1  6  2 -1</clus>
<clus scale="   91.802">  1  3  2 -1</clus>
</clustering>
</event>
<event>
 6    0  0.4469832E+002  0.9396836E+02  0.7546771E-02  0.1293517E+00
         21   -1    0    0  504  501  0.00000000000E+00  0.00000000000E+00  0.10560017919E+03  0.10560017919E+03  0.00000000000E+00 0.  1.
         21   -1    0    0  503  502 -0.00000000000E+00 -0.00000000000E+00 -0.25810756583E+04  0.25810756583E+04  0.00000000000E+00 0.  1.
         21    1    1    2  503  501  0.58842202746E+02 -0.76341199998E+02 -0.21198319976E+04  0.21220221680E+04  0.00000000000E+00 0.  1.
         21    1    1    2  504  506 -0.44348168777E+02 -0.95191669183E+00  0.18602422459E+02  0.48101105399E+02  0.00000000000E+00 0. -1.
         21    1    1    2  505  502 -0.53490178061E+02 -0.17901582122E+02 -0.40521317217E+03  0.40912025212E+03  0.00000000000E+00 0.  1.
         21    1    1    2  506  505  0.38996144092E+02  0.95194698812E+02  0.30967268234E+02  0.10743231189E+03  0.00000000000E+00 0.  1.
<scales pt_clust_3="93.96836" pt_clust_4="44.35838" pt_clust_5="57.55267" pt_clust_6="14000.00000"></scales>
<clustering>
<clus scale="   44.358">  1  4  2 -1</clus>
<clus scale="   57.553">  2  5  1 -1</clus>
<clus scale="   93.968">  2  3  1 -1</clus>
<clus scale="   44.358">  1  3  2 -1</clus>
</clustering>
</event>
<event>
 6    0  0.4469832E+002  0.7065734E+02  0.7546771E-02  0.1357872E+00
         21   -1    0    0  504  501  0.00000000000E+00  0.00000000000E+00  0.29003615348E+03  0.29003615348E+03  0.00000000000E+00 0. -1.
         21   -1    0    0  506  502 -0.00000000000E+00 -0.00000000000E+00 -0.19361408518E+03  0.19361408518E+03  0.00000000000E+00 0. -1.
         21    1    1    2  503  502 -0.63124568700E+02  0.17264158200E+02 -0.64387341103E+02  0.91806819062E+02  0.00000000000E+00 0. -1.
         21    1    1    2  504  503 -0.41031850872E+02 -0.80953852383E+02  0.22253746915E+03  0.24033323569E+03  0.00000000000E+00 0. -1.
         21    1    1    2  505  501  0.21836287836E+02  0.24620807133E+02  0.11238345579E+02  0.34775106351E+02  0.00000000000E+00 0. -1.
         21    1    1    2  506  505  0.82320131736E+02  0.39068887050E+02 -0.72966405330E+02  0.11673507755E+03  0.00000000000E+00 0. -1.
<scales pt_clust_3="70.65734" pt_clust_4="63.58164" pt_clust_5="32.90908" pt_clust_6="14000.00000"></scales>
<clustering>
<clus scale="   32.909">  1  5  2 -1</clus>
<clus scale="   63.582">  1  4  2 -1</clus>
<clus scale="   70.657">  2  3  1 -1</clus>
<clus scale="   32.909">  1  3  2 -1</clus>
</clustering>
</event>
<event>
 6    0  0.4469832E+002  0.8065327E+02  0.7546771E-02  0.1327208E+00
         21   -1    0    0  506  501  0.00000000000E+00  0.00000000000E+00  0.26585130221E+02  0.26585130221E+02  0.00000000000E+00 0. -1.
         21   -1    0    0  503  502 -0.00000000000E+00 -0.00000000000E+00 -0.21711929688E+04  0.21711929688E+04  0.00000000000E+00 0. -1.
         21    1    1    2  503  501 -0.66084595837E+02  0.72232322338E+02 -0.52395235798E+03  0.53302040827E+03  0.00000000000E+00 0. -1.
         21    1    1    2  504  505  0.67583559663E+02 -0.14939157773E+02 -0.58291322502E+03  0.58700812931E+03  0.00000000000E+00 0. -1.
         21    1    1    2  505  502  0.29441068757E+02 -0.17440197598E+02 -0.10251863803E+04  0.10257573063E+04  0.00000000000E+00 0. -1.
         21    1    1    2  506  504 -0.30940032584E+02 -0.39852966967E+02 -0.12555875263E+02  0.51992255154E+02  0.00000000000E+00 0. -1.
<scales pt_clust_3="14000.00000" pt_clust_4="80.65327" pt_clust_5="34.21896" pt_clust_6="50.34195"></scales>
<clustering>
<clus scale="   34.219">  2  5  1 -1</clus>
<clus scale="   50.342">  1  6  2 -1</clus>
<clus scale="   80.653">  2  4  1 -1</clus>
<clus scale="   50.342">  1  3  2 -1</clus>
</clustering>
</event>
<event>
 6    0  0.4469832E+002  0.7616451E+02  0.7546771E-02  0.1340302E+00
         21   -1    0    0  506  501  0.00000000000E+00  0.00000000000E+00  0.42508580219E+03  0.42508580219E+03  0.00000000000E+00 0.  1.
         21   -1    0    0  505  502 -0.00000000000E+00 -0.00000000000E+00 -0.14546659171E+04  0.14546659171E+04  0.00000000000E+00 0. -1.
         21    1    1    2  503  501 -0.35591741481E+02 -0.63233910389E+02  0.14624468013E+03  0.16325687107E+03  0.00000000000E+00 0.  1.
         21    1    1    2  504  502 -0.28719762906E+02  0.12498207835E+02 -0.28853821611E+03  0.29023323748E+03  0.00000000000E+00 0. -1.
         21    1    1    2  505  503  0.11187233006E+03  0.57646854363E+02  0.25426103332E+03  0.28370275134E+03  0.00000000000E+00 0.  1.
         21    1    1    2  506  504 -0.47560825673E+02 -0.69111518090E+01 -0.11415476123E+04  0.11425588594E+04  0.00000000000E+00 0. -1.
<scales pt_clust_3="72.58607" pt_clust_4="31.32140" pt_clust_5="76.16451" pt_clust_6="14000.00000"></scales>
<clustering>
<clus scale="   31.321">  2  4  1 -1</clus>
<clus scale="   72.586">  1  3  2 -1</clus>
<clus scale="   76.165">  1  5  2 -1</clus>
<clus scale="   72.586">  1  3  2 -1</clus>
</clustering>
</event>
<event>
 6    0  0.4469832E+002  0.7777558E+02  0.7546771E-02  0.1335485E+00
         21   -1    0    0  505  501  0.00000000000E+00  0.00000000000E+00  0.27317167517E+03  0.27317167517E+03  0.00000000000E+00 0.  1.
         21   -1    0    0  506  502 -0.00000000000E+00 -0.00000000000E+00 -0.17056551907E+03  0.17056551907E+03  0.00000000000E+00 0.  1.
         21    1    1    2  503  504  0.50623702549E+02  0.29481710529E+02 -0.31150927214E+01  0.58665443987E+02  0.00000000000E+00 0.  1.
         21    1    1    2  504  502 -0.43690065593E+02  0.25991016941E+02 -0.99396397815E+02  0.11164228004E+03  0.00000000000E+00 0.  1.
         21    1    1    2  505  503 -0.82674761522E+02 -0.42201171213E+02  0.64084542340E+02  0.11279576061E+03  0.00000000000E+00 0.  1.
         21    1    1    2  506  501  0.75741124566E+02 -0.13271556256E+02  0.14103310429E+03  0.16063370961E+03  0.00000000000E+00 0.  1.
<scales pt_clust_3="51.39895" pt_clust_4="50.83655" pt_clust_5="14000.00000" pt_clust_6="77.77558"></scales>
<clustering>
<clus scale="   50.837">  2  4  1 -1</clus>
<clus scale="   51.399">  2  3  1 -1</clus>
<clus scale="   77.776">  1  6  2 -1</clus>
<clus scale="   77.776">  1  3  2 -1</clus>
</clustering>
</event>
<event>
 6    0  0.4469832E+002  0.7060324E+02  0.7546771E-02  0.1358054E+00
         21   -1    0    0  505  501  0.00000000000E+00  0.00000000000E+00  0.18114665283E+03  0.18114665283E+03  0.00000000000E+00 0.  1.
         21   -1    0    0  506  502 -0.00000000000E+00 -0.00000000000E+00 -0.47212200416E+03  0.47212200416E+03  0.00000000000E+00 0.  1.
         21    1    1    2  503  502  0.70503234618E+02 -0.15420627732E+02 -0.35006287238E+03  0.35742484031E+03  0.00000000000E+00 0.  1.
         21    1    1    2  504  501 -0.78993313811E+01 -0.40370013973E+02  0.56679035246E+00  0.41139503105E+02  0.00000000000E+00 0.  1.
         21    1    1    2  505  503 -0.32113856923E+02  0.97631111726E+02  0.13045484433E+03  0.16607709111E+03  0.00000000000E+00 0.  1.
         21    1    1    2  506  504 -0.30490046313E+02 -0.41840470021E+02 -0.71934113640E+02  0.88627222460E+02  0.00000000000E+00 0.  1.
<scales pt_clust_3="14000.00000" pt_clust_4="41.13560" pt_clust_5="70.60324" pt_clust_6="53.72004"></scales>
<clustering>
<clus scale="   41.136">  1  4  2 -1</clus>
<clus scale="   53.720">  2  6  1 -1</clus>
<clus scale="   70.603">  1  5  2 -1</clus>
<clus scale="   41.136">  1  3  2 -1</clus>
</clustering>
</event>
<event>
 6    0  0.4469832E+002  0.1114401E+03  0.7546771E-02  0.1257926E+00
         21   -1    0    0  503  501  0.00000000000E+00  0.00000000000E+00  0.11006056756E+03  0.11006056756E+03  0.00000000000E+00 0.  1.
         21   -1    0    0  505  502 -0.00000000000E+00 -0.00000000000E+00 -0.85750449352E+03  0.85750449352E+03  0.00000000000E+00 0.  1.
         21    1    1    2  503  504  0.40977138392E+02  0.70650801705E+02  0.24313900030E+02  0.85216356335E+02  0.00000000000E+00 0.  1.
         21    1    1    2  504  502 -0.95784288080E+02 -0.44571943120E+02 -0.40368899932E+03  0.41728419108E+03  0.00000000000E+00 0.  1.
         21    1    1    2  505  506 -0.27853145585E+02  0.31529337663E+02 -0.36166850439E+03  0.36410713248E+03  0.00000000000E+00 0.  1.
         21    1    1    2  506  501  0.82660295274E+02 -0.57608196247E+02 -0.64003222851E+01  0.10095738118E+03  0.00000000000E+00 0.  1.
<scales pt_clust_3="82.52950" pt_clust_4="111.44005" pt_clust_5="42.07014" pt_clust_6="14000.00000"></scales>
<clustering>
<clus scale="   42.070">  2  5  1 -1</clus>
<clus scale="   82.529">  1  3  2 -1</clus>
<clus scale="  111.440">  2  4  1 -1</clus>
<clus scale="   82.529">  1  3  2 -1</clus>
</clustering>
</event>
<event>
 6    0  0.4469832E+002  0.1028602E+03  0.7546771E-02  0.1274394E+00
         21   -1    0    0  504  501  0.00000000000E+00  0.00000000000E+00  0.44307874829E+03  0.44307874829E+03  0.00000000000E+00 0. -1.
         21   -1    0    0  503  502 -0.00000000000E+00 -0.00000000000E+00 -0.38578670419E+03  0.38578670419E+03  0.00000000000E+00 0. -1.
         21    1    1    2  503  501 -0.95117462247E+02 -0.74773137565E+02  0.23272193371E+03  0.26229344665E+03  0.00000000000E+00 0. -1.
         21    1    1    2  504  506  0.68766679052E+02  0.29705595338E+02  0.12728205046E+03  0.14768885846E+03  0.00000000000E+00 0. -1.
         21    1    1    2  505  502 -0.21733851352E+02  0.10652391169E+03 -0.32085144683E+03  0.33877035731E+03  0.00000000000E+00 0. -1.
         21    1    1    2  506  505  0.48084634547E+02 -0.61456369465E+02  0.18139506764E+02  0.80112790071E+02  0.00000000000E+00 0. -1.
<scales pt_clust_3="64.23360" pt_clust_4="74.90847" pt_clust_5="14000.00000" pt_clust_6="102.86022"></scales>
<clustering>
<clus scale="   74.908">  1  4  2 -1</clus>
<clus scale="   64.234">  1  3  2 -1</clus>
<clus scale="  102.860">  1  6  2 -1</clus>
<clus scale="   74.908">  1  3  2 -1</clus>
</clustering>
</event>
<event>
 6    0  0.4469832E+002  0.1928030E+03  0.7546771E-02  0.1155957E+00
         21   -1    0    0  506  501  0.00000000000E+00  0.00000000000E+00  0.36828445235E+02  0.36828445235E+02  0.00000000000E+00 0.  1.
         21   -1    0    0  503  502 -0.00000000000E+00 -0.00000000000E+00 -0.15915529483E+04  0.15915529483E+04  0.00000000000E+00 0.  1.
         21    1    1    2  503  505  0.37612305188E+02  0.15705633832E+02 -0.35198025161E+03  0.35433240038E+03  0.00000000000E+00 0.  1.
         21    1    1    2  504  501  0.33349463510E+02  0.22790633470E+02 -0.21572306463E+02  0.45792620546E+02  0.00000000000E+00 0.  1.
         21    1    1    2  505  504  0.58907977905E+02  0.11716214000E+03 -0.54555392664E+03  0.56109375667E+03  0.00000000000E+00 0.  1.
         21    1    1    2  506  502 -0.12986974660E+03 -0.15565840730E+03 -0.63561801835E+03  0.66716261593E+03  0.00000000000E+00 0.  1.
<scales pt_clust_3="40.46632" pt_clust_4="40.39306" pt_clust_5="40.46632" pt_clust_6="178.06054"></scales>
<clustering>
<clus scale="   40.393">  1  4  2 -1</clus>
<clus scale="   40.466">  3  5 -1 -1</clus>
<clus scale="  178.061">  1  6  2 -1</clus>
<clus scale="   40.393">  1  3  2 -1</clus>
</clustering>
</event>
<event>
 6    0  0.4469832E+002  0.6474238E+02  0.7546771E-02  0.1378943E+00
         21   -1    0    0  506  501  0.00000000000E+00  0.00000000000E+00  0.22395659821E+03  0.22395659821E+03  0.00000000000E+00 0. -1.
         21   -1    0    0  501  502 -0.00000000000E+00 -0.00000000000E+00 -0.50827708454E+03  0.50827708454E+03  0.00000000000E+00 0. -1.
         21    1    1    2  503  502  0.23432950591E+02 -0.41923720896E+02 -0.19917115221E+03  0.20488008547E+03  0.00000000000E+00 0. -1.
         21    1    1    2  504  505  0.21864891879E+02  0.95026840640E+02  0.35759060317E+02  0.10385992651E+03  0.00000000000E+00 0. -1.
         21    1    1    2  505  503 -0.71529247672E+02 -0.91988802421E+00 -0.26157689493E+03  0.27118213700E+03  0.00000000000E+00 0. -1.
         21    1    1    2  506  504  0.26231405202E+02 -0.52183231720E+02  0.14066850050E+03  0.15231153379E+03  0.00000000000E+00 0. -1.
<scales pt_clust_3="48.02813" pt_clust_4="14000.00000" pt_clust_5="64.74238" pt_clust_6="59.31737"></scales>
<clustering>
<clus scale="   48.028">  2  3  1 -1</clus>
<clus scale="   59.317">  1  6  2 -1</clus>
<clus scale="   64.742">  2  5  1 -1</clus>
<clus scale="   59.317">  1  3  2 -1</clus>
</clustering>
</event>
<event>
 6    0  0.4469832E+002  0.8022939E+02  0.7546771E-02  0.1328402E+00
         21   -1    0    0  504  501  0.00000000000E+00  0.00000000000E+00  0.10551357410E+04  0.10551357410E+04  0.00000000000E+00 0. -1.
         21   -1    0    0  506  502 -0.00000000000E+00 -0.00000000000E+00 -0.14398714364E+03  0.14398714364E+03  0.00000000000E+00 0. -1.
         21    1    1    2  503  505  0.11448655261E+02 -0.47305911295E+02  0.68941764217E+02  0.84391278009E+02  0.00000000000E+00 0. -1.
         21    1    1    2  504  502  0.92430729167E+02  0.58812439509E+02  0.44190384105E+03  0.45528161336E+03  0.00000000000E+00 0. -1.
         21    1    1    2  505  501 -0.33967834261E+02  0.26207778724E+02  0.51672883463E+03  0.51850684660E+03  0.00000000000E+00 0. -1.
         21    1    1    2  506  503 -0.69911550167E+02 -0.37714306939E+02 -0.11642584252E+03  0.14094314670E+03  0.00000000000E+00 0. -1.
<scales pt_clust_3="44.06552" pt_clust_4="80.22939" pt_clust_5="42.90293" pt_clust_6="14000.00000"></scales>
<clustering>
<clus scale="   42.903">  1  5  2 -1</clus>
<clus scale="   44.066">  1  3  2 -1</clus>
<clus scale="   80.229">  1  4  2 -1</clus>
<clus scale="   42.903">  1  3  2 -1</clus>
</clustering>
</event>
<event>
 6    0  0.4469832E+002  0.1238039E+03  0.7546771E-02  0.1236950E+00
         21   -1    0    0  504  501  0.00000000000E+00  0.00000000000E+00  0.72658009376E+03  0.72658009376E+03  0.00000000000E+00 0. -1.
         21   -1    0    0  506  502 -0.00000000000E+00 -0.00000000000E+00 -0.53382898292E+03  0.53382898292E+03  0.00000000000E+00 0. -1.
         21    1    1    2  503  501 -0.49945594300E+02  0.17633992715E+02  0.62181528178E+03  0.62406711558E+03  0.00000000000E+00 0. -1.
         21    1    1    2  504  505 -0.31084867243E+02  0.89504189170E+02  0.61240350370E+02  0.11281688421E+03  0.00000000000E+00 0.  1.
         21    1    1    2  505  502  0.29139082590E+02 -0.26982990443E+02 -0.21628949852E+02  0.45221448220E+02  0.00000000000E+00 0. -1.
         21    1    1    2  506  503  0.51891378953E+02 -0.80155191442E+02 -0.46867557145E+03  0.47830362867E+03  0.00000000000E+00 0. -1.
<scales pt_clust_3="52.88514" pt_clust_4="14000.00000" pt_clust_5="39.71357" pt_clust_6="123.80393"></scales>
<clustering>
<clus scale="   39.714">  2  5  1 -1</clus>
<clus scale="   52.885">  1  3  2 -1</clus>
<clus scale="  123.804">  2  6  1 -1</clus>
<clus scale="   52.885">  1  3  2 -1</clus>
</clustering>
</event>
<event>
 6    0  0.4469832E+002  0.1092978E+03  0.7546771E-02  0.1261876E+00
         21   -1    0    0  504  501  0.00000000000E+00  0.00000000000E+00  0.12260754300E+04  0.12260754300E+04  0.00000000000E+00 0.  1.
         21   -1    0    0  505  502 -0.00000000000E+00 -0.00000000000E+00 -0.39247213239E+03  0.39247213239E+03  0.00000000000E+00 0.  1.
         21    1    1    2  503  501 -0.10289041033E+03 -0.70089255653E+02  0.97179151402E+03  0.97973347755E+03  0.00000000000E+00 0.  1.
         21    1    1    2  504  502 -0.39041775196E+01  0.88540294486E+02 -0.36472661701E+03  0.37534002119E+03  0.00000000000E+00 0.  1.
         21    1    1    2  505  506  0.21518448448E+02 -0.25494742314E+02  0.17657588997E+02  0.37746734408E+02  0.00000000000E+00 0. -1.
         21    1    1    2  506  503  0.85276139398E+02  0.70437034807E+01  0.20888081157E+03  0.22572732921E+03  0.00000000000E+00 0.  1.
<scales pt_clust_3="14000.00000" pt_clust_4="66.07413" pt_clust_5="33.36204" pt_clust_6="109.29777"></scales>
<clustering>
<clus scale="   33.362">  2  5  1 -1</clus>
<clus scale="   66.074">  2  4  1 -1</clus>
<clus scale="  109.298">  2  6  1 -1</clus>
<clus scale="  109.298">  1  3  2 -1</clus>
</clustering>
</event>
<event>
 6    0  0.4469832E+002  0.1053162E+03  0.7546771E-02  0.1269498E+00
         21   -1    0    0  502  501  0.00000000000E+00  0.00000000000E+00  0.11509610800E+04  0.11509610800E+04  0.00000000000E+00 0. -1.
         21   -1    0    0  506  502 -0.00000000000E+00 -0.00000000000E+00 -0.34286791099E+03  0.34286791099E+03  0.00000000000E+00 0.  1.
         21    1    1    2  503  505 -0.71452694546E+02 -0.20786658030E+02  0.23452381141E+03  0.24604672489E+03  0.00000000000E+00 0. -1.
         21    1    1    2  504  503  0.23285974162E+02  0.59769741863E+02 -0.10888272625E+03  0.12637288756E+03  0.00000000000E+00 0.  1.
         21    1    1    2  505  501 -0.87806956732E+01 -0.62359748692E+02  0.89648786856E+03  0.89869702200E+03  0.00000000000E+00 0. -1.
         21    1    1    2  506  504  0.56947416057E+02  0.23376664860E+02 -0.21403578467E+03  0.22271235659E+03  0.00000000000E+00 0.  1.
<scales pt_clust_3="105.31622" pt_clust_4="14000.00000" pt_clust_5="62.70084" pt_clust_6="61.55873"></scales>
<clustering>
<clus scale="   61.559">  2  6  1 -1</clus>
<clus scale="   62.701">  1  5  2 -1</clus>
<clus scale="  105.316">  1  3  2 -1</clus>
<clus scale="   62.701">  1  3  2 -1</clus>
</clustering>
</event>
<event>
 6    0  0.4469832E+002  0.9035638E+02  0.7546771E-02  0.1301991E+00
         21   -1    0    0  503  501  0.00000000000E+00  0.00000000000E+00  0.13289005416E+04  0.13289005416E+04  0.00000000000E+00 0. -1.
         21   -1    0    0  504  502 -0.00000000000E+00 -0.00000000000E+00 -0.96926910071E+02  0.96926910071E+02  0.00000000000E+00 0.  1.
         21    1    1    2  503  502  0.27632810302E+02 -0.39020862059E+02  0.42919940365E+03  0.43185452177E+03  0.00000000000E+00 0. -1.
         21    1    1    2  504  506  0.94859534712E+02  0.29787221947E+00 -0.61370246032E+02  0.11298109201E+03  0.00000000000E+00 0.  1.
         21    1    1    2  505  501 -0.58439992224E+02  0.33505175938E+02  0.72031699448E+03  0.72346002104E+03  0.00000000000E+00 0. -1.
         21    1    1    2  506  505 -0.64052352790E+02  0.52178139007E+01  0.14382747939E+03  0.15753181681E+03  0.00000000000E+00 0. -1.
<scales pt_clust_3="47.81422" pt_clust_4="14000.00000" pt_clust_5="36.29936" pt_clust_6="90.35638"></scales>
<clustering>
<clus scale="   47.814">  1  3  2 -1</clus>
<clus scale="   36.299">  1  5  2 -1</clus>
<clus scale="   90.356">  1  6  2 -1</clus>
<clus scale="   47.814">  1  3  2 -1</clus>
</clustering>
</event>
<event>
 6    0  0.4469832E+002  0.1264175E+03  0.7546771E-02  0.1232870E+00
         21   -1    0    0  505  501  0.00000000000E+00  0.00000000000E+00  0.98613450218E+03  0.98613450218E+03  0.00000000000E+00 0.  1.
         21   -1    0    0  506  502 -0.00000000000E+00 -0.00000000000E+00 -0.90152529889E+02  0.90152529889E+02  0.00000000000E+00 0. -1.
         21    1    1    2  503  501  0.14606436880E+03 -0.44496768301E+02  0.56906459022E+03  0.58919374578E+03  0.00000000000E+00 0.  1.
         21    1    1    2  504  502 -0.49815579939E+02  0.14464793210E+02 -0.37534427175E+02  0.64028551995E+02  0.00000000000E+00 0. -1.
         21    1    1    2  505  504 -0.10899295922E+03 -0.43403831870E+01  0.37021997577E+03  0.38595483485E+03  0.00000000000E+00 0. -1.
         21    1    1    2  506  503  0.12744170357E+02  0.34372358278E+02 -0.57681665256E+01  0.37109899444E+02  0.00000000000E+00 0. -1.
<scales pt_clust_3="14000.00000" pt_clust_4="56.75667" pt_clust_5="126.41754" pt_clust_6="36.65887"></scales>
<clustering>
<clus scale="   36.659">  2  6  1 -1</clus>
<clus scale="   56.757">  2  4  1 -1</clus>
<clus scale="  126.418">  1  5  2 -1</clus>
<clus scale="  126.418">  1  3  2 -1</clus>
</clustering>
</event>
<event>
 6    0  0.4469832E+002  0.8115209E+02  0.7546771E-02  0.1325813E+00
         21   -1    0    0  506  501  0.00000000000E+00  0.00000000000E+00  0.20783400583E+04  0.20783400583E+04  0.00000000000E+00 0.  1.
         21   -1    0    0  505  502 -0.00000000000E+00 -0.00000000000E+00 -0.62049287196E+02  0.62049287196E+02  0.00000000000E+00 0.  1.
         21    1    1    2  503  502  0.46773140332E+02  0.15553572689E+02 -0.31478655737E+02  0.58485434485E+02  0.00000000000E+00 0.  1.
         21    1    1    2  504  503 -0.10211403177E+03  0.13008196510E+02  0.19822369743E+03  0.22335873138E+03  0.00000000000E+00 0.  1.
         21    1    1    2  505  501  0.40815016574E+02 -0.99996241737E+02  0.97395372240E+03  0.97992395997E+03  0.00000000000E+00 0.  1.
         21    1    1    2  506  504  0.14525874859E+02  0.71434472537E+02  0.87559200701E+03  0.87862121967E+03  0.00000000000E+00 0.  1.
<scales pt_clust_3="49.29138" pt_clust_4="71.95771" pt_clust_5="81.15209" pt_clust_6="14000.00000"></scales>
<clustering>
<clus scale="   49.291">  2  3  1 -1</clus>
<clus scale="   71.958">  2  4  1 -1</clus>
<clus scale="   81.152">  2  5  1 -1</clus>
<clus scale="   81.152">  1  3  2 -1</clus>
</clustering>
</event>
<event>
 6    0  0.4469832E+002  0.2149680E+03  0.7546771E-02  0.1137691E+00
         21   -1    0    0  503  501  0.00000000000E+00  0.00000000000E+00  0.54694175833E+03  0.54694175833E+03  0.00000000000E+00 0. -1.
         21   -1    0    0  505  502 -0.00000000000E+00 -0.00000000000E+00 -0.12022702362E+03  0.12022702362E+03  0.00000000000E+00 0. -1.
         21    1    1    2  503  506  0.13679883395E+02  0.39153054103E+02  0.16742971383E+03  0.17249002849E+03  0.00000000000E+00 0.  1.
         21    1    1    2  504  501  0.52578694427E+01 -0.38739354410E+02  0.55266986192E+02  0.67696547430E+02  0.00000000000E+00 0. -1.
         21    1    1    2  505  504 -0.44883482655E+02 -0.18342612564E+03  0.84617422901E+02  0.20692940546E+03  0.00000000000E+00 0. -1.
         21    1    1    2  506  502  0.25945729818E+02  0.18301242595E+03  0.11940061178E+03  0.22005280058E+03  0.00000000000E+00 0. -1.
<scales pt_clust_3="41.47410" pt_clust_4="31.92832" pt_clust_5="31.92832" pt_clust_6="203.19245"></scales>
<clustering>
<clus scale="   31.928">  4  5 -1 -1</clus>
<clus scale="   41.474">  1  3  2 -1</clus>
<clus scale="  203.192">  2  6  1 -1</clus>
<clus scale="   41.474">  1  3  2 -1</clus>
</clustering>
</event>
<event>
 6    0  0.4469832E+002  0.1191525E+03  0.7546771E-02  0.1244502E+00
         21   -1    0    0  506  501  0.00000000000E+00  0.00000000000E+00  0.84088119426E+02  0.84088119426E+02  0.00000000000E+00 0.  1.
         21   -1    0    0  505  502 -0.00000000000E+00 -0.00000000000E+00 -0.71391364151E+03  0.71391364151E+03  0.00000000000E+00 0. -1.
         21    1    1    2  503  501 -0.11634288484E+03  0.13299636082E+02 -0.53829191864E+02  0.12888028968E+03  0.00000000000E+00 0.  1.
         21    1    1    2  504  502  0.46255957688E+02 -0.10027090361E+03 -0.31426995024E+03  0.33310579304E+03  0.00000000000E+00 0. -1.
         21    1    1    2  505  503  0.85638027397E+02  0.13518869126E+03 -0.20131096167E+03  0.25716912192E+03  0.00000000000E+00 0.  1.
         21    1    1    2  506  504 -0.15551100249E+02 -0.48217423729E+02 -0.60415418309E+02  0.78846556294E+02  0.00000000000E+00 0.  1.
<scales pt_clust_3="14000.00000" pt_clust_4="115.19469" pt_clust_5="119.15255" pt_clust_6="50.66317"></scales>
<clustering>
<clus scale="   50.663">  1  6  2 -1</clus>
<clus scale="  115.195">  2  4  1 -1</clus>
<clus scale="  119.153">  2  5  1 -1</clus>
<clus scale="   50.663">  1  3  2 -1</clus>
</clustering>
</event>
<event>
 6    0  0.4469832E+002  0.1599284E+03  0.7546771E-02  0.1188778E+00
         21   -1    0    0  506  501  0.00000000000E+00  0.00000000000E+00  0.85055990254E+02  0.85055990254E+02  0.00000000000E+00 0. -1.
         21   -1    0    0  504  502 -0.00000000000E+00 -0.00000000000E+00 -0.54417124944E+03  0.54417124944E+03  0.00000000000E+00 0. -1.
         21    1    1    2  503  505  0.66025067520E+02  0.61296238046E+02 -0.20947295282E+03  0.22802512209E+03  0.00000000000E+00 0. -1.
         21    1    1    2  504  503  0.21181215106E+02  0.68763800743E+02 -0.19581286894E+03  0.20861395880E+03  0.00000000000E+00 0. -1.
         21    1    1    2  505  501 -0.57421538667E+02 -0.13620546469E+03 -0.63209170116E+02  0.16076243622E+03  0.00000000000E+00 0. -1.
         21    1    1    2  506  502 -0.29784743959E+02  0.61454258985E+01  0.93797326913E+01  0.31825722577E+02  0.00000000000E+00 0. -1.
<scales pt_clust_3="39.19306" pt_clust_4="39.19306" pt_clust_5="153.94986" pt_clust_6="30.41212"></scales>
<clustering>
<clus scale="   30.412">  1  6  2 -1</clus>
<clus scale="   39.193">  3  4 -1 -1</clus>
<clus scale="  153.950">  1  5  2 -1</clus>
<clus scale="   30.412">  1  3  2 -1</clus>
</clustering>
</event>
<event>
 6    0  0.4469832E+002  0.7349621E+02  0.7546771E-02  0.1348592E+00
         21   -1    0    0  505  501  0.00000000000E+00  0.00000000000E+00  0.52212182858E+03  0.52212182858E+03  0.00000000000E+00 0. -1.
         21   -1    0    0  503  502 -0.00000000000E+00 -0.00000000000E+00 -0.49125470040E+03  0.49125470040E+03  0.00000000000E+00 0. -1.
         21    1    1    2  503  504 -0.40115218363E+02  0.30665286795E+02 -0.20936463307E+03  0.21536745376E+03  0.00000000000E+00 0. -1.
         21    1    1    2  504  506  0.83297552513E+02 -0.85221304380E+02 -0.23241613087E+03  0.26118654419E+03  0.00000000000E+00 0. -1.
         21    1    1    2  505  502 -0.69114955190E+02  0.17906693016E+02  0.10108123659E+02  0.72108951244E+02  0.00000000000E+00 0. -1.
         21    1    1    2  506  501  0.25932621040E+02  0.36649324569E+02  0.46253976846E+03  0.46471357978E+03  0.00000000000E+00 0. -1.
<scales pt_clust_3="50.63075" pt_clust_4="73.49621" pt_clust_5="14000.00000" pt_clust_6="44.89626"></scales>
<clustering>
<clus scale="   44.896">  1  6  2 -1</clus>
<clus scale="   50.631">  2  3  1 -1</clus>
<clus scale="   73.496">  2  4  1 -1</clus>
<clus scale="   44.896">  1  3  2 -1</clus>
</clustering>
</event>
<event>
 6    0  0.4469832E+002  0.8004932E+02  0.7546771E-02  0.1328912E+00
         21   -1    0    0  506  501  0.00000000000E+00  0.00000000000E+00  0.45938725362E+03  0.45938725362E+03  0.00000000000E+00 0.  1.
         21   -1    0    0  504  502 -0.00000000000E+00 -0.00000000000E+00 -0.35522206312E+03  0.35522206312E+03  0.00000000000E+00 0. -1.
         21    1    1    2  503  505 -0.40809802065E+02 -0.34804651926E+02  0.88940904823E+02  0.10386187121E+03  0.00000000000E+00 0. -1.
         21    1    1    2  504  503  0.21547993601E+02  0.63916573723E+02  0.28488557913E+02  0.73220505029E+02  0.00000000000E+00 0. -1.
         21    1    1    2  505  501 -0.41351715923E+02  0.31013242954E+02  0.30431412448E+03  0.30867275877E+03  0.00000000000E+00 0.  1.
         21    1    1    2  506  502  0.60613524387E+02 -0.60125164751E+02 -0.31757839672E+03  0.32885418173E+03  0.00000000000E+00 0. -1.
<scales pt_clust_3="68.59921" pt_clust_4="80.04932" pt_clust_5="51.68932" pt_clust_6="14000.00000"></scales>
<clustering>
<clus scale="   51.689">  1  5  2 -1</clus>
<clus scale="   68.599">  1  3  2 -1</clus>
<clus scale="   80.049">  1  4  2 -1</clus>
<clus scale="   51.689">  1  3  2 -1</clus>
</clustering>
</event>
<event>
 6    0  0.4469832E+002  0.7754931E+02  0.7546771E-02  0.1336154E+00
         21   -1    0    0  506  501  0.00000000000E+00  0.00000000000E+00  0.25859455352E+04  0.25859455352E+04  0.00000000000E+00 0.  1.
         21   -1    0    0  503  502 -0.00000000000E+00 -0.00000000000E+00 -0.22707928444E+02  0.22707928444E+02  0.00000000000E+00 0.  1.
         21    1    1    2  503  504  0.21046604104E+02  0.73247012447E+02  0.77531729276E+02  0.10871638985E+03  0.00000000000E+00 0.  1.
         21    1    1    2  504  505 -0.53451905660E+02 -0.71039799431E+02  0.45405786311E+03  0.46267948126E+03  0.00000000000E+00 0. -1.
         21    1    1    2  505  501  0.22057661519E+02 -0.59633649003E+02  0.16452846646E+04  0.16465127816E+04  0.00000000000E+00 0.  1.
         21    1    1    2  506  502  0.10347640037E+02  0.57426435987E+02  0.38636334979E+03  0.39074481093E+03  0.00000000000E+00 0. -1.
<scales pt_clust_3="77.54931" pt_clust_4="14000.00000" pt_clust_5="34.12850" pt_clust_6="58.35126"></scales>
<clustering>
<clus scale="   58.351">  1  6  2 -1</clus>
<clus scale="   34.128">  1  5  2 -1</clus>
<clus scale="   77.549">  2  3  1 -1</clus>
<clus scale="   58.351">  1  3  2 -1</clus>
</clustering>
</event>
<event>
 6    0  0.4469832E+002  0.1119328E+03  0.7546771E-02  0.1257032E+00
         21   -1    0    0  503  501  0.00000000000E+00  0.00000000000E+00  0.16618341488E+03  0.16618341488E+03  0.00000000000E+00 0. -1.
         21   -1    0    0  506  502 -0.00000000000E+00 -0.00000000000E+00 -0.21701163879E+04  0.21701163879E+04  0.00000000000E+00 0. -1.
         21    1    1    2  503  504  0.65981381414E+02 -0.59127418556E+02  0.44393392201E+02  0.99097767833E+02  0.00000000000E+00 0. -1.
         21    1    1    2  504  502 -0.60836372486E+02  0.13317579813E+03 -0.20541256184E+04  0.20593370083E+04  0.00000000000E+00 0. -1.
         21    1    1    2  505  501 -0.58137642361E+01 -0.37178889559E+02  0.83648840376E+02  0.91723487612E+02  0.00000000000E+00 0. -1.
         21    1    1    2  506  505  0.66875530824E+00 -0.36869490011E+02 -0.77849587161E+02  0.86141539041E+02  0.00000000000E+00 0. -1.
<scales pt_clust_3="14000.00000" pt_clust_4="111.93280" pt_clust_5="37.70093" pt_clust_6="36.87555"></scales>
<clustering>
<clus scale="   36.876">  2  6  1 -1</clus>
<clus scale="   37.701">  1  5  2 -1</clus>
<clus scale="  111.933">  2  4  1 -1</clus>
<clus scale="   37.701">  1  3  2 -1</clus>
</clustering>
</event>
<event>
 6    0  0.4469832E+002  0.8645109E+02  0.7546771E-02  0.1311681E+00
         21   -1    0    0  506  501  0.00000000000E+00  0.00000000000E+00  0.11295847085E+04  0.11295847085E+04  0.00000000000E+00 0.  1.
         21   -1    0    0  504  502 -0.00000000000E+00 -0.00000000000E+00 -0.74199936143E+02  0.74199936143E+02  0.00000000000E+00 0.  1.
         21    1    1    2  503  502 -0.46449230478E+01  0.45159769985E+02 -0.35336538781E+02  0.57529567252E+02  0.00000000000E+00 0.  1.
         21    1    1    2  504  501 -0.66726265297E+02 -0.76750137202E+02  0.25952169745E+03  0.27873731270E+03  0.00000000000E+00 0. -1.
         21    1    1    2  505  503  0.29916282059E+02  0.55428367490E+02  0.39440400673E+02  0.74315765892E+02  0.00000000000E+00 0.  1.
         21    1    1    2  506  505  0.41454906286E+02 -0.23838000273E+02  0.79175921303E+03  0.79320199882E+03  0.00000000000E+00 0.  1.
<scales pt_clust_3="45.39802" pt_clust_4="86.45109" pt_clust_5="14000.00000" pt_clust_6="47.14031"></scales>
<clustering>
<clus scale="   45.398">  2  3  1 -1</clus>
<clus scale="   47.140">  1  6  2 -1</clus>
<clus scale="   86.451">  1  4  2 -1</clus>
<clus scale="   47.140">  1  3  2 -1</clus>
</clustering>
</event>
<event>
 6    0  0.4469832E+002  0.9089988E+02  0.7546771E-02  0.1300687E+00
         21   -1    0    0  503  501  0.00000000000E+00  0.00000000000E+00  0.29393026810E+03  0.29393026810E+03  0.00000000000E+00 0. -1.
         21   -1    0    0  506  502 -0.00000000000E+00 -0.00000000000E+00 -0.51066966825E+03  0.51066966825E+03  0.00000000000E+00 0. -1.
         21    1    1    2  503  505 -0.42239646221E+02 -0.32055183958E+02  0.23295467878E+03  0.23891338367E+03  0.00000000000E+00 0. -1.
         21    1    1    2  504  501  0.11076359238E+03  0.25142242637E+02 -0.56480035856E+02  0.12684912382E+03  0.00000000000E+00 0. -1.
         21    1    1    2  505  502 -0.18315201275E+02 -0.86676946047E+02 -0.17453462073E+03  0.19573112529E+03  0.00000000000E+00 0. -1.
         21    1    1    2  506  504 -0.50208744887E+02  0.93589887368E+02 -0.21867942235E+03  0.24310630358E+03  0.00000000000E+00 0. -1.
<scales pt_clust_3="53.02568" pt_clust_4="85.32837" pt_clust_5="14000.00000" pt_clust_6="90.89988"></scales>
<clustering>
<clus scale="   53.026">  1  3  2 -1</clus>
<clus scale="   85.328">  1  4  2 -1</clus>
<clus scale="   90.900">  1  6  2 -1</clus>
<clus scale="   53.026">  1  3  2 -1</clus>
</clustering>
</event>
<event>
 6    0  0.4469832E+002  0.1121430E+03  0.7546771E-02  0.1256652E+00
         21   -1    0    0  506  501  0.00000000000E+00  0.00000000000E+00  0.64514222545E+02  0.64514222545E+02  0.00000000000E+00 0. -1.
         21   -1    0    0  503  502 -0.00000000000E+00 -0.00000000000E+00 -0.10451203433E+04  0.10451203433E+04  0.00000000000E+00 0. -1.
         21    1    1    2  503  504 -0.32307284631E+02 -0.13702988341E+02 -0.49609838620E+03  0.49733805537E+03  0.00000000000E+00 0. -1.
         21    1    1    2  504  501 -0.52546569433E+02  0.12179230853E+03 -0.15634346615E+03  0.20503118735E+03  0.00000000000E+00 0. -1.
         21    1    1    2  505  502  0.54355179147E+02 -0.86076020360E+01 -0.29195006550E+03  0.29709159708E+03  0.00000000000E+00 0. -1.
         21    1    1    2  506  505  0.30498674917E+02 -0.99481718153E+02 -0.36214202903E+02  0.11017372604E+03  0.00000000000E+00 0. -1.
<scales pt_clust_3="35.09320" pt_clust_4="112.14296" pt_clust_5="40.30223" pt_clust_6="14000.00000"></scales>
<clustering>
<clus scale="   35.093">  2  3  1 -1</clus>
<clus scale="   40.302">  2  5  1 -1</clus>
<clus scale="  112.143">  2  4  1 -1</clus>
<clus scale="  112.143">  1  3  2 -1</clus>
</clustering>
</event>
<event>
 6    0  0.4469832E+002  0.1502782E+03  0.7546771E-02  0.1200132E+00
         21   -1    0    0  503  501  0.00000000000E+00  0.00000000000E+00  0.84018809455E+02  0.84018809455E+02  0.00000000000E+00 0. -1.
         21   -1    0    0  505  502 -0.00000000000E+00 -0.00000000000E+00 -0.10845015706E+04  0.10845015706E+04  0.00000000000E+00 0. -1.
         21    1    1    2  503  506  0.17485595147E+03  0.25692536307E+02 -0.23304115803E+03  0.29247716411E+03  0.00000000000E+00 0. -1.
         21    1    1    2  504  501 -0.21963621414E+02 -0.45621376458E+02  0.16385277019E+02  0.53218304732E+02  0.00000000000E+00 0. -1.
         21    1    1    2  505  504 -0.10986993656E+03  0.10554740556E+03 -0.53195015372E+03  0.55333771228E+03  0.00000000000E+00 0. -1.
         21    1    1    2  506  502 -0.43022393494E+02 -0.85618565412E+02 -0.25187672640E+03  0.26948719893E+03  0.00000000000E+00 0. -1.
<scales pt_clust_3="150.27816" pt_clust_4="50.63310" pt_clust_5="14000.00000" pt_clust_6="104.87735"></scales>
<clustering>
<clus scale="   50.633">  1  4  2 -1</clus>
<clus scale="  104.877">  2  6  1 -1</clus>
<clus scale="  150.278">  1  3  2 -1</clus>
<clus scale="   50.633">  1  3  2 -1</clus>
</clustering>
</event>
<event>
 6    0  0.4469832E+002  0.9279745E+02  0.7546771E-02  0.1296215E+00
         21   -1    0    0  506  501  0.00000000000E+00  0.00000000000E+00  0.18143081640E+03  0.18143081640E+03  0.00000000000E+00 0. -1.
         21   -1    0    0  503  502 -0.00000000000E+00 -0.00000000000E+00 -0.18311682095E+03  0.18311682095E+03  0.00000000000E+00 0. -1.
         21    1    1    2  503  504  0.14601682911E+02 -0.29570700665E+02 -0.19632882666E+02  0.38380796806E+02  0.00000000000E+00 0.  1.
         21    1    1    2  504  501  0.96841824439E+02 -0.12083085360E+02 -0.35119715110E+02  0.10371949818E+03  0.00000000000E+00 0. -1.
         21    1    1    2  505  502 -0.82906800133E+02  0.55937817694E+02 -0.51942062839E+02  0.11269673841E+03  0.00000000000E+00 0.  1.
         21    1    1    2  506  505 -0.28536707217E+02 -0.14284031669E+02  0.10500865606E+03  0.10975060395E+03  0.00000000000E+00 0. -1.
<scales pt_clust_3="33.24754" pt_clust_4="14000.00000" pt_clust_5="92.79745" pt_clust_6="31.91202"></scales>
<clustering>
<clus scale="   31.912">  1  6  2 -1</clus>
<clus scale="   33.248">  2  3  1 -1</clus>
<clus scale="   92.797">  2  5  1 -1</clus>
<clus scale="   31.912">  1  3  2 -1</clus>
</clustering>
</event>
<event>
 6    0  0.4469832E+002  0.1699331E+03  0.7546771E-02  0.1177918E+00
         21   -1    0    0  505  501  0.00000000000E+00  0.00000000000E+00  0.59391911570E+03  0.59391911570E+03  0.00000000000E+00 0.  1.
         21   -1    0    0  506  502 -0.00000000000E+00 -0.00000000000E+00 -0.37540739755E+03  0.37540739755E+03  0.00000000000E+00 0. -1.
         21    1    1    2  503  504  0.10395550966E+03  0.77212092765E+02 -0.22005170055E+03  0.25532568647E+03  0.00000000000E+00 0. -1.
         21    1    1    2  504  501  0.10191894430E+03 -0.87585560132E+01  0.95132740120E+02  0.13969402905E+03  0.00000000000E+00 0.  1.
         21    1    1    2  505  502 -0.23947998329E+03 -0.55308064884E+02  0.42171171912E+03  0.48810902315E+03  0.00000000000E+00 0.  1.
         21    1    1    2  506  503  0.33605529336E+02 -0.13145471868E+02 -0.78281040549E+02  0.86197774577E+02  0.00000000000E+00 0. -1.
<scales pt_clust_3="35.83522" pt_clust_4="102.29459" pt_clust_5="155.78507" pt_clust_6="35.83522"></scales>
<clustering>
<clus scale="   35.835">  3  6 -1 -1</clus>
<clus scale="  102.295">  1  4  2 -1</clus>
<clus scale="  155.785">  1  5  2 -1</clus>
<clus scale="  102.295">  1  3  2 -1</clus>
</clustering>
</event>
<event>
 6    0  0.4469832E+002  0.7881721E+02  0.7546771E-02  0.1332442E+00
         21   -1    0    0  505  501  0.00000000000E+00  0.00000000000E+00  0.11077980517E+04  0.11077980517E+04  0.00000000000E+00 0.  1.
         21   -1    0    0  506  502 -0.00000000000E+00 -0.00000000000E+00 -0.17142830977E+03  0.17142830977E+03  0.00000000000E+00 0.  1.
         21    1    1    2  503  502  0.75800676236E+02  0.50074472021E+01 -0.11294784621E+03  0.13611771746E+03  0.00000000000E+00 0.  1.
         21    1    1    2  504  501  0.14344111153E+02 -0.30180043518E+02  0.25138534572E+03  0.25359649168E+03  0.00000000000E+00 0.  1.
         21    1    1    2  505  503 -0.85222066080E+02  0.63945559403E+02  0.83131322572E+03  0.83811306777E+03  0.00000000000E+00 0.  1.
         21    1    1    2  506  504 -0.49227213079E+01 -0.38772963087E+02 -0.33380983277E+02  0.51399084585E+02  0.00000000000E+00 0.  1.
<scales pt_clust_3="78.81721" pt_clust_4="33.41539" pt_clust_5="14000.00000" pt_clust_6="39.38100"></scales>
<clustering>
<clus scale="   33.415">  1  4  2 -1</clus>
<clus scale="   39.381">  2  6  1 -1</clus>
<clus scale="   78.817">  2  3  1 -1</clus>
<clus scale="   33.415">  1  3  2 -1</clus>
</clustering>
</event>
<event>
 6    0  0.4469832E+002  0.1709167E+03  0.7546771E-02  0.1176895E+00
         21   -1    0    0  505  501  0.00000000000E+00  0.00000000000E+00  0.75990658555E+02  0.75990658555E+02  0.00000000000E+00 0. -1.
         21   -1    0    0  503  502 -0.00000000000E+00 -0.00000000000E+00 -0.44550268211E+03  0.44550268211E+03  0.00000000000E+00 0.  1.
         21    1    1    2  503  504  0.35394156124E+02 -0.55978425846E+02 -0.16662385147E+03  0.17930375993E+03  0.00000000000E+00 0.  1.
         21    1    1    2  504  506  0.43114546939E+02 -0.86953223585E+00 -0.10581213627E+03  0.11426210407E+03  0.00000000000E+00 0.  1.
         21    1    1    2  505  502 -0.12870102732E+03  0.70345891448E+02 -0.42822466605E+02  0.15279483801E+03  0.00000000000E+00 0. -1.
         21    1    1    2  506  501  0.50192324254E+02 -0.13497933366E+02 -0.54253569219E+02  0.75132638661E+02  0.00000000000E+00 0.  1.
<scales pt_clust_3="60.70458" pt_clust_4="33.30275" pt_clust_5="146.67140" pt_clust_6="60.70458"></scales>
<clustering>
<clus scale="   33.303">  4  6 -1 -1</clus>
<clus scale="   60.705">  3  4 -1 -1</clus>
<clus scale="  146.671">  1  5  2 -1</clus>
<clus scale="  146.671">  1  3  2 -1</clus>
</clustering>
</event>
<event>
 6    0  0.4469832E+002  0.1154203E+03  0.7546771E-02  0.1250849E+00
         21   -1    0    0  504  501  0.00000000000E+00  0.00000000000E+00  0.10485221842E+03  0.10485221842E+03  0.00000000000E+00 0.  1.
         21   -1    0    0  503  502 -0.00000000000E+00 -0.00000000000E+00 -0.76453103961E+03  0.76453103961E+03  0.00000000000E+00 0.  1.
         21    1    1    2  503  505  0.30288043334E+02 -0.13721108913E+02 -0.60242023804E+02  0.68809416731E+02  0.00000000000E+00 0.  1.
         21    1    1    2  504  506  0.85958120033E+02  0.81783536908E+01 -0.38957184522E+03  0.39902619770E+03  0.00000000000E+00 0.  1.
         21    1    1    2  505  501 -0.10561800867E+03 -0.54383161912E+02  0.54187730972E+02  0.13057182790E+03  0.00000000000E+00 0.  1.
         21    1    1    2  506  502 -0.10628154702E+02  0.59925917134E+02 -0.26405268314E+03  0.27097581569E+03  0.00000000000E+00 0.  1.
<scales pt_clust_3="33.25108" pt_clust_4="115.42026" pt_clust_5="14000.00000" pt_clust_6="54.69045"></scales>
<clustering>
<clus scale="   33.251">  2  3  1 -1</clus>
<clus scale="   54.690">  2  6  1 -1</clus>
<clus scale="  115.420">  2  4  1 -1</clus>
<clus scale="  115.420">  1  3  2 -1</clus>
</clustering>
</event>
<event>
 6    0  0.4469832E+002  0.1588194E+03  0.7546771E-02  0.1190036E+00
         21   -1    0    0  505  501  0.00000000000E+00  0.00000000000E+00  0.77468173422E+03  0.77468173422E+03  0.00000000000E+00 0.  1.
         21   -1    0    0  506  502 -0.00000000000E+00 -0.00000000000E+00 -0.21598176179E+03  0.21598176179E+03  0.00000000000E+00 0. -1.
         21    1    1    2  503  501  0.64892384412E+01  0.41923289269E+02  0.55118745793E+03  0.55281758852E+03  0.00000000000E+00 0.  1.
         21    1    1    2  504  502 -0.68535474295E+01 -0.17323425014E+03 -0.88870841378E+02  0.19482069444E+03  0.00000000000E+00 0. -1.
         21    1    1    2  505  504  0.39767423923E+02 -0.61928958943E+01  0.91435835199E+02  0.99901511117E+02  0.00000000000E+00 0.  1.
         21    1    1    2  506  503 -0.39403114934E+02  0.13750385677E+03  0.49475206774E+01  0.14312370193E+03  0.00000000000E+00 0.  1.
<scales pt_clust_3="53.55023" pt_clust_4="158.81936" pt_clust_5="40.24674" pt_clust_6="14000.00000"></scales>
<clustering>
<clus scale="   40.247">  1  5  2 -1</clus>
<clus scale="   53.550">  1  3  2 -1</clus>
<clus scale="  158.819">  2  4  1 -1</clus>
<clus scale="   40.247">  1  3  2 -1</clus>
</clustering>
</event>
<event>
 6    0  0.4469832E+002  0.1158242E+03  0.7546771E-02  0.1250149E+00
         21   -1    0    0  506  501  0.00000000000E+00  0.00000000000E+00  0.17006277220E+03  0.17006277220E+03  0.00000000000E+00 0. -1.
         21   -1    0    0  504  502 -0.00000000000E+00 -0.00000000000E+00 -0.16658005156E+04  0.16658005156E+04  0.00000000000E+00 0. -1.
         21    1    1    2  503  501  0.33800208633E+02 -0.17663687227E+02  0.14724149602E+03  0.15210035536E+03  0.00000000000E+00 0. -1.
         21    1    1    2  504  505 -0.20939138164E+02  0.39767782724E+02 -0.36391834863E+03  0.36668309003E+03  0.00000000000E+00 0. -1.
         21    1    1    2  505  503 -0.21361988347E+02 -0.13997443100E+03 -0.10482935388E+04  0.10578130833E+04  0.00000000000E+00 0. -1.
         21    1    1    2  506  502  0.85009178782E+01  0.11787033550E+03 -0.23076735207E+03  0.25926675911E+03  0.00000000000E+00 0. -1.
<scales pt_clust_3="38.13738" pt_clust_4="42.84172" pt_clust_5="14000.00000" pt_clust_6="115.82421"></scales>
<clustering>
<clus scale="   38.137">  1  3  2 -1</clus>
<clus scale="   42.842">  2  4  1 -1</clus>
<clus scale="  115.824">  1  6  2 -1</clus>
<clus scale="   38.137">  1  3  2 -1</clus>
</clustering>
</event>
<event>
 6    0  0.4469832E+002  0.1852017E+03  0.7546771E-02  0.1162862E+00
         21   -1    0    0  503  501  0.00000000000E+00  0.00000000000E+00  0.61259489418E+03  0.61259489418E+03  0.00000000000E+00 0. -1.
         21   -1    0    0  506  502 -0.00000000000E+00 -0.00000000000E+00 -0.20016137651E+03  0.20016137651E+03  0.00000000000E+00 0.  1.
         21    1    1    2  503  505 -0.17094065535E+03  0.97707249717E+02  0.41554750749E+03  0.45983382355E+03  0.00000000000E+00 0. -1.
         21    1    1    2  504  502  0.67407182310E+02  0.51192176186E+02 -0.64464996790E+02  0.10639597239E+03  0.00000000000E+00 0.  1.
         21    1    1    2  505  504  0.56547145716E+02 -0.17409861444E+03  0.32534794422E+02  0.18592046710E+03  0.00000000000E+00 0.  1.
         21    1    1    2  506  501  0.46986327323E+02  0.25199188532E+02  0.28816212552E+02  0.60606007655E+02  0.00000000000E+00 0.  1.
<scales pt_clust_3="185.20165" pt_clust_4="109.12541" pt_clust_5="14000.00000" pt_clust_6="53.31711"></scales>
<clustering>
<clus scale="   53.317">  2  6  1 -1</clus>
<clus scale="  109.125">  2  4  1 -1</clus>
<clus scale="  185.202">  1  3  2 -1</clus>
<clus scale="  185.202">  1  3  2 -1</clus>
</clustering>
</event>
<event>
 6    0  0.4469832E+002  0.2550806E+03  0.7546771E-02  0.1110135E+00
         21   -1    0    0  505  501  0.00000000000E+00  0.00000000000E+00  0.30653073266E+03  0.30653073266E+03  0.00000000000E+00 0. -1.
         21   -1    0    0  506  502 -0.00000000000E+00 -0.00000000000E+00 -0.31149759442E+03  0.31149759442E+03  0.00000000000E+00 0. -1.
         21    1    1    2  503  502  0.37836840321E+01  0.23602775600E+03 -0.51958662169E+02  0.24170875127E+03  0.00000000000E+00 0. -1.
         21    1    1    2  504  503  0.24810518668E+02  0.24700398903E+02  0.27008288855E+02  0.44216729972E+02  0.00000000000E+00 0.  1.
         21    1    1    2  505  504 -0.25049579241E+02  0.20820993169E+02  0.37885276809E+02  0.49962879977E+02  0.00000000000E+00 0.  1.
         21    1    1    2  506  501 -0.35446234600E+01 -0.28154914807E+03 -0.17901765262E+02  0.28213996586E+03  0.00000000000E+00 0. -1.
<scales pt_clust_3="14000.00000" pt_clust_4="34.87273" pt_clust_5="32.57292" pt_clust_6="255.08059"></scales>
<clustering>
<clus scale="   32.573">  1  5  2 -1</clus>
<clus scale="   34.873">  1  4  2 -1</clus>
<clus scale="  255.081">  1  6  2 -1</clus>
<clus scale="   32.573">  1  3  2 -1</clus>
</clustering>
</event>
<event>
 6    0  0.4469832E+002  0.1544061E+03  0.7546771E-02  0.1195161E+00
         21   -1    0    0  503  501  0.00000000000E+00  0.00000000000E+00  0.23551253722E+04  0.23551253722E+04  0.00000000000E+00 0.  1.
         21   -1    0    0  504  502 -0.00000000000E+00 -0.00000000000E+00 -0.23790055956E+03  0.23790055956E+03  0.00000000000E+00 0.  1.
         21    1    1    2  503  506  0.36307432079E+02  0.17204113451E+03  0.54274614182E+03  0.57051709532E+03  0.00000000000E+00 0.  1.
         21    1    1    2  504  505  0.45769481194E+02 -0.10214388288E+03 -0.18994961364E+03  0.22047465601E+03  0.00000000000E+00 0.  1.
         21    1    1    2  505  501 -0.86456311111E+02 -0.12485365572E+03  0.17308145989E+04  0.17374643320E+04  0.00000000000E+00 0.  1.
         21    1    1    2  506  502  0.43793978386E+01  0.54956404090E+02  0.33613685571E+02  0.64569848487E+02  0.00000000000E+00 0.  1.
<scales pt_clust_3="14000.00000" pt_clust_4="71.60373" pt_clust_5="154.40609" pt_clust_6="55.13062"></scales>
<clustering>
<clus scale="   55.131">  2  6  1 -1</clus>
<clus scale="   71.604">  2  4  1 -1</clus>
<clus scale="  154.406">  1  5  2 -1</clus>
<clus scale="  154.406">  1  3  2 -1</clus>
</clustering>
</event>
<event>
 6    0  0.4469832E+002  0.9439432E+02  0.7546771E-02  0.1292546E+00
         21   -1    0    0  504  501  0.00000000000E+00  0.00000000000E+00  0.37678237181E+03  0.37678237181E+03  0.00000000000E+00 0.  1.
         21   -1    0    0  505  502 -0.00000000000E+00 -0.00000000000E+00 -0.10200519427E+03  0.10200519427E+03  0.00000000000E+00 0.  1.
         21    1    1    2  503  502 -0.69388287176E+02  0.50952001576E+02 -0.48467130520E+02  0.98792224404E+02  0.00000000000E+00 0.  1.
         21    1    1    2  504  506  0.63234014027E+02  0.90918512644E+01  0.18310958957E+03  0.19393381366E+03  0.00000000000E+00 0.  1.
         21    1    1    2  505  501 -0.34957770017E+02 -0.62966881750E+01  0.62751217422E+01  0.36070363450E+02  0.00000000000E+00 0.  1.
         21    1    1    2  506  503  0.41112043166E+02 -0.53747164666E+02  0.13385959675E+03  0.14999116456E+03  0.00000000000E+00 0.  1.
<scales pt_clust_3="14000.00000" pt_clust_4="61.67879" pt_clust_5="35.52033" pt_clust_6="94.39432"></scales>
<clustering>
<clus scale="   35.520">  2  5  1 -1</clus>
<clus scale="   61.679">  1  4  2 -1</clus>
<clus scale="   94.394">  1  6  2 -1</clus>
<clus scale="   61.679">  1  3  2 -1</clus>
</clustering>
</event>
<event>
 6    0  0.4469832E+002  0.1199175E+03  0.7546771E-02  0.1243233E+00
         21   -1    0    0  503  501  0.00000000000E+00  0.00000000000E+00  0.20576536605E+03  0.20576536605E+03  0.00000000000E+00 0. -1.
         21   -1    0    0  506  502 -0.00000000000E+00 -0.00000000000E+00 -0.27360047848E+03  0.27360047848E+03  0.00000000000E+00 0. -1.
         21    1    1    2  503  504 -0.12119301362E+02  0.46797668929E+02  0.14998957856E+03  0.15758735025E+03  0.00000000000E+00 0. -1.
         21    1    1    2  504  505 -0.44517472880E+02 -0.64765118409E+02 -0.52803483597E+02  0.94681222184E+02  0.00000000000E+00 0. -1.
         21    1    1    2  505  502 -0.23034414789E+02 -0.44008901792E+02 -0.84322644432E+02  0.97865602055E+02  0.00000000000E+00 0. -1.
         21    1    1    2  506  501  0.79671189031E+02  0.61976351272E+02 -0.80698562955E+02  0.12923167004E+03  0.00000000000E+00 0. -1.
<scales pt_clust_3="48.34149" pt_clust_4="34.43126" pt_clust_5="34.43126" pt_clust_6="111.82369"></scales>
<clustering>
<clus scale="   34.431">  4  5 -1 -1</clus>
<clus scale="   48.341">  1  3  2 -1</clus>
<clus scale="  111.824">  2  6  1 -1</clus>
<clus scale="   48.341">  1  3  2 -1</clus>
</clustering>
</event>
<event>
 6    0  0.4469832E+002  0.8216005E+02  0.7546771E-02  0.1323031E+00
         21   -1    0    0  505  501  0.00000000000E+00  0.00000000000E+00  0.20317046487E+03  0.20317046487E+03  0.00000000000E+00 0.  1.
         21   -1    0    0  503  502 -0.00000000000E+00 -0.00000000000E+00 -0.33438268920E+03  0.33438268920E+03  0.00000000000E+00 0. -1.
         21    1    1    2  503  506  0.18154756166E+02  0.11262501330E+03 -0.25230914159E+03  0.27690050870E+03  0.00000000000E+00 0. -1.
         21    1    1    2  504  502 -0.14786510424E+02 -0.31319311199E+02 -0.32457385492E+02  0.47466009074E+02  0.00000000000E+00 0.  1.
         21    1    1    2  505  504 -0.32807012629E+02 -0.66698027803E+02  0.21894737122E+02  0.77487460302E+02  0.00000000000E+00 0.  1.
         21    1    1    2  506  501  0.29438766887E+02 -0.14607674301E+02  0.13165956562E+03  0.13569917599E+03  0.00000000000E+00 0.  1.
<scales pt_clust_3="82.16005" pt_clust_4="34.88454" pt_clust_5="14000.00000" pt_clust_6="32.86374"></scales>
<clustering>
<clus scale="   32.864">  1  6  2 -1</clus>
<clus scale="   34.885">  2  4  1 -1</clus>
<clus scale="   82.160">  2  3  1 -1</clus>
<clus scale="   32.864">  1  3  2 -1</clus>
</clustering>
</event>
<event>
 6    0  0.4469832E+002  0.1954262E+03  0.7546771E-02  0.1153656E+00
         21   -1    0    0  504  501  0.00000000000E+00  0.00000000000E+00  0.26447959365E+03  0.26447959365E+03  0.00000000000E+00 0.  1.
         21   -1    0    0  501  502 -0.00000000000E+00 -0.00000000000E+00 -0.49824417013E+03  0.49824417013E+03  0.00000000000E+00 0. -1.
         21    1    1    2  503  505  0.90511599638E+02 -0.20154272103E+02 -0.21991787050E+03  0.23866799978E+03  0.00000000000E+00 0. -1.
         21    1    1    2  504  506 -0.19181060992E+03  0.24546326694E+02  0.19985585014E+03  0.27809385658E+03  0.00000000000E+00 0.  1.
         21    1    1    2  505  502  0.16409451176E+02  0.25285505192E+02 -0.72970836078E+02  0.78951692690E+02  0.00000000000E+00 0.  1.
         21    1    1    2  506  503  0.84889559105E+02 -0.29677559783E+02 -0.14073172004E+03  0.16701021473E+03  0.00000000000E+00 0. -1.
<scales pt_clust_3="34.29339" pt_clust_4="192.18083" pt_clust_5="30.14344" pt_clust_6="34.29339"></scales>
<clustering>
<clus scale="   30.143">  2  5  1 -1</clus>
<clus scale="   34.293">  3  6 -1 -1</clus>
<clus scale="  192.181">  1  4  2 -1</clus>
<clus scale="  192.181">  1  3  2 -1</clus>
</clustering>
</event>
<event>
 6    0  0.4469832E+002  0.5901951E+02  0.7546771E-02  0.1401993E+00
         21   -1    0    0  504  501  0.00000000000E+00  0.00000000000E+00  0.29591041669E+03  0.29591041669E+03  0.00000000000E+00 0.  1.
         21   -1    0    0  503  502 -0.00000000000E+00 -0.00000000000E+00 -0.19635214397E+03  0.19635214397E+03  0.00000000000E+00 0. -1.
         21    1    1    2  503  505  0.48204219679E+02 -0.30466999862E+02 -0.86136696304E+02  0.10330254269E+03  0.00000000000E+00 0. -1.
         21    1    1    2  504  506  0.35971868921E+02 -0.40277064776E+02  0.19323912799E+03  0.20064291138E+03  0.00000000000E+00 0.  1.
         21    1    1    2  505  501 -0.51950320841E+02  0.91452031942E+02  0.52144644837E+02  0.11739409681E+03  0.00000000000E+00 0. -1.
         21    1    1    2  506  502 -0.32225767759E+02 -0.20707967304E+02 -0.59688803795E+02  0.70923009778E+02  0.00000000000E+00 0. -1.
<scales pt_clust_3="51.81594" pt_clust_4="14000.00000" pt_clust_5="59.01951" pt_clust_6="38.30561"></scales>
<clustering>
<clus scale="   38.306">  2  6  1 -1</clus>
<clus scale="   51.816">  2  3  1 -1</clus>
<clus scale="   59.020">  2  5  1 -1</clus>
<clus scale="   59.020">  1  3  2 -1</clus>
</clustering>
</event>
<event>
 6    0  0.4469832E+002  0.2368710E+03  0.7546771E-02  0.1121895E+00
         21   -1    0    0  505  501  0.00000000000E+00  0.00000000000E+00  0.83164330962E+02  0.83164330962E+02  0.00000000000E+00 0.  1.
         21   -1    0    0  503  502 -0.00000000000E+00 -0.00000000000E+00 -0.13879744836E+04  0.13879744836E+04  0.00000000000E+00 0.  1.
         21    1    1    2  503  506 -0.94818043854E+02  0.41021649299E+02 -0.18890630583E+03  0.21531100653E+03  0.00000000000E+00 0.  1.
         21    1    1    2  504  501  0.10558112765E+03 -0.45148101032E+02 -0.42246655126E+02  0.12235401674E+03  0.00000000000E+00 0.  1.
         21    1    1    2  505  502  0.17305090250E+03 -0.13324916274E+02 -0.42569330029E+03  0.45971616696E+03  0.00000000000E+00 0. -1.
         21    1    1    2  506  504 -0.18381398629E+03  0.17451368007E+02 -0.64796389143E+03  0.67375762438E+03  0.00000000000E+00 0. -1.
<scales pt_clust_3="71.10633" pt_clust_4="114.82911" pt_clust_5="216.95957" pt_clust_6="71.10633"></scales>
<clustering>
<clus scale="   71.106">  3  6 -1 -1</clus>
<clus scale="  114.829">  1  4  2 -1</clus>
<clus scale="  216.960">  2  5  1 -1</clus>
<clus scale="  114.829">  1  3  2 -1</clus>
</clustering>
</event>
<event>
 6    0  0.4469832E+002  0.5370399E+02  0.7546771E-02  0.1426329E+00
         21   -1    0    0  506  501  0.00000000000E+00  0.00000000000E+00  0.69735248955E+03  0.69735248955E+03  0.00000000000E+00 0. -1.
         21   -1    0    0  505  502 -0.00000000000E+00 -0.00000000000E+00 -0.39549205426E+03  0.39549205426E+03  0.00000000000E+00 0.  1.
         21    1    1    2  503  501 -0.13854206289E+02 -0.39004862523E+02  0.36086589300E+03  0.36323203475E+03  0.00000000000E+00 0. -1.
         21    1    1    2  504  503 -0.69272904769E+02 -0.45342392389E+02 -0.18638091254E+03  0.20394242433E+03  0.00000000000E+00 0.  1.
         21    1    1    2  505  504  0.52749664237E+02 -0.38277188341E+01 -0.18877874824E+03  0.19604742869E+03  0.00000000000E+00 0.  1.
         21    1    1    2  506  502  0.30377446822E+02  0.88174973747E+02  0.31615420306E+03  0.32962265605E+03  0.00000000000E+00 0. -1.
<scales pt_clust_3="41.39225" pt_clust_4="14000.00000" pt_clust_5="52.77096" pt_clust_6="53.70399"></scales>
<clustering>
<clus scale="   41.392">  1  3  2 -1</clus>
<clus scale="   52.771">  2  5  1 -1</clus>
<clus scale="   53.704">  1  6  2 -1</clus>
<clus scale="   41.392">  1  3  2 -1</clus>
</clustering>
</event>
<event>
 6    0  0.4469832E+002  0.1035153E+03  0.7546771E-02  0.1273073E+00
         21   -1    0    0  506  501  0.00000000000E+00  0.00000000000E+00  0.36448903284E+03  0.36448903284E+03  0.00000000000E+00 0.  1.
         21   -1    0    0  503  502 -0.00000000000E+00 -0.00000000000E+00 -0.18377898477E+03  0.18377898477E+03  0.00000000000E+00 0.  1.
         21    1    1    2  503  501  0.47462795052E+02 -0.63111071282E+02 -0.64126817493E+02  0.10172498687E+03  0.00000000000E+00 0.  1.
         21    1    1    2  504  505 -0.85157580734E+02  0.12746627710E+03  0.78264609371E+02  0.17211860572E+03  0.00000000000E+00 0.  1.
         21    1    1    2  505  502  0.86804296623E+02  0.71078898293E+01  0.52082243498E+00  0.87096379179E+02  0.00000000000E+00 0.  1.
         21    1    1    2  506  504 -0.49109510941E+02 -0.71463095653E+02  0.16605143375E+03  0.18732804583E+03  0.00000000000E+00 0.  1.
<scales pt_clust_3="78.96660" pt_clust_4="14000.00000" pt_clust_5="103.51529" pt_clust_6="89.70979"></scales>
<clustering>
<clus scale="   78.967">  2  3  1 -1</clus>
<clus scale="   89.710">  1  6  2 -1</clus>
<clus scale="  103.515">  2  5  1 -1</clus>
<clus scale="   89.710">  1  3  2 -1</clus>
</clustering>
</event>
<event>
 6    0  0.4469832E+002  0.1282522E+03  0.7546771E-02  0.1230072E+00
         21   -1    0    0  504  501  0.00000000000E+00  0.00000000000E+00  0.72874681483E+03  0.72874681483E+03  0.00000000000E+00 0.  1.
         21   -1    0    0  503  502 -0.00000000000E+00 -0.00000000000E+00 -0.10832831723E+04  0.10832831723E+04  0.00000000000E+00 0.  1.
         21    1    1    2  503  505 -0.31614803333E+02  0.29800529649E+02 -0.57189753266E+03  0.57354542559E+03  0.00000000000E+00 0.  1.
         21    1    1    2  504  506 -0.12816865499E+02 -0.33866161633E+02  0.42188348142E+03  0.42343460042E+03  0.00000000000E+00 0.  1.
         21    1    1    2  505  501 -0.54631537124E+02  0.55249616590E+02 -0.49648032812E+03  0.50252347328E+03  0.00000000000E+00 0.  1.
         21    1    1    2  506  502  0.99063205955E+02 -0.51183984606E+02  0.29195802190E+03  0.31252648784E+03  0.00000000000E+00 0.  1.
<scales pt_clust_3="31.91028" pt_clust_4="36.21034" pt_clust_5="31.91028" pt_clust_6="120.94448"></scales>
<clustering>
<clus scale="   31.910">  3  5 -1 -1</clus>
<clus scale="   36.210">  1  4  2 -1</clus>
<clus scale="  120.944">  1  6  2 -1</clus>
<clus scale="   36.210">  1  3  2 -1</clus>
</clustering>
</event>
<event>
 6    0  0.4469832E+002  0.1159908E+03  0.7546771E-02  0.1249861E+00
         21   -1    0    0  503  501  0.00000000000E+00  0.00000000000E+00  0.41051853979E+03  0.41051853979E+03  0.00000000000E+00 0. -1.
         21   -1    0    0  505  502 -0.00000000000E+00 -0.00000000000E+00 -0.98303924980E+03  0.98303924980E+03  0.00000000000E+00 0.  1.
         21    1    1    2  503  506  0.85226778793E+02  0.11015487312E+03  0.34241670803E+03  0.36965781722E+03  0.00000000000E+00 0. -1.
         21    1    1    2  504  502 -0.40760324330E+02 -0.56974476885E+02 -0.58550219368E+03  0.58967814430E+03  0.00000000000E+00 0.  1.
         21    1    1    2  505  501 -0.50039538372E+00 -0.40756533974E+02  0.42852466514E+02  0.59141181451E+02  0.00000000000E+00 0.  1.
         21    1    1    2  506  504 -0.43966059079E+02 -0.12423862257E+02 -0.37228769086E+03  0.37508064663E+03  0.00000000000E+00 0.  1.
<scales pt_clust_3="109.77474" pt_clust_4="30.25319" pt_clust_5="40.75961" pt_clust_6="30.25319"></scales>
<clustering>
<clus scale="   30.253">  4  6 -1 -1</clus>
<clus scale="   40.760">  1  5  2 -1</clus>
<clus scale="  109.775">  1  3  2 -1</clus>
<clus scale="   40.760">  1  3  2 -1</clus>
</clustering>
</event>
<event>
 6    0  0.4469832E+002  0.9277423E+02  0.7546771E-02  0.1296269E+00
         21   -1    0    0  505  501  0.00000000000E+00  0.00000000000E+00  0.33083769536E+03  0.33083769536E+03  0.00000000000E+00 0.  1.
         21   -1    0    0  503  502 -0.00000000000E+00 -0.00000000000E+00 -0.32264269907E+03  0.32264269907E+03  0.00000000000E+00 0. -1.
         21    1    1    2  503  506 -0.36277390543E+02  0.32391716017E+02 -0.22120639974E+03  0.22648961039E+03  0.00000000000E+00 0. -1.
         21    1    1    2  504  501  0.51000242499E+02 -0.11250893608E+03  0.18765398537E+03  0.22466264410E+03  0.00000000000E+00 0.  1.
         21    1    1    2  505  502  0.11329113515E+02  0.34749903533E+02  0.11024022447E+03  0.11614134363E+03  0.00000000000E+00 0.  1.
         21    1    1    2  506  504 -0.26051965471E+02  0.45367316526E+02 -0.68492813813E+02  0.86186796307E+02  0.00000000000E+00 0.  1.
<scales pt_clust_3="48.81410" pt_clust_4="14000.00000" pt_clust_5="36.55003" pt_clust_6="92.77423"></scales>
<clustering>
<clus scale="   36.550">  1  5  2 -1</clus>
<clus scale="   48.814">  2  3  1 -1</clus>
<clus scale="   92.774">  2  6  1 -1</clus>
<clus scale="   36.550">  1  3  2 -1</clus>
</clustering>
</event>
<event>
 6    0  0.4469832E+002  0.1708021E+03  0.7546771E-02  0.1177014E+00
         21   -1    0    0  504  501  0.00000000000E+00  0.00000000000E+00  0.62752407418E+03  0.62752407418E+03  0.00000000000E+00 0.  1.
         21   -1    0    0  506  502 -0.00000000000E+00 -0.00000000000E+00 -0.99365103074E+02  0.99365103074E+02  0.00000000000E+00 0.  1.
         21    1    1    2  503  501  0.18789369869E+02  0.30764252563E+02  0.88023493633E+02  0.95118952303E+02  0.00000000000E+00 0.  1.
         21    1    1    2  504  502 -0.13579433389E+03 -0.13653579046E+03  0.42414991843E+03  0.46581678426E+03  0.00000000000E+00 0.  1.
         21    1    1    2  505  503  0.81227664799E+02  0.40902240510E+02  0.12392095716E+02  0.91785025161E+02  0.00000000000E+00 0.  1.
         21    1    1    2  506  505  0.35777299226E+02  0.64869297388E+02  0.35934633264E+01  0.74168415530E+02  0.00000000000E+00 0.  1.
<scales pt_clust_3="36.04830" pt_clust_4="163.60362" pt_clust_5="44.33198" pt_clust_6="44.33198"></scales>
<clustering>
<clus scale="   36.048">  1  3  2 -1</clus>
<clus scale="   44.332">  5  6 -1 -1</clus>
<clus scale="  163.604">  1  4  2 -1</clus>
<clus scale="   36.048">  1  3  2 -1</clus>
</clustering>
</event>
<event>
 6    0  0.4469832E+002  0.8571111E+02  0.7546771E-02  0.1313583E+00
         21   -1    0    0  505  501  0.00000000000E+00  0.00000000000E+00  0.39694958715E+02  0.39694958715E+02  0.00000000000E+00 0.  1.
         21   -1    0    0  503  502 -0.00000000000E+00 -0.00000000000E+00 -0.65315323853E+03  0.65315323853E+03  0.00000000000E+00 0.  1.
         21    1    1    2  503  501 -0.12467464818E+03  0.29547453266E+02 -0.18201881903E+03  0.22259306004E+03  0.00000000000E+00 0.  1.
         21    1    1    2  504  502  0.24893576827E+02 -0.23241699819E+02 -0.25297372014E+03  0.25525589094E+03  0.00000000000E+00 0.  1.
         21    1    1    2  505  506  0.44364544608E+02  0.13963010294E+02 -0.30282153109E+02  0.55499434876E+02  0.00000000000E+00 0.  1.
         21    1    1    2  506  504  0.55416526747E+02 -0.20268763741E+02 -0.14818358753E+03  0.15949981139E+03  0.00000000000E+00 0.  1.
<scales pt_clust_3="85.71111" pt_clust_4="34.05682" pt_clust_5="48.41722" pt_clust_6="14000.00000"></scales>
<clustering>
<clus scale="   34.057">  2  4  1 -1</clus>
<clus scale="   48.417">  1  5  2 -1</clus>
<clus scale="   85.711">  1  3  2 -1</clus>
<clus scale="   48.417">  1  3  2 -1</clus>
</clustering>
</event>
<event>
 6    0  0.4469832E+002  0.8685008E+02  0.7546771E-02  0.1310664E+00
         21   -1    0    0  505  501  0.00000000000E+00  0.00000000000E+00  0.72070308858E+02  0.72070308858E+02  0.00000000000E+00 0. -1.
         21   -1    0    0  506  502 -0.00000000000E+00 -0.00000000000E+00 -0.44584786770E+03  0.44584786770E+03  0.00000000000E+00 0. -1.
         21    1    1    2  503  502  0.37179011848E+02 -0.11913697914E+00 -0.46901197216E+02  0.59849940818E+02  0.00000000000E+00 0.  1.
         21    1    1    2  504  501 -0.67259063490E+02 -0.22386892966E+02 -0.81880230871E+02  0.10830201663E+03  0.00000000000E+00 0. -1.
         21    1    1    2  505  503  0.92837762533E+02  0.19234943435E+02  0.20710415762E+01  0.94832074818E+02  0.00000000000E+00 0. -1.
         21    1    1    2  506  504 -0.62757710890E+02  0.32710865095E+01 -0.24706717234E+03  0.25493414430E+03  0.00000000000E+00 0. -1.
<scales pt_clust_3="37.17920" pt_clust_4="14000.00000" pt_clust_5="86.85008" pt_clust_6="39.11106"></scales>
<clustering>
<clus scale="   37.179">  2  3  1 -1</clus>
<clus scale="   39.111">  2  6  1 -1</clus>
<clus scale="   86.850">  1  5  2 -1</clus>
<clus scale="   86.850">  1  3  2 -1</clus>
</clustering>
</event>
<event>
 6    0  0.4469832E+002  0.1369105E+03  0.7546771E-02  0.1217548E+00
         21   -1    0    0  503  501  0.00000000000E+00  0.00000000000E+00  0.28656890295E+03  0.28656890295E+03  0.00000000000E+00 0. -1.
         21   -1    0    0  505  502 -0.00000000000E+00 -0.00000000000E+00 -0.27379691136E+03  0.27379691136E+03  0.00000000000E+00 0. -1.
         21    1    1    2  503  502 -0.89395090416E+02 -0.11370888728E+03  0.15593502268E+03  0.21268973773E+03  0.00000000000E+00 0. -1.
         21    1    1    2  504  501 -0.21640549836E+02  0.42613026512E+02  0.75857188332E+02  0.89657662513E+02  0.00000000000E+00 0. -1.
         21    1    1    2  505  506  0.63982942303E+02  0.33152083683E+02 -0.14904189583E+03  0.16554867644E+03  0.00000000000E+00 0. -1.
         21    1    1    2  506  504  0.47052697949E+02  0.37943777088E+02 -0.69978323590E+02  0.92469737625E+02  0.00000000000E+00 0. -1.
<scales pt_clust_3="132.37962" pt_clust_4="47.79313" pt_clust_5="31.99119" pt_clust_6="31.99119"></scales>
<clustering>
<clus scale="   31.991">  5  6 -1 -1</clus>
<clus scale="   47.793">  1  4  2 -1</clus>
<clus scale="  132.380">  1  3  2 -1</clus>
<clus scale="   47.793">  1  3  2 -1</clus>
</clustering>
</event>
<event>
 6    0  0.4469832E+002  0.8799336E+02  0.7546771E-02  0.1307785E+00
         21   -1    0    0  505  501  0.00000000000E+00  0.00000000000E+00  0.12606725111E+04  0.12606725111E+04  0.00000000000E+00 0. -1.
         21   -1    0    0  506  502 -0.00000000000E+00 -0.00000000000E+00 -0.10733977904E+03  0.10733977904E+03  0.00000000000E+00 0. -1.
         21    1    1    2  503  501 -0.54703828005E+02 -0.43646084612E+02  0.94189055670E+03  0.94448679731E+03  0.00000000000E+00 0. -1.
         21    1    1    2  504  502  0.69288425960E+02 -0.57648058388E+02 -0.63441547915E+02  0.11022256851E+03  0.00000000000E+00 0. -1.
         21    1    1    2  505  504 -0.33607618576E+02  0.73752783144E+02  0.26684045207E+03  0.27887770063E+03  0.00000000000E+00 0. -1.
         21    1    1    2  506  503  0.19023020622E+02  0.27541359856E+02  0.80432712502E+01  0.34425223728E+02  0.00000000000E+00 0. -1.
<scales pt_clust_3="69.54033" pt_clust_4="87.99336" pt_clust_5="14000.00000" pt_clust_6="33.47240"></scales>
<clustering>
<clus scale="   33.472">  2  6  1 -1</clus>
<clus scale="   69.540">  1  3  2 -1</clus>
<clus scale="   87.993">  2  4  1 -1</clus>
<clus scale="   69.540">  1  3  2 -1</clus>
</clustering>
</event>
<event>
 6    0  0.4469832E+002  0.1144643E+03  0.7546771E-02  0.1252519E+00
         21   -1    0    0  506  501  0.00000000000E+00  0.00000000000E+00  0.71985120175E+03  0.71985120175E+03  0.00000000000E+00 0. -1.
         21   -1    0    0  505  502 -0.00000000000E+00 -0.00000000000E+00 -0.76340173440E+02  0.76340173440E+02  0.00000000000E+00 0. -1.
         21    1    1    2  503  504 -0.62443167561E+02 -0.52361850905E+01  0.78853156075E+00  0.62667284857E+02  0.00000000000E+00 0. -1.
         21    1    1    2  504  502 -0.49471485485E+02 -0.30084810005E+02 -0.13986309314E+02  0.59566269964E+02  0.00000000000E+00 0. -1.
         21    1    1    2  505  501  0.42208487255E+02  0.62869855668E+02  0.36512664560E+03  0.37289628917E+03  0.00000000000E+00 0. -1.
         21    1    1    2  506  503  0.69706165791E+02 -0.27548860572E+02  0.29158216046E+03  0.30106153120E+03  0.00000000000E+00 0. -1.
<scales pt_clust_3="30.31237" pt_clust_4="30.31237" pt_clust_5="110.03493" pt_clust_6="74.95258"></scales>
<clustering>
<clus scale="   30.312">  3  4 -1 -1</clus>
<clus scale="   74.953">  1  6  2 -1</clus>
<clus scale="  110.035">  1  5  2 -1</clus>
<clus scale="   74.953">  1  3  2 -1</clus>
</clustering>
</event>
<event>
 6    0  0.4469832E+002  0.7185156E+02  0.7546771E-02  0.1353908E+00
         21   -1    0    0  506  501  0.00000000000E+00  0.00000000000E+00  0.35220369536E+03  0.35220369536E+03  0.00000000000E+00 0. -1.
         21   -1    0    0  504  502 -0.00000000000E+00 -0.00000000000E+00 -0.29645548637E+03  0.29645548637E+03  0.00000000000E+00 0.  1.
         21    1    1    2  503  502 -0.43856325047E+02 -0.43725345861E+02 -0.14539624036E+03  0.15803591310E+03  0.00000000000E+00 0.  1.
         21    1    1    2  504  505  0.39652260429E+02  0.10855866434E+03 -0.97307659467E+02  0.15108297704E+03  0.00000000000E+00 0.  1.
         21    1    1    2  505  501  0.45332629005E+02  0.13733478241E+02  0.28236557081E+02  0.55144889454E+02  0.00000000000E+00 0. -1.
         21    1    1    2  506  503 -0.41128564386E+02 -0.78566796718E+02  0.27021555174E+03  0.28439540214E+03  0.00000000000E+00 0. -1.
<scales pt_clust_3="61.08061" pt_clust_4="71.85156" pt_clust_5="47.36724" pt_clust_6="14000.00000"></scales>
<clustering>
<clus scale="   47.367">  1  5  2 -1</clus>
<clus scale="   61.081">  2  3  1 -1</clus>
<clus scale="   71.852">  2  4  1 -1</clus>
<clus scale="   47.367">  1  3  2 -1</clus>
</clustering>
</event>
<event>
 6    0  0.4469832E+002  0.1427904E+03  0.7546771E-02  0.1209623E+00
         21   -1    0    0  503  501  0.00000000000E+00  0.00000000000E+00  0.11734299555E+04  0.11734299555E+04  0.00000000000E+00 0.  1.
         21   -1    0    0  506  502 -0.00000000000E+00 -0.00000000000E+00 -0.79671705736E+02  0.79671705736E+02  0.00000000000E+00 0.  1.
         21    1    1    2  503  504 -0.16760685553E+01 -0.31749499819E+02  0.92650903408E+02  0.97954223221E+02  0.00000000000E+00 0. -1.
         21    1    1    2  504  502  0.10904148771E+03 -0.87738120779E+02  0.92058921452E+03  0.93116729204E+03  0.00000000000E+00 0.  1.
         21    1    1    2  505  501 -0.72303838362E+02  0.83281003774E+02  0.11773857339E+03  0.16132557856E+03  0.00000000000E+00 0.  1.
         21    1    1    2  506  505 -0.35061580794E+02  0.36206616825E+02 -0.37220441552E+02  0.62654567423E+02  0.00000000000E+00 0.  1.
<scales pt_clust_3="31.79371" pt_clust_4="142.79037" pt_clust_5="14000.00000" pt_clust_6="50.14620"></scales>
<clustering>
<clus scale="   31.794">  1  3  2 -1</clus>
<clus scale="   50.146">  2  6  1 -1</clus>
<clus scale="  142.790">  1  4  2 -1</clus>
<clus scale="   31.794">  1  3  2 -1</clus>
</clustering>
</event>
<event>
 6    0  0.4469832E+002  0.1457936E+03  0.7546771E-02  0.1205739E+00
         21   -1    0    0  505  501  0.00000000000E+00  0.00000000000E+00  0.49171084394E+02  0.49171084394E+02  0.00000000000E+00 0.  1.
         21   -1    0    0  506  502 -0.00000000000E+00 -0.00000000000E+00 -0.23032263002E+04  0.23032263002E+04  0.00000000000E+00 0. -1.
         21    1    1    2  503  502  0.29431667220E+02  0.49745720764E+02 -0.14608586043E+04  0.14620016148E+04  0.00000000000E+00 0. -1.
         21    1    1    2  504  501 -0.64398589778E+02 -0.12312830561E+03 -0.63385503153E+02  0.15272681499E+03  0.00000000000E+00 0.  1.
         21    1    1    2  505  503  0.40129984123E+02  0.30805961767E+02 -0.56873966890E+03  0.57098531846E+03  0.00000000000E+00 0. -1.
         21    1    1    2  506  504 -0.51630615644E+01  0.42576623077E+02 -0.16107143947E+03  0.16668363642E+03  0.00000000000E+00 0.  1.
<scales pt_clust_3="41.02666" pt_clust_4="137.17312" pt_clust_5="41.02666" pt_clust_6="42.88853"></scales>
<clustering>
<clus scale="   42.889">  2  6  1 -1</clus>
<clus scale="   41.027">  3  5 -1 -1</clus>
<clus scale="  137.173">  1  4  2 -1</clus>
<clus scale="  137.173">  1  3  2 -1</clus>
</clustering>
</event>
<event>
 6    0  0.4469832E+002  0.1195920E+03  0.7546771E-02  0.1243772E+00
         21   -1    0    0  503  501  0.00000000000E+00  0.00000000000E+00  0.47711351704E+02  0.47711351704E+02  0.00000000000E+00 0.  1.
         21   -1    0    0  504  502 -0.00000000000E+00 -0.00000000000E+00 -0.16565799626E+04  0.16565799626E+04  0.00000000000E+00 0. -1.
         21    1    1    2  503  506  0.28291320510E+02 -0.41078056332E+02 -0.60149823252E+02  0.78139661923E+02  0.00000000000E+00 0.  1.
         21    1    1    2  504  501 -0.36797032405E+02 -0.27982516062E+02 -0.10646839181E+03  0.11607136276E+03  0.00000000000E+00 0.  1.
         21    1    1    2  505  502  0.60121410192E+01  0.12496405073E+03 -0.14483919654E+04  0.14537852129E+04  0.00000000000E+00 0. -1.
         21    1    1    2  506  505  0.24935708762E+01 -0.55903478335E+02  0.61415695684E+01  0.56295076716E+02  0.00000000000E+00 0.  1.
<scales pt_clust_3="51.25593" pt_clust_4="46.22816" pt_clust_5="14000.00000" pt_clust_6="119.59204"></scales>
<clustering>
<clus scale="   46.228">  1  4  2 -1</clus>
<clus scale="   51.256">  1  3  2 -1</clus>
<clus scale="  119.592">  1  6  2 -1</clus>
<clus scale="   46.228">  1  3  2 -1</clus>
</clustering>
</event>
<event>
 6    0  0.4469832E+002  0.1082334E+03  0.7546771E-02  0.1263877E+00
         21   -1    0    0  503  501  0.00000000000E+00  0.00000000000E+00  0.21008543588E+02  0.21008543588E+02  0.00000000000E+00 0. -1.
         21   -1    0    0  504  502 -0.00000000000E+00 -0.00000000000E+00 -0.10239379682E+04  0.10239379682E+04  0.00000000000E+00 0. -1.
         21    1    1    2  503  506  0.98949212189E+02 -0.59689612852E+02 -0.23304850026E+03  0.26012573872E+03  0.00000000000E+00 0. -1.
         21    1    1    2  504  505 -0.43164976366E+02  0.44161360577E+01 -0.40496884208E+03  0.40728673008E+03  0.00000000000E+00 0. -1.
         21    1    1    2  505  501 -0.36753766746E+02 -0.16033033066E+01 -0.14402583142E+03  0.14865009273E+03  0.00000000000E+00 0. -1.
         21    1    1    2  506  502 -0.19030469078E+02  0.56876780101E+02 -0.22088625083E+03  0.22888395023E+03  0.00000000000E+00 0. -1.
<scales pt_clust_3="102.17039" pt_clust_4="32.88761" pt_clust_5="32.88761" pt_clust_6="59.97605"></scales>
<clustering>
<clus scale="   32.888">  4  5 -1 -1</clus>
<clus scale="   59.976">  2  6  1 -1</clus>
<clus scale="  102.170">  1  3  2 -1</clus>
<clus scale="  102.170">  1  3  2 -1</clus>
</clustering>
</event>
<event>
 6    0  0.4469832E+002  0.1166997E+03  0.7546771E-02  0.1248643E+00
         21   -1    0    0  502  501  0.00000000000E+00  0.00000000000E+00  0.13918342016E+04  0.13918342016E+04  0.00000000000E+00 0. -1.
         21   -1    0    0  503  502 -0.00000000000E+00 -0.00000000000E+00 -0.24748028190E+02  0.24748028190E+02  0.00000000000E+00 0. -1.
         21    1    1    2  503  505  0.58830404934E+02  0.17116070102E+02  0.59473812862E+02  0.85388001597E+02  0.00000000000E+00 0. -1.
         21    1    1    2  504  501 -0.38617089121E+02  0.89565995700E+01  0.61084996220E+03  0.61213493330E+03  0.00000000000E+00 0. -1.
         21    1    1    2  505  506  0.50889087038E+02  0.29996489903E+02  0.10557555366E+03  0.12097803981E+03  0.00000000000E+00 0. -1.
         21    1    1    2  506  504 -0.71102402851E+02 -0.56069159575E+02  0.59118684472E+03  0.59808125511E+03  0.00000000000E+00 0. -1.
<scales pt_clust_3="32.38322" pt_clust_4="39.64215" pt_clust_5="32.38322" pt_clust_6="111.94248"></scales>
<clustering>
<clus scale="   32.383">  3  5 -1 -1</clus>
<clus scale="   39.642">  1  4  2 -1</clus>
<clus scale="  111.942">  1  6  2 -1</clus>
<clus scale="   39.642">  1  3  2 -1</clus>
</clustering>
</event>
<event>
 6    0  0.4469832E+002  0.1426136E+03  0.7546771E-02  0.1209855E+00
         21   -1    0    0  506  501  0.00000000000E+00  0.00000000000E+00  0.30716685238E+03  0.30716685238E+03  0.00000000000E+00 0. -1.
         21   -1    0    0  505  502 -0.00000000000E+00 -0.00000000000E+00 -0.55587889869E+03  0.55587889869E+03  0.00000000000E+00 0. -1.
         21    1    1    2  503  502  0.10877917687E+03 -0.18147130010E+02 -0.43775440926E+03  0.45143233211E+03  0.00000000000E+00 0. -1.
         21    1    1    2  504  501 -0.11320028792E+03 -0.36284892252E+02  0.11161438670E+03  0.16306032598E+03  0.00000000000E+00 0. -1.
         21    1    1    2  505  504  0.34498549927E+02  0.69844257210E+02 -0.65442142770E+02  0.10174008189E+03  0.00000000000E+00 0. -1.
         21    1    1    2  506  503 -0.30077438881E+02 -0.15412234948E+02  0.14287011902E+03  0.14681301108E+03  0.00000000000E+00 0. -1.
<scales pt_clust_3="14000.00000" pt_clust_4="142.61362" pt_clust_5="74.89935" pt_clust_6="33.79629"></scales>
<clustering>
<clus scale="   33.796">  1  6  2 -1</clus>
<clus scale="   74.899">  2  5  1 -1</clus>
<clus scale="  142.614">  1  4  2 -1</clus>
<clus scale="   33.796">  1  3  2 -1</clus>
</clustering>
</event>
<event>
 6    0  0.4469832E+002  0.8273870E+02  0.7546771E-02  0.1321454E+00
         21   -1    0    0  505  501  0.00000000000E+00  0.00000000000E+00  0.33054639250E+02  0.33054639250E+02  0.00000000000E+00 0.  1.
         21   -1    0    0  506  502 -0.00000000000E+00 -0.00000000000E+00 -0.19590269246E+04  0.19590269246E+04  0.00000000000E+00 0.  1.
         21    1    1    2  503  501  0.12186854590E+03 -0.37404728749E+02 -0.31694185538E+03  0.34161849468E+03  0.00000000000E+00 0.  1.
         21    1    1    2  504  502 -0.36102084401E+02  0.56031648763E+02 -0.76558642394E+03  0.76848258190E+03  0.00000000000E+00 0.  1.
         21    1    1    2  505  504 -0.46588055456E+02  0.56388682536E+01 -0.10919860171E+02  0.48181812881E+02  0.00000000000E+00 0.  1.
         21    1    1    2  506  503 -0.39178406044E+02 -0.24265788268E+02 -0.83252414583E+03  0.83379867436E+03  0.00000000000E+00 0.  1.
<scales pt_clust_3="82.73870" pt_clust_4="14000.00000" pt_clust_5="47.87838" pt_clust_6="46.08444"></scales>
<clustering>
<clus scale="   46.084">  2  6  1 -1</clus>
<clus scale="   47.878">  1  5  2 -1</clus>
<clus scale="   82.739">  1  3  2 -1</clus>
<clus scale="   47.878">  1  3  2 -1</clus>
</clustering>
</event>
<event>
 6    0  0.4469832E+002  0.1127672E+03  0.7546771E-02  0.1255530E+00
         21   -1    0    0  506  501  0.00000000000E+00  0.00000000000E+00  0.21955142560E+03  0.21955142560E+03  0.00000000000E+00 0.  1.
         21   -1    0    0  504  502 -0.00000000000E+00 -0.00000000000E+00 -0.19291579601E+04  0.19291579601E+04  0.00000000000E+00 0.  1.
         21    1    1    2  503  505  0.14987399824E+03  0.64488547422E+02 -0.32684718617E+03  0.36530818661E+03  0.00000000000E+00 0.  1.
         21    1    1    2  504  503 -0.44895548179E+02 -0.87494198484E+02 -0.15207178876E+04  0.15238942675E+04  0.00000000000E+00 0.  1.
         21    1    1    2  505  501 -0.11115575253E+03  0.71205773744E+02  0.15891104126E+03  0.20658795359E+03  0.00000000000E+00 0.  1.
         21    1    1    2  506  502  0.61773024717E+01 -0.48200122682E+02 -0.20952502084E+02  0.52918978032E+02  0.00000000000E+00 0. -1.
<scales pt_clust_3="14000.00000" pt_clust_4="98.65326" pt_clust_5="112.76721" pt_clust_6="48.59435"></scales>
<clustering>
<clus scale="   48.594">  1  6  2 -1</clus>
<clus scale="   98.653">  2  4  1 -1</clus>
<clus scale="  112.767">  1  5  2 -1</clus>
<clus scale="   48.594">  1  3  2 -1</clus>
</clustering>
</event>
<event>
 6    0  0.4469832E+002  0.7934313E+02  0.7546771E-02  0.1330926E+00
         21   -1    0    0  505  501  0.00000000000E+00  0.00000000000E+00  0.10547810476E+03  0.10547810476E+03  0.00000000000E+00 0. -1.
         21   -1    0    0  504  502 -0.00000000000E+00 -0.00000000000E+00 -0.24914884585E+03  0.24914884585E+03  0.00000000000E+00 0. -1.
         21    1    1    2  503  502 -0.32113757331E+02  0.10029990471E+02 -0.32977311730E+02  0.47110478746E+02  0.00000000000E+00 0. -1.
         21    1    1    2  504  501  0.10561083995E+03 -0.34911338327E+02 -0.29037254830E+02  0.11495918070E+03  0.00000000000E+00 0. -1.
         21    1    1    2  505  506 -0.64539627482E+02 -0.41330565878E+02  0.11935534353E+02  0.77563110894E+02  0.00000000000E+00 0. -1.
         21    1    1    2  506  503 -0.89574551352E+01  0.66211913735E+02 -0.93591708884E+02  0.11499418026E+03  0.00000000000E+00 0. -1.
<scales pt_clust_3="33.64363" pt_clust_4="79.34313" pt_clust_5="14000.00000" pt_clust_6="75.46671"></scales>
<clustering>
<clus scale="   33.644">  2  3  1 -1</clus>
<clus scale="   75.467">  2  6  1 -1</clus>
<clus scale="   79.343">  2  4  1 -1</clus>
<clus scale="   79.343">  1  3  2 -1</clus>
</clustering>
</event>
<event>
 6    0  0.4469832E+002  0.7785506E+02  0.7546771E-02  0.1335251E+00
         21   -1    0    0  505  501  0.00000000000E+00  0.00000000000E+00  0.90108799402E+03  0.90108799402E+03  0.00000000000E+00 0.  1.
         21   -1    0    0  506  502 -0.00000000000E+00 -0.00000000000E+00 -0.51634046292E+03  0.51634046292E+03  0.00000000000E+00 0.  1.
         21    1    1    2  503  502 -0.10478672345E+02  0.67089561783E+02 -0.44297465562E+03  0.44814881167E+03  0.00000000000E+00 0.  1.
         21    1    1    2  504  501  0.70142746196E+02 -0.13992445397E+02  0.39612083874E+03  0.40252641188E+03  0.00000000000E+00 0.  1.
         21    1    1    2  505  503 -0.88244542013E+02 -0.36658182567E+02  0.49024807183E+03  0.49947381661E+03  0.00000000000E+00 0.  1.
         21    1    1    2  506  504  0.28580468163E+02 -0.16438933819E+02 -0.58646723843E+02  0.67279416786E+02  0.00000000000E+00 0. -1.
<scales pt_clust_3="53.89206" pt_clust_4="77.85506" pt_clust_5="14000.00000" pt_clust_6="32.97092"></scales>
<clustering>
<clus scale="   32.971">  2  6  1 -1</clus>
<clus scale="   53.892">  2  3  1 -1</clus>
<clus scale="   77.855">  1  4  2 -1</clus>
<clus scale="   77.855">  1  3  2 -1</clus>
</clustering>
</event>
<event>
 6    0  0.4469832E+002  0.1903723E+03  0.7546771E-02  0.1158126E+00
         21   -1    0    0  503  501  0.00000000000E+00  0.00000000000E+00  0.20829823428E+03  0.20829823428E+03  0.00000000000E+00 0.  1.
         21   -1    0    0  505  502 -0.00000000000E+00 -0.00000000000E+00 -0.37316305062E+03  0.37316305062E+03  0.00000000000E+00 0.  1.
         21    1    1    2  503  504 -0.81173791920E+02  0.16486922031E+03  0.11986527482E+03  0.21940539740E+03  0.00000000000E+00 0.  1.
         21    1    1    2  504  506 -0.54255625472E+01 -0.55667849848E+02 -0.98737960980E+02  0.11347921032E+03  0.00000000000E+00 0.  1.
         21    1    1    2  505  501  0.32679022001E+02  0.96409369905E+01 -0.32240945826E+02  0.46907832318E+02  0.00000000000E+00 0. -1.
         21    1    1    2  506  502  0.53920332466E+02 -0.11884230745E+03 -0.15375118436E+03  0.20166884486E+03  0.00000000000E+00 0.  1.
<scales pt_clust_3="182.97442" pt_clust_4="32.97260" pt_clust_5="34.07149" pt_clust_6="32.97260"></scales>
<clustering>
<clus scale="   34.071">  2  5  1 -1</clus>
<clus scale="   32.973">  4  6 -1 -1</clus>
<clus scale="  182.974">  1  3  2 -1</clus>
<clus scale="  182.974">  1  3  2 -1</clus>
</clustering>
</event>
<event>
 6    0  0.4469832E+002  0.1440710E+03  0.7546771E-02  0.1207954E+00
         21   -1    0    0  506  501  0.00000000000E+00  0.00000000000E+00  0.17337550777E+03  0.17337550777E+03  0.00000000000E+00 0.  1.
         21   -1    0    0  504  502 -0.00000000000E+00 -0.00000000000E+00 -0.14645947627E+03  0.14645947627E+03  0.00000000000E+00 0.  1.
         21    1    1    2  503  502 -0.46794728837E+02 -0.43661670185E+02 -0.39960980449E+02  0.75451759745E+02  0.00000000000E+00 0.  1.
         21    1    1    2  504  505  0.32163533819E+02 -0.42419042099E+01  0.20326894287E+01  0.32505668512E+02  0.00000000000E+00 0.  1.
         21    1    1    2  505  501  0.74413934377E+02  0.98414953977E+02  0.42291123928E+02  0.13042804897E+03  0.00000000000E+00 0.  1.
         21    1    1    2  506  503 -0.59782739359E+02 -0.50511379582E+02  0.22553198599E+02  0.81449506810E+02  0.00000000000E+00 0.  1.
<scales pt_clust_3="55.79524" pt_clust_4="32.44205" pt_clust_5="129.10770" pt_clust_6="55.79524"></scales>
<clustering>
<clus scale="   32.442">  2  4  1 -1</clus>
<clus scale="   55.795">  3  6 -1 -1</clus>
<clus scale="  129.108">  1  5  2 -1</clus>
<clus scale="  129.108">  1  3  2 -1</clus>
</clustering>
</event>
<event>
 6    0  0.4469832E+002  0.2226994E+03  0.7546771E-02  0.1131886E+00
         21   -1    0    0  502  501  0.00000000000E+00  0.00000000000E+00  0.47368614303E+03  0.47368614303E+03  0.00000000000E+00 0.  1.
         21   -1    0    0  503  502 -0.00000000000E+00 -0.00000000000E+00 -0.79149023744E+03  0.79149023744E+03  0.00000000000E+00 0.  1.
         21    1    1    2  503  504  0.10893150095E+03  0.19418030476E+03 -0.72017865000E+03  0.75380989021E+03  0.00000000000E+00 0.  1.
         21    1    1    2  504  506 -0.21784369878E+02 -0.82174336979E+02  0.13392183695E+02  0.86061205041E+02  0.00000000000E+00 0. -1.
         21    1    1    2  505  501 -0.79810042037E+02 -0.51163934662E+02  0.31647372614E+03  0.33036799233E+03  0.00000000000E+00 0.  1.
         21    1    1    2  506  505 -0.73370890370E+01 -0.60842033123E+02  0.72508645757E+02  0.94937292881E+02  0.00000000000E+00 0.  1.
<scales pt_clust_3="213.34301" pt_clust_4="54.23063" pt_clust_5="94.80185" pt_clust_6="54.23063"></scales>
<clustering>
<clus scale="   54.231">  4  6 -1 -1</clus>
<clus scale="   94.802">  1  5  2 -1</clus>
<clus scale="  213.343">  2  3  1 -1</clus>
<clus scale="   94.802">  1  3  2 -1</clus>
</clustering>
</event>
<event>
 6    0  0.4469832E+002  0.1154372E+03  0.7546771E-02  0.1250820E+00
         21   -1    0    0  506  501  0.00000000000E+00  0.00000000000E+00  0.48629773798E+03  0.48629773798E+03  0.00000000000E+00 0.  1.
         21   -1    0    0  501  502 -0.00000000000E+00 -0.00000000000E+00 -0.44390086694E+03  0.44390086694E+03  0.00000000000E+00 0.  1.
         21    1    1    2  503  502  0.26590153804E+02  0.21435230920E+02 -0.41016678052E+02  0.53374837539E+02  0.00000000000E+00 0. -1.
         21    1    1    2  504  503  0.82254580793E+02  0.31936411061E+02 -0.37940595219E+03  0.38953129139E+03  0.00000000000E+00 0.  1.
         21    1    1    2  505  504 -0.74149659265E+02  0.99026451887E+01  0.17034954661E+03  0.18605161215E+03  0.00000000000E+00 0. -1.
         21    1    1    2  506  505 -0.34695075332E+02 -0.63274287169E+02  0.29246995466E+03  0.30124086384E+03  0.00000000000E+00 0.  1.
<scales pt_clust_3="34.15414" pt_clust_4="14000.00000" pt_clust_5="115.43722" pt_clust_6="71.81325"></scales>
<clustering>
<clus scale="   34.154">  2  3  1 -1</clus>
<clus scale="   71.813">  1  6  2 -1</clus>
<clus scale="  115.437">  1  5  2 -1</clus>
<clus scale="   71.813">  1  3  2 -1</clus>
</clustering>
</event>
<event>
 6    0  0.4469832E+002  0.1696887E+03  0.7546771E-02  0.1178173E+00
         21   -1    0    0  506  501  0.00000000000E+00  0.00000000000E+00  0.21941653586E+03  0.21941653586E+03  0.00000000000E+00 0.  1.
         21   -1    0    0  503  502 -0.00000000000E+00 -0.00000000000E+00 -0.85035092972E+03  0.85035092972E+03  0.00000000000E+00 0.  1.
         21    1    1    2  503  501  0.18306345561E+03 -0.72074637694E+02 -0.20206302794E+03  0.28202207261E+03  0.00000000000E+00 0.  1.
         21    1    1    2  504  505 -0.42876632087E+02  0.31037799117E+02 -0.30114909329E+03  0.30576547703E+03  0.00000000000E+00 0.  1.
         21    1    1    2  505  502  0.26364952635E+02  0.33508738285E+02 -0.26352278228E+03  0.26694981372E+03  0.00000000000E+00 0.  1.
         21    1    1    2  506  504 -0.16655177616E+03  0.75281002922E+01  0.13580050965E+03  0.21503010222E+03  0.00000000000E+00 0.  1.
<scales pt_clust_3="169.68867" pt_clust_4="56.54169" pt_clust_5="42.63738" pt_clust_6="14000.00000"></scales>
<clustering>
<clus scale="   42.637">  2  5  1 -1</clus>
<clus scale="   56.542">  2  4  1 -1</clus>
<clus scale="  169.689">  2  3  1 -1</clus>
<clus scale="  169.689">  1  3  2 -1</clus>
</clustering>
</event>
<event>
 6    0  0.4469832E+002  0.1936665E+03  0.7546771E-02  0.1155195E+00
         21   -1    0    0  504  501  0.00000000000E+00  0.00000000000E+00  0.19817246363E+04  0.19817246363E+04  0.00000000000E+00 0. -1.
         21   -1    0    0  506  502 -0.00000000000E+00 -0.00000000000E+00 -0.13110582477E+03  0.13110582477E+03  0.00000000000E+00 0. -1.
         21    1    1    2  503  505 -0.12612086438E+03  0.67276400007E+02  0.13683407117E+02  0.14359603776E+03  0.00000000000E+00 0. -1.
         21    1    1    2  504  502  0.12415852036E+02  0.57904466514E+02  0.29583124301E+03  0.30170052199E+03  0.00000000000E+00 0. -1.
         21    1    1    2  505  501  0.19211751181E+03 -0.48851423909E+02  0.15453599997E+04  0.15580221849E+04  0.00000000000E+00 0. -1.
         21    1    1    2  506  503 -0.78412499463E+02 -0.76329442612E+02 -0.42558382737E+01  0.10951171646E+03  0.00000000000E+00 0. -1.
<scales pt_clust_3="193.66645" pt_clust_4="59.22061" pt_clust_5="14000.00000" pt_clust_6="107.89263"></scales>
<clustering>
<clus scale="   59.221">  1  4  2 -1</clus>
<clus scale="  107.893">  2  6  1 -1</clus>
<clus scale="  193.666">  2  3  1 -1</clus>
<clus scale="   59.221">  1  3  2 -1</clus>
</clustering>
</event>
<event>
 6    0  0.4469832E+002  0.9907979E+02  0.7546771E-02  0.1282243E+00
         21   -1    0    0  503  501  0.00000000000E+00  0.00000000000E+00  0.36409154510E+03  0.36409154510E+03  0.00000000000E+00 0. -1.
         21   -1    0    0  506  502 -0.00000000000E+00 -0.00000000000E+00 -0.63912952424E+03  0.63912952424E+03  0.00000000000E+00 0.  1.
         21    1    1    2  503  505  0.36841722957E+02  0.14987892460E+02  0.31790873304E+03  0.32038712835E+03  0.00000000000E+00 0. -1.
         21    1    1    2  504  501 -0.83887788237E+02 -0.13022066198E+02 -0.13266230045E+03  0.15749927360E+03  0.00000000000E+00 0. -1.
         21    1    1    2  505  502 -0.59641627491E+02  0.39010757609E+01 -0.76462380628E+01  0.60256178757E+02  0.00000000000E+00 0. -1.
         21    1    1    2  506  504  0.10668769277E+03 -0.58669020234E+01 -0.45263817366E+03  0.46507848863E+03  0.00000000000E+00 0.  1.
<scales pt_clust_3="39.77373" pt_clust_4="99.07979" pt_clust_5="40.13219" pt_clust_6="14000.00000"></scales>
<clustering>
<clus scale="   39.774">  1  3  2 -1</clus>
<clus scale="   40.132">  1  5  2 -1</clus>
<clus scale="   99.080">  1  4  2 -1</clus>
<clus scale="   39.774">  1  3  2 -1</clus>
</clustering>
</event>
<event>
 6    0  0.4469832E+002  0.1381701E+03  0.7546771E-02  0.1215813E+00
         21   -1    0    0  504  501  0.00000000000E+00  0.00000000000E+00  0.14749143071E+03  0.14749143071E+03  0.00000000000E+00 0.  1.
         21   -1    0    0  506  502 -0.00000000000E+00 -0.00000000000E+00 -0.33610277874E+03  0.33610277874E+03  0.00000000000E+00 0.  1.
         21    1    1    2  503  502  0.73147050227E+02 -0.54208039734E+02 -0.16411927191E+03  0.18768094720E+03  0.00000000000E+00 0.  1.
         21    1    1    2  504  505  0.21232748978E+02 -0.40273498419E+02  0.53599596032E+01  0.45842267297E+02  0.00000000000E+00 0. -1.
         21    1    1    2  505  503  0.52912768114E+02 -0.23569528470E+02 -0.19140070679E+02  0.61005130992E+02  0.00000000000E+00 0. -1.
         21    1    1    2  506  501 -0.14729256732E+03  0.11805106662E+03 -0.10711965046E+02  0.18906586396E+03  0.00000000000E+00 0.  1.
<scales pt_clust_3="91.04396" pt_clust_4="36.04464" pt_clust_5="36.04464" pt_clust_6="132.05300"></scales>
<clustering>
<clus scale="   36.045">  4  5 -1 -1</clus>
<clus scale="   91.044">  2  3  1 -1</clus>
<clus scale="  132.053">  2  6  1 -1</clus>
<clus scale="  138.170">  1  3  2 -1</clus>
</clustering>
</event>
<event>
 6    0  0.4469832E+002  0.1333759E+03  0.7546771E-02  0.1222531E+00
         21   -1    0    0  503  501  0.00000000000E+00  0.00000000000E+00  0.79280507873E+03  0.79280507873E+03  0.00000000000E+00 0. -1.
         21   -1    0    0  501  502 -0.00000000000E+00 -0.00000000000E+00 -0.11124371262E+03  0.11124371262E+03  0.00000000000E+00 0. -1.
         21    1    1    2  503  504  0.40032560955E+02  0.87990221158E+01  0.35982441460E+03  0.36215140213E+03  0.00000000000E+00 0. -1.
         21    1    1    2  504  506  0.83437222144E+02 -0.21837764650E+02  0.38757891876E+03  0.39705928559E+03  0.00000000000E+00 0. -1.
         21    1    1    2  505  502 -0.54912173805E+02  0.21670261332E+02 -0.21974590199E+02  0.62990711002E+02  0.00000000000E+00 0. -1.
         21    1    1    2  506  505 -0.68557609295E+02 -0.86315187978E+01 -0.43867377054E+02  0.81847392619E+02  0.00000000000E+00 0.  1.
<scales pt_clust_3="33.59124" pt_clust_4="33.59124" pt_clust_5="32.39167" pt_clust_6="129.00741"></scales>
<clustering>
<clus scale="   32.392">  5  6 -1 -1</clus>
<clus scale="   33.591">  3  4 -1 -1</clus>
<clus scale="  129.007">  2  5  1 -1</clus>
<clus scale="  133.376">  1  3  2 -1</clus>
</clustering>
</event>
<event>
 6    0  0.4469832E+002  0.9382289E+02  0.7546771E-02  0.1293849E+00
         21   -1    0    0  506  501  0.00000000000E+00  0.00000000000E+00  0.27175769017E+03  0.27175769017E+03  0.00000000000E+00 0. -1.
         21   -1    0    0  504  502 -0.00000000000E+00 -0.00000000000E+00 -0.36947695520E+03  0.36947695520E+03  0.00000000000E+00 0. -1.
         21    1    1    2  503  502 -0.17867859725E+02  0.45753949973E+02 -0.18466396704E+03  0.19108496820E+03  0.00000000000E+00 0. -1.
         21    1    1    2  504  501  0.79278454486E+02  0.18583948321E+02  0.22601407600E+03  0.24023488305E+03  0.00000000000E+00 0. -1.
         21    1    1    2  505  503 -0.34623311507E+02  0.29140489985E+02 -0.90578491874E+02  0.10125416064E+03  0.00000000000E+00 0.  1.
         21    1    1    2  506  505 -0.26787283254E+02 -0.93478388279E+02 -0.48490882118E+02  0.10866063348E+03  0.00000000000E+00 0. -1.
<scales pt_clust_3="35.12658" pt_clust_4="81.42749" pt_clust_5="35.12658" pt_clust_6="86.39143"></scales>
<clustering>
<clus scale="   35.127">  3  5 -1 -1</clus>
<clus scale="   81.427">  1  4  2 -1</clus>
<clus scale="   86.391">  1  6  2 -1</clus>
<clus scale="   81.427">  1  3  2 -1</clus>
</clustering>
</event>
<event>
 6    0  0.4469832E+002  0.8974426E+02  0.7546771E-02  0.1303472E+00
         21   -1    0    0  505  501  0.00000000000E+00  0.00000000000E+00  0.70510038986E+03  0.70510038986E+03  0.00000000000E+00 0. -1.
         21   -1    0    0  506  502 -0.00000000000E+00 -0.00000000000E+00 -0.14803675810E+03  0.14803675810E+03  0.00000000000E+00 0. -1.
         21    1    1    2  503  502  0.33435313452E+02 -0.51089236344E+01 -0.72725511176E+02  0.80206117361E+02  0.00000000000E+00 0. -1.
         21    1    1    2  504  501  0.52635906155E+02  0.74905076751E+02  0.60469147232E+03  0.61158244402E+03  0.00000000000E+00 0. -1.
         21    1    1    2  505  503 -0.78695090289E+01 -0.77528908358E+02 -0.27537017739E+01  0.77975917289E+02  0.00000000000E+00 0. -1.
         21    1    1    2  506  504 -0.78201710578E+02  0.77327552415E+01  0.27851372389E+02  0.83372669293E+02  0.00000000000E+00 0. -1.
<scales pt_clust_3="33.82338" pt_clust_4="89.74426" pt_clust_5="14000.00000" pt_clust_6="65.48598"></scales>
<clustering>
<clus scale="   33.823">  2  3  1 -1</clus>
<clus scale="   65.486">  2  6  1 -1</clus>
<clus scale="   89.744">  1  4  2 -1</clus>
<clus scale="   89.744">  1  3  2 -1</clus>
</clustering>
</event>
<event>
 6    0  0.4469832E+002  0.7772204E+02  0.7546771E-02  0.1335643E+00
         21   -1    0    0  506  501  0.00000000000E+00  0.00000000000E+00  0.33398564110E+03  0.33398564110E+03  0.00000000000E+00 0. -1.
         21   -1    0    0  504  502 -0.00000000000E+00 -0.00000000000E+00 -0.59031008976E+03  0.59031008976E+03  0.00000000000E+00 0. -1.
         21    1    1    2  503  502  0.36302378968E+02  0.92110968115E+01 -0.26738262335E+03  0.26999291526E+03  0.00000000000E+00 0. -1.
         21    1    1    2  504  505  0.34248586950E+02  0.38589170635E+02 -0.12656232824E+03  0.13667520890E+03  0.00000000000E+00 0. -1.
         21    1    1    2  505  501  0.40857407926E+02 -0.17790005673E+01  0.30701294769E+03  0.30972478537E+03  0.00000000000E+00 0. -1.
         21    1    1    2  506  503 -0.11140837384E+03 -0.46021266880E+02 -0.16939244476E+03  0.20790282131E+03  0.00000000000E+00 0. -1.
<scales pt_clust_3="37.45273" pt_clust_4="77.72204" pt_clust_5="41.04736" pt_clust_6="14000.00000"></scales>
<clustering>
<clus scale="   37.453">  2  3  1 -1</clus>
<clus scale="   41.047">  1  5  2 -1</clus>
<clus scale="   77.722">  2  4  1 -1</clus>
<clus scale="   41.047">  1  3  2 -1</clus>
</clustering>
</event>
<event>
 6    0  0.4469832E+002  0.7437698E+02  0.7546771E-02  0.1345811E+00
         21   -1    0    0  506  501  0.00000000000E+00  0.00000000000E+00  0.16578305803E+04  0.16578305803E+04  0.00000000000E+00 0. -1.
         21   -1    0    0  504  502 -0.00000000000E+00 -0.00000000000E+00 -0.10964841825E+03  0.10964841825E+03  0.00000000000E+00 0.  1.
         21    1    1    2  503  502 -0.28334293485E+02 -0.70894365110E+02 -0.42052611872E+02  0.87162293206E+02  0.00000000000E+00 0.  1.
         21    1    1    2  504  501  0.19585086778E+02  0.23305170246E+02  0.14019613788E+02  0.33515013875E+02  0.00000000000E+00 0. -1.
         21    1    1    2  505  503 -0.38238642854E+02  0.10422358059E+03  0.55155953145E+02  0.12396341285E+03  0.00000000000E+00 0.  1.
         21    1    1    2  506  505  0.46987849561E+02 -0.56634385723E+02  0.15210592070E+04  0.15228382787E+04  0.00000000000E+00 0. -1.
<scales pt_clust_3="57.97973" pt_clust_4="30.44186" pt_clust_5="74.37698" pt_clust_6="14000.00000"></scales>
<clustering>
<clus scale="   30.442">  2  4  1 -1</clus>
<clus scale="   57.980">  2  3  1 -1</clus>
<clus scale="   74.377">  2  5  1 -1</clus>
<clus scale="   74.377">  1  3  2 -1</clus>
</clustering>
</event>
<event>
 6    0  0.4469832E+002  0.1161453E+03  0.7546771E-02  0.1249595E+00
         21   -1    0    0  504  501  0.00000000000E+00  0.00000000000E+00  0.22351990896E+03  0.22351990896E+03  0.00000000000E+00 0. -1.
         21   -1    0    0  501  502 -0.00000000000E+00 -0.00000000000E+00 -0.29939578634E+03  0.29939578634E+03  0.00000000000E+00 0. -1.
         21    1    1    2  503  505 -0.10457509983E+03 -0.72554995781E+02 -0.55680591679E+02  0.13892626536E+03  0.00000000000E+00 0. -1.
         21    1    1    2  504  503  0.11857958006E+03 -0.26011698645E+02  0.13847959040E+03  0.18415841612E+03  0.00000000000E+00 0. -1.
         21    1    1    2  505  506 -0.38098326799E+01  0.59289645759E+02 -0.33418849056E+02  0.68165947449E+02  0.00000000000E+00 0. -1.
         21    1    1    2  506  502 -0.10194647544E+02  0.39277048666E+02 -0.12525602704E+03  0.13166506637E+03  0.00000000000E+00 0. -1.
<scales pt_clust_3="14000.00000" pt_clust_4="116.14530" pt_clust_5="71.28940" pt_clust_6="40.57853"></scales>
<clustering>
<clus scale="   40.579">  2  6  1 -1</clus>
<clus scale="   71.289">  2  5  1 -1</clus>
<clus scale="  116.145">  1  4  2 -1</clus>
<clus scale="  116.145">  1  3  2 -1</clus>
</clustering>
</event>
<event>
 6    0  0.4469832E+002  0.3103759E+03  0.7546771E-02  0.1080166E+00
         21   -1    0    0  504  501  0.00000000000E+00  0.00000000000E+00  0.18756244237E+04  0.18756244237E+04  0.00000000000E+00 0. -1.
         21   -1    0    0  506  502 -0.00000000000E+00 -0.00000000000E+00 -0.78551600141E+03  0.78551600141E+03  0.00000000000E+00 0. -1.
         21    1    1    2  503  505  0.30904036050E+02 -0.29486631129E+03  0.36485998714E+03  0.47013190829E+03  0.00000000000E+00 0. -1.
         21    1    1    2  504  503  0.46719857058E+02  0.31388156607E+03  0.14306304740E+04  0.14654036767E+04  0.00000000000E+00 0. -1.
         21    1    1    2  505  502 -0.33440235501E+02  0.12105762338E+02 -0.63907328968E+03  0.64006208169E+03  0.00000000000E+00 0. -1.
         21    1    1    2  506  501 -0.44183657607E+02 -0.31121017121E+02 -0.66308749155E+02  0.85542758435E+02  0.00000000000E+00 0. -1.
<scales pt_clust_3="14000.00000" pt_clust_4="310.37595" pt_clust_5="35.56401" pt_clust_6="66.39503"></scales>
<clustering>
<clus scale="   35.564">  2  5  1 -1</clus>
<clus scale="   66.395">  2  6  1 -1</clus>
<clus scale="  310.376">  1  4  2 -1</clus>
<clus scale="  310.376">  1  3  2 -1</clus>
</clustering>
</event>
<event>
 6    0  0.4469832E+002  0.1079381E+03  0.7546771E-02  0.1264436E+00
         21   -1    0    0  505  501  0.00000000000E+00  0.00000000000E+00  0.36251945081E+03  0.36251945081E+03  0.00000000000E+00 0.  1.
         21   -1    0    0  501  502 -0.00000000000E+00 -0.00000000000E+00 -0.24957962385E+03  0.24957962385E+03  0.00000000000E+00 0.  1.
         21    1    1    2  503  506 -0.31014285203E+02  0.29059958512E+02  0.83427460136E+01  0.43312451863E+02  0.00000000000E+00 0.  1.
         21    1    1    2  504  503  0.44849706977E+02  0.63007496696E+02 -0.17758784338E+03  0.19369791680E+03  0.00000000000E+00 0.  1.
         21    1    1    2  505  504 -0.51484599836E+02 -0.96663462679E+02  0.30952756402E+03  0.32833184726E+03  0.00000000000E+00 0.  1.
         21    1    1    2  506  502  0.37649178062E+02  0.45960074700E+01 -0.27342639699E+02  0.46756858739E+02  0.00000000000E+00 0.  1.
<scales pt_clust_3="40.57034" pt_clust_4="14000.00000" pt_clust_5="107.93813" pt_clust_6="37.92867"></scales>
<clustering>
<clus scale="   37.929">  2  6  1 -1</clus>
<clus scale="   40.570">  2  3  1 -1</clus>
<clus scale="  107.938">  1  5  2 -1</clus>
<clus scale="  107.938">  1  3  2 -1</clus>
</clustering>
</event>
<event>
 6    0  0.4469832E+002  0.2930024E+03  0.7546771E-02  0.1088792E+00
         21   -1    0    0  506  501  0.00000000000E+00  0.00000000000E+00  0.35002331440E+03  0.35002331440E+03  0.00000000000E+00 0.  1.
         21   -1    0    0  503  502 -0.00000000000E+00 -0.00000000000E+00 -0.28317768681E+03  0.28317768681E+03  0.00000000000E+00 0.  1.
         21    1    1    2  503  505 -0.11912969705E+03 -0.28980696170E+02  0.12713506315E+02  0.12326150539E+03  0.00000000000E+00 0.  1.
         21    1    1    2  504  502  0.60337003033E+02  0.46712532365E+02 -0.42470710771E+02  0.87329123941E+02  0.00000000000E+00 0.  1.
         21    1    1    2  505  501 -0.14784166113E+03 -0.30642440701E+02  0.14571166796E+03  0.20982851598E+03  0.00000000000E+00 0.  1.
         21    1    1    2  506  504  0.20663435514E+03  0.12910604505E+02 -0.49108835924E+02  0.21278185590E+03  0.00000000000E+00 0.  1.
<scales pt_clust_3="94.60489" pt_clust_4="50.25015" pt_clust_5="94.60489" pt_clust_6="285.79676"></scales>
<clustering>
<clus scale="   50.250">  4  6 -1 -1</clus>
<clus scale="   94.605">  3  5 -1 -1</clus>
<clus scale="  285.797">  2  4  1 -1</clus>
<clus scale="  293.002">  1  3  2 -1</clus>
</clustering>
</event>
<event>
 6    0  0.4469832E+002  0.2200210E+03  0.7546771E-02  0.1133867E+00
         21   -1    0    0  506  501  0.00000000000E+00  0.00000000000E+00  0.27547657849E+03  0.27547657849E+03  0.00000000000E+00 0. -1.
         21   -1    0    0  503  502 -0.00000000000E+00 -0.00000000000E+00 -0.42909477744E+03  0.42909477744E+03  0.00000000000E+00 0. -1.
         21    1    1    2  503  505 -0.24862126939E+03  0.10606780064E+02  0.80072692435E+02  0.26141284485E+03  0.00000000000E+00 0. -1.
         21    1    1    2  504  502  0.21119394472E+03 -0.28309114049E+02 -0.22636218442E+03  0.31087638501E+03  0.00000000000E+00 0. -1.
         21    1    1    2  505  501 -0.11996144745E+02  0.63049603785E+02 -0.10956165378E+02  0.65109120605E+02  0.00000000000E+00 0. -1.
         21    1    1    2  506  504  0.49423469421E+02 -0.45347269800E+02  0.36274584152E+01  0.67173005460E+02  0.00000000000E+00 0. -1.
<scales pt_clust_3="220.02099" pt_clust_4="14000.00000" pt_clust_5="64.18068" pt_clust_6="59.98999"></scales>
<clustering>
<clus scale="   64.181">  1  5  2 -1</clus>
<clus scale="   59.990">  1  6  2 -1</clus>
<clus scale="  220.021">  1  3  2 -1</clus>
<clus scale="   64.181">  1  3  2 -1</clus>
</clustering>
</event>
<event>
 6    0  0.4469832E+002  0.1241648E+03  0.7546771E-02  0.1236380E+00
         21   -1    0    0  506  501  0.00000000000E+00  0.00000000000E+00  0.13294407566E+04  0.13294407566E+04  0.00000000000E+00 0.  1.
         21   -1    0    0  503  502 -0.00000000000E+00 -0.00000000000E+00 -0.14420549430E+03  0.14420549430E+03  0.00000000000E+00 0.  1.
         21    1    1    2  503  504  0.60457341082E+02  0.50368334554E+01 -0.49371640512E+02  0.78217764407E+02  0.00000000000E+00 0.  1.
         21    1    1    2  504  505  0.57547809475E+02 -0.28524366926E+02 -0.44433440990E+02  0.78100707821E+02  0.00000000000E+00 0.  1.
         21    1    1    2  505  501 -0.11907648805E+03 -0.98952751339E+01  0.12783485566E+04  0.12839206201E+04  0.00000000000E+00 0.  1.
         21    1    1    2  506  502  0.10713374885E+01  0.33382808604E+02  0.69178716566E+00  0.33407158571E+02  0.00000000000E+00 0.  1.
<scales pt_clust_3="33.08925" pt_clust_4="33.08925" pt_clust_5="119.40561" pt_clust_6="33.40000"></scales>
<clustering>
<clus scale="   33.089">  3  4 -1 -1</clus>
<clus scale="   33.400">  2  6  1 -1</clus>
<clus scale="  119.406">  1  5  2 -1</clus>
<clus scale="  119.406">  1  3  2 -1</clus>
</clustering>
</event>
<event>
 6    0  0.4469832E+002  0.2313096E+03  0.7546771E-02  0.1125721E+00
         21   -1    0    0  503  501  0.00000000000E+00  0.00000000000E+00  0.92712445359E+03  0.92712445359E+03  0.00000000000E+00 0. -1.
         21   -1    0    0  505  502 -0.00000000000E+00 -0.00000000000E+00 -0.16466198157E+03  0.16466198157E+03  0.00000000000E+00 0. -1.
         21    1    1    2  503  504 -0.15485464930E+03  0.45238999465E+02  0.28610820328E+03  0.32845765856E+03  0.00000000000E+00 0. -1.
         21    1    1    2  504  506 -0.50997519853E+02 -0.32672663999E+02  0.71714009496E+02  0.93867721619E+02  0.00000000000E+00 0. -1.
         21    1    1    2  505  501  0.43859700954E+02 -0.23419868605E+03  0.97308348766E+02  0.25737445999E+03  0.00000000000E+00 0. -1.
         21    1    1    2  506  502  0.16199246820E+03  0.22163235058E+03  0.30733191048E+03  0.41208659500E+03  0.00000000000E+00 0. -1.
<scales pt_clust_3="224.32564" pt_clust_4="54.07549" pt_clust_5="231.30964" pt_clust_6="14000.00000"></scales>
<clustering>
<clus scale="   54.075">  3  4 -1 -1</clus>
<clus scale="  224.326">  1  3  2 -1</clus>
<clus scale="  231.310">  2  5  1 -1</clus>
<clus scale="  224.326">  1  3  2 -1</clus>
</clustering>
</event>
<event>
 6    0  0.4469832E+002  0.1016785E+03  0.7546771E-02  0.1276805E+00
         21   -1    0    0  504  501  0.00000000000E+00  0.00000000000E+00  0.59574683246E+03  0.59574683246E+03  0.00000000000E+00 0. -1.
         21   -1    0    0  503  502 -0.00000000000E+00 -0.00000000000E+00 -0.85321665533E+02  0.85321665533E+02  0.00000000000E+00 0.  1.
         21    1    1    2  503  505  0.12355968675E+02  0.59272079187E+02 -0.25215849956E+02  0.65587258077E+02  0.00000000000E+00 0.  1.
         21    1    1    2  504  502  0.79419256902E+02 -0.47515713755E+02  0.27044511178E+02  0.96418706719E+02  0.00000000000E+00 0.  1.
         21    1    1    2  505  506 -0.57672189073E+02 -0.29893523316E+02  0.33103548479E+03  0.33734877548E+03  0.00000000000E+00 0. -1.
         21    1    1    2  506  501 -0.34103036503E+02  0.18137157883E+02  0.17756102091E+03  0.18171375771E+03  0.00000000000E+00 0. -1.
<scales pt_clust_3="60.54626" pt_clust_4="90.24361" pt_clust_5="36.12417" pt_clust_6="36.12417"></scales>
<clustering>
<clus scale="   36.124">  5  6 -1 -1</clus>
<clus scale="   60.546">  2  3  1 -1</clus>
<clus scale="   90.244">  2  4  1 -1</clus>
<clus scale="  101.678">  1  3  2 -1</clus>
</clustering>
</event>
<event>
 6    0  0.4469832E+002  0.1063792E+03  0.7546771E-02  0.1267426E+00
         21   -1    0    0  505  501  0.00000000000E+00  0.00000000000E+00  0.34561195139E+03  0.34561195139E+03  0.00000000000E+00 0.  1.
         21   -1    0    0  504  502 -0.00000000000E+00 -0.00000000000E+00 -0.54176203998E+02  0.54176203998E+02  0.00000000000E+00 0.  1.
         21    1    1    2  503  501  0.66920934840E+02 -0.15172865576E+02  0.41304159408E+02  0.80091578546E+02  0.00000000000E+00 0.  1.
         21    1    1    2  504  503  0.45642061705E+02 -0.30848476848E+02  0.10116048552E+03  0.11518797746E+03  0.00000000000E+00 0.  1.
         21    1    1    2  505  506 -0.78335197112E+02 -0.31916991058E+01  0.10021684995E+03  0.12723995860E+03  0.00000000000E+00 0.  1.
         21    1    1    2  506  502 -0.34227799433E+02  0.49213041529E+02  0.48754252514E+02  0.77268640785E+02  0.00000000000E+00 0. -1.
<scales pt_clust_3="49.47968" pt_clust_4="49.47968" pt_clust_5="90.92308" pt_clust_6="59.94552"></scales>
<clustering>
<clus scale="   49.480">  3  4 -1 -1</clus>
<clus scale="   59.946">  2  6  1 -1</clus>
<clus scale="   90.923">  1  5  2 -1</clus>
<clus scale="   90.923">  1  3  2 -1</clus>
</clustering>
</event>
<event>
 6    0  0.4469832E+002  0.1117213E+03  0.7546771E-02  0.1257415E+00
         21   -1    0    0  503  501  0.00000000000E+00  0.00000000000E+00  0.69021716182E+02  0.69021716182E+02  0.00000000000E+00 0.  1.
         21   -1    0    0  505  502 -0.00000000000E+00 -0.00000000000E+00 -0.52174210914E+03  0.52174210914E+03  0.00000000000E+00 0.  1.
         21    1    1    2  503  502 -0.11245147184E+03  0.12201603246E+03 -0.11846224283E+03  0.20387875974E+03  0.00000000000E+00 0.  1.
         21    1    1    2  504  501  0.73554942417E+02 -0.37048723358E+02 -0.85422139187E+02  0.11865866728E+03  0.00000000000E+00 0.  1.
         21    1    1    2  505  506  0.10871306756E+02 -0.47688516900E+02 -0.87027482677E+02  0.99830670116E+02  0.00000000000E+00 0.  1.
         21    1    1    2  506  504  0.28025222669E+02 -0.37278792205E+02 -0.16180852826E+03  0.16839572819E+03  0.00000000000E+00 0.  1.
<scales pt_clust_3="105.77334" pt_clust_4="82.35859" pt_clust_5="35.12149" pt_clust_6="35.12149"></scales>
<clustering>
<clus scale="   35.121">  5  6 -1 -1</clus>
<clus scale="   82.359">  1  4  2 -1</clus>
<clus scale="  105.773">  1  3  2 -1</clus>
<clus scale="   82.359">  1  3  2 -1</clus>
</clustering>
</event>
<event>
 6    0  0.4469832E+002  0.9132273E+02  0.7546771E-02  0.1299680E+00
         21   -1    0    0  503  501  0.00000000000E+00  0.00000000000E+00  0.17277396959E+04  0.17277396959E+04  0.00000000000E+00 0.  1.
         21   -1    0    0  505  502 -0.00000000000E+00 -0.00000000000E+00 -0.25203935836E+03  0.25203935836E+03  0.00000000000E+00 0.  1.
         21    1    1    2  503  506 -0.54551868785E+01 -0.82520806136E+02  0.51523686514E+03  0.52183184045E+03  0.00000000000E+00 0.  1.
         21    1    1    2  504  501 -0.87160387036E+02  0.69147073305E+02  0.11944055889E+04  0.11995761592E+04  0.00000000000E+00 0.  1.
         21    1    1    2  505  504  0.41914617515E+02  0.34537950364E+02 -0.10508625043E+03  0.11829127274E+03  0.00000000000E+00 0.  1.
         21    1    1    2  506  502  0.50700956399E+02 -0.21164217533E+02 -0.12885586606E+03  0.14007978192E+03  0.00000000000E+00 0.  1.
<scales pt_clust_3="81.83155" pt_clust_4="14000.00000" pt_clust_5="54.31119" pt_clust_6="91.32273"></scales>
<clustering>
<clus scale="   54.311">  2  5  1 -1</clus>
<clus scale="   81.832">  1  3  2 -1</clus>
<clus scale="   91.323">  2  6  1 -1</clus>
<clus scale="   81.832">  1  3  2 -1</clus>
</clustering>
</event>
<event>
 6    0  0.4469832E+002  0.1058221E+03  0.7546771E-02  0.1268508E+00
         21   -1    0    0  504  501  0.00000000000E+00  0.00000000000E+00  0.14276153591E+04  0.14276153591E+04  0.00000000000E+00 0.  1.
         21   -1    0    0  505  502 -0.00000000000E+00 -0.00000000000E+00 -0.22634844924E+03  0.22634844924E+03  0.00000000000E+00 0.  1.
         21    1    1    2  503  506  0.19052453376E+02  0.47728633036E+02 -0.66266012894E+02  0.83858230699E+02  0.00000000000E+00 0.  1.
         21    1    1    2  504  502 -0.13995531096E+01 -0.12134909231E+03  0.13565646382E+04  0.13619820772E+04  0.00000000000E+00 0.  1.
         21    1    1    2  505  503  0.57050122236E+01  0.47490854449E+02 -0.13905072998E+03  0.14704772670E+03  0.00000000000E+00 0.  1.
         21    1    1    2  506  501 -0.23357912490E+02  0.26129604828E+02  0.50019014510E+02  0.61075773732E+02  0.00000000000E+00 0. -1.
<scales pt_clust_3="37.14138" pt_clust_4="98.56676" pt_clust_5="37.14138" pt_clust_6="35.04780"></scales>
<clustering>
<clus scale="   35.048">  1  6  2 -1</clus>
<clus scale="   37.141">  3  5 -1 -1</clus>
<clus scale="   98.567">  1  4  2 -1</clus>
<clus scale="   35.048">  1  3  2 -1</clus>
</clustering>
</event>
<event>
 6    0  0.4469832E+002  0.1294395E+03  0.7546771E-02  0.1228290E+00
         21   -1    0    0  504  501  0.00000000000E+00  0.00000000000E+00  0.67821465831E+03  0.67821465831E+03  0.00000000000E+00 0.  1.
         21   -1    0    0  505  502 -0.00000000000E+00 -0.00000000000E+00 -0.30439956711E+03  0.30439956711E+03  0.00000000000E+00 0.  1.
         21    1    1    2  503  502 -0.16186843978E+02  0.32268425335E+02 -0.10974654494E+03  0.11553168101E+03  0.00000000000E+00 0. -1.
         21    1    1    2  504  506  0.10791250365E+03 -0.51868490489E+02  0.20758685366E+02  0.12151696083E+03  0.00000000000E+00 0.  1.
         21    1    1    2  505  501 -0.83857137835E+01 -0.66661793766E+02  0.57643765730E+03  0.58033997596E+03  0.00000000000E+00 0.  1.
         21    1    1    2  506  503 -0.83339945892E+02  0.86261858919E+02 -0.11363470653E+03  0.16522560762E+03  0.00000000000E+00 0.  1.
<scales pt_clust_3="36.10076" pt_clust_4="129.43952" pt_clust_5="66.88227" pt_clust_6="14000.00000"></scales>
<clustering>
<clus scale="   36.101">  2  3  1 -1</clus>
<clus scale="   66.882">  1  5  2 -1</clus>
<clus scale="  129.440">  1  4  2 -1</clus>
<clus scale="   66.882">  1  3  2 -1</clus>
</clustering>
</event>
<event>
 6    0  0.4469832E+002  0.1365964E+03  0.7546771E-02  0.1217984E+00
         21   -1    0    0  504  501  0.00000000000E+00  0.00000000000E+00  0.18003619228E+03  0.18003619228E+03  0.00000000000E+00 0.  1.
         21   -1    0    0  501  502 -0.00000000000E+00 -0.00000000000E+00 -0.35200904134E+03  0.35200904134E+03  0.00000000000E+00 0.  1.
         21    1    1    2  503  502  0.50483509605E+02  0.14781211091E+03 -0.24771201277E+03  0.29284508899E+03  0.00000000000E+00 0.  1.
         21    1    1    2  504  506 -0.39347638083E+02 -0.36410580469E+01  0.49272271526E+01  0.39821746494E+02  0.00000000000E+00 0. -1.
         21    1    1    2  505  503  0.33839940305E+02 -0.10118046018E+03  0.21368280366E+01  0.10671079194E+03  0.00000000000E+00 0.  1.
         21    1    1    2  506  505 -0.44975811826E+02 -0.42990592681E+02  0.68675108522E+02  0.92667606200E+02  0.00000000000E+00 0.  1.
<scales pt_clust_3="14000.00000" pt_clust_4="39.51574" pt_clust_5="136.59639" pt_clust_6="79.06343"></scales>
<clustering>
<clus scale="   39.516">  1  4  2 -1</clus>
<clus scale="   79.063">  1  6  2 -1</clus>
<clus scale="  136.596">  1  5  2 -1</clus>
<clus scale="   39.516">  1  3  2 -1</clus>
</clustering>
</event>
<event>
 6    0  0.4469832E+002  0.1901549E+03  0.7546771E-02  0.1158322E+00
         21   -1    0    0  505  501  0.00000000000E+00  0.00000000000E+00  0.43706268279E+02  0.43706268279E+02  0.00000000000E+00 0. -1.
         21   -1    0    0  506  502 -0.00000000000E+00 -0.00000000000E+00 -0.11589329475E+04  0.11589329475E+04  0.00000000000E+00 0. -1.
         21    1    1    2  503  501  0.21209446238E+00 -0.39046588648E+02 -0.22003355949E+02  0.44819959194E+02  0.00000000000E+00 0. -1.
         21    1    1    2  504  503 -0.53388463213E+02 -0.99591463911E+02 -0.29712085841E+03  0.31788298506E+03  0.00000000000E+00 0. -1.
         21    1    1    2  505  502  0.59701039622E+02  0.19598705619E+03 -0.54375493338E+03  0.58107191285E+03  0.00000000000E+00 0. -1.
         21    1    1    2  506  504 -0.65246708717E+01 -0.57349003635E+02 -0.25234753149E+03  0.25886435869E+03  0.00000000000E+00 0. -1.
<scales pt_clust_3="39.04716" pt_clust_4="35.74980" pt_clust_5="183.45787" pt_clust_6="35.74980"></scales>
<clustering>
<clus scale="   35.750">  4  6 -1 -1</clus>
<clus scale="   39.047">  1  3  2 -1</clus>
<clus scale="  183.458">  1  5  2 -1</clus>
<clus scale="   39.047">  1  3  2 -1</clus>
</clustering>
</event>
<event>
 6    0  0.4469832E+002  0.1373207E+03  0.7546771E-02  0.1216980E+00
         21   -1    0    0  506  501  0.00000000000E+00  0.00000000000E+00  0.87786108212E+03  0.87786108212E+03  0.00000000000E+00 0.  1.
         21   -1    0    0  505  502 -0.00000000000E+00 -0.00000000000E+00 -0.62992869325E+03  0.62992869325E+03  0.00000000000E+00 0.  1.
         21    1    1    2  503  501 -0.13774961701E+03  0.46961654550E+01  0.83484168295E+03  0.84614280506E+03  0.00000000000E+00 0.  1.
         21    1    1    2  504  502  0.12936558422E+01 -0.33367494543E+02 -0.18720404231E+03  0.19015892484E+03  0.00000000000E+00 0. -1.
         21    1    1    2  505  503  0.36223478677E+02  0.47831204539E+02 -0.10813887045E+01  0.60009448727E+02  0.00000000000E+00 0.  1.
         21    1    1    2  506  504  0.10023248249E+03 -0.19159875450E+02 -0.39862386307E+03  0.41147859674E+03  0.00000000000E+00 0.  1.
<scales pt_clust_3="137.32072" pt_clust_4="33.39256" pt_clust_5="58.23082" pt_clust_6="14000.00000"></scales>
<clustering>
<clus scale="   33.393">  2  4  1 -1</clus>
<clus scale="   58.231">  2  5  1 -1</clus>
<clus scale="  137.321">  1  3  2 -1</clus>
<clus scale="  137.321">  1  3  2 -1</clus>
</clustering>
</event>
<event>
 6    0  0.4469832E+002  0.1016567E+03  0.7546771E-02  0.1276850E+00
         21   -1    0    0  505  501  0.00000000000E+00  0.00000000000E+00  0.33356429113E+03  0.33356429113E+03  0.00000000000E+00 0.  1.
         21   -1    0    0  504  502 -0.00000000000E+00 -0.00000000000E+00 -0.35947976456E+03  0.35947976456E+03  0.00000000000E+00 0. -1.
         21    1    1    2  503  502  0.55358295294E+02 -0.88384155493E+01  0.84108518874E+01  0.56686866881E+02  0.00000000000E+00 0.  1.
         21    1    1    2  504  506 -0.10338899088E+03 -0.54496391436E+01 -0.31677519044E+03  0.33326491456E+03  0.00000000000E+00 0. -1.
         21    1    1    2  505  503 -0.18953888178E+02  0.32660204244E+02  0.13361642845E+03  0.13884987853E+03  0.00000000000E+00 0.  1.
         21    1    1    2  506  501  0.66984583765E+02 -0.18372149551E+02  0.14883243668E+03  0.16424239571E+03  0.00000000000E+00 0.  1.
<scales pt_clust_3="52.34584" pt_clust_4="101.65670" pt_clust_5="37.76161" pt_clust_6="14000.00000"></scales>
<clustering>
<clus scale="   37.762">  1  5  2 -1</clus>
<clus scale="   52.346">  1  3  2 -1</clus>
<clus scale="  101.657">  2  4  1 -1</clus>
<clus scale="   37.762">  1  3  2 -1</clus>
</clustering>
</event>
<event>
 6    0  0.4469832E+002  0.1702449E+03  0.7546771E-02  0.1177593E+00
         21   -1    0    0  506  501  0.00000000000E+00  0.00000000000E+00  0.45884515454E+03  0.45884515454E+03  0.00000000000E+00 0.  1.
         21   -1    0    0  503  502 -0.00000000000E+00 -0.00000000000E+00 -0.79110088724E+03  0.79110088724E+03  0.00000000000E+00 0. -1.
         21    1    1    2  503  504  0.41740109108E+02 -0.20327280115E+02 -0.19079420296E+03  0.19636156168E+03  0.00000000000E+00 0.  1.
         21    1    1    2  504  505 -0.11392179290E+03 -0.13767433680E+03 -0.55881367823E+03  0.58668997339E+03  0.00000000000E+00 0. -1.
         21    1    1    2  505  501  0.66800770575E+02  0.48574996862E+02  0.92220766422E+02  0.12380041611E+03  0.00000000000E+00 0.  1.
         21    1    1    2  506  502  0.53809132120E+01  0.10942662005E+03  0.32513138206E+03  0.34309409060E+03  0.00000000000E+00 0.  1.
<scales pt_clust_3="46.42666" pt_clust_4="14000.00000" pt_clust_5="83.17786" pt_clust_6="170.24494"></scales>
<clustering>
<clus scale="   46.427">  2  3  1 -1</clus>
<clus scale="   83.178">  1  5  2 -1</clus>
<clus scale="  170.245">  1  6  2 -1</clus>
<clus scale="   83.178">  1  3  2 -1</clus>
</clustering>
</event>
<event>
 6    0  0.4469832E+002  0.6123446E+02  0.7546771E-02  0.1392723E+00
         21   -1    0    0  502  501  0.00000000000E+00  0.00000000000E+00  0.14674947131E+03  0.14674947131E+03  0.00000000000E+00 0.  1.
         21   -1    0    0  504  502 -0.00000000000E+00 -0.00000000000E+00 -0.82892814961E+03  0.82892814961E+03  0.00000000000E+00 0.  1.
         21    1    1    2  503  506  0.39458429296E+01  0.59820469561E+02 -0.14020646457E+02  0.61568147463E+02  0.00000000000E+00 0.  1.
         21    1    1    2  504  505 -0.40560206625E+02 -0.42216705071E+02 -0.51464657886E+03  0.51796571477E+03  0.00000000000E+00 0.  1.
         21    1    1    2  505  503  0.76314200855E+02  0.20455738367E+02 -0.26246386069E+03  0.27409774288E+03  0.00000000000E+00 0.  1.
         21    1    1    2  506  501 -0.39699837159E+02 -0.38059502857E+02  0.10895240771E+03  0.12204601580E+03  0.00000000000E+00 0.  1.
<scales pt_clust_3="40.52308" pt_clust_4="14000.00000" pt_clust_5="61.23446" pt_clust_6="54.99639"></scales>
<clustering>
<clus scale="   54.996">  1  6  2 -1</clus>
<clus scale="   40.523">  1  3  2 -1</clus>
<clus scale="   61.234">  1  5  2 -1</clus>
<clus scale="   54.996">  1  3  2 -1</clus>
</clustering>
</event>
<event>
 6    0  0.4469832E+002  0.1781996E+03  0.7546771E-02  0.1169557E+00
         21   -1    0    0  503  501  0.00000000000E+00  0.00000000000E+00  0.27690888242E+02  0.27690888242E+02  0.00000000000E+00 0.  1.
         21   -1    0    0  505  502 -0.00000000000E+00 -0.00000000000E+00 -0.14518828193E+04  0.14518828193E+04  0.00000000000E+00 0.  1.
         21    1    1    2  503  506  0.25210718984E+02  0.23832260067E+02 -0.53429408747E+02  0.63704463663E+02  0.00000000000E+00 0.  1.
         21    1    1    2  504  501  0.55975975179E+02 -0.33244246212E+02 -0.15862216886E+03  0.17146277193E+03  0.00000000000E+00 0.  1.
         21    1    1    2  505  504  0.98549571567E+02 -0.11849496713E+02 -0.37403598418E+03  0.38698235889E+03  0.00000000000E+00 0.  1.
         21    1    1    2  506  502 -0.17973626573E+03  0.21261482859E+02 -0.83810436924E+03  0.85742411303E+03  0.00000000000E+00 0.  1.
<scales pt_clust_3="34.69232" pt_clust_4="37.92558" pt_clust_5="37.92558" pt_clust_6="171.84419"></scales>
<clustering>
<clus scale="   34.692">  1  3  2 -1</clus>
<clus scale="   37.926">  4  5 -1 -1</clus>
<clus scale="  171.844">  2  6  1 -1</clus>
<clus scale="   34.692">  1  3  2 -1</clus>
</clustering>
</event>
<event>
 6    0  0.4469832E+002  0.9443537E+02  0.7546771E-02  0.1292453E+00
         21   -1    0    0  505  501  0.00000000000E+00  0.00000000000E+00  0.13255377782E+04  0.13255377782E+04  0.00000000000E+00 0. -1.
         21   -1    0    0  504  502 -0.00000000000E+00 -0.00000000000E+00 -0.30100223912E+02  0.30100223912E+02  0.00000000000E+00 0.  1.
         21    1    1    2  503  502 -0.30293687868E+02 -0.17918322211E+02  0.10683282462E+02  0.36781874880E+02  0.00000000000E+00 0.  1.
         21    1    1    2  504  506  0.82243806499E+02 -0.12708218488E+02  0.44351731758E+03  0.45125730301E+03  0.00000000000E+00 0. -1.
         21    1    1    2  505  503 -0.84776215643E+02 -0.47290162973E+01  0.13346388801E+03  0.15818337377E+03  0.00000000000E+00 0.  1.
         21    1    1    2  506  501  0.32826097012E+02  0.35355556997E+02  0.70777306627E+03  0.70941545049E+03  0.00000000000E+00 0. -1.
<scales pt_clust_3="35.19622" pt_clust_4="14000.00000" pt_clust_5="94.43537" pt_clust_6="46.62226"></scales>
<clustering>
<clus scale="   35.196">  2  3  1 -1</clus>
<clus scale="   46.622">  1  6  2 -1</clus>
<clus scale="   94.435">  2  5  1 -1</clus>
<clus scale="   46.622">  1  3  2 -1</clus>
</clustering>
</event>
<event>
 6    0  0.4469832E+002  0.1098176E+03  0.7546771E-02  0.1260908E+00
         21   -1    0    0  503  501  0.00000000000E+00  0.00000000000E+00  0.19978095657E+03  0.19978095657E+03  0.00000000000E+00 0.  1.
         21   -1    0    0  506  502 -0.00000000000E+00 -0.00000000000E+00 -0.33619580130E+03  0.33619580130E+03  0.00000000000E+00 0.  1.
         21    1    1    2  503  505  0.10166952612E+03 -0.57112313965E+02  0.87439097099E+02  0.14575357508E+03  0.00000000000E+00 0.  1.
         21    1    1    2  504  502 -0.53431090041E+02  0.41706678018E+02 -0.64763459000E+02  0.93747714617E+02  0.00000000000E+00 0. -1.
         21    1    1    2  505  504 -0.11646151346E+03 -0.37925623282E+02 -0.85162981904E+01  0.12277688851E+03  0.00000000000E+00 0.  1.
         21    1    1    2  506  501  0.68223077376E+02  0.53331259229E+02 -0.15057418464E+03  0.17369857966E+03  0.00000000000E+00 0.  1.
<scales pt_clust_3="109.81762" pt_clust_4="67.78148" pt_clust_5="14000.00000" pt_clust_6="86.80276"></scales>
<clustering>
<clus scale="   67.781">  2  4  1 -1</clus>
<clus scale="   86.803">  2  6  1 -1</clus>
<clus scale="  109.818">  1  3  2 -1</clus>
<clus scale="  109.818">  1  3  2 -1</clus>
</clustering>
</event>
<event>
 6    0  0.4469832E+002  0.1278733E+03  0.7546771E-02  0.1230646E+00
         21   -1    0    0  503  501  0.00000000000E+00  0.00000000000E+00  0.53142602845E+03  0.53142602845E+03  0.00000000000E+00 0. -1.
         21   -1    0    0  505  502 -0.00000000000E+00 -0.00000000000E+00 -0.15007647381E+03  0.15007647381E+03  0.00000000000E+00 0. -1.
         21    1    1    2  503  504  0.32742261519E+02 -0.65200732384E+02  0.15598851649E+03  0.17220803834E+03  0.00000000000E+00 0.  1.
         21    1    1    2  504  502  0.11557143900E+03 -0.21236650243E+02  0.37588598014E+02  0.12337202084E+03  0.00000000000E+00 0. -1.
         21    1    1    2  505  506 -0.12233475953E+03  0.58279509127E+02 -0.50483483972E+02  0.14460593600E+03  0.00000000000E+00 0. -1.
         21    1    1    2  506  501 -0.25978940994E+02  0.28157873500E+02  0.23825592411E+03  0.24131650708E+03  0.00000000000E+00 0. -1.
<scales pt_clust_3="52.57961" pt_clust_4="127.87331" pt_clust_5="14000.00000" pt_clust_6="38.31150"></scales>
<clustering>
<clus scale="   38.312">  1  6  2 -1</clus>
<clus scale="   52.580">  1  3  2 -1</clus>
<clus scale="  127.873">  1  4  2 -1</clus>
<clus scale="   38.312">  1  3  2 -1</clus>
</clustering>
</event>
<event>
 6    0  0.4469832E+002  0.1786691E+03  0.7546771E-02  0.1169097E+00
         21   -1    0    0  504  501  0.00000000000E+00  0.00000000000E+00  0.11736418611E+04  0.11736418611E+04  0.00000000000E+00 0. -1.
         21   -1    0    0  506  502 -0.00000000000E+00 -0.00000000000E+00 -0.64616999582E+02  0.64616999582E+02  0.00000000000E+00 0. -1.
         21    1    1    2  503  502  0.32717878932E+01  0.54238532888E+02  0.11854400840E+03  0.13040400673E+03  0.00000000000E+00 0.  1.
         21    1    1    2  504  503  0.75211260445E+02  0.64139180601E+02  0.22445489848E+03  0.24525613068E+03  0.00000000000E+00 0. -1.
         21    1    1    2  505  501  0.36021778555E+02  0.23923473576E+02  0.63819864552E+03  0.63966195155E+03  0.00000000000E+00 0. -1.
         21    1    1    2  506  505 -0.11450482689E+03 -0.14230118706E+03  0.12782730911E+03  0.22293677170E+03  0.00000000000E+00 0. -1.
<scales pt_clust_3="42.58797" pt_clust_4="42.58797" pt_clust_5="43.24235" pt_clust_6="169.18396"></scales>
<clustering>
<clus scale="   42.588">  3  4 -1 -1</clus>
<clus scale="   43.242">  1  5  2 -1</clus>
<clus scale="  169.184">  2  6  1 -1</clus>
<clus scale="   43.242">  1  3  2 -1</clus>
</clustering>
</event>
<event>
 6    0  0.4469832E+002  0.8951308E+02  0.7546771E-02  0.1304035E+00
         21   -1    0    0  504  501  0.00000000000E+00  0.00000000000E+00  0.90714509522E+02  0.90714509522E+02  0.00000000000E+00 0.  1.
         21   -1    0    0  505  502 -0.00000000000E+00 -0.00000000000E+00 -0.24596970381E+03  0.24596970381E+03  0.00000000000E+00 0.  1.
         21    1    1    2  503  502  0.32211330232E+02  0.77865943265E+01 -0.46891451362E+02  0.57419587750E+02  0.00000000000E+00 0. -1.
         21    1    1    2  504  506 -0.67705698334E+02  0.95052506973E+01 -0.15965539805E+02  0.70209043855E+02  0.00000000000E+00 0.  1.
         21    1    1    2  505  501 -0.26309102965E+02  0.62033178359E+02  0.68979298457E+01  0.67733784423E+02  0.00000000000E+00 0.  1.
         21    1    1    2  506  503  0.61803471068E+02 -0.79325023383E+02 -0.99296132964E+02  0.14132179730E+03  0.00000000000E+00 0.  1.
<scales pt_clust_3="33.13911" pt_clust_4="61.57855" pt_clust_5="89.51308" pt_clust_6="14000.00000"></scales>
<clustering>
<clus scale="   33.139">  2  3  1 -1</clus>
<clus scale="   61.579">  1  4  2 -1</clus>
<clus scale="   89.513">  1  5  2 -1</clus>
<clus scale="   61.579">  1  3  2 -1</clus>
</clustering>
</event>
<event>
 6    0  0.4469832E+002  0.1748722E+03  0.7546771E-02  0.1172860E+00
         21   -1    0    0  505  501  0.00000000000E+00  0.00000000000E+00  0.79976889585E+03  0.79976889585E+03  0.00000000000E+00 0. -1.
         21   -1    0    0  503  502 -0.00000000000E+00 -0.00000000000E+00 -0.18202676645E+03  0.18202676645E+03  0.00000000000E+00 0. -1.
         21    1    1    2  503  506 -0.37081868246E+02  0.12955888815E+02 -0.22078075919E+01  0.39342018529E+02  0.00000000000E+00 0. -1.
         21    1    1    2  504  501  0.13759298822E+03  0.17672891077E+03  0.47440754822E+03  0.52462125398E+03  0.00000000000E+00 0. -1.
         21    1    1    2  505  502  0.19785281250E+02 -0.14094413794E+03  0.22456867580E+03  0.26587176895E+03  0.00000000000E+00 0. -1.
         21    1    1    2  506  504 -0.12029640123E+03 -0.48740661645E+02 -0.79026287029E+02  0.15196062084E+03  0.00000000000E+00 0. -1.
<scales pt_clust_3="34.57112" pt_clust_4="163.19015" pt_clust_5="142.32606" pt_clust_6="34.57112"></scales>
<clustering>
<clus scale="   34.571">  3  6 -1 -1</clus>
<clus scale="  142.326">  1  5  2 -1</clus>
<clus scale="  163.190">  1  4  2 -1</clus>
<clus scale="  142.326">  1  3  2 -1</clus>
</clustering>
</event>
<event>
 6    0  0.4469832E+002  0.1507231E+03  0.7546771E-02  0.1199587E+00
         21   -1    0    0  505  501  0.00000000000E+00  0.00000000000E+00  0.23411023653E+03  0.23411023653E+03  0.00000000000E+00 0. -1.
         21   -1    0    0  504  502 -0.00000000000E+00 -0.00000000000E+00 -0.17511665390E+03  0.17511665390E+03  0.00000000000E+00 0. -1.
         21    1    1    2  503  501  0.68104472329E+02  0.67680012725E+02  0.11857069686E+03  0.15257068338E+03  0.00000000000E+00 0. -1.
         21    1    1    2  504  503  0.54684560091E+02  0.75692577844E+01  0.27483824003E+02  0.61668917273E+02  0.00000000000E+00 0. -1.
         21    1    1    2  505  506 -0.92663236398E+02 -0.82534564147E+02 -0.26401046678E+02  0.12686782462E+03  0.00000000000E+00 0. -1.
         21    1    1    2  506  502 -0.30125796022E+02  0.72852936378E+01 -0.60659891552E+02  0.68119465151E+02  0.00000000000E+00 0.  1.
<scales pt_clust_3="45.56543" pt_clust_4="45.56543" pt_clust_5="137.44220" pt_clust_6="30.99418"></scales>
<clustering>
<clus scale="   30.994">  2  6  1 -1</clus>
<clus scale="   45.565">  3  4 -1 -1</clus>
<clus scale="  137.442">  2  5  1 -1</clus>
<clus scale="  150.723">  1  3  2 -1</clus>
</clustering>
</event>
<event>
 6    0  0.4469832E+002  0.5530649E+02  0.7546771E-02  0.1418655E+00
         21   -1    0    0  505  501  0.00000000000E+00  0.00000000000E+00  0.16929189681E+03  0.16929189681E+03  0.00000000000E+00 0.  1.
         21   -1    0    0  506  502 -0.00000000000E+00 -0.00000000000E+00 -0.98801898294E+03  0.98801898294E+03  0.00000000000E+00 0. -1.
         21    1    1    2  503  501  0.23021734086E+02  0.36161617977E+02 -0.10827653565E+03  0.11645372913E+03  0.00000000000E+00 0.  1.
         21    1    1    2  504  502 -0.11596305346E+03 -0.29913730873E+02 -0.75911037307E+03  0.76849906933E+03  0.00000000000E+00 0. -1.
         21    1    1    2  505  504  0.54915007879E+02  0.87080114098E+00  0.15221076275E+03  0.16181635480E+03  0.00000000000E+00 0.  1.
         21    1    1    2  506  503  0.38026311494E+02 -0.71186882456E+01 -0.10355094016E+03  0.11054172649E+03  0.00000000000E+00 0. -1.
<scales pt_clust_3="44.94064" pt_clust_4="55.30649" pt_clust_5="14000.00000" pt_clust_6="38.68690"></scales>
<clustering>
<clus scale="   38.687">  2  6  1 -1</clus>
<clus scale="   44.941">  2  3  1 -1</clus>
<clus scale="   55.306">  2  4  1 -1</clus>
<clus scale="   55.306">  1  3  2 -1</clus>
</clustering>
</event>
<event>
 6    0  0.4469832E+002  0.1181326E+03  0.7546771E-02  0.1246210E+00
         21   -1    0    0  505  501  0.00000000000E+00  0.00000000000E+00  0.22457063810E+03  0.22457063810E+03  0.00000000000E+00 0. -1.
         21   -1    0    0  504  502 -0.00000000000E+00 -0.00000000000E+00 -0.30035378331E+04  0.30035378331E+04  0.00000000000E+00 0. -1.
         21    1    1    2  503  502 -0.93379525075E+01 -0.38901077748E+02 -0.56636963858E+03  0.56778081925E+03  0.00000000000E+00 0. -1.
         21    1    1    2  504  501 -0.71346786470E+02  0.38233727346E+02  0.15784064128E+03  0.17738616036E+03  0.00000000000E+00 0. -1.
         21    1    1    2  505  506  0.11210523857E+03  0.61028370226E+02 -0.17285905757E+02  0.12880546970E+03  0.00000000000E+00 0.  1.
         21    1    1    2  506  503 -0.31420499589E+02 -0.60361019823E+02 -0.23531522919E+04  0.23541360219E+04  0.00000000000E+00 0. -1.
<scales pt_clust_3="38.14906" pt_clust_4="80.94555" pt_clust_5="107.14387" pt_clust_6="38.14906"></scales>
<clustering>
<clus scale="   38.149">  3  6 -1 -1</clus>
<clus scale="   80.946">  1  4  2 -1</clus>
<clus scale="  107.144">  1  5  2 -1</clus>
<clus scale="   80.946">  1  3  2 -1</clus>
</clustering>
</event>
<event>
 6    0  0.4469832E+002  0.1688353E+03  0.7546771E-02  0.1179068E+00
         21   -1    0    0  504  501  0.00000000000E+00  0.00000000000E+00  0.48867410401E+03  0.48867410401E+03  0.00000000000E+00 0. -1.
         21   -1    0    0  505  502 -0.00000000000E+00 -0.00000000000E+00 -0.63861512052E+02  0.63861512052E+02  0.00000000000E+00 0. -1.
         21    1    1    2  503  501  0.52336351302E+02 -0.25902890767E+02  0.80180883568E+02  0.99191872184E+02  0.00000000000E+00 0. -1.
         21    1    1    2  504  506 -0.47851145977E+02 -0.73920340828E+01  0.82606372595E+02  0.95750650821E+02  0.00000000000E+00 0. -1.
         21    1    1    2  505  503  0.93247256601E+02 -0.36995499461E+02  0.46159586878E+02  0.11042837183E+03  0.00000000000E+00 0. -1.
         21    1    1    2  506  502 -0.97732461926E+02  0.70290424311E+02  0.21586574891E+03  0.24716472122E+03  0.00000000000E+00 0. -1.
<scales pt_clust_3="40.57286" pt_clust_4="36.73153" pt_clust_5="167.26844" pt_clust_6="36.73153"></scales>
<clustering>
<clus scale="   36.732">  4  6 -1 -1</clus>
<clus scale="   40.573">  3  5 -1 -1</clus>
<clus scale="  167.268">  2  3  1 -1</clus>
<clus scale="  168.835">  1  3  2 -1</clus>
</clustering>
</event>
<event>
 6    0  0.4469832E+002  0.9893986E+02  0.7546771E-02  0.1282541E+00
         21   -1    0    0  506  501  0.00000000000E+00  0.00000000000E+00  0.21137019137E+03  0.21137019137E+03  0.00000000000E+00 0. -1.
         21   -1    0    0  504  502 -0.00000000000E+00 -0.00000000000E+00 -0.24063283053E+03  0.24063283053E+03  0.00000000000E+00 0. -1.
         21    1    1    2  503  501  0.99667806846E+02 -0.27012773896E+01  0.15461562219E+03  0.18397543109E+03  0.00000000000E+00 0. -1.
         21    1    1    2  504  503 -0.90036248871E+02  0.11868169641E+01 -0.15910504425E+03  0.18281780480E+03  0.00000000000E+00 0. -1.
         21    1    1    2  505  502  0.17227355891E+02 -0.29695002803E+02 -0.27438166464E+02  0.43948014305E+02  0.00000000000E+00 0.  1.
         21    1    1    2  506  505 -0.26858913865E+02  0.31209463229E+02  0.26649493678E+01  0.41261771704E+02  0.00000000000E+00 0. -1.
<scales pt_clust_3="98.93986" pt_clust_4="14000.00000" pt_clust_5="34.33038" pt_clust_6="38.00263"></scales>
<clustering>
<clus scale="   34.330">  2  5  1 -1</clus>
<clus scale="   38.003">  2  6  1 -1</clus>
<clus scale="   98.940">  1  3  2 -1</clus>
<clus scale="   98.940">  1  3  2 -1</clus>
</clustering>
</event>
<event>
 6    0  0.4469832E+002  0.2084737E+03  0.7546771E-02  0.1142780E+00
         21   -1    0    0  503  501  0.00000000000E+00  0.00000000000E+00  0.12538058541E+04  0.12538058541E+04  0.00000000000E+00 0. -1.
         21   -1    0    0  505  502 -0.00000000000E+00 -0.00000000000E+00 -0.40204556028E+03  0.40204556028E+03  0.00000000000E+00 0.  1.
         21    1    1    2  503  504 -0.19730971889E+03  0.19924941404E+03  0.10417167586E+04  0.10787980623E+04  0.00000000000E+00 0. -1.
         21    1    1    2  504  502  0.15914505808E+03 -0.11485236828E+03 -0.26422361535E+03  0.32913877760E+03  0.00000000000E+00 0.  1.
         21    1    1    2  505  506 -0.13910810856E+02 -0.32440173319E+02 -0.74230506989E+02  0.82195156009E+02  0.00000000000E+00 0.  1.
         21    1    1    2  506  501  0.52075471674E+02 -0.51956872446E+02  0.14849765752E+03  0.16571941840E+03  0.00000000000E+00 0. -1.
<scales pt_clust_3="208.47368" pt_clust_4="14000.00000" pt_clust_5="35.29696" pt_clust_6="73.91457"></scales>
<clustering>
<clus scale="   35.297">  2  5  1 -1</clus>
<clus scale="   73.915">  1  6  2 -1</clus>
<clus scale="  208.474">  1  3  2 -1</clus>
<clus scale="   73.915">  1  3  2 -1</clus>
</clustering>
</event>
<event>
 6    0  0.4469832E+002  0.7066082E+02  0.7546771E-02  0.1357860E+00
         21   -1    0    0  506  501  0.00000000000E+00  0.00000000000E+00  0.15107288447E+04  0.15107288447E+04  0.00000000000E+00 0.  1.
         21   -1    0    0  503  502 -0.00000000000E+00 -0.00000000000E+00 -0.40734661344E+03  0.40734661344E+03  0.00000000000E+00 0. -1.
         21    1    1    2  503  505  0.37548091613E+02  0.66039623372E+02 -0.14324869959E+03  0.16214586326E+03  0.00000000000E+00 0. -1.
         21    1    1    2  504  501  0.52054972949E+02 -0.44113553557E+02  0.14880609795E+04  0.14896245179E+04  0.00000000000E+00 0.  1.
         21    1    1    2  505  504 -0.52614748201E+02 -0.43251635195E+02 -0.12597864019E+03  0.14321184818E+03  0.00000000000E+00 0. -1.
         21    1    1    2  506  502 -0.36988316361E+02  0.21325565380E+02 -0.11545140838E+03  0.12309322883E+03  0.00000000000E+00 0. -1.
<scales pt_clust_3="14000.00000" pt_clust_4="68.11889" pt_clust_5="70.66082" pt_clust_6="42.69561"></scales>
<clustering>
<clus scale="   42.696">  2  6  1 -1</clus>
<clus scale="   68.119">  1  4  2 -1</clus>
<clus scale="   70.661">  1  5  2 -1</clus>
<clus scale="   68.119">  1  3  2 -1</clus>
</clustering>
</event>
<event>
 6    0  0.4469832E+002  0.8178621E+02  0.7546771E-02  0.1324058E+00
         21   -1    0    0  503  501  0.00000000000E+00  0.00000000000E+00  0.98389097885E+03  0.98389097885E+03  0.00000000000E+00 0. -1.
         21   -1    0    0  506  502 -0.00000000000E+00 -0.00000000000E+00 -0.13619133214E+03  0.13619133214E+03  0.00000000000E+00 0.  1.
         21    1    1    2  503  504  0.29719967109E+01  0.32361276835E+02  0.72560012987E+03  0.72632749739E+03  0.00000000000E+00 0. -1.
         21    1    1    2  504  502 -0.23126642976E+02  0.30953416411E+02  0.37600367899E+02  0.53914221398E+02  0.00000000000E+00 0.  1.
         21    1    1    2  505  501  0.65344746901E+02 -0.12616056949E+03  0.17194896799E+03  0.22305352012E+03  0.00000000000E+00 0.  1.
         21    1    1    2  506  505 -0.45190100636E+02  0.62845876244E+02 -0.87449819049E+02  0.11678707209E+03  0.00000000000E+00 0.  1.
<scales pt_clust_3="32.49746" pt_clust_4="43.09541" pt_clust_5="81.78621" pt_clust_6="14000.00000"></scales>
<clustering>
<clus scale="   32.497">  1  3  2 -1</clus>
<clus scale="   43.095">  1  4  2 -1</clus>
<clus scale="   81.786">  1  5  2 -1</clus>
<clus scale="   32.497">  1  3  2 -1</clus>
</clustering>
</event>
<event>
 6    0  0.4469832E+002  0.9326021E+02  0.7546771E-02  0.1295143E+00
         21   -1    0    0  504  501  0.00000000000E+00  0.00000000000E+00  0.10743132129E+04  0.10743132129E+04  0.00000000000E+00 0.  1.
         21   -1    0    0  505  502 -0.00000000000E+00 -0.00000000000E+00 -0.12970382420E+03  0.12970382420E+03  0.00000000000E+00 0.  1.
         21    1    1    2  503  502 -0.20630455699E+02  0.36756245318E+02 -0.69999585891E+02  0.81710337761E+02  0.00000000000E+00 0.  1.
         21    1    1    2  504  503 -0.28297667065E+02  0.20046374540E+02  0.51525589981E+03  0.51642158881E+03  0.00000000000E+00 0.  1.
         21    1    1    2  505  506  0.25203885048E+02  0.59161998345E+02 -0.24507455388E+02  0.68818553017E+02  0.00000000000E+00 0.  1.
         21    1    1    2  506  501  0.23724237716E+02 -0.11596461820E+03  0.52386053015E+03  0.53706655750E+03  0.00000000000E+00 0.  1.
<scales pt_clust_3="42.47896" pt_clust_4="34.67874" pt_clust_5="14000.00000" pt_clust_6="93.26021"></scales>
<clustering>
<clus scale="   34.679">  1  4  2 -1</clus>
<clus scale="   42.479">  2  3  1 -1</clus>
<clus scale="   93.260">  1  6  2 -1</clus>
<clus scale="   34.679">  1  3  2 -1</clus>
</clustering>
</event>
<event>
 6    0  0.4469832E+002  0.8777258E+02  0.7546771E-02  0.1308337E+00
         21   -1    0    0  503  501  0.00000000000E+00  0.00000000000E+00  0.37258274569E+03  0.37258274569E+03  0.00000000000E+00 0. -1.
         21   -1    0    0  504  502 -0.00000000000E+00 -0.00000000000E+00 -0.53490084207E+03  0.53490084207E+03  0.00000000000E+00 0.  1.
         21    1    1    2  503  506  0.74215812336E+02  0.61543853174E+02  0.28288093472E+03  0.29885992688E+03  0.00000000000E+00 0. -1.
         21    1    1    2  504  501 -0.64558533451E+02  0.24516925592E+02 -0.21480938807E+02  0.72320914083E+02  0.00000000000E+00 0. -1.
         21    1    1    2  505  502 -0.63556498814E+02 -0.16094740741E+02 -0.44138976072E+03  0.44623243953E+03  0.00000000000E+00 0.  1.
         21    1    1    2  506  505  0.53899219929E+02 -0.69966038025E+02  0.17671668420E+02  0.90070307263E+02  0.00000000000E+00 0.  1.
<scales pt_clust_3="87.77258" pt_clust_4="14000.00000" pt_clust_5="65.56271" pt_clust_6="81.55686"></scales>
<clustering>
<clus scale="   65.563">  2  5  1 -1</clus>
<clus scale="   81.557">  2  6  1 -1</clus>
<clus scale="   87.773">  1  3  2 -1</clus>
<clus scale="   87.773">  1  3  2 -1</clus>
</clustering>
</event>
<event>
 6    0  0.4469832E+002  0.1257159E+03  0.7546771E-02  0.1233955E+00
         21   -1    0    0  505  501  0.00000000000E+00  0.00000000000E+00  0.67025003532E+03  0.67025003532E+03  0.00000000000E+00 0. -1.
         21   -1    0    0  506  502 -0.00000000000E+00 -0.00000000000E+00 -0.82583906898E+03  0.82583906898E+03  0.00000000000E+00 0. -1.
         21    1    1    2  503  502 -0.30598766717E+01 -0.42698384812E+02 -0.49915435972E+03  0.50098661633E+03  0.00000000000E+00 0. -1.
         21    1    1    2  504  501 -0.35754908396E+02 -0.58974903335E+02  0.10057685294E+02  0.69696554658E+02  0.00000000000E+00 0. -1.
         21    1    1    2  505  503  0.73728478160E+02  0.11985255471E+03  0.62023112799E+03  0.63599306245E+03  0.00000000000E+00 0. -1.
         21    1    1    2  506  504 -0.34913693092E+02 -0.18179266564E+02 -0.28672348721E+03  0.28941287086E+03  0.00000000000E+00 0.  1.
<scales pt_clust_3="69.38756" pt_clust_4="14000.00000" pt_clust_5="125.71587" pt_clust_6="39.36308"></scales>
<clustering>
<clus scale="   39.363">  2  6  1 -1</clus>
<clus scale="   69.388">  2  3  1 -1</clus>
<clus scale="  125.716">  1  5  2 -1</clus>
<clus scale="  125.716">  1  3  2 -1</clus>
</clustering>
</event>
<event>
 6    0  0.4469832E+002  0.8876061E+02  0.7546771E-02  0.1305881E+00
         21   -1    0    0  503  501  0.00000000000E+00  0.00000000000E+00  0.10508882119E+03  0.10508882119E+03  0.00000000000E+00 0.  1.
         21   -1    0    0  505  502 -0.00000000000E+00 -0.00000000000E+00 -0.25048425768E+04  0.25048425768E+04  0.00000000000E+00 0.  1.
         21    1    1    2  503  502  0.36277117970E+02 -0.10595855217E+02 -0.23223079131E+03  0.23528587265E+03  0.00000000000E+00 0.  1.
         21    1    1    2  504  506 -0.12614623192E+03  0.12881320967E+02 -0.75284401962E+03  0.76344804547E+03  0.00000000000E+00 0.  1.
         21    1    1    2  505  504  0.42973519502E+02 -0.37158114825E+02 -0.15036646021E+04  0.15047374138E+04  0.00000000000E+00 0.  1.
         21    1    1    2  506  501  0.46895594447E+02  0.34872649075E+02  0.88985657442E+02  0.10646006605E+03  0.00000000000E+00 0.  1.
<scales pt_clust_3="37.79288" pt_clust_4="14000.00000" pt_clust_5="88.76061" pt_clust_6="58.52834"></scales>
<clustering>
<clus scale="   37.793">  2  3  1 -1</clus>
<clus scale="   58.528">  1  6  2 -1</clus>
<clus scale="   88.761">  2  5  1 -1</clus>
<clus scale="   58.528">  1  3  2 -1</clus>
</clustering>
</event>
<event>
 6    0  0.4469832E+002  0.9254126E+02  0.7546771E-02  0.1296812E+00
         21   -1    0    0  504  501  0.00000000000E+00  0.00000000000E+00  0.20533483345E+04  0.20533483345E+04  0.00000000000E+00 0. -1.
         21   -1    0    0  506  502 -0.00000000000E+00 -0.00000000000E+00 -0.41594303458E+03  0.41594303458E+03  0.00000000000E+00 0.  1.
         21    1    1    2  503  501 -0.11049043289E+02 -0.48576637565E+02  0.17682574999E+04  0.17689591168E+04  0.00000000000E+00 0. -1.
         21    1    1    2  504  505  0.85497740827E+02  0.10327760173E+03  0.23156418292E+03  0.26757820823E+03  0.00000000000E+00 0. -1.
         21    1    1    2  505  502 -0.52963800650E+02  0.20942438588E+02 -0.34822071879E+03  0.35284758594E+03  0.00000000000E+00 0.  1.
         21    1    1    2  506  503 -0.21484896888E+02 -0.75643402750E+02 -0.14195664056E+02  0.79906458136E+02  0.00000000000E+00 0. -1.
<scales pt_clust_3="49.81738" pt_clust_4="14000.00000" pt_clust_5="56.89369" pt_clust_6="92.54126"></scales>
<clustering>
<clus scale="   49.817">  1  3  2 -1</clus>
<clus scale="   56.894">  2  5  1 -1</clus>
<clus scale="   92.541">  2  6  1 -1</clus>
<clus scale="   49.817">  1  3  2 -1</clus>
</clustering>
</event>
<event>
 6    0  0.4469832E+002  0.1257856E+03  0.7546771E-02  0.1233847E+00
         21   -1    0    0  505  501  0.00000000000E+00  0.00000000000E+00  0.21687459055E+03  0.21687459055E+03  0.00000000000E+00 0.  1.
         21   -1    0    0  506  502 -0.00000000000E+00 -0.00000000000E+00 -0.49312612077E+03  0.49312612077E+03  0.00000000000E+00 0.  1.
         21    1    1    2  503  502  0.57781754346E+02  0.28265305954E+02 -0.23683101752E+03  0.24541106233E+03  0.00000000000E+00 0.  1.
         21    1    1    2  504  503  0.36244525410E+02  0.44461793042E+02 -0.14535767640E+03  0.15626698548E+03  0.00000000000E+00 0.  1.
         21    1    1    2  505  504 -0.18216208178E+02  0.43775414420E+02  0.15409141658E+03  0.16122122010E+03  0.00000000000E+00 0.  1.
         21    1    1    2  506  501 -0.75810071577E+02 -0.11650251342E+03 -0.48154252877E+02  0.14710144342E+03  0.00000000000E+00 0.  1.
<scales pt_clust_3="31.98064" pt_clust_4="31.98064" pt_clust_5="47.41431" pt_clust_6="121.14092"></scales>
<clustering>
<clus scale="   31.981">  3  4 -1 -1</clus>
<clus scale="   47.414">  1  5  2 -1</clus>
<clus scale="  121.141">  1  6  2 -1</clus>
<clus scale="   47.414">  1  3  2 -1</clus>
</clustering>
</event>
<event>
 6    0  0.4469832E+002  0.6754225E+02  0.7546771E-02  0.1368656E+00
         21   -1    0    0  503  501  0.00000000000E+00  0.00000000000E+00  0.10736783602E+04  0.10736783602E+04  0.00000000000E+00 0. -1.
         21   -1    0    0  505  502 -0.00000000000E+00 -0.00000000000E+00 -0.55090203597E+03  0.55090203597E+03  0.00000000000E+00 0. -1.
         21    1    1    2  503  502  0.93567618371E+02 -0.44148789465E+02 -0.51996589637E+03  0.53015898390E+03  0.00000000000E+00 0. -1.
         21    1    1    2  504  501  0.48108884030E+02 -0.19880112829E+02  0.51487526140E+03  0.51749996948E+03  0.00000000000E+00 0. -1.
         21    1    1    2  505  506 -0.29929333416E+02  0.37647940264E+02  0.13583255048E+02  0.49976366640E+02  0.00000000000E+00 0.  1.
         21    1    1    2  506  504 -0.11174716898E+03  0.26380962030E+02  0.51428370416E+03  0.52694507617E+03  0.00000000000E+00 0. -1.
<scales pt_clust_3="67.54225" pt_clust_4="51.95109" pt_clust_5="48.09504" pt_clust_6="14000.00000"></scales>
<clustering>
<clus scale="   48.095">  2  5  1 -1</clus>
<clus scale="   51.951">  1  4  2 -1</clus>
<clus scale="   67.542">  2  3  1 -1</clus>
<clus scale="   51.951">  1  3  2 -1</clus>
</clustering>
</event>
<event>
 6    0  0.4469832E+002  0.5814448E+02  0.7546771E-02  0.1405788E+00
         21   -1    0    0  503  501  0.00000000000E+00  0.00000000000E+00  0.14431497409E+03  0.14431497409E+03  0.00000000000E+00 0. -1.
         21   -1    0    0  506  502 -0.00000000000E+00 -0.00000000000E+00 -0.19761202252E+03  0.19761202252E+03  0.00000000000E+00 0. -1.
         21    1    1    2  503  504 -0.33554346500E+02 -0.35299508846E+02  0.83296147697E+02  0.96489365813E+02  0.00000000000E+00 0. -1.
         21    1    1    2  504  505  0.52045015452E+02 -0.29568591474E+02 -0.38712575329E+02  0.71285683863E+02  0.00000000000E+00 0. -1.
         21    1    1    2  505  502 -0.48739510219E+02 -0.19607067030E+02 -0.49642327694E+02  0.72279579639E+02  0.00000000000E+00 0. -1.
         21    1    1    2  506  501  0.30248841266E+02  0.84475167350E+02 -0.48238293098E+02  0.10187236729E+03  0.00000000000E+00 0. -1.
<scales pt_clust_3="48.70266" pt_clust_4="58.09390" pt_clust_5="14000.00000" pt_clust_6="58.14448"></scales>
<clustering>
<clus scale="   48.703">  1  3  2 -1</clus>
<clus scale="   58.094">  1  4  2 -1</clus>
<clus scale="   58.144">  1  6  2 -1</clus>
<clus scale="   48.703">  1  3  2 -1</clus>
</clustering>
</event>
<event>
 6    0  0.4469832E+002  0.8921329E+02  0.7546771E-02  0.1304768E+00
         21   -1    0    0  506  501  0.00000000000E+00  0.00000000000E+00  0.91469392994E+03  0.91469392994E+03  0.00000000000E+00 0. -1.
         21   -1    0    0  504  502 -0.00000000000E+00 -0.00000000000E+00 -0.22619505911E+03  0.22619505911E+03  0.00000000000E+00 0. -1.
         21    1    1    2  503  502  0.13396518843E+03  0.19545098857E+02 -0.12203690526E+03  0.18226817837E+03  0.00000000000E+00 0. -1.
         21    1    1    2  504  505 -0.29960447531E+02  0.38454138568E+01  0.13562282836E+02  0.33111193571E+02  0.00000000000E+00 0. -1.
         21    1    1    2  505  501 -0.53646129713E+02  0.15252729542E+02  0.84442027206E+03  0.84626009528E+03  0.00000000000E+00 0. -1.
         21    1    1    2  506  503 -0.50358611183E+02 -0.38643242256E+02 -0.47446778807E+02  0.79249521838E+02  0.00000000000E+00 0. -1.
<scales pt_clust_3="14000.00000" pt_clust_4="30.20622" pt_clust_5="55.89930" pt_clust_6="89.21329"></scales>
<clustering>
<clus scale="   30.206">  2  4  1 -1</clus>
<clus scale="   55.899">  1  5  2 -1</clus>
<clus scale="   89.213">  1  6  2 -1</clus>
<clus scale="   55.899">  1  3  2 -1</clus>
</clustering>
</event>
<event>
 6    0  0.4469832E+002  0.1133141E+03  0.7546771E-02  0.1254553E+00
         21   -1    0    0  505  501  0.00000000000E+00  0.00000000000E+00  0.89829491696E+03  0.89829491696E+03  0.00000000000E+00 0. -1.
         21   -1    0    0  504  502 -0.00000000000E+00 -0.00000000000E+00 -0.38893110062E+03  0.38893110062E+03  0.00000000000E+00 0.  1.
         21    1    1    2  503  501 -0.57934557364E+02 -0.99865870473E+01  0.28853754681E+03  0.29446572089E+03  0.00000000000E+00 0. -1.
         21    1    1    2  504  506 -0.51942847282E+02 -0.78737972034E+02 -0.29091700926E+03  0.30582745773E+03  0.00000000000E+00 0.  1.
         21    1    1    2  505  502  0.51120908341E+01  0.11761856598E+03  0.55692915157E+03  0.56923662954E+03  0.00000000000E+00 0. -1.
         21    1    1    2  506  503  0.10476531381E+03 -0.28894006902E+02 -0.45185872786E+02  0.11769620942E+03  0.00000000000E+00 0. -1.
<scales pt_clust_3="58.78899" pt_clust_4="94.82361" pt_clust_5="14000.00000" pt_clust_6="113.31407"></scales>
<clustering>
<clus scale="   58.789">  1  3  2 -1</clus>
<clus scale="   94.824">  2  4  1 -1</clus>
<clus scale="  113.314">  2  6  1 -1</clus>
<clus scale="   58.789">  1  3  2 -1</clus>
</clustering>
</event>
<event>
 6    0  0.4469832E+002  0.2312710E+03  0.7546771E-02  0.1125748E+00
         21   -1    0    0  503  501  0.00000000000E+00  0.00000000000E+00  0.73619300130E+03  0.73619300130E+03  0.00000000000E+00 0.  1.
         21   -1    0    0  505  502 -0.00000000000E+00 -0.00000000000E+00 -0.30827472140E+03  0.30827472140E+03  0.00000000000E+00 0.  1.
         21    1    1    2  503  506 -0.30299439592E+02 -0.32224993759E+02  0.16418504383E+03  0.17003892166E+03  0.00000000000E+00 0.  1.
         21    1    1    2  504  501  0.24167760591E+02  0.25593537088E+02  0.21446937747E+02  0.41219909406E+02  0.00000000000E+00 0.  1.
         21    1    1    2  505  504 -0.55346673379E+02  0.22502495878E+03 -0.21919179226E+03  0.31897418096E+03  0.00000000000E+00 0.  1.
         21    1    1    2  506  502  0.61478352380E+02 -0.21839350211E+03  0.46147809058E+03  0.51423471067E+03  0.00000000000E+00 0.  1.
<scales pt_clust_3="35.88679" pt_clust_4="35.20099" pt_clust_5="231.27098" pt_clust_6="14000.00000"></scales>
<clustering>
<clus scale="   35.201">  1  4  2 -1</clus>
<clus scale="   35.887">  1  3  2 -1</clus>
<clus scale="  231.271">  2  5  1 -1</clus>
<clus scale="   35.201">  1  3  2 -1</clus>
</clustering>
</event>
<event>
 6    0  0.4469832E+002  0.7841144E+02  0.7546771E-02  0.1333621E+00
         21   -1    0    0  506  501  0.00000000000E+00  0.00000000000E+00  0.21706550838E+04  0.21706550838E+04  0.00000000000E+00 0. -1.
         21   -1    0    0  503  502 -0.00000000000E+00 -0.00000000000E+00 -0.16513654127E+02  0.16513654127E+02  0.00000000000E+00 0. -1.
         21    1    1    2  503  504  0.35480566672E+02 -0.75800250405E+02  0.25262597483E+03  0.26612859999E+03  0.00000000000E+00 0. -1.
         21    1    1    2  504  505 -0.59036184536E+02  0.76520616959E+02  0.11602050596E+04  0.11642235422E+04  0.00000000000E+00 0. -1.
         21    1    1    2  505  501 -0.15186912846E+00 -0.33316513379E+02  0.69343021681E+03  0.69423013383E+03  0.00000000000E+00 0.  1.
         21    1    1    2  506  502  0.23707486993E+02  0.32596146825E+02  0.47880178436E+02  0.62586461910E+02  0.00000000000E+00 0. -1.
<scales pt_clust_3="14000.00000" pt_clust_4="78.41144" pt_clust_5="33.31686" pt_clust_6="39.30146"></scales>
<clustering>
<clus scale="   33.317">  1  5  2 -1</clus>
<clus scale="   39.301">  2  6  1 -1</clus>
<clus scale="   78.411">  1  4  2 -1</clus>
<clus scale="   33.317">  1  3  2 -1</clus>
</clustering>
</event>
<event>
 6    0  0.4469832E+002  0.1285877E+03  0.7546771E-02  0.1229567E+00
         21   -1    0    0  506  501  0.00000000000E+00  0.00000000000E+00  0.50649219505E+03  0.50649219505E+03  0.00000000000E+00 0. -1.
         21   -1    0    0  503  502 -0.00000000000E+00 -0.00000000000E+00 -0.50330581966E+03  0.50330581966E+03  0.00000000000E+00 0.  1.
         21    1    1    2  503  504  0.93630834690E+02 -0.88633832052E+02 -0.46420298643E+03  0.48177494954E+03  0.00000000000E+00 0.  1.
         21    1    1    2  504  505 -0.41509137088E+02  0.34161749907E+02  0.30644946034E+02  0.61880096444E+02  0.00000000000E+00 0. -1.
         21    1    1    2  505  501  0.37440480014E+02 -0.16206460647E+02  0.60421374798E+02  0.72905290912E+02  0.00000000000E+00 0. -1.
         21    1    1    2  506  502 -0.89562177616E+02  0.70678542793E+02  0.37632304100E+03  0.39323767782E+03  0.00000000000E+00 0. -1.
<scales pt_clust_3="128.58769" pt_clust_4="49.64923" pt_clust_5="40.79754" pt_clust_6="14000.00000"></scales>
<clustering>
<clus scale="   40.798">  1  5  2 -1</clus>
<clus scale="   49.649">  1  4  2 -1</clus>
<clus scale="  128.588">  2  3  1 -1</clus>
<clus scale="   40.798">  1  3  2 -1</clus>
</clustering>
</event>
<event>
 6    0  0.4469832E+002  0.9077534E+02  0.7546771E-02  0.1300985E+00
         21   -1    0    0  505  501  0.00000000000E+00  0.00000000000E+00  0.10298402491E+04  0.10298402491E+04  0.00000000000E+00 0. -1.
         21   -1    0    0  501  502 -0.00000000000E+00 -0.00000000000E+00 -0.54707600807E+02  0.54707600807E+02  0.00000000000E+00 0. -1.
         21    1    1    2  503  502 -0.19183925983E+02  0.35883824527E+02 -0.10156405680E+02  0.41938341111E+02  0.00000000000E+00 0. -1.
         21    1    1    2  504  506  0.11648887992E+02 -0.90070488776E+02  0.10882712109E+03  0.14174530618E+03  0.00000000000E+00 0. -1.
         21    1    1    2  505  504  0.63864924779E+02  0.71133922878E+02  0.79308128810E+03  0.79882206600E+03  0.00000000000E+00 0. -1.
         21    1    1    2  506  503 -0.56329886788E+02 -0.16947258630E+02  0.83380644811E+02  0.10204213664E+03  0.00000000000E+00 0. -1.
<scales pt_clust_3="40.68995" pt_clust_4="14000.00000" pt_clust_5="90.77534" pt_clust_6="62.79657"></scales>
<clustering>
<clus scale="   40.690">  2  3  1 -1</clus>
<clus scale="   62.797">  2  6  1 -1</clus>
<clus scale="   90.775">  1  5  2 -1</clus>
<clus scale="   90.775">  1  3  2 -1</clus>
</clustering>
</event>
<event>
 6    0  0.4469832E+002  0.9178485E+02  0.7546771E-02  0.1298586E+00
         21   -1    0    0  504  501  0.00000000000E+00  0.00000000000E+00  0.11544349458E+03  0.11544349458E+03  0.00000000000E+00 0.  1.
         21   -1    0    0  503  502 -0.00000000000E+00 -0.00000000000E+00 -0.20739194894E+03  0.20739194894E+03  0.00000000000E+00 0.  1.
         21    1    1    2  503  506  0.40965002011E+01  0.35231677075E+02 -0.59257245199E+02  0.69061374820E+02  0.00000000000E+00 0.  1.
         21    1    1    2  504  505 -0.26210108232E+02  0.42287988604E+02 -0.32189592651E+01  0.49855846722E+02  0.00000000000E+00 0.  1.
         21    1    1    2  505  502 -0.70466914062E+02 -0.78533920317E+02  0.36739061488E+01  0.10557774483E+03  0.00000000000E+00 0.  1.
         21    1    1    2  506  501  0.92580522093E+02  0.10142546383E+01 -0.33146156041E+02  0.98340477138E+02  0.00000000000E+00 0.  1.
<scales pt_clust_3="35.46903" pt_clust_4="55.05194" pt_clust_5="14000.00000" pt_clust_6="91.78485"></scales>
<clustering>
<clus scale="   35.469">  2  3  1 -1</clus>
<clus scale="   55.052">  1  4  2 -1</clus>
<clus scale="   91.785">  2  6  1 -1</clus>
<clus scale="   55.052">  1  3  2 -1</clus>
</clustering>
</event>
<event>
 6    0  0.4469832E+002  0.1315295E+03  0.7546771E-02  0.1225204E+00
         21   -1    0    0  503  501  0.00000000000E+00  0.00000000000E+00  0.92784175173E+02  0.92784175173E+02  0.00000000000E+00 0.  1.
         21   -1    0    0  505  502 -0.00000000000E+00 -0.00000000000E+00 -0.36306359831E+03  0.36306359831E+03  0.00000000000E+00 0. -1.
         21    1    1    2  503  502  0.53718142333E+01  0.12971567400E+03 -0.41112108166E+02  0.13618082797E+03  0.00000000000E+00 0.  1.
         21    1    1    2  504  501  0.27198067182E+02 -0.22253471340E+02  0.19228574435E+02  0.40058581102E+02  0.00000000000E+00 0. -1.
         21    1    1    2  505  506 -0.40928552182E+02 -0.32737824814E+02 -0.11738107393E+03  0.12855048842E+03  0.00000000000E+00 0. -1.
         21    1    1    2  506  504  0.83586707672E+01 -0.74724377848E+02 -0.13101481548E+03  0.15105787599E+03  0.00000000000E+00 0. -1.
<scales pt_clust_3="115.88192" pt_clust_4="35.14188" pt_clust_5="50.32003" pt_clust_6="50.32003"></scales>
<clustering>
<clus scale="   35.142">  1  4  2 -1</clus>
<clus scale="   50.320">  5  6 -1 -1</clus>
<clus scale="  115.882">  1  3  2 -1</clus>
<clus scale="   35.142">  1  3  2 -1</clus>
</clustering>
</event>
<event>
 6    0  0.4469832E+002  0.1163384E+03  0.7546771E-02  0.1249263E+00
         21   -1    0    0  504  501  0.00000000000E+00  0.00000000000E+00  0.28119616687E+03  0.28119616687E+03  0.00000000000E+00 0. -1.
         21   -1    0    0  503  502 -0.00000000000E+00 -0.00000000000E+00 -0.33861225862E+03  0.33861225862E+03  0.00000000000E+00 0. -1.
         21    1    1    2  503  506 -0.15668395767E+02  0.12611932212E+03 -0.12767479515E+03  0.18014559488E+03  0.00000000000E+00 0. -1.
         21    1    1    2  504  505 -0.60225206605E+02 -0.63974923315E+01  0.27577744519E+02  0.66547241952E+02  0.00000000000E+00 0. -1.
         21    1    1    2  505  502 -0.45138873024E+02 -0.31715032097E+02 -0.13202087409E+03  0.14308344529E+03  0.00000000000E+00 0. -1.
         21    1    1    2  506  501  0.12103247540E+03 -0.88006797696E+02  0.17470183297E+03  0.23003214338E+03  0.00000000000E+00 0. -1.
<scales pt_clust_3="14000.00000" pt_clust_4="65.29020" pt_clust_5="55.16667" pt_clust_6="116.33837"></scales>
<clustering>
<clus scale="   55.167">  2  5  1 -1</clus>
<clus scale="   65.290">  1  4  2 -1</clus>
<clus scale="  116.338">  1  6  2 -1</clus>
<clus scale="   65.290">  1  3  2 -1</clus>
</clustering>
</event>
<event>
 6    0  0.4469832E+002  0.7771156E+02  0.7546771E-02  0.1335674E+00
         21   -1    0    0  505  501  0.00000000000E+00  0.00000000000E+00  0.30126140764E+02  0.30126140764E+02  0.00000000000E+00 0. -1.
         21   -1    0    0  506  502 -0.00000000000E+00 -0.00000000000E+00 -0.19530930325E+04  0.19530930325E+04  0.00000000000E+00 0. -1.
         21    1    1    2  503  504  0.19495057042E+02  0.57657647650E+02 -0.45570019995E+03  0.45974681491E+03  0.00000000000E+00 0. -1.
         21    1    1    2  504  501  0.60851514658E+02 -0.27729715357E+02 -0.44123651342E+02  0.80117042867E+02  0.00000000000E+00 0. -1.
         21    1    1    2  505  502 -0.67708694482E+01  0.32194933183E+02 -0.23563973457E+02  0.40467508458E+02  0.00000000000E+00 0.  1.
         21    1    1    2  506  503 -0.73575702252E+02 -0.62122865475E+02 -0.13995790670E+04  0.14028878070E+04  0.00000000000E+00 0. -1.
<scales pt_clust_3="77.71156" pt_clust_4="55.23853" pt_clust_5="32.89922" pt_clust_6="14000.00000"></scales>
<clustering>
<clus scale="   32.899">  1  5  2 -1</clus>
<clus scale="   55.239">  1  4  2 -1</clus>
<clus scale="   77.712">  1  3  2 -1</clus>
<clus scale="   32.899">  1  3  2 -1</clus>
</clustering>
</event>
<event>
 6    0  0.4469832E+002  0.8550263E+02  0.7546771E-02  0.1314123E+00
         21   -1    0    0  504  501  0.00000000000E+00  0.00000000000E+00  0.35241903239E+03  0.35241903239E+03  0.00000000000E+00 0. -1.
         21   -1    0    0  506  502 -0.00000000000E+00 -0.00000000000E+00 -0.36637648872E+03  0.36637648872E+03  0.00000000000E+00 0.  1.
         21    1    1    2  503  501 -0.33572641708E+01 -0.47850679296E+02  0.65980359373E+02  0.81574300824E+02  0.00000000000E+00 0.  1.
         21    1    1    2  504  502  0.41855269471E+02  0.12905065026E+03  0.24479544917E+03  0.27987630455E+03  0.00000000000E+00 0. -1.
         21    1    1    2  505  503 -0.33797079453E+02 -0.47663626505E+02 -0.40481741080E+02  0.71083297842E+02  0.00000000000E+00 0.  1.
         21    1    1    2  506  505 -0.47009258471E+01 -0.33536344457E+02 -0.28425152379E+03  0.28626161789E+03  0.00000000000E+00 0.  1.
<scales pt_clust_3="51.21592" pt_clust_4="85.50263" pt_clust_5="14000.00000" pt_clust_6="33.86422"></scales>
<clustering>
<clus scale="   33.864">  2  6  1 -1</clus>
<clus scale="   51.216">  1  3  2 -1</clus>
<clus scale="   85.503">  1  4  2 -1</clus>
<clus scale="   51.216">  1  3  2 -1</clus>
</clustering>
</event>
<event>
 6    0  0.4469832E+002  0.8902034E+02  0.7546771E-02  0.1305242E+00
         21   -1    0    0  504  501  0.00000000000E+00  0.00000000000E+00  0.10647616161E+03  0.10647616161E+03  0.00000000000E+00 0. -1.
         21   -1    0    0  506  502 -0.00000000000E+00 -0.00000000000E+00 -0.28863904515E+03  0.28863904515E+03  0.00000000000E+00 0.  1.
         21    1    1    2  503  505 -0.20465587063E+02 -0.54602908911E+02  0.34033180768E+02  0.67517222310E+02  0.00000000000E+00 0. -1.
         21    1    1    2  504  502 -0.49212519500E+02  0.11927130291E+03 -0.15937710494E+03  0.20505749768E+03  0.00000000000E+00 0.  1.
         21    1    1    2  505  501  0.31761454990E+02 -0.42443008554E+02 -0.30562093615E+01  0.53099335343E+02  0.00000000000E+00 0.  1.
         21    1    1    2  506  503  0.37916651572E+02 -0.22225385443E+02 -0.53762750000E+02  0.69441151431E+02  0.00000000000E+00 0.  1.
<scales pt_clust_3="14000.00000" pt_clust_4="89.02034" pt_clust_5="58.05972" pt_clust_6="43.95043"></scales>
<clustering>
<clus scale="   43.950">  2  6  1 -1</clus>
<clus scale="   58.060">  1  5  2 -1</clus>
<clus scale="   89.020">  2  4  1 -1</clus>
<clus scale="   58.060">  1  3  2 -1</clus>
</clustering>
</event>
<event>
 6    0  0.4469832E+002  0.1316359E+03  0.7546771E-02  0.1225048E+00
         21   -1    0    0  506  501  0.00000000000E+00  0.00000000000E+00  0.24783427509E+03  0.24783427509E+03  0.00000000000E+00 0.  1.
         21   -1    0    0  503  502 -0.00000000000E+00 -0.00000000000E+00 -0.26118835336E+03  0.26118835336E+03  0.00000000000E+00 0. -1.
         21    1    1    2  503  501 -0.42768362876E+02  0.60982984602E+02  0.16201028830E+03  0.17831262095E+03  0.00000000000E+00 0.  1.
         21    1    1    2  504  502  0.92527524505E+02 -0.11854575437E+03 -0.19134776610E+03  0.24336886872E+03  0.00000000000E+00 0. -1.
         21    1    1    2  505  504 -0.34890902066E+02  0.11991180978E+02  0.13685253141E+02  0.39350344620E+02  0.00000000000E+00 0. -1.
         21    1    1    2  506  505 -0.14868259563E+02  0.45571588793E+02  0.22981463853E+01  0.47990794163E+02  0.00000000000E+00 0. -1.
<scales pt_clust_3="74.48528" pt_clust_4="125.47694" pt_clust_5="34.91122" pt_clust_6="34.91122"></scales>
<clustering>
<clus scale="   34.911">  5  6 -1 -1</clus>
<clus scale="   74.485">  1  3  2 -1</clus>
<clus scale="  125.477">  2  4  1 -1</clus>
<clus scale="   74.485">  1  3  2 -1</clus>
</clustering>
</event>
<event>
 6    0  0.4469832E+002  0.2000900E+03  0.7546771E-02  0.1149663E+00
         21   -1    0    0  505  501  0.00000000000E+00  0.00000000000E+00  0.42190903952E+03  0.42190903952E+03  0.00000000000E+00 0. -1.
         21   -1    0    0  503  502 -0.00000000000E+00 -0.00000000000E+00 -0.86397745706E+03  0.86397745706E+03  0.00000000000E+00 0. -1.
         21    1    1    2  503  504 -0.11335730384E+03 -0.18162968015E+03 -0.77749198635E+03  0.80643227111E+03  0.00000000000E+00 0. -1.
         21    1    1    2  504  501  0.48769664670E+02  0.14642389165E+03  0.12518544487E+03  0.19872048673E+03  0.00000000000E+00 0. -1.
         21    1    1    2  505  506  0.34366190982E+02  0.41596454546E+02  0.23501846835E+03  0.24113270326E+03  0.00000000000E+00 0. -1.
         21    1    1    2  506  502  0.30221448191E+02 -0.63906660460E+01 -0.24780344410E+02  0.39601035496E+02  0.00000000000E+00 0. -1.
<scales pt_clust_3="14000.00000" pt_clust_4="200.09002" pt_clust_5="54.00920" pt_clust_6="30.88975"></scales>
<clustering>
<clus scale="   30.890">  2  6  1 -1</clus>
<clus scale="   54.009">  1  5  2 -1</clus>
<clus scale="  200.090">  1  4  2 -1</clus>
<clus scale="   54.009">  1  3  2 -1</clus>
</clustering>
</event>
<event>
 6    0  0.4469832E+002  0.8982178E+02  0.7546771E-02  0.1303284E+00
         21   -1    0    0  506  501  0.00000000000E+00  0.00000000000E+00  0.10551234795E+04  0.10551234795E+04  0.00000000000E+00 0.  1.
         21   -1    0    0  505  502 -0.00000000000E+00 -0.00000000000E+00 -0.20740442860E+03  0.20740442860E+03  0.00000000000E+00 0.  1.
         21    1    1    2  503  501  0.71398018887E+01  0.31991389927E+02  0.82775571711E+03  0.82840446221E+03  0.00000000000E+00 0.  1.
         21    1    1    2  504  503  0.55924795165E+02 -0.31379064037E+02  0.25418952431E+02  0.68980805423E+02  0.00000000000E+00 0.  1.
         21    1    1    2  505  504  0.60540657609E+02  0.13334838715E+02 -0.15717001775E+03  0.16895385059E+03  0.00000000000E+00 0.  1.
         21    1    1    2  506  502 -0.12360525466E+03 -0.13947164605E+02  0.15171439912E+03  0.19618878989E+03  0.00000000000E+00 0.  1.
<scales pt_clust_3="32.77843" pt_clust_4="14000.00000" pt_clust_5="62.35614" pt_clust_6="89.82178"></scales>
<clustering>
<clus scale="   32.778">  1  3  2 -1</clus>
<clus scale="   62.356">  2  5  1 -1</clus>
<clus scale="   89.822">  1  6  2 -1</clus>
<clus scale="   32.778">  1  3  2 -1</clus>
</clustering>
</event>
<event>
 6    0  0.4469832E+002  0.7763600E+02  0.7546771E-02  0.1335897E+00
         21   -1    0    0  506  501  0.00000000000E+00  0.00000000000E+00  0.33808457373E+03  0.33808457373E+03  0.00000000000E+00 0.  1.
         21   -1    0    0  505  502 -0.00000000000E+00 -0.00000000000E+00 -0.25199141783E+03  0.25199141783E+03  0.00000000000E+00 0.  1.
         21    1    1    2  503  504  0.30661070420E+01  0.11737012121E+03 -0.10454922420E+03  0.15721223440E+03  0.00000000000E+00 0.  1.
         21    1    1    2  504  502 -0.63146209892E+02 -0.23577383329E+02 -0.87074528212E+02  0.11011498668E+03  0.00000000000E+00 0.  1.
         21    1    1    2  505  501  0.74827668459E+01 -0.37134150557E+02  0.37298904673E+01  0.38063749423E+02  0.00000000000E+00 0.  1.
         21    1    1    2  506  503  0.52597336004E+02 -0.56658587319E+02  0.27398701784E+03  0.28468502106E+03  0.00000000000E+00 0.  1.
<scales pt_clust_3="77.63600" pt_clust_4="71.65699" pt_clust_5="37.88056" pt_clust_6="14000.00000"></scales>
<clustering>
<clus scale="   37.881">  2  5  1 -1</clus>
<clus scale="   71.657">  2  4  1 -1</clus>
<clus scale="   77.636">  2  3  1 -1</clus>
<clus scale="   77.636">  1  3  2 -1</clus>
</clustering>
</event>
<event>
 6    0  0.4469832E+002  0.1176279E+03  0.7546771E-02  0.1247062E+00
         21   -1    0    0  504  501  0.00000000000E+00  0.00000000000E+00  0.10136897867E+04  0.10136897867E+04  0.00000000000E+00 0.  1.
         21   -1    0    0  505  502 -0.00000000000E+00 -0.00000000000E+00 -0.55860372086E+02  0.55860372086E+02  0.00000000000E+00 0.  1.
         21    1    1    2  503  506  0.85893991756E+02  0.40032511471E+02  0.73055093270E+02  0.11965544888E+03  0.00000000000E+00 0.  1.
         21    1    1    2  504  503  0.42494432749E+02  0.11110242682E+03  0.37083011878E+03  0.38944127036E+03  0.00000000000E+00 0.  1.
         21    1    1    2  505  501 -0.97026672398E+02 -0.78241177832E+02  0.41669060819E+03  0.43493323627E+03  0.00000000000E+00 0.  1.
         21    1    1    2  506  502 -0.31361752107E+02 -0.72893760457E+02  0.97253594326E+02  0.12552020323E+03  0.00000000000E+00 0. -1.
<scales pt_clust_3="68.38504" pt_clust_4="14000.00000" pt_clust_5="117.62788" pt_clust_6="79.35402"></scales>
<clustering>
<clus scale="   79.354">  2  6  1 -1</clus>
<clus scale="   68.385">  2  3  1 -1</clus>
<clus scale="  117.628">  1  5  2 -1</clus>
<clus scale="  117.628">  1  3  2 -1</clus>
</clustering>
</event>
<event>
 6    0  0.4469832E+002  0.7484477E+02  0.7546771E-02  0.1344352E+00
         21   -1    0    0  506  501  0.00000000000E+00  0.00000000000E+00  0.20864958753E+03  0.20864958753E+03  0.00000000000E+00 0.  1.
         21   -1    0    0  504  502 -0.00000000000E+00 -0.00000000000E+00 -0.23184084473E+03  0.23184084473E+03  0.00000000000E+00 0.  1.
         21    1    1    2  503  501  0.65814550827E+02  0.84368575181E+02 -0.13084825583E+02  0.10779992690E+03  0.00000000000E+00 0.  1.
         21    1    1    2  504  503 -0.36353662826E+02  0.18915041138E+02 -0.91525411698E+02  0.10028094818E+03  0.00000000000E+00 0.  1.
         21    1    1    2  505  502 -0.40963725534E+02 -0.39827302713E+02 -0.56378953581E+02  0.80267224058E+02  0.00000000000E+00 0.  1.
         21    1    1    2  506  505  0.11502837532E+02 -0.63456313606E+02  0.13779793366E+03  0.15214233313E+03  0.00000000000E+00 0.  1.
<scales pt_clust_3="74.84477" pt_clust_4="40.98009" pt_clust_5="14000.00000" pt_clust_6="63.18949"></scales>
<clustering>
<clus scale="   40.980">  2  4  1 -1</clus>
<clus scale="   63.189">  1  6  2 -1</clus>
<clus scale="   74.845">  1  3  2 -1</clus>
<clus scale="   63.189">  1  3  2 -1</clus>
</clustering>
</event>
<event>
 6    0  0.4469832E+002  0.1289380E+03  0.7546771E-02  0.1229040E+00
         21   -1    0    0  506  501  0.00000000000E+00  0.00000000000E+00  0.22873010365E+03  0.22873010365E+03  0.00000000000E+00 0.  1.
         21   -1    0    0  503  502 -0.00000000000E+00 -0.00000000000E+00 -0.63701894719E+03  0.63701894719E+03  0.00000000000E+00 0.  1.
         21    1    1    2  503  505  0.90246537777E+02  0.32377866217E+02 -0.48771433296E+03  0.49704932791E+03  0.00000000000E+00 0.  1.
         21    1    1    2  504  502 -0.48643751188E+01 -0.34562147534E+02 -0.48768454733E+02  0.59971379545E+02  0.00000000000E+00 0.  1.
         21    1    1    2  505  501  0.59130870215E+02  0.92696937060E+02  0.58189368527E+02  0.12439929486E+03  0.00000000000E+00 0.  1.
         21    1    1    2  506  504 -0.14451303287E+03 -0.90512655743E+02  0.70004575623E+02  0.18432904852E+03  0.00000000000E+00 0.  1.
<scales pt_clust_3="86.19410" pt_clust_4="34.90278" pt_clust_5="14000.00000" pt_clust_6="128.93803"></scales>
<clustering>
<clus scale="   34.903">  2  4  1 -1</clus>
<clus scale="   86.194">  2  3  1 -1</clus>
<clus scale="  128.938">  2  6  1 -1</clus>
<clus scale="  128.938">  1  3  2 -1</clus>
</clustering>
</event>
<event>
 6    0  0.4469832E+002  0.1583067E+03  0.7546771E-02  0.1190622E+00
         21   -1    0    0  503  501  0.00000000000E+00  0.00000000000E+00  0.98123603098E+03  0.98123603098E+03  0.00000000000E+00 0. -1.
         21   -1    0    0  505  502 -0.00000000000E+00 -0.00000000000E+00 -0.21581088321E+03  0.21581088321E+03  0.00000000000E+00 0. -1.
         21    1    1    2  503  502 -0.14520559458E+03 -0.13054622086E+03  0.71405195767E+03  0.74026831536E+03  0.00000000000E+00 0. -1.
         21    1    1    2  504  501  0.30888366094E+02  0.30774964171E+02  0.22138081947E+03  0.22563389996E+03  0.00000000000E+00 0.  1.
         21    1    1    2  505  506  0.54853146772E+02  0.55729080540E+02 -0.11444721080E+03  0.13861010854E+03  0.00000000000E+00 0. -1.
         21    1    1    2  506  504  0.59464081714E+02  0.44042176149E+02 -0.55560418575E+02  0.92534590323E+02  0.00000000000E+00 0. -1.
<scales pt_clust_3="153.48768" pt_clust_4="43.60263" pt_clust_5="37.70783" pt_clust_6="37.70783"></scales>
<clustering>
<clus scale="   37.708">  5  6 -1 -1</clus>
<clus scale="   43.603">  1  4  2 -1</clus>
<clus scale="  153.488">  1  3  2 -1</clus>
<clus scale="   43.603">  1  3  2 -1</clus>
</clustering>
</event>
<event>
 6    0  0.4469832E+002  0.9280379E+02  0.7546771E-02  0.1296201E+00
         21   -1    0    0  504  501  0.00000000000E+00  0.00000000000E+00  0.46425754969E+03  0.46425754969E+03  0.00000000000E+00 0. -1.
         21   -1    0    0  506  502 -0.00000000000E+00 -0.00000000000E+00 -0.13276548212E+03  0.13276548212E+03  0.00000000000E+00 0.  1.
         21    1    1    2  503  502  0.81950186682E+02 -0.79109272223E+02 -0.58167750365E+02  0.12789682260E+03  0.00000000000E+00 0.  1.
         21    1    1    2  504  503 -0.27656166921E+02 -0.28965128983E+02  0.27835895093E+02  0.48771706156E+02  0.00000000000E+00 0.  1.
         21    1    1    2  505  501 -0.33823638457E+02  0.40032610009E+02  0.34281979623E+03  0.34680262553E+03  0.00000000000E+00 0. -1.
         21    1    1    2  506  505 -0.20470381303E+02  0.68041791198E+02  0.19004126610E+02  0.73551877531E+02  0.00000000000E+00 0.  1.
<scales pt_clust_3="92.80379" pt_clust_4="40.04800" pt_clust_5="58.60710" pt_clust_6="14000.00000"></scales>
<clustering>
<clus scale="   40.048">  1  4  2 -1</clus>
<clus scale="   58.607">  1  5  2 -1</clus>
<clus scale="   92.804">  2  3  1 -1</clus>
<clus scale="   40.048">  1  3  2 -1</clus>
</clustering>
</event>
<event>
 6    0  0.4469832E+002  0.1357221E+03  0.7546771E-02  0.1219204E+00
         21   -1    0    0  504  501  0.00000000000E+00  0.00000000000E+00  0.39592308494E+03  0.39592308494E+03  0.00000000000E+00 0. -1.
         21   -1    0    0  505  502 -0.00000000000E+00 -0.00000000000E+00 -0.24827827250E+04  0.24827827250E+04  0.00000000000E+00 0.  1.
         21    1    1    2  503  506  0.12768850232E+02  0.61314510110E+02 -0.72922240399E+03  0.73190697986E+03  0.00000000000E+00 0. -1.
         21    1    1    2  504  503 -0.48190051692E+02 -0.52797012953E+02 -0.42055805161E+02  0.82936701204E+02  0.00000000000E+00 0. -1.
         21    1    1    2  505  501  0.45961274956E+02 -0.69654286359E+02  0.36890877831E+03  0.37822988396E+03  0.00000000000E+00 0. -1.
         21    1    1    2  506  502 -0.10540073496E+02  0.61136789202E+02 -0.16844902093E+04  0.16856322450E+04  0.00000000000E+00 0.  1.
<scales pt_clust_3="58.78016" pt_clust_4="71.48290" pt_clust_5="122.19836" pt_clust_6="58.78016"></scales>
<clustering>
<clus scale="   58.780">  3  6 -1 -1</clus>
<clus scale="   71.483">  1  4  2 -1</clus>
<clus scale="  122.198">  1  5  2 -1</clus>
<clus scale="   71.483">  1  3  2 -1</clus>
</clustering>
</event>
<event>
 6    0  0.4469832E+002  0.9990927E+02  0.7546771E-02  0.1280487E+00
         21   -1    0    0  506  501  0.00000000000E+00  0.00000000000E+00  0.10538939457E+04  0.10538939457E+04  0.00000000000E+00 0.  1.
         21   -1    0    0  504  502 -0.00000000000E+00 -0.00000000000E+00 -0.59151051529E+02  0.59151051529E+02  0.00000000000E+00 0.  1.
         21    1    1    2  503  501  0.22529440775E+02  0.25006890376E+02  0.79827409750E+02  0.86633340090E+02  0.00000000000E+00 0. -1.
         21    1    1    2  504  503  0.70872339043E+02 -0.38286145658E+02  0.61230160771E+03  0.61757750623E+03  0.00000000000E+00 0.  1.
         21    1    1    2  505  502 -0.83477256216E+02  0.57781936103E+02 -0.12862526178E+01  0.10153255089E+03  0.00000000000E+00 0.  1.
         21    1    1    2  506  505 -0.99245236015E+01 -0.44502680820E+02  0.30390012932E+03  0.30730160001E+03  0.00000000000E+00 0.  1.
<scales pt_clust_3="33.65888" pt_clust_4="14000.00000" pt_clust_5="99.90927" pt_clust_6="36.73885"></scales>
<clustering>
<clus scale="   33.659">  1  3  2 -1</clus>
<clus scale="   36.739">  1  6  2 -1</clus>
<clus scale="   99.909">  2  5  1 -1</clus>
<clus scale="   33.659">  1  3  2 -1</clus>
</clustering>
</event>
<event>
 6    0  0.4469832E+002  0.1034548E+03  0.7546771E-02  0.1273194E+00
         21   -1    0    0  506  501  0.00000000000E+00  0.00000000000E+00  0.68790419364E+02  0.68790419364E+02  0.00000000000E+00 0. -1.
         21   -1    0    0  504  502 -0.00000000000E+00 -0.00000000000E+00 -0.62797041459E+03  0.62797041459E+03  0.00000000000E+00 0. -1.
         21    1    1    2  503  501  0.28641440581E+02  0.13516890466E+02  0.18092709837E+02  0.36474437565E+02  0.00000000000E+00 0. -1.
         21    1    1    2  504  505  0.20679202812E+02  0.24023357892E+02 -0.69415832056E+02  0.76310608001E+02  0.00000000000E+00 0. -1.
         21    1    1    2  505  503 -0.27319037565E+02 -0.11903900185E+03 -0.75787432932E+02  0.14373708209E+03  0.00000000000E+00 0. -1.
         21    1    1    2  506  502 -0.22001605829E+02  0.81498753496E+02 -0.43206944008E+03  0.44023870631E+03  0.00000000000E+00 0. -1.
<scales pt_clust_3="31.67078" pt_clust_4="34.11738" pt_clust_5="103.45478" pt_clust_6="14000.00000"></scales>
<clustering>
<clus scale="   31.671">  1  3  2 -1</clus>
<clus scale="   34.117">  2  4  1 -1</clus>
<clus scale="  103.455">  1  5  2 -1</clus>
<clus scale="   31.671">  1  3  2 -1</clus>
</clustering>
</event>
<event>
 6    0  0.4469832E+002  0.1074922E+03  0.7546771E-02  0.1265286E+00
         21   -1    0    0  504  501  0.00000000000E+00  0.00000000000E+00  0.19657595755E+03  0.19657595755E+03  0.00000000000E+00 0. -1.
         21   -1    0    0  503  502 -0.00000000000E+00 -0.00000000000E+00 -0.79669341366E+03  0.79669341366E+03  0.00000000000E+00 0.  1.
         21    1    1    2  503  506 -0.28830951906E+02 -0.19353495890E+02 -0.36709397776E+02  0.50530797303E+02  0.00000000000E+00 0. -1.
         21    1    1    2  504  505 -0.73520889303E+02  0.14295904606E+02 -0.20453953952E+03  0.21782129667E+03  0.00000000000E+00 0.  1.
         21    1    1    2  505  502  0.32638562414E+02  0.92186538365E+02 -0.51989171644E+03  0.52900948048E+03  0.00000000000E+00 0.  1.
         21    1    1    2  506  501  0.69713278794E+02 -0.87128947081E+02  0.16102319763E+03  0.19590779677E+03  0.00000000000E+00 0. -1.
<scales pt_clust_3="34.72437" pt_clust_4="107.49218" pt_clust_5="79.70438" pt_clust_6="14000.00000"></scales>
<clustering>
<clus scale="   34.724">  2  3  1 -1</clus>
<clus scale="   79.704">  2  5  1 -1</clus>
<clus scale="  107.492">  2  4  1 -1</clus>
<clus scale="  107.492">  1  3  2 -1</clus>
</clustering>
</event>
<event>
 6    0  0.4469832E+002  0.8714907E+02  0.7546771E-02  0.1309906E+00
         21   -1    0    0  506  501  0.00000000000E+00  0.00000000000E+00  0.19080957197E+03  0.19080957197E+03  0.00000000000E+00 0. -1.
         21   -1    0    0  504  502 -0.00000000000E+00 -0.00000000000E+00 -0.15844728553E+03  0.15844728553E+03  0.00000000000E+00 0. -1.
         21    1    1    2  503  502  0.19479666092E+01 -0.84126355985E+02 -0.10311586727E+02  0.84778341373E+02  0.00000000000E+00 0. -1.
         21    1    1    2  504  505  0.46080001270E+02  0.22462038968E+02 -0.53104468404E+02  0.73810529575E+02  0.00000000000E+00 0. -1.
         21    1    1    2  505  501 -0.35477815223E+02  0.93299594387E+02  0.12366928460E+02  0.10058046831E+03  0.00000000000E+00 0. -1.
         21    1    1    2  506  503 -0.12550152656E+02 -0.31635277370E+02  0.83411413111E+02  0.90087518243E+02  0.00000000000E+00 0. -1.
<scales pt_clust_3="87.14907" pt_clust_4="48.81503" pt_clust_5="14000.00000" pt_clust_6="34.03376"></scales>
<clustering>
<clus scale="   34.034">  1  6  2 -1</clus>
<clus scale="   48.815">  2  4  1 -1</clus>
<clus scale="   87.149">  2  3  1 -1</clus>
<clus scale="   34.034">  1  3  2 -1</clus>
</clustering>
</event>
<event>
 6    0  0.4469832E+002  0.1221945E+03  0.7546771E-02  0.1239520E+00
         21   -1    0    0  503  501  0.00000000000E+00  0.00000000000E+00  0.45047564392E+02  0.45047564392E+02  0.00000000000E+00 0.  1.
         21   -1    0    0  505  502 -0.00000000000E+00 -0.00000000000E+00 -0.22657915887E+04  0.22657915887E+04  0.00000000000E+00 0.  1.
         21    1    1    2  503  506 -0.40512988080E+02 -0.54551988709E+00 -0.11865918362E+03  0.12538581121E+03  0.00000000000E+00 0.  1.
         21    1    1    2  504  501 -0.58225766544E+02 -0.71193211838E+02 -0.19005264161E+02  0.93914393823E+02  0.00000000000E+00 0.  1.
         21    1    1    2  505  504  0.12599847117E+03  0.87959933478E+02 -0.18385815155E+04  0.18449917490E+04  0.00000000000E+00 0.  1.
         21    1    1    2  506  502 -0.27259716542E+02 -0.16221201754E+02 -0.24449806098E+03  0.24654719904E+03  0.00000000000E+00 0.  1.
<scales pt_clust_3="42.18703" pt_clust_4="14000.00000" pt_clust_5="122.19449" pt_clust_6="31.72096"></scales>
<clustering>
<clus scale="   31.721">  2  6  1 -1</clus>
<clus scale="   42.187">  1  3  2 -1</clus>
<clus scale="  122.194">  2  5  1 -1</clus>
<clus scale="   42.187">  1  3  2 -1</clus>
</clustering>
</event>
<event>
 6    0  0.4469832E+002  0.1385951E+03  0.7546771E-02  0.1215232E+00
         21   -1    0    0  505  501  0.00000000000E+00  0.00000000000E+00  0.36905215895E+03  0.36905215895E+03  0.00000000000E+00 0. -1.
         21   -1    0    0  504  502 -0.00000000000E+00 -0.00000000000E+00 -0.16619422138E+04  0.16619422138E+04  0.00000000000E+00 0.  1.
         21    1    1    2  503  501 -0.56331279616E+02 -0.79149407791E+02  0.25176156176E+03  0.26985500884E+03  0.00000000000E+00 0. -1.
         21    1    1    2  504  506 -0.44338650406E+01  0.64583464673E+02 -0.79215107388E+03  0.79479180099E+03  0.00000000000E+00 0.  1.
         21    1    1    2  505  502  0.27035392111E+02 -0.51590459084E+02  0.97250232924E+02  0.11335826260E+03  0.00000000000E+00 0. -1.
         21    1    1    2  506  503  0.33729752546E+02  0.66156402202E+02 -0.84975077561E+03  0.85298930029E+03  0.00000000000E+00 0.  1.
<scales pt_clust_3="133.48740" pt_clust_4="34.80646" pt_clust_5="58.24507" pt_clust_6="34.80646"></scales>
<clustering>
<clus scale="   34.806">  4  6 -1 -1</clus>
<clus scale="   58.245">  1  5  2 -1</clus>
<clus scale="  133.487">  1  3  2 -1</clus>
<clus scale="   58.245">  1  3  2 -1</clus>
</clustering>
</event>
<event>
 6    0  0.4469832E+002  0.1262254E+03  0.7546771E-02  0.1233167E+00
         21   -1    0    0  506  501  0.00000000000E+00  0.00000000000E+00  0.12645915080E+04  0.12645915080E+04  0.00000000000E+00 0. -1.
         21   -1    0    0  503  502 -0.00000000000E+00 -0.00000000000E+00 -0.10939742762E+03  0.10939742762E+03  0.00000000000E+00 0. -1.
         21    1    1    2  503  504 -0.11967528144E+02 -0.40256926647E+02  0.47318129657E+02  0.63268058822E+02  0.00000000000E+00 0.  1.
         21    1    1    2  504  501 -0.21419285428E+02  0.21463576237E+02  0.40371569196E+03  0.40485285083E+03  0.00000000000E+00 0. -1.
         21    1    1    2  505  502 -0.10008031979E+03 -0.19700701446E+02 -0.67169163639E+02  0.12213060464E+03  0.00000000000E+00 0. -1.
         21    1    1    2  506  505  0.13346713336E+03  0.38494051856E+02  0.77132942237E+03  0.78373742129E+03  0.00000000000E+00 0. -1.
<scales pt_clust_3="41.10379" pt_clust_4="30.32278" pt_clust_5="126.22541" pt_clust_6="14000.00000"></scales>
<clustering>
<clus scale="   30.323">  1  4  2 -1</clus>
<clus scale="   41.104">  2  3  1 -1</clus>
<clus scale="  126.225">  2  5  1 -1</clus>
<clus scale="   30.323">  1  3  2 -1</clus>
</clustering>
</event>
<event>
 6    0  0.4469832E+002  0.1680552E+03  0.7546771E-02  0.1179891E+00
         21   -1    0    0  505  501  0.00000000000E+00  0.00000000000E+00  0.12858774748E+04  0.12858774748E+04  0.00000000000E+00 0.  1.
         21   -1    0    0  504  502 -0.00000000000E+00 -0.00000000000E+00 -0.10440305149E+04  0.10440305149E+04  0.00000000000E+00 0.  1.
         21    1    1    2  503  502 -0.42613575854E+02 -0.34601426345E+01 -0.18487697028E+02  0.46579870926E+02  0.00000000000E+00 0. -1.
         21    1    1    2  504  506 -0.13140010716E+03 -0.43764699109E+02 -0.52238823884E+03  0.54043575855E+03  0.00000000000E+00 0.  1.
         21    1    1    2  505  503 -0.32501290626E+02  0.13726566641E+03  0.12321293506E+04  0.12401777830E+04  0.00000000000E+00 0.  1.
         21    1    1    2  506  501  0.20651497364E+03 -0.90040824671E+02 -0.44940645483E+03  0.50271457716E+03  0.00000000000E+00 0.  1.
<scales pt_clust_3="42.75382" pt_clust_4="14000.00000" pt_clust_5="141.08674" pt_clust_6="168.05515"></scales>
<clustering>
<clus scale="   42.754">  2  3  1 -1</clus>
<clus scale="  141.087">  1  5  2 -1</clus>
<clus scale="  168.055">  1  6  2 -1</clus>
<clus scale="  141.087">  1  3  2 -1</clus>
</clustering>
</event>
<event>
 6    0  0.4469832E+002  0.2065877E+03  0.7546771E-02  0.1144297E+00
         21   -1    0    0  504  501  0.00000000000E+00  0.00000000000E+00  0.14771356696E+04  0.14771356696E+04  0.00000000000E+00 0. -1.
         21   -1    0    0  506  502 -0.00000000000E+00 -0.00000000000E+00 -0.15548440609E+03  0.15548440609E+03  0.00000000000E+00 0.  1.
         21    1    1    2  503  501  0.16077745632E+02 -0.11491408481E+03  0.93423461460E+03  0.94141279783E+03  0.00000000000E+00 0. -1.
         21    1    1    2  504  505  0.28768493085E+02  0.86030532947E+02 -0.70382188802E+01  0.90985797345E+02  0.00000000000E+00 0. -1.
         21    1    1    2  505  502  0.67658200245E+02  0.10940118754E+03 -0.47497083138E+02  0.13712120479E+03  0.00000000000E+00 0.  1.
         21    1    1    2  506  503 -0.11250443896E+03 -0.80517635684E+02  0.44195195090E+03  0.46310027569E+03  0.00000000000E+00 0.  1.
<scales pt_clust_3="116.03336" pt_clust_4="33.24301" pt_clust_5="33.24301" pt_clust_6="202.75958"></scales>
<clustering>
<clus scale="   33.243">  4  5 -1 -1</clus>
<clus scale="  116.033">  1  3  2 -1</clus>
<clus scale="  202.760">  1  6  2 -1</clus>
<clus scale="  116.033">  1  3  2 -1</clus>
</clustering>
</event>
<event>
 6    0  0.4469832E+002  0.1383280E+03  0.7546771E-02  0.1215597E+00
         21   -1    0    0  502  501  0.00000000000E+00  0.00000000000E+00  0.10429497675E+03  0.10429497675E+03  0.00000000000E+00 0. -1.
         21   -1    0    0  505  502 -0.00000000000E+00 -0.00000000000E+00 -0.50724853364E+03  0.50724853364E+03  0.00000000000E+00 0. -1.
         21    1    1    2  503  501  0.54581002121E+02  0.10719966898E+02 -0.27174979531E+02  0.61907051257E+02  0.00000000000E+00 0.  1.
         21    1    1    2  504  503  0.70347628302E+02  0.54134800126E+02  0.48465017173E+02  0.10113467893E+03  0.00000000000E+00 0. -1.
         21    1    1    2  505  506 -0.67560177678E+02 -0.54393226782E+02 -0.27077787026E+03  0.28433018790E+03  0.00000000000E+00 0. -1.
         21    1    1    2  506  504 -0.57368452744E+02 -0.10461540242E+02 -0.15346572427E+03  0.16417159231E+03  0.00000000000E+00 0. -1.
<scales pt_clust_3="55.62377" pt_clust_4="133.32932" pt_clust_5="30.21531" pt_clust_6="30.21531"></scales>
<clustering>
<clus scale="   30.215">  5  6 -1 -1</clus>
<clus scale="   55.624">  1  3  2 -1</clus>
<clus scale="  133.329">  1  4  2 -1</clus>
<clus scale="   55.624">  1  3  2 -1</clus>
</clustering>
</event>
<event>
 6    0  0.4469832E+002  0.1443413E+03  0.7546771E-02  0.1207604E+00
         21   -1    0    0  502  501  0.00000000000E+00  0.00000000000E+00  0.15250656223E+03  0.15250656223E+03  0.00000000000E+00 0. -1.
         21   -1    0    0  504  502 -0.00000000000E+00 -0.00000000000E+00 -0.22306620094E+03  0.22306620094E+03  0.00000000000E+00 0. -1.
         21    1    1    2  503  505 -0.31075604895E+02 -0.81832908853E+02 -0.25894132692E+02  0.91284304778E+02  0.00000000000E+00 0. -1.
         21    1    1    2  504  503  0.10619073315E+02  0.15149836111E+03 -0.10465444250E+03  0.18443717215E+03  0.00000000000E+00 0. -1.
         21    1    1    2  505  506  0.12456230826E+02 -0.31289209994E+02  0.77818925741E+01  0.34564869456E+02  0.00000000000E+00 0. -1.
         21    1    1    2  506  501  0.80003007545E+01 -0.38376242268E+02  0.52207043901E+02  0.65286416778E+02  0.00000000000E+00 0. -1.
<scales pt_clust_3="30.17507" pt_clust_4="135.89612" pt_clust_5="30.17507" pt_clust_6="39.20129"></scales>
<clustering>
<clus scale="   30.175">  3  5 -1 -1</clus>
<clus scale="   39.201">  1  6  2 -1</clus>
<clus scale="  135.896">  2  4  1 -1</clus>
<clus scale="   39.201">  1  3  2 -1</clus>
</clustering>
</event>
<event>
 6    0  0.4469832E+002  0.2445660E+03  0.7546771E-02  0.1116788E+00
         21   -1    0    0  502  501  0.00000000000E+00  0.00000000000E+00  0.15813636251E+04  0.15813636251E+04  0.00000000000E+00 0. -1.
         21   -1    0    0  504  502 -0.00000000000E+00 -0.00000000000E+00 -0.43705648175E+03  0.43705648175E+03  0.00000000000E+00 0. -1.
         21    1    1    2  503  506  0.16584975236E+03  0.22400933232E+03  0.11588525994E+03  0.30185379705E+03  0.00000000000E+00 0. -1.
         21    1    1    2  504  505 -0.50769454784E+02 -0.78164678064E+01 -0.10423668862E+03  0.11620637660E+03  0.00000000000E+00 0. -1.
         21    1    1    2  505  503 -0.73519698307E+02 -0.20435669626E+03 -0.18299526763E+03  0.28399660794E+03  0.00000000000E+00 0. -1.
         21    1    1    2  506  501 -0.41560599266E+02 -0.11836168251E+02  0.13156538396E+04  0.13163633252E+04  0.00000000000E+00 0. -1.
<scales pt_clust_3="14000.00000" pt_clust_4="52.33485" pt_clust_5="244.56602" pt_clust_6="43.21317"></scales>
<clustering>
<clus scale="   43.213">  1  6  2 -1</clus>
<clus scale="   52.335">  2  4  1 -1</clus>
<clus scale="  244.566">  2  5  1 -1</clus>
<clus scale="   43.213">  1  3  2 -1</clus>
</clustering>
</event>
<event>
 6    0  0.4469832E+002  0.9884794E+02  0.7546771E-02  0.1282737E+00
         21   -1    0    0  503  501  0.00000000000E+00  0.00000000000E+00  0.17602573661E+03  0.17602573661E+03  0.00000000000E+00 0.  1.
         21   -1    0    0  506  502 -0.00000000000E+00 -0.00000000000E+00 -0.31998719057E+03  0.31998719057E+03  0.00000000000E+00 0.  1.
         21    1    1    2  503  505  0.34932731611E+02  0.98739629750E+02  0.11398734018E+03  0.15479962513E+03  0.00000000000E+00 0.  1.
         21    1    1    2  504  501 -0.25168752558E+02 -0.79220563547E+02 -0.22976110466E+02  0.86239581667E+02  0.00000000000E+00 0.  1.
         21    1    1    2  505  502 -0.76604768982E+01  0.37991034611E+02 -0.12475791145E+03  0.13063896083E+03  0.00000000000E+00 0.  1.
         21    1    1    2  506  504 -0.21035021542E+01 -0.57510100815E+02 -0.11021477223E+03  0.12433475956E+03  0.00000000000E+00 0.  1.
<scales pt_clust_3="98.84794" pt_clust_4="14000.00000" pt_clust_5="38.75567" pt_clust_6="35.00185"></scales>
<clustering>
<clus scale="   38.756">  2  5  1 -1</clus>
<clus scale="   35.002">  2  6  1 -1</clus>
<clus scale="   98.848">  1  3  2 -1</clus>
<clus scale="   98.848">  1  3  2 -1</clus>
</clustering>
</event>
<event>
 6    0  0.4469832E+002  0.8123223E+02  0.7546771E-02  0.1325590E+00
         21   -1    0    0  506  501  0.00000000000E+00  0.00000000000E+00  0.41968405514E+03  0.41968405514E+03  0.00000000000E+00 0. -1.
         21   -1    0    0  505  502 -0.00000000000E+00 -0.00000000000E+00 -0.67117967470E+03  0.67117967470E+03  0.00000000000E+00 0. -1.
         21    1    1    2  503  502 -0.48084029268E+02 -0.10280124019E+03 -0.21781441712E+03  0.24560799897E+03  0.00000000000E+00 0. -1.
         21    1    1    2  504  501 -0.15179778082E+01  0.88078302315E+02 -0.70976110712E+02  0.11312691937E+03  0.00000000000E+00 0. -1.
         21    1    1    2  505  504  0.46141815865E+02  0.56536234723E+02 -0.34241654324E+03  0.35010641538E+03  0.00000000000E+00 0. -1.
         21    1    1    2  506  503  0.34601912110E+01 -0.41813296853E+02  0.37971145151E+03  0.38202239610E+03  0.00000000000E+00 0. -1.
<scales pt_clust_3="81.23223" pt_clust_4="65.37715" pt_clust_5="14000.00000" pt_clust_6="41.95622"></scales>
<clustering>
<clus scale="   41.956">  1  6  2 -1</clus>
<clus scale="   65.377">  1  4  2 -1</clus>
<clus scale="   81.232">  1  3  2 -1</clus>
<clus scale="   41.956">  1  3  2 -1</clus>
</clustering>
</event>
<event>
 6    0  0.4469832E+002  0.9015540E+02  0.7546771E-02  0.1302476E+00
         21   -1    0    0  504  501  0.00000000000E+00  0.00000000000E+00  0.32867090931E+03  0.32867090931E+03  0.00000000000E+00 0. -1.
         21   -1    0    0  505  502 -0.00000000000E+00 -0.00000000000E+00 -0.63590450451E+03  0.63590450451E+03  0.00000000000E+00 0.  1.
         21    1    1    2  503  502 -0.30770429891E+02 -0.71050648042E+01 -0.67242391938E+02  0.74288899407E+02  0.00000000000E+00 0. -1.
         21    1    1    2  504  506  0.29988806398E+02 -0.84852547309E+02  0.30156848520E+03  0.31471071567E+03  0.00000000000E+00 0. -1.
         21    1    1    2  505  501  0.69959356425E+02  0.96187982611E+01 -0.10921426533E+03  0.13005609783E+03  0.00000000000E+00 0.  1.
         21    1    1    2  506  503 -0.69177732933E+02  0.82338813852E+02 -0.43234542313E+03  0.44551970091E+03  0.00000000000E+00 0.  1.
<scales pt_clust_3="31.58008" pt_clust_4="90.15540" pt_clust_5="63.96235" pt_clust_6="14000.00000"></scales>
<clustering>
<clus scale="   31.580">  2  3  1 -1</clus>
<clus scale="   63.962">  2  5  1 -1</clus>
<clus scale="   90.155">  1  4  2 -1</clus>
<clus scale="   90.155">  1  3  2 -1</clus>
</clustering>
</event>
<event>
 6    0  0.4469832E+002  0.1586561E+03  0.7546771E-02  0.1190222E+00
         21   -1    0    0  504  501  0.00000000000E+00  0.00000000000E+00  0.11621118158E+03  0.11621118158E+03  0.00000000000E+00 0.  1.
         21   -1    0    0  506  502 -0.00000000000E+00 -0.00000000000E+00 -0.96816044559E+03  0.96816044559E+03  0.00000000000E+00 0. -1.
         21    1    1    2  503  502  0.15999904812E+02  0.62694320173E+02 -0.44214587820E+03  0.44685518051E+03  0.00000000000E+00 0. -1.
         21    1    1    2  504  503 -0.58988078910E+02  0.13745964370E+03  0.17620518317E+01  0.14959228565E+03  0.00000000000E+00 0.  1.
         21    1    1    2  505  501  0.77501874393E+02 -0.17293497971E+03 -0.21541383645E+03  0.28690794461E+03  0.00000000000E+00 0. -1.
         21    1    1    2  506  505 -0.34513700294E+02 -0.27218984164E+02 -0.19615160119E+03  0.20101621640E+03  0.00000000000E+00 0.  1.
<scales pt_clust_3="47.13740" pt_clust_4="14000.00000" pt_clust_5="158.65608" pt_clust_6="43.95530"></scales>
<clustering>
<clus scale="   43.955">  2  6  1 -1</clus>
<clus scale="   47.137">  2  3  1 -1</clus>
<clus scale="  158.656">  2  5  1 -1</clus>
<clus scale="  158.656">  1  3  2 -1</clus>
</clustering>
</event>
<event>
 6    0  0.4469832E+002  0.7456362E+02  0.7546771E-02  0.1345228E+00
         21   -1    0    0  506  501  0.00000000000E+00  0.00000000000E+00  0.30913129714E+03  0.30913129714E+03  0.00000000000E+00 0. -1.
         21   -1    0    0  503  502 -0.00000000000E+00 -0.00000000000E+00 -0.81280438781E+03  0.81280438781E+03  0.00000000000E+00 0. -1.
         21    1    1    2  503  504 -0.49180684516E+02  0.21684173804E+01 -0.30459765567E+02  0.57889887561E+02  0.00000000000E+00 0. -1.
         21    1    1    2  504  501 -0.50387220445E+02 -0.11170666763E+02  0.42846744638E+02  0.67078307270E+02  0.00000000000E+00 0. -1.
         21    1    1    2  505  502  0.23282800811E+02 -0.70692095089E+02 -0.74189926107E+03  0.74562321229E+03  0.00000000000E+00 0. -1.
         21    1    1    2  506  505  0.76285104151E+02  0.79694344472E+02  0.22583919133E+03  0.25134427783E+03  0.00000000000E+00 0. -1.
<scales pt_clust_3="49.22846" pt_clust_4="52.36046" pt_clust_5="74.56362" pt_clust_6="14000.00000"></scales>
<clustering>
<clus scale="   49.228">  2  3  1 -1</clus>
<clus scale="   52.360">  1  4  2 -1</clus>
<clus scale="   74.564">  2  5  1 -1</clus>
<clus scale="   52.360">  1  3  2 -1</clus>
</clustering>
</event>
<event>
 6    0  0.4469832E+002  0.1338886E+03  0.7546771E-02  0.1221797E+00
         21   -1    0    0  505  501  0.00000000000E+00  0.00000000000E+00  0.13382574686E+04  0.13382574686E+04  0.00000000000E+00 0. -1.
         21   -1    0    0  503  502 -0.00000000000E+00 -0.00000000000E+00 -0.31945855792E+03  0.31945855792E+03  0.00000000000E+00 0. -1.
         21    1    1    2  503  506  0.45164056481E+02  0.86194561523E+02 -0.22525075063E+03  0.24537154500E+03  0.00000000000E+00 0. -1.
         21    1    1    2  504  502  0.63994624910E+02 -0.20475866944E+02 -0.37975725821E+02  0.77179847733E+02  0.00000000000E+00 0. -1.
         21    1    1    2  505  504  0.14098764139E+02 -0.38287406938E+02 -0.57581726730E+01  0.41205063194E+02  0.00000000000E+00 0.  1.
         21    1    1    2  506  501 -0.12325744553E+03 -0.27431287642E+02  0.12877835598E+04  0.12939595706E+04  0.00000000000E+00 0. -1.
<scales pt_clust_3="97.31030" pt_clust_4="39.35536" pt_clust_5="39.35536" pt_clust_6="123.99803"></scales>
<clustering>
<clus scale="   39.355">  4  5 -1 -1</clus>
<clus scale="   97.310">  2  3  1 -1</clus>
<clus scale="  123.998">  1  6  2 -1</clus>
<clus scale="  123.998">  1  3  2 -1</clus>
</clustering>
</event>
<event>
 6    0  0.4469832E+002  0.1464826E+03  0.7546771E-02  0.1204863E+00
         21   -1    0    0  502  501  0.00000000000E+00  0.00000000000E+00  0.14785379815E+03  0.14785379815E+03  0.00000000000E+00 0. -1.
         21   -1    0    0  503  502 -0.00000000000E+00 -0.00000000000E+00 -0.35529031618E+03  0.35529031618E+03  0.00000000000E+00 0.  1.
         21    1    1    2  503  505  0.10749778229E+03 -0.99276327823E+02 -0.20699150813E+03  0.25348973727E+03  0.00000000000E+00 0.  1.
         21    1    1    2  504  501 -0.35910708285E+02 -0.98371112130E+00  0.83978176529E+02  0.91339371523E+02  0.00000000000E+00 0. -1.
         21    1    1    2  505  506 -0.63744810919E+01  0.37156966292E+02 -0.55947519501E+01  0.38112667220E+02  0.00000000000E+00 0.  1.
         21    1    1    2  506  504 -0.65212592916E+02  0.63103072652E+02 -0.78828434484E+02  0.12020233831E+03  0.00000000000E+00 0. -1.
<scales pt_clust_3="136.73907" pt_clust_4="35.92418" pt_clust_5="33.85941" pt_clust_6="33.85941"></scales>
<clustering>
<clus scale="   33.859">  5  6 -1 -1</clus>
<clus scale="   35.924">  1  4  2 -1</clus>
<clus scale="  136.739">  2  3  1 -1</clus>
<clus scale="   35.924">  1  3  2 -1</clus>
</clustering>
</event>
<event>
 6    0  0.4469832E+002  0.1530426E+03  0.7546771E-02  0.1196783E+00
         21   -1    0    0  503  501  0.00000000000E+00  0.00000000000E+00  0.80775360491E+03  0.80775360491E+03  0.00000000000E+00 0. -1.
         21   -1    0    0  504  502 -0.00000000000E+00 -0.00000000000E+00 -0.13348241471E+03  0.13348241471E+03  0.00000000000E+00 0. -1.
         21    1    1    2  503  502  0.24471467211E+02 -0.59179990396E+02  0.60063157541E+03  0.60403593714E+03  0.00000000000E+00 0. -1.
         21    1    1    2  504  506 -0.75128522433E+02 -0.37996714534E+02 -0.21540211944E+02  0.86902393114E+02  0.00000000000E+00 0. -1.
         21    1    1    2  505  501  0.11771672838E+03  0.10475033956E+03  0.92585239993E+02  0.18276183530E+03  0.00000000000E+00 0. -1.
         21    1    1    2  506  505 -0.67059673157E+02 -0.75736346248E+01  0.25945867373E+01  0.67535854075E+02  0.00000000000E+00 0. -1.
<scales pt_clust_3="64.04002" pt_clust_4="30.98996" pt_clust_5="149.07694" pt_clust_6="30.98996"></scales>
<clustering>
<clus scale="   30.990">  4  6 -1 -1</clus>
<clus scale="   64.040">  1  3  2 -1</clus>
<clus scale="  149.077">  1  5  2 -1</clus>
<clus scale="   64.040">  1  3  2 -1</clus>
</clustering>
</event>
<event>
 6    0  0.4469832E+002  0.8690004E+02  0.7546771E-02  0.1310537E+00
         21   -1    0    0  504  501  0.00000000000E+00  0.00000000000E+00  0.32862210377E+03  0.32862210377E+03  0.00000000000E+00 0. -1.
         21   -1    0    0  503  502 -0.00000000000E+00 -0.00000000000E+00 -0.10855179788E+03  0.10855179788E+03  0.00000000000E+00 0. -1.
         21    1    1    2  503  506  0.16043701933E+02  0.26817506822E+02  0.15344312749E+02  0.34814177825E+02  0.00000000000E+00 0.  1.
         21    1    1    2  504  505 -0.12471384883E+03  0.60684029335E+00  0.17742216136E+03  0.21686985888E+03  0.00000000000E+00 0. -1.
         21    1    1    2  505  502  0.43078787459E+02 -0.27602331168E+02 -0.58351516275E+02  0.77605219325E+02  0.00000000000E+00 0. -1.
         21    1    1    2  506  501  0.65591359440E+02  0.17798405273E+00  0.85655348057E+02  0.10788464563E+03  0.00000000000E+00 0. -1.
<scales pt_clust_3="31.25026" pt_clust_4="14000.00000" pt_clust_5="54.88438" pt_clust_6="86.90004"></scales>
<clustering>
<clus scale="   31.250">  2  3  1 -1</clus>
<clus scale="   54.884">  2  5  1 -1</clus>
<clus scale="   86.900">  1  6  2 -1</clus>
<clus scale="   86.900">  1  3  2 -1</clus>
</clustering>
</event>
<event>
 6    0  0.4469832E+002  0.5184166E+03  0.7546771E-02  0.1009081E+00
         21   -1    0    0  505  501  0.00000000000E+00  0.00000000000E+00  0.69055840724E+03  0.69055840724E+03  0.00000000000E+00 0. -1.
         21   -1    0    0  506  502 -0.00000000000E+00 -0.00000000000E+00 -0.13543991886E+04  0.13543991886E+04  0.00000000000E+00 0. -1.
         21    1    1    2  503  504 -0.45326975510E+03  0.99657956526E+02 -0.97513205877E+03  0.10799387535E+04  0.00000000000E+00 0. -1.
         21    1    1    2  504  502 -0.38954976099E+02  0.13029607125E+02 -0.19111189118E+03  0.19547638163E+03  0.00000000000E+00 0.  1.
         21    1    1    2  505  503 -0.18808072451E+02  0.36379377832E+02  0.54777978497E+01  0.41318385618E+02  0.00000000000E+00 0.  1.
         21    1    1    2  506  501  0.51103280365E+03 -0.14906694148E+03  0.49692537076E+03  0.72822407510E+03  0.00000000000E+00 0. -1.
<scales pt_clust_3="32.00772" pt_clust_4="32.00772" pt_clust_5="40.95367" pt_clust_6="507.12980"></scales>
<clustering>
<clus scale="   32.008">  3  4 -1 -1</clus>
<clus scale="   40.954">  1  5  2 -1</clus>
<clus scale="  507.130">  1  6  2 -1</clus>
<clus scale="   40.954">  1  3  2 -1</clus>
</clustering>
</event>
<event>
 6    0  0.4469832E+002  0.1754105E+03  0.7546771E-02  0.1172320E+00
         21   -1    0    0  506  501  0.00000000000E+00  0.00000000000E+00  0.16961629032E+03  0.16961629032E+03  0.00000000000E+00 0.  1.
         21   -1    0    0  503  502 -0.00000000000E+00 -0.00000000000E+00 -0.34900760172E+03  0.34900760172E+03  0.00000000000E+00 0. -1.
         21    1    1    2  503  505 -0.15154429166E+03  0.12769161155E+02 -0.91245004682E+02  0.17735381216E+03  0.00000000000E+00 0.  1.
         21    1    1    2  504  501 -0.32055863356E+02 -0.97582657161E+01  0.46070068590E+02  0.56967125126E+02  0.00000000000E+00 0.  1.
         21    1    1    2  505  504 -0.22542122588E+02 -0.26510637486E+02  0.39620407183E+01  0.35023691372E+02  0.00000000000E+00 0. -1.
         21    1    1    2  506  502  0.20614227760E+03  0.23499742048E+02 -0.13817841603E+03  0.24927926337E+03  0.00000000000E+00 0. -1.
<scales pt_clust_3="14000.00000" pt_clust_4="33.50824" pt_clust_5="39.56632" pt_clust_6="175.41055"></scales>
<clustering>
<clus scale="   33.508">  1  4  2 -1</clus>
<clus scale="   39.566">  1  5  2 -1</clus>
<clus scale="  175.411">  1  6  2 -1</clus>
<clus scale="   33.508">  1  3  2 -1</clus>
</clustering>
</event>
<event>
 6    0  0.4469832E+002  0.9820340E+02  0.7546771E-02  0.1284120E+00
         21   -1    0    0  504  501  0.00000000000E+00  0.00000000000E+00  0.11060449189E+03  0.11060449189E+03  0.00000000000E+00 0. -1.
         21   -1    0    0  503  502 -0.00000000000E+00 -0.00000000000E+00 -0.27475591920E+03  0.27475591920E+03  0.00000000000E+00 0. -1.
         21    1    1    2  503  505  0.25314679002E+02 -0.25252527342E+02  0.72833786246E+01  0.36490693530E+02  0.00000000000E+00 0. -1.
         21    1    1    2  504  506 -0.93342012599E+02  0.92764826095E+02 -0.74408850882E+02  0.15117778066E+03  0.00000000000E+00 0. -1.
         21    1    1    2  505  501 -0.12233337171E+02 -0.31212993195E+02  0.28731812047E+02  0.44152265016E+02  0.00000000000E+00 0. -1.
         21    1    1    2  506  502  0.80260670769E+02 -0.36299305558E+02 -0.12575776710E+03  0.15353967188E+03  0.00000000000E+00 0. -1.
<scales pt_clust_3="40.72910" pt_clust_4="98.20340" pt_clust_5="33.52470" pt_clust_6="14000.00000"></scales>
<clustering>
<clus scale="   33.525">  1  5  2 -1</clus>
<clus scale="   40.729">  1  3  2 -1</clus>
<clus scale="   98.203">  1  4  2 -1</clus>
<clus scale="   33.525">  1  3  2 -1</clus>
</clustering>
</event>
<event>
 6    0  0.4469832E+002  0.1000120E+03  0.7546771E-02  0.1280271E+00
         21   -1    0    0  506  501  0.00000000000E+00  0.00000000000E+00  0.68403527834E+02  0.68403527834E+02  0.00000000000E+00 0.  1.
         21   -1    0    0  505  502 -0.00000000000E+00 -0.00000000000E+00 -0.44247980324E+03  0.44247980324E+03  0.00000000000E+00 0.  1.
         21    1    1    2  503  502 -0.48788954951E+02  0.80777793886E+01 -0.11306578478E+03  0.12340779689E+03  0.00000000000E+00 0.  1.
         21    1    1    2  504  503 -0.38397051515E+02  0.34212097057E+01 -0.20837480763E+03  0.21191059128E+03  0.00000000000E+00 0.  1.
         21    1    1    2  505  501  0.12696418045E+03 -0.93655001521E+01 -0.35236139960E+02  0.13209542487E+03  0.00000000000E+00 0.  1.
         21    1    1    2  506  504 -0.39778173987E+02 -0.21334889422E+01 -0.17399543036E+02  0.43469518040E+02  0.00000000000E+00 0.  1.
<scales pt_clust_3="32.80701" pt_clust_4="32.80701" pt_clust_5="92.85289" pt_clust_6="39.83535"></scales>
<clustering>
<clus scale="   32.807">  3  4 -1 -1</clus>
<clus scale="   39.835">  1  6  2 -1</clus>
<clus scale="   92.853">  1  5  2 -1</clus>
<clus scale="   39.835">  1  3  2 -1</clus>
</clustering>
</event>
<event>
 6    0  0.4469832E+002  0.1433523E+03  0.7546771E-02  0.1208888E+00
         21   -1    0    0  505  501  0.00000000000E+00  0.00000000000E+00  0.21225709769E+03  0.21225709769E+03  0.00000000000E+00 0.  1.
         21   -1    0    0  504  502 -0.00000000000E+00 -0.00000000000E+00 -0.22870734404E+03  0.22870734404E+03  0.00000000000E+00 0.  1.
         21    1    1    2  503  502 -0.32348596820E+02 -0.28418278706E+02 -0.65624272923E+01  0.43555662465E+02  0.00000000000E+00 0.  1.
         21    1    1    2  504  501  0.71020026981E+02 -0.10464270402E+03 -0.14927218633E+03  0.19564285151E+03  0.00000000000E+00 0.  1.
         21    1    1    2  505  506  0.62260623351E+00  0.44187077122E+02  0.68374655305E+02  0.81412400230E+02  0.00000000000E+00 0.  1.
         21    1    1    2  506  503 -0.39294036395E+02  0.88873905600E+02  0.71009711975E+02  0.12035352752E+03  0.00000000000E+00 0.  1.
<scales pt_clust_3="43.05845" pt_clust_4="135.90101" pt_clust_5="30.76166" pt_clust_6="30.76166"></scales>
<clustering>
<clus scale="   30.762">  5  6 -1 -1</clus>
<clus scale="   43.058">  2  3  1 -1</clus>
<clus scale="  135.901">  2  4  1 -1</clus>
<clus scale="  143.352">  1  3  2 -1</clus>
</clustering>
</event>
<event>
 6    0  0.4469832E+002  0.1032801E+03  0.7546771E-02  0.1273546E+00
         21   -1    0    0  503  501  0.00000000000E+00  0.00000000000E+00  0.10610387168E+04  0.10610387168E+04  0.00000000000E+00 0.  1.
         21   -1    0    0  506  502 -0.00000000000E+00 -0.00000000000E+00 -0.80462482402E+03  0.80462482402E+03  0.00000000000E+00 0. -1.
         21    1    1    2  503  505 -0.31785096996E+02  0.32567104206E+01  0.22379350635E+03  0.22606289399E+03  0.00000000000E+00 0. -1.
         21    1    1    2  504  501  0.27076306710E+02  0.99259599798E+02  0.80874225673E+03  0.81526046903E+03  0.00000000000E+00 0.  1.
         21    1    1    2  505  502  0.37444355240E+02  0.45080975334E+02 -0.54513425482E+03  0.54827523184E+03  0.00000000000E+00 0. -1.
         21    1    1    2  506  504 -0.32735564954E+02 -0.14759728555E+03 -0.23098761545E+03  0.27606494599E+03  0.00000000000E+00 0. -1.
<scales pt_clust_3="31.95150" pt_clust_4="14000.00000" pt_clust_5="58.57011" pt_clust_6="103.28007"></scales>
<clustering>
<clus scale="   31.952">  1  3  2 -1</clus>
<clus scale="   58.570">  2  5  1 -1</clus>
<clus scale="  103.280">  2  6  1 -1</clus>
<clus scale="   31.952">  1  3  2 -1</clus>
</clustering>
</event>
<event>
 6    0  0.4469832E+002  0.1092284E+03  0.7546771E-02  0.1262005E+00
         21   -1    0    0  506  501  0.00000000000E+00  0.00000000000E+00  0.20487035672E+03  0.20487035672E+03  0.00000000000E+00 0. -1.
         21   -1    0    0  504  502 -0.00000000000E+00 -0.00000000000E+00 -0.27629206461E+03  0.27629206461E+03  0.00000000000E+00 0. -1.
         21    1    1    2  503  502 -0.30584361127E+02 -0.23165703934E+02 -0.11959487876E+03  0.12559851914E+03  0.00000000000E+00 0. -1.
         21    1    1    2  504  505 -0.12504162236E+02  0.56957858070E+02 -0.73956377539E+02  0.94181194767E+02  0.00000000000E+00 0. -1.
         21    1    1    2  505  501  0.83664096177E+02  0.72290642707E+02  0.28489612027E+02  0.11418089160E+03  0.00000000000E+00 0. -1.
         21    1    1    2  506  503 -0.40575572814E+02 -0.10608279684E+03  0.93639936384E+02  0.14720181582E+03  0.00000000000E+00 0. -1.
<scales pt_clust_3="38.36734" pt_clust_4="53.06495" pt_clust_5="14000.00000" pt_clust_6="109.22840"></scales>
<clustering>
<clus scale="   38.367">  2  3  1 -1</clus>
<clus scale="   53.065">  2  4  1 -1</clus>
<clus scale="  109.228">  1  6  2 -1</clus>
<clus scale="  109.228">  1  3  2 -1</clus>
</clustering>
</event>
<event>
 6    0  0.4469832E+002  0.1145970E+03  0.7546771E-02  0.1252286E+00
         21   -1    0    0  503  501  0.00000000000E+00  0.00000000000E+00  0.24835803170E+03  0.24835803170E+03  0.00000000000E+00 0. -1.
         21   -1    0    0  506  502 -0.00000000000E+00 -0.00000000000E+00 -0.66269011931E+03  0.66269011931E+03  0.00000000000E+00 0. -1.
         21    1    1    2  503  505 -0.10649622280E+03  0.70280720978E+02  0.16373060845E+02  0.12864253703E+03  0.00000000000E+00 0. -1.
         21    1    1    2  504  501  0.46701842381E+02  0.32094669533E+02  0.16297082018E+03  0.17254164171E+03  0.00000000000E+00 0. -1.
         21    1    1    2  505  502  0.46163250195E+02 -0.68205254560E+02 -0.52970219712E+03  0.53606661904E+03  0.00000000000E+00 0. -1.
         21    1    1    2  506  504  0.13631130221E+02 -0.34170135952E+02 -0.63973771513E+02  0.73797353230E+02  0.00000000000E+00 0. -1.
<scales pt_clust_3="14000.00000" pt_clust_4="56.60214" pt_clust_5="114.59701" pt_clust_6="36.78867"></scales>
<clustering>
<clus scale="   36.789">  2  6  1 -1</clus>
<clus scale="   56.602">  1  4  2 -1</clus>
<clus scale="  114.597">  2  5  1 -1</clus>
<clus scale="   56.602">  1  3  2 -1</clus>
</clustering>
</event>
<event>
 6    0  0.4469832E+002  0.2336464E+03  0.7546771E-02  0.1124099E+00
         21   -1    0    0  505  501  0.00000000000E+00  0.00000000000E+00  0.13304919417E+04  0.13304919417E+04  0.00000000000E+00 0.  1.
         21   -1    0    0  504  502 -0.00000000000E+00 -0.00000000000E+00 -0.63108034041E+02  0.63108034041E+02  0.00000000000E+00 0.  1.
         21    1    1    2  503  501 -0.27486891847E+01  0.31785734260E+02  0.41295727379E+03  0.41418787786E+03  0.00000000000E+00 0.  1.
         21    1    1    2  504  503  0.20749478587E+03 -0.11643467702E+03  0.31066482340E+03  0.39131030229E+03  0.00000000000E+00 0.  1.
         21    1    1    2  505  506 -0.11879525969E+03  0.31738777949E+02  0.30861897582E+03  0.33221278722E+03  0.00000000000E+00 0.  1.
         21    1    1    2  506  502 -0.85950836993E+02  0.52910164815E+02  0.23514283461E+03  0.25588900834E+03  0.00000000000E+00 0.  1.
<scales pt_clust_3="31.90436" pt_clust_4="231.27959" pt_clust_5="30.05406" pt_clust_6="30.05406"></scales>
<clustering>
<clus scale="   30.054">  5  6 -1 -1</clus>
<clus scale="   31.904">  1  3  2 -1</clus>
<clus scale="  231.280">  2  4  1 -1</clus>
<clus scale="   31.904">  1  3  2 -1</clus>
</clustering>
</event>
<event>
 6    0  0.4469832E+002  0.1101456E+03  0.7546771E-02  0.1260301E+00
         21   -1    0    0  505  501  0.00000000000E+00  0.00000000000E+00  0.71512210011E+02  0.71512210011E+02  0.00000000000E+00 0. -1.
         21   -1    0    0  504  502 -0.00000000000E+00 -0.00000000000E+00 -0.20841936257E+04  0.20841936257E+04  0.00000000000E+00 0. -1.
         21    1    1    2  503  501 -0.23947292271E+02 -0.23355629418E+02  0.20330629265E+02  0.39144510713E+02  0.00000000000E+00 0. -1.
         21    1    1    2  504  506  0.83852860509E+01  0.57180930753E+02 -0.25417256912E+03  0.26066005977E+03  0.00000000000E+00 0. -1.
         21    1    1    2  505  502  0.83595177480E+02 -0.11693439214E+03 -0.17332860811E+04  0.17392361670E+04  0.00000000000E+00 0. -1.
         21    1    1    2  506  503 -0.68033171260E+02  0.83109090802E+02 -0.45553394719E+02  0.11666509819E+03  0.00000000000E+00 0. -1.
<scales pt_clust_3="33.45083" pt_clust_4="55.75065" pt_clust_5="14000.00000" pt_clust_6="110.14560"></scales>
<clustering>
<clus scale="   33.451">  1  3  2 -1</clus>
<clus scale="   55.751">  2  4  1 -1</clus>
<clus scale="  110.146">  1  6  2 -1</clus>
<clus scale="   33.451">  1  3  2 -1</clus>
</clustering>
</event>
<event>
 6    0  0.4469832E+002  0.1017463E+03  0.7546771E-02  0.1276666E+00
         21   -1    0    0  505  501  0.00000000000E+00  0.00000000000E+00  0.15148792792E+03  0.15148792792E+03  0.00000000000E+00 0. -1.
         21   -1    0    0  506  502 -0.00000000000E+00 -0.00000000000E+00 -0.89886253000E+03  0.89886253000E+03  0.00000000000E+00 0. -1.
         21    1    1    2  503  502  0.82138614416E+01  0.71527319452E+02 -0.54046788370E+03  0.54524229316E+03  0.00000000000E+00 0. -1.
         21    1    1    2  504  501 -0.13924792275E+02 -0.12824675629E+03 -0.23230630209E+03  0.26572043265E+03  0.00000000000E+00 0. -1.
         21    1    1    2  505  503 -0.33106185222E+02  0.33026670304E+02  0.12306683236E+03  0.13165191103E+03  0.00000000000E+00 0. -1.
         21    1    1    2  506  504  0.38817116056E+02  0.23692766530E+02 -0.97667248648E+02  0.10773582108E+03  0.00000000000E+00 0. -1.
<scales pt_clust_3="14000.00000" pt_clust_4="101.74631" pt_clust_5="46.70569" pt_clust_6="45.47654"></scales>
<clustering>
<clus scale="   45.477">  2  6  1 -1</clus>
<clus scale="   46.706">  1  5  2 -1</clus>
<clus scale="  101.746">  1  4  2 -1</clus>
<clus scale="   46.706">  1  3  2 -1</clus>
</clustering>
</event>
<event>
 6    0  0.4469832E+002  0.1015310E+03  0.7546771E-02  0.1277109E+00
         21   -1    0    0  503  501  0.00000000000E+00  0.00000000000E+00  0.10012048792E+04  0.10012048792E+04  0.00000000000E+00 0.  1.
         21   -1    0    0  506  502 -0.00000000000E+00 -0.00000000000E+00 -0.33097625268E+02  0.33097625268E+02  0.00000000000E+00 0. -1.
         21    1    1    2  503  505 -0.53772590877E+02  0.62378580809E+02  0.34813795678E+03  0.35774658045E+03  0.00000000000E+00 0.  1.
         21    1    1    2  504  501  0.50532109608E+02 -0.13149377289E+03  0.55644715459E+03  0.57400134343E+03  0.00000000000E+00 0.  1.
         21    1    1    2  505  502  0.73909351377E+01  0.29517296134E+02  0.53419610757E+02  0.61478057116E+02  0.00000000000E+00 0. -1.
         21    1    1    2  506  504 -0.41504538682E+01  0.39597895945E+02  0.10102531790E+02  0.41076523455E+02  0.00000000000E+00 0. -1.
<scales pt_clust_3="14000.00000" pt_clust_4="101.53100" pt_clust_5="30.42855" pt_clust_6="55.32446"></scales>
<clustering>
<clus scale="   30.429">  2  5  1 -1</clus>
<clus scale="   55.324">  2  6  1 -1</clus>
<clus scale="  101.531">  2  4  1 -1</clus>
<clus scale="  101.531">  1  3  2 -1</clus>
</clustering>
</event>
<event>
 6    0  0.4469832E+002  0.7281647E+02  0.7546771E-02  0.1350769E+00
         21   -1    0    0  505  501  0.00000000000E+00  0.00000000000E+00  0.10505131800E+04  0.10505131800E+04  0.00000000000E+00 0. -1.
         21   -1    0    0  503  502 -0.00000000000E+00 -0.00000000000E+00 -0.26426140408E+02  0.26426140408E+02  0.00000000000E+00 0. -1.
         21    1    1    2  503  504 -0.46783671123E+01 -0.52382022227E+02  0.81301047936E+02  0.96827804720E+02  0.00000000000E+00 0. -1.
         21    1    1    2  504  501  0.10456794947E+03  0.61450785927E+02  0.54033409739E+03  0.55377937119E+03  0.00000000000E+00 0. -1.
         21    1    1    2  505  506 -0.59217180226E+02  0.21792821421E+00  0.36651790043E+03  0.37127091626E+03  0.00000000000E+00 0. -1.
         21    1    1    2  506  502 -0.40672402130E+02 -0.92866919143E+01  0.35933993818E+02  0.55061228223E+02  0.00000000000E+00 0. -1.
<scales pt_clust_3="61.30096" pt_clust_4="72.81647" pt_clust_5="14000.00000" pt_clust_6="41.71914"></scales>
<clustering>
<clus scale="   41.719">  2  6  1 -1</clus>
<clus scale="   61.301">  2  3  1 -1</clus>
<clus scale="   72.816">  2  4  1 -1</clus>
<clus scale="   72.816">  1  3  2 -1</clus>
</clustering>
</event>
<event>
 6    0  0.4469832E+002  0.1299560E+03  0.7546771E-02  0.1227521E+00
         21   -1    0    0  505  501  0.00000000000E+00  0.00000000000E+00  0.29853853381E+03  0.29853853381E+03  0.00000000000E+00 0.  1.
         21   -1    0    0  506  502 -0.00000000000E+00 -0.00000000000E+00 -0.55593358099E+03  0.55593358099E+03  0.00000000000E+00 0.  1.
         21    1    1    2  503  504  0.49400335348E+02 -0.19783034988E+02 -0.19332432730E+03  0.20051448110E+03  0.00000000000E+00 0.  1.
         21    1    1    2  504  501 -0.64714378239E+02  0.54273979418E+02  0.23951125613E+03  0.25396704000E+03  0.00000000000E+00 0.  1.
         21    1    1    2  505  502 -0.20371138956E+02  0.34149254879E+02  0.34822409055E+02  0.52855984368E+02  0.00000000000E+00 0. -1.
         21    1    1    2  506  503  0.35685181847E+02 -0.68640199309E+02 -0.33840438507E+03  0.34713460933E+03  0.00000000000E+00 0.  1.
<scales pt_clust_3="38.24019" pt_clust_4="121.50174" pt_clust_5="39.76374" pt_clust_6="38.24019"></scales>
<clustering>
<clus scale="   38.240">  3  6 -1 -1</clus>
<clus scale="   39.764">  1  5  2 -1</clus>
<clus scale="  121.502">  1  4  2 -1</clus>
<clus scale="   39.764">  1  3  2 -1</clus>
</clustering>
</event>
<event>
 6    0  0.4469832E+002  0.7032455E+02  0.7546771E-02  0.1358993E+00
         21   -1    0    0  505  501  0.00000000000E+00  0.00000000000E+00  0.45429518032E+03  0.45429518032E+03  0.00000000000E+00 0. -1.
         21   -1    0    0  506  502 -0.00000000000E+00 -0.00000000000E+00 -0.89381572940E+03  0.89381572940E+03  0.00000000000E+00 0. -1.
         21    1    1    2  503  501 -0.11397465016E+02  0.47349769353E+02  0.39256272872E+02  0.62553639593E+02  0.00000000000E+00 0. -1.
         21    1    1    2  504  502  0.59977332927E+02 -0.29604512284E+02 -0.70718070012E+03  0.71033671610E+03  0.00000000000E+00 0. -1.
         21    1    1    2  505  504 -0.49875511755E+02 -0.82830478730E+02  0.38957769636E+03  0.40139660734E+03  0.00000000000E+00 0. -1.
         21    1    1    2  506  503  0.12956438436E+01  0.65085221661E+02 -0.16117381820E+03  0.17382394669E+03  0.00000000000E+00 0. -1.
<scales pt_clust_3="48.70219" pt_clust_4="14000.00000" pt_clust_5="70.32455" pt_clust_6="65.83713"></scales>
<clustering>
<clus scale="   48.702">  1  3  2 -1</clus>
<clus scale="   65.837">  2  6  1 -1</clus>
<clus scale="   70.325">  1  5  2 -1</clus>
<clus scale="   48.702">  1  3  2 -1</clus>
</clustering>
</event>
<event>
 6    0  0.4469832E+002  0.1420638E+03  0.7546771E-02  0.1210579E+00
         21   -1    0    0  506  501  0.00000000000E+00  0.00000000000E+00  0.15316514864E+03  0.15316514864E+03  0.00000000000E+00 0.  1.
         21   -1    0    0  503  502 -0.00000000000E+00 -0.00000000000E+00 -0.38243837849E+03  0.38243837849E+03  0.00000000000E+00 0.  1.
         21    1    1    2  503  504 -0.40969220772E+02 -0.12035875954E+03 -0.10657215806E+03  0.16589856215E+03  0.00000000000E+00 0.  1.
         21    1    1    2  504  505  0.27793616696E+02 -0.86412193119E+02 -0.88984622623E+01  0.91207098842E+02  0.00000000000E+00 0.  1.
         21    1    1    2  505  501  0.27893213559E+02  0.38550333795E+02  0.30379758729E+02  0.56454311959E+02  0.00000000000E+00 0.  1.
         21    1    1    2  506  502 -0.14717609483E+02  0.16822061886E+03 -0.14418236825E+03  0.22204355418E+03  0.00000000000E+00 0.  1.
<scales pt_clust_3="142.06381" pt_clust_4="81.49241" pt_clust_5="47.58319" pt_clust_6="14000.00000"></scales>
<clustering>
<clus scale="   47.583">  1  5  2 -1</clus>
<clus scale="   81.492">  1  4  2 -1</clus>
<clus scale="  142.064">  2  3  1 -1</clus>
<clus scale="   47.583">  1  3  2 -1</clus>
</clustering>
</event>
<event>
 6    0  0.4469832E+002  0.1462678E+03  0.7546771E-02  0.1205136E+00
         21   -1    0    0  506  501  0.00000000000E+00  0.00000000000E+00  0.35674433621E+03  0.35674433621E+03  0.00000000000E+00 0. -1.
         21   -1    0    0  503  502 -0.00000000000E+00 -0.00000000000E+00 -0.34855142990E+04  0.34855142990E+04  0.00000000000E+00 0. -1.
         21    1    1    2  503  501 -0.31294888683E+02  0.15907180442E+02 -0.29426271206E+03  0.29634937516E+03  0.00000000000E+00 0. -1.
         21    1    1    2  504  505 -0.41581261295E+02  0.29457588806E+02 -0.15633552416E+04  0.15641855268E+04  0.00000000000E+00 0. -1.
         21    1    1    2  505  502 -0.14882711995E+02  0.63698128739E+02 -0.16119595942E+04  0.16132862982E+04  0.00000000000E+00 0. -1.
         21    1    1    2  506  504  0.87758861974E+02 -0.10906289799E+03  0.34080758501E+03  0.36843743508E+03  0.00000000000E+00 0. -1.
<scales pt_clust_3="35.10568" pt_clust_4="40.01577" pt_clust_5="40.01577" pt_clust_6="139.84829"></scales>
<clustering>
<clus scale="   35.106">  2  3  1 -1</clus>
<clus scale="   40.016">  4  5 -1 -1</clus>
<clus scale="  139.848">  1  6  2 -1</clus>
<clus scale="  139.848">  1  3  2 -1</clus>
</clustering>
</event>
<event>
 6    0  0.4469832E+002  0.1458935E+03  0.7546771E-02  0.1205612E+00
         21   -1    0    0  504  501  0.00000000000E+00  0.00000000000E+00  0.19192842297E+04  0.19192842297E+04  0.00000000000E+00 0.  1.
         21   -1    0    0  505  502 -0.00000000000E+00 -0.00000000000E+00 -0.39236005907E+03  0.39236005907E+03  0.00000000000E+00 0.  1.
         21    1    1    2  503  506 -0.30478422034E+01  0.13857397549E+03  0.62452191793E+03  0.63971842399E+03  0.00000000000E+00 0.  1.
         21    1    1    2  504  502  0.91665428508E+02 -0.70266003735E+02 -0.34290885790E+03  0.36183745922E+03  0.00000000000E+00 0.  1.
         21    1    1    2  505  503  0.13081279300E+02 -0.35460477510E+02 -0.18280725148E+02  0.41985119332E+02  0.00000000000E+00 0.  1.
         21    1    1    2  506  501 -0.10169886560E+03 -0.32847494241E+02  0.12635918358E+04  0.12681032862E+04  0.00000000000E+00 0.  1.
<scales pt_clust_3="145.89346" pt_clust_4="14000.00000" pt_clust_5="37.79637" pt_clust_6="106.86258"></scales>
<clustering>
<clus scale="   37.796">  2  5  1 -1</clus>
<clus scale="  106.863">  1  6  2 -1</clus>
<clus scale="  145.893">  1  3  2 -1</clus>
<clus scale="  106.863">  1  3  2 -1</clus>
</clustering>
</event>
<event>
 6    0  0.4469832E+002  0.9638605E+02  0.7546771E-02  0.1288085E+00
         21   -1    0    0  505  501  0.00000000000E+00  0.00000000000E+00  0.57542701580E+03  0.57542701580E+03  0.00000000000E+00 0. -1.
         21   -1    0    0  503  502 -0.00000000000E+00 -0.00000000000E+00 -0.12873764420E+03  0.12873764420E+03  0.00000000000E+00 0. -1.
         21    1    1    2  503  504  0.10424776869E+03 -0.36540486606E+02 -0.53165466197E+02  0.12259433606E+03  0.00000000000E+00 0. -1.
         21    1    1    2  504  501 -0.20808004492E+02 -0.38971528019E+02  0.42896517951E+03  0.43123413395E+03  0.00000000000E+00 0. -1.
         21    1    1    2  505  506 -0.23754428835E+02  0.19163834263E+02  0.60286597971E+02  0.67572178653E+02  0.00000000000E+00 0. -1.
         21    1    1    2  506  502 -0.59685335358E+02  0.56348180362E+02  0.10603060317E+02  0.82764011351E+02  0.00000000000E+00 0. -1.
<scales pt_clust_3="14000.00000" pt_clust_4="46.75093" pt_clust_5="30.52090" pt_clust_6="96.38605"></scales>
<clustering>
<clus scale="   30.521">  1  5  2 -1</clus>
<clus scale="   46.751">  1  4  2 -1</clus>
<clus scale="   96.386">  1  6  2 -1</clus>
<clus scale="   30.521">  1  3  2 -1</clus>
</clustering>
</event>
<event>
 6    0  0.4469832E+002  0.2183793E+03  0.7546771E-02  0.1135097E+00
         21   -1    0    0  503  501  0.00000000000E+00  0.00000000000E+00  0.11646547875E+03  0.11646547875E+03  0.00000000000E+00 0.  1.
         21   -1    0    0  505  502 -0.00000000000E+00 -0.00000000000E+00 -0.12118827440E+04  0.12118827440E+04  0.00000000000E+00 0.  1.
         21    1    1    2  503  502  0.13135426338E+03  0.12173367633E+03 -0.37921248554E+01  0.17912959184E+03  0.00000000000E+00 0.  1.
         21    1    1    2  504  501 -0.18110698509E+02  0.59637374780E+02 -0.39621950964E+02  0.73854673984E+02  0.00000000000E+00 0. -1.
         21    1    1    2  505  506 -0.68283788153E+02 -0.58536041848E+02 -0.35672003090E+03  0.36788357447E+03  0.00000000000E+00 0.  1.
         21    1    1    2  506  504 -0.44959776718E+02 -0.12283500926E+03 -0.69528315857E+03  0.70748038249E+03  0.00000000000E+00 0.  1.
<scales pt_clust_3="209.07448" pt_clust_4="62.32667" pt_clust_5="52.29523" pt_clust_6="52.29523"></scales>
<clustering>
<clus scale="   52.295">  5  6 -1 -1</clus>
<clus scale="   62.327">  1  4  2 -1</clus>
<clus scale="  209.074">  1  3  2 -1</clus>
<clus scale="   62.327">  1  3  2 -1</clus>
</clustering>
</event>
<event>
 6    0  0.4469832E+002  0.2025900E+03  0.7546771E-02  0.1147572E+00
         21   -1    0    0  506  501  0.00000000000E+00  0.00000000000E+00  0.13547626301E+04  0.13547626301E+04  0.00000000000E+00 0. -1.
         21   -1    0    0  505  502 -0.00000000000E+00 -0.00000000000E+00 -0.26088827330E+03  0.26088827330E+03  0.00000000000E+00 0. -1.
         21    1    1    2  503  502  0.59262813125E+02 -0.12088330491E+03 -0.19423580203E+03  0.23633112621E+03  0.00000000000E+00 0. -1.
         21    1    1    2  504  503 -0.45152950962E+01  0.14171644178E+03  0.73128471373E+03  0.74490353086E+03  0.00000000000E+00 0. -1.
         21    1    1    2  505  501 -0.65654067398E+02 -0.76474576243E+02  0.30868631436E+02  0.10541200019E+03  0.00000000000E+00 0. -1.
         21    1    1    2  506  504  0.10906549368E+02  0.55641439370E+02  0.52595681369E+03  0.52900424617E+03  0.00000000000E+00 0. -1.
<scales pt_clust_3="194.54803" pt_clust_4="35.73758" pt_clust_5="100.79096" pt_clust_6="35.73758"></scales>
<clustering>
<clus scale="   35.738">  4  6 -1 -1</clus>
<clus scale="  100.791">  2  5  1 -1</clus>
<clus scale="  194.548">  2  3  1 -1</clus>
<clus scale="  202.590">  1  3  2 -1</clus>
</clustering>
</event>
<event>
 6    0  0.4469832E+002  0.1521396E+03  0.7546771E-02  0.1197868E+00
         21   -1    0    0  506  501  0.00000000000E+00  0.00000000000E+00  0.12831914111E+03  0.12831914111E+03  0.00000000000E+00 0. -1.
         21   -1    0    0  505  502 -0.00000000000E+00 -0.00000000000E+00 -0.48542345273E+03  0.48542345273E+03  0.00000000000E+00 0. -1.
         21    1    1    2  503  502  0.23909011643E+02  0.22690484619E+02 -0.15020273617E+03  0.15377698424E+03  0.00000000000E+00 0.  1.
         21    1    1    2  504  503  0.97074126286E+02  0.68901763859E+02 -0.10574891116E+03  0.15922836201E+03  0.00000000000E+00 0. -1.
         21    1    1    2  505  501  0.60424525643E+02 -0.59273765841E+02 -0.77859196598E+02  0.11500676985E+03  0.00000000000E+00 0. -1.
         21    1    1    2  506  504 -0.18140766357E+03 -0.32318482637E+02 -0.23293467698E+02  0.18573047773E+03  0.00000000000E+00 0. -1.
<scales pt_clust_3="32.96208" pt_clust_4="152.13958" pt_clust_5="85.51651" pt_clust_6="14000.00000"></scales>
<clustering>
<clus scale="   32.962">  2  3  1 -1</clus>
<clus scale="   85.517">  2  5  1 -1</clus>
<clus scale="  152.140">  2  4  1 -1</clus>
<clus scale="  152.140">  1  3  2 -1</clus>
</clustering>
</event>
<event>
 6    0  0.4469832E+002  0.1073016E+03  0.7546771E-02  0.1265650E+00
         21   -1    0    0  503  501  0.00000000000E+00  0.00000000000E+00  0.55933101009E+03  0.55933101009E+03  0.00000000000E+00 0. -1.
         21   -1    0    0  505  502 -0.00000000000E+00 -0.00000000000E+00 -0.10742553299E+04  0.10742553299E+04  0.00000000000E+00 0.  1.
         21    1    1    2  503  504  0.22692538654E+02 -0.14294901063E+03 -0.18160356161E+02  0.14587381357E+03  0.00000000000E+00 0.  1.
         21    1    1    2  504  502  0.30803016645E+02 -0.65233285469E+01 -0.29104913760E+02  0.42877449257E+02  0.00000000000E+00 0. -1.
         21    1    1    2  505  506 -0.53242691731E+02  0.10466420103E+03 -0.95160306940E+03  0.95882103695E+03  0.00000000000E+00 0.  1.
         21    1    1    2  506  501 -0.25286356730E+00  0.44808138138E+02  0.48394401955E+03  0.48601404017E+03  0.00000000000E+00 0. -1.
<scales pt_clust_3="14000.00000" pt_clust_4="31.48618" pt_clust_5="107.30163" pt_clust_6="44.80219"></scales>
<clustering>
<clus scale="   31.486">  2  4  1 -1</clus>
<clus scale="   44.802">  1  6  2 -1</clus>
<clus scale="  107.302">  2  5  1 -1</clus>
<clus scale="   44.802">  1  3  2 -1</clus>
</clustering>
</event>
<event>
 6    0  0.4469832E+002  0.1620812E+03  0.7546771E-02  0.1186367E+00
         21   -1    0    0  506  501  0.00000000000E+00  0.00000000000E+00  0.43004177386E+03  0.43004177386E+03  0.00000000000E+00 0.  1.
         21   -1    0    0  504  502 -0.00000000000E+00 -0.00000000000E+00 -0.25205152216E+03  0.25205152216E+03  0.00000000000E+00 0.  1.
         21    1    1    2  503  505 -0.70435220582E+01 -0.39265108286E+02 -0.46834655592E+02  0.61521093099E+02  0.00000000000E+00 0.  1.
         21    1    1    2  504  501 -0.41965763652E+00  0.18492793347E+03  0.21968872454E+03  0.28716136993E+03  0.00000000000E+00 0.  1.
         21    1    1    2  505  502 -0.29441327841E+02 -0.67141026471E+01 -0.13159000891E+03  0.13501037518E+03  0.00000000000E+00 0. -1.
         21    1    1    2  506  503  0.36904507536E+02 -0.13894872254E+03  0.13672619167E+03  0.19840045781E+03  0.00000000000E+00 0.  1.
<scales pt_clust_3="47.02053" pt_clust_4="162.08116" pt_clust_5="30.19720" pt_clust_6="14000.00000"></scales>
<clustering>
<clus scale="   30.197">  2  5  1 -1</clus>
<clus scale="   47.021">  2  3  1 -1</clus>
<clus scale="  162.081">  2  4  1 -1</clus>
<clus scale="  162.081">  1  3  2 -1</clus>
</clustering>
</event>
<event>
 6    0  0.4469832E+002  0.2607426E+03  0.7546771E-02  0.1106698E+00
         21   -1    0    0  504  501  0.00000000000E+00  0.00000000000E+00  0.88744883828E+03  0.88744883828E+03  0.00000000000E+00 0. -1.
         21   -1    0    0  506  502 -0.00000000000E+00 -0.00000000000E+00 -0.83057854520E+02  0.83057854520E+02  0.00000000000E+00 0. -1.
         21    1    1    2  503  501 -0.49537266437E+02  0.31268762167E+02  0.14914205519E+03  0.16023429371E+03  0.00000000000E+00 0. -1.
         21    1    1    2  504  505  0.19467028583E+03 -0.14992516649E+03  0.38379377144E+03  0.45571014332E+03  0.00000000000E+00 0. -1.
         21    1    1    2  505  502 -0.12510513645E+02 -0.27756594251E+02  0.32785422623E+02  0.44741763629E+02  0.00000000000E+00 0.  1.
         21    1    1    2  506  503 -0.13262250574E+03  0.14641299858E+03  0.23866973451E+03  0.30982049215E+03  0.00000000000E+00 0. -1.
<scales pt_clust_3="41.93417" pt_clust_4="249.37156" pt_clust_5="30.44571" pt_clust_6="41.93417"></scales>
<clustering>
<clus scale="   30.446">  2  5  1 -1</clus>
<clus scale="   41.934">  3  6 -1 -1</clus>
<clus scale="  249.372">  1  4  2 -1</clus>
<clus scale="  249.372">  1  3  2 -1</clus>
</clustering>
</event>
<event>
 6    0  0.4469832E+002  0.1044120E+03  0.7546771E-02  0.1271282E+00
         21   -1    0    0  503  501  0.00000000000E+00  0.00000000000E+00  0.13172390833E+03  0.13172390833E+03  0.00000000000E+00 0.  1.
         21   -1    0    0  506  502 -0.00000000000E+00 -0.00000000000E+00 -0.27942610657E+04  0.27942610657E+04  0.00000000000E+00 0.  1.
         21    1    1    2  503  504  0.19434177723E+02  0.11481073912E+03  0.81869708885E+02  0.14234409827E+03  0.00000000000E+00 0.  1.
         21    1    1    2  504  502  0.75529417475E+02 -0.34278194594E+02 -0.24665653144E+04  0.24679595090E+04  0.00000000000E+00 0.  1.
         21    1    1    2  505  501 -0.65585148703E+02 -0.49969697797E+02 -0.85720066145E+02  0.11893827041E+03  0.00000000000E+00 0.  1.
         21    1    1    2  506  505 -0.29378446494E+02 -0.30562846725E+02 -0.19212148563E+03  0.19674309635E+03  0.00000000000E+00 0.  1.
<scales pt_clust_3="14000.00000" pt_clust_4="79.21564" pt_clust_5="104.41200" pt_clust_6="42.39317"></scales>
<clustering>
<clus scale="   42.393">  2  6  1 -1</clus>
<clus scale="   79.216">  2  4  1 -1</clus>
<clus scale="  104.412">  2  5  1 -1</clus>
<clus scale="  104.412">  1  3  2 -1</clus>
</clustering>
</event>
<event>
 6    0  0.4469832E+002  0.3354096E+03  0.7546771E-02  0.1068768E+00
         21   -1    0    0  505  501  0.00000000000E+00  0.00000000000E+00  0.60792414651E+03  0.60792414651E+03  0.00000000000E+00 0.  1.
         21   -1    0    0  506  502 -0.00000000000E+00 -0.00000000000E+00 -0.14179135465E+04  0.14179135465E+04  0.00000000000E+00 0.  1.
         21    1    1    2  503  504 -0.22359581613E+03 -0.15395818700E+03  0.18537298845E+03  0.32872687323E+03  0.00000000000E+00 0.  1.
         21    1    1    2  504  502 -0.27313650459E+02 -0.43057265095E+02 -0.12676108655E+03  0.13663212156E+03  0.00000000000E+00 0.  1.
         21    1    1    2  505  503 -0.40990061893E+02 -0.58692451381E+02  0.31076720792E+03  0.31890632878E+03  0.00000000000E+00 0.  1.
         21    1    1    2  506  501  0.29189952848E+03  0.25570790348E+03 -0.11793685098E+04  0.12415723695E+04  0.00000000000E+00 0.  1.
<scales pt_clust_3="335.40960" pt_clust_4="50.98984" pt_clust_5="71.75020" pt_clust_6="14000.00000"></scales>
<clustering>
<clus scale="   50.990">  2  4  1 -1</clus>
<clus scale="   71.750">  1  5  2 -1</clus>
<clus scale="  335.410">  1  3  2 -1</clus>
<clus scale="   71.750">  1  3  2 -1</clus>
</clustering>
</event>
<event>
 6    0  0.4469832E+002  0.8461617E+02  0.7546771E-02  0.1316439E+00
         21   -1    0    0  503  501  0.00000000000E+00  0.00000000000E+00  0.28726655145E+03  0.28726655145E+03  0.00000000000E+00 0.  1.
         21   -1    0    0  505  502 -0.00000000000E+00 -0.00000000000E+00 -0.15166454947E+04  0.15166454947E+04  0.00000000000E+00 0.  1.
         21    1    1    2  503  504 -0.34728597390E+02  0.75630004247E+02  0.25259102534E+03  0.26594773754E+03  0.00000000000E+00 0.  1.
         21    1    1    2  504  506  0.21250232687E+02 -0.11960112414E+03 -0.13570035903E+03  0.18212794603E+03  0.00000000000E+00 0.  1.
         21    1    1    2  505  501  0.30096521996E+02  0.18910470074E+02 -0.63950182727E+02  0.73164420216E+02  0.00000000000E+00 0.  1.
         21    1    1    2  506  502 -0.16618157293E+02  0.25060649820E+02 -0.12823194269E+04  0.12826719424E+04  0.00000000000E+00 0.  1.
<scales pt_clust_3="14000.00000" pt_clust_4="84.61617" pt_clust_5="36.40818" pt_clust_6="30.06991"></scales>
<clustering>
<clus scale="   30.070">  2  6  1 -1</clus>
<clus scale="   36.408">  2  5  1 -1</clus>
<clus scale="   84.616">  2  4  1 -1</clus>
<clus scale="   84.616">  1  3  2 -1</clus>
</clustering>
</event>
<event>
 6    0  0.4469832E+002  0.9702484E+02  0.7546771E-02  0.1286680E+00
         21   -1    0    0  504  501  0.00000000000E+00  0.00000000000E+00  0.24462172015E+03  0.24462172015E+03  0.00000000000E+00 0.  1.
         21   -1    0    0  503  502 -0.00000000000E+00 -0.00000000000E+00 -0.26784556791E+03  0.26784556791E+03  0.00000000000E+00 0.  1.
         21    1    1    2  503  501  0.31385419311E+02 -0.13045980102E+02  0.15449598809E+03  0.15819055748E+03  0.00000000000E+00 0.  1.
         21    1    1    2  504  506  0.32028826043E+02  0.49998181999E+02  0.23728808523E+02  0.63943101699E+02  0.00000000000E+00 0.  1.
         21    1    1    2  505  502 -0.21233430873E+01  0.77610098024E+02 -0.58865247845E+02  0.97431787959E+02  0.00000000000E+00 0.  1.
         21    1    1    2  506  505 -0.61290902267E+02 -0.11456229992E+03 -0.14258339653E+03  0.19290184092E+03  0.00000000000E+00 0.  1.
<scales pt_clust_3="33.98885" pt_clust_4="64.50626" pt_clust_5="97.02484" pt_clust_6="14000.00000"></scales>
<clustering>
<clus scale="   33.989">  1  3  2 -1</clus>
<clus scale="   64.506">  1  4  2 -1</clus>
<clus scale="   97.025">  2  5  1 -1</clus>
<clus scale="   33.989">  1  3  2 -1</clus>
</clustering>
</event>
<event>
 6    0  0.4469832E+002  0.1191249E+03  0.7546771E-02  0.1244548E+00
         21   -1    0    0  506  501  0.00000000000E+00  0.00000000000E+00  0.60005863580E+03  0.60005863580E+03  0.00000000000E+00 0. -1.
         21   -1    0    0  503  502 -0.00000000000E+00 -0.00000000000E+00 -0.15874230604E+03  0.15874230604E+03  0.00000000000E+00 0. -1.
         21    1    1    2  503  505  0.34664234698E+02 -0.25883335226E+02 -0.28959540218E+02  0.52059688621E+02  0.00000000000E+00 0. -1.
         21    1    1    2  504  501  0.28189765169E+02 -0.28275907227E+02  0.16089096325E+03  0.16577120331E+03  0.00000000000E+00 0. -1.
         21    1    1    2  505  504  0.14904568800E+02 -0.69864925479E+02 -0.90405185340E+02  0.11522305116E+03  0.00000000000E+00 0. -1.
         21    1    1    2  506  502 -0.77758568667E+02  0.12402416793E+03  0.39979009206E+03  0.42574699875E+03  0.00000000000E+00 0. -1.
<scales pt_clust_3="35.75284" pt_clust_4="39.92731" pt_clust_5="35.75284" pt_clust_6="109.90889"></scales>
<clustering>
<clus scale="   35.753">  3  5 -1 -1</clus>
<clus scale="   39.927">  1  4  2 -1</clus>
<clus scale="  109.909">  1  6  2 -1</clus>
<clus scale="   39.927">  1  3  2 -1</clus>
</clustering>
</event>
<event>
 6    0  0.4469832E+002  0.1255232E+03  0.7546771E-02  0.1234254E+00
         21   -1    0    0  505  501  0.00000000000E+00  0.00000000000E+00  0.40495038787E+03  0.40495038787E+03  0.00000000000E+00 0.  1.
         21   -1    0    0  504  502 -0.00000000000E+00 -0.00000000000E+00 -0.14804860660E+03  0.14804860660E+03  0.00000000000E+00 0.  1.
         21    1    1    2  503  506  0.11857785096E+03 -0.29557530192E+02  0.26610831697E+03  0.29282757843E+03  0.00000000000E+00 0.  1.
         21    1    1    2  504  503 -0.65081492273E+02 -0.86910884681E+01  0.42485982391E+00  0.65660613469E+02  0.00000000000E+00 0. -1.
         21    1    1    2  505  502 -0.74414100053E+02  0.87039929366E+01 -0.83538972368E+02  0.11221398168E+03  0.00000000000E+00 0.  1.
         21    1    1    2  506  501  0.20917741370E+02  0.29544625723E+02  0.73907576842E+02  0.82296820885E+02  0.00000000000E+00 0.  1.
<scales pt_clust_3="14000.00000" pt_clust_4="63.22466" pt_clust_5="125.52321" pt_clust_6="36.19996"></scales>
<clustering>
<clus scale="   36.200">  1  6  2 -1</clus>
<clus scale="   63.225">  2  4  1 -1</clus>
<clus scale="  125.523">  2  5  1 -1</clus>
<clus scale="   36.200">  1  3  2 -1</clus>
</clustering>
</event>
<event>
 6    0  0.4469832E+002  0.2451352E+03  0.7546771E-02  0.1116418E+00
         21   -1    0    0  503  501  0.00000000000E+00  0.00000000000E+00  0.56883824846E+03  0.56883824846E+03  0.00000000000E+00 0. -1.
         21   -1    0    0  506  502 -0.00000000000E+00 -0.00000000000E+00 -0.24409386547E+03  0.24409386547E+03  0.00000000000E+00 0. -1.
         21    1    1    2  503  502 -0.17670443463E+03  0.12700900867E+03  0.33416507041E+03  0.39877567602E+03  0.00000000000E+00 0. -1.
         21    1    1    2  504  505  0.11159310129E+03 -0.24564023549E+02 -0.79317268264E+02  0.13909579632E+03  0.00000000000E+00 0. -1.
         21    1    1    2  505  501 -0.31105908034E+02 -0.11125210668E+02  0.12656808908E+03  0.13080836747E+03  0.00000000000E+00 0.  1.
         21    1    1    2  506  504  0.96217241376E+02 -0.91319774455E+02 -0.56671508236E+02  0.14425227413E+03  0.00000000000E+00 0. -1.
<scales pt_clust_3="234.33364" pt_clust_4="66.60013" pt_clust_5="33.03555" pt_clust_6="66.60013"></scales>
<clustering>
<clus scale="   33.036">  1  5  2 -1</clus>
<clus scale="   66.600">  4  6 -1 -1</clus>
<clus scale="  234.334">  1  3  2 -1</clus>
<clus scale="   33.036">  1  3  2 -1</clus>
</clustering>
</event>
<event>
 6    0  0.4469832E+002  0.1399271E+03  0.7546771E-02  0.1213427E+00
         21   -1    0    0  505  501  0.00000000000E+00  0.00000000000E+00  0.25629529574E+02  0.25629529574E+02  0.00000000000E+00 0. -1.
         21   -1    0    0  504  502 -0.00000000000E+00 -0.00000000000E+00 -0.15407575939E+04  0.15407575939E+04  0.00000000000E+00 0. -1.
         21    1    1    2  503  502  0.25120784867E+02  0.65043820205E+02 -0.55248817169E+03  0.55687066024E+03  0.00000000000E+00 0. -1.
         21    1    1    2  504  501 -0.15799340159E+02  0.52509076312E+02 -0.66252431775E+02  0.86001203251E+02  0.00000000000E+00 0. -1.
         21    1    1    2  505  506  0.14811391245E+02 -0.16537876302E+03 -0.61187790621E+03  0.63400637590E+03  0.00000000000E+00 0. -1.
         21    1    1    2  506  503 -0.24132835953E+02  0.47825866500E+02 -0.28450955462E+03  0.28950888405E+03  0.00000000000E+00 0. -1.
<scales pt_clust_3="48.42793" pt_clust_4="54.83450" pt_clust_5="128.55737" pt_clust_6="48.42793"></scales>
<clustering>
<clus scale="   48.428">  3  6 -1 -1</clus>
<clus scale="   54.834">  1  4  2 -1</clus>
<clus scale="  128.557">  1  5  2 -1</clus>
<clus scale="   54.834">  1  3  2 -1</clus>
</clustering>
</event>
<event>
 6    0  0.4469832E+002  0.1570418E+03  0.7546771E-02  0.1192078E+00
         21   -1    0    0  506  501  0.00000000000E+00  0.00000000000E+00  0.15728259722E+03  0.15728259722E+03  0.00000000000E+00 0.  1.
         21   -1    0    0  501  502 -0.00000000000E+00 -0.00000000000E+00 -0.18156596077E+04  0.18156596077E+04  0.00000000000E+00 0.  1.
         21    1    1    2  503  502  0.10885590264E+02 -0.64962595154E+02 -0.10846556678E+04  0.10866538329E+04  0.00000000000E+00 0.  1.
         21    1    1    2  504  505 -0.22305048157E+02  0.12744544596E+03  0.85990138850E+02  0.15535173268E+03  0.00000000000E+00 0.  1.
         21    1    1    2  505  503 -0.29179688834E+02 -0.77437517881E+02 -0.67867202326E+03  0.68369857289E+03  0.00000000000E+00 0.  1.
         21    1    1    2  506  504  0.40599146726E+02  0.14954667077E+02  0.18960541714E+02  0.47238066476E+02  0.00000000000E+00 0. -1.
<scales pt_clust_3="58.06463" pt_clust_4="143.00870" pt_clust_5="58.06463" pt_clust_6="43.26584"></scales>
<clustering>
<clus scale="   43.266">  1  6  2 -1</clus>
<clus scale="   58.065">  3  5 -1 -1</clus>
<clus scale="  143.009">  1  4  2 -1</clus>
<clus scale="   43.266">  1  3  2 -1</clus>
</clustering>
</event>
<event>
 6    0  0.4469832E+002  0.1144401E+03  0.7546771E-02  0.1252562E+00
         21   -1    0    0  506  501  0.00000000000E+00  0.00000000000E+00  0.16039511911E+04  0.16039511911E+04  0.00000000000E+00 0. -1.
         21   -1    0    0  504  502 -0.00000000000E+00 -0.00000000000E+00 -0.18566363551E+03  0.18566363551E+03  0.00000000000E+00 0.  1.
         21    1    1    2  503  502  0.16254785750E+02 -0.32514293986E+02 -0.32877105312E+02  0.49013278067E+02  0.00000000000E+00 0. -1.
         21    1    1    2  504  501  0.10567103234E+03 -0.36338234193E+02  0.14349069430E+04  0.14392514615E+04  0.00000000000E+00 0. -1.
         21    1    1    2  505  503  0.46436955956E+02 -0.10062907908E+01 -0.82023762195E+02  0.94261874924E+02  0.00000000000E+00 0.  1.
         21    1    1    2  506  505 -0.16836277405E+03  0.69858818970E+02  0.98281480100E+02  0.20708821213E+03  0.00000000000E+00 0.  1.
<scales pt_clust_3="36.35103" pt_clust_4="14000.00000" pt_clust_5="60.05759" pt_clust_6="114.44013"></scales>
<clustering>
<clus scale="   36.351">  2  3  1 -1</clus>
<clus scale="   60.058">  2  5  1 -1</clus>
<clus scale="  114.440">  2  6  1 -1</clus>
<clus scale="  114.440">  1  3  2 -1</clus>
</clustering>
</event>
<event>
 6    0  0.4469832E+002  0.9840325E+02  0.7546771E-02  0.1283690E+00
         21   -1    0    0  505  501  0.00000000000E+00  0.00000000000E+00  0.25119799945E+04  0.25119799945E+04  0.00000000000E+00 0. -1.
         21   -1    0    0  503  502 -0.00000000000E+00 -0.00000000000E+00 -0.85325175125E+03  0.85325175125E+03  0.00000000000E+00 0. -1.
         21    1    1    2  503  506 -0.38523412470E+01 -0.99486967851E+02  0.93409293732E+03  0.93938390068E+03  0.00000000000E+00 0. -1.
         21    1    1    2  504  502 -0.16015661703E+02  0.53973318183E+02 -0.69033125380E+03  0.69262317350E+03  0.00000000000E+00 0. -1.
         21    1    1    2  505  504 -0.65644764298E+02 -0.27859636240E+02 -0.14900973599E+03  0.16519472096E+03  0.00000000000E+00 0. -1.
         21    1    1    2  506  501  0.85512767248E+02  0.73373285908E+02  0.15639762957E+04  0.15680299506E+04  0.00000000000E+00 0. -1.
<scales pt_clust_3="14000.00000" pt_clust_4="56.29938" pt_clust_5="84.82944" pt_clust_6="98.40325"></scales>
<clustering>
<clus scale="   56.299">  2  4  1 -1</clus>
<clus scale="   84.829">  2  5  1 -1</clus>
<clus scale="   98.403">  1  6  2 -1</clus>
<clus scale="   98.403">  1  3  2 -1</clus>
</clustering>
</event>
<event>
 6    0  0.4469832E+002  0.1685679E+03  0.7546771E-02  0.1179350E+00
         21   -1    0    0  503  501  0.00000000000E+00  0.00000000000E+00  0.14805437591E+04  0.14805437591E+04  0.00000000000E+00 0.  1.
         21   -1    0    0  504  502 -0.00000000000E+00 -0.00000000000E+00 -0.43836145282E+03  0.43836145282E+03  0.00000000000E+00 0. -1.
         21    1    1    2  503  502 -0.15217826317E+03 -0.10191038491E+03 -0.92774987275E+02  0.20530744896E+03  0.00000000000E+00 0. -1.
         21    1    1    2  504  505  0.87177040900E+02  0.14235516552E+03 -0.23354049675E+03  0.28706444091E+03  0.00000000000E+00 0. -1.
         21    1    1    2  505  506  0.37853742205E+02 -0.17394387734E+02 -0.13717491455E+02  0.43859321647E+02  0.00000000000E+00 0. -1.
         21    1    1    2  506  501  0.27147480064E+02 -0.23050392886E+02  0.13822152818E+04  0.13826740004E+04  0.00000000000E+00 0.  1.
<scales pt_clust_3="14000.00000" pt_clust_4="168.56789" pt_clust_5="46.95050" pt_clust_6="35.61329"></scales>
<clustering>
<clus scale="   35.613">  1  6  2 -1</clus>
<clus scale="   46.950">  1  5  2 -1</clus>
<clus scale="  168.568">  2  4  1 -1</clus>
<clus scale="   35.613">  1  3  2 -1</clus>
</clustering>
</event>
<event>
 6    0  0.4469832E+002  0.1480021E+03  0.7546771E-02  0.1202950E+00
         21   -1    0    0  506  501  0.00000000000E+00  0.00000000000E+00  0.32377607712E+03  0.32377607712E+03  0.00000000000E+00 0. -1.
         21   -1    0    0  505  502 -0.00000000000E+00 -0.00000000000E+00 -0.27330343552E+03  0.27330343552E+03  0.00000000000E+00 0. -1.
         21    1    1    2  503  501 -0.88978021463E+01 -0.31567122204E+02  0.49612802614E+02  0.59473391281E+02  0.00000000000E+00 0. -1.
         21    1    1    2  504  502  0.34361847141E+02  0.24047343592E+02 -0.10239689899E+03  0.11065322497E+03  0.00000000000E+00 0.  1.
         21    1    1    2  505  503 -0.13452875664E+03  0.81089520219E+02  0.20668912315E+03  0.25960333257E+03  0.00000000000E+00 0. -1.
         21    1    1    2  506  504  0.10906471164E+03 -0.73569741607E+02 -0.10343238517E+03  0.16734956382E+03  0.00000000000E+00 0. -1.
<scales pt_clust_3="32.79717" pt_clust_4="41.55249" pt_clust_5="148.00213" pt_clust_6="14000.00000"></scales>
<clustering>
<clus scale="   32.797">  1  3  2 -1</clus>
<clus scale="   41.552">  2  4  1 -1</clus>
<clus scale="  148.002">  1  5  2 -1</clus>
<clus scale="   32.797">  1  3  2 -1</clus>
</clustering>
</event>
<event>
 6    0  0.4469832E+002  0.1036682E+03  0.7546771E-02  0.1272766E+00
         21   -1    0    0  505  501  0.00000000000E+00  0.00000000000E+00  0.22934541470E+03  0.22934541470E+03  0.00000000000E+00 0.  1.
         21   -1    0    0  503  502 -0.00000000000E+00 -0.00000000000E+00 -0.68743661209E+03  0.68743661209E+03  0.00000000000E+00 0.  1.
         21    1    1    2  503  501 -0.28079395675E+02  0.21124533983E+02  0.10491636427E+03  0.11064421309E+03  0.00000000000E+00 0.  1.
         21    1    1    2  504  506  0.15421603321E+02 -0.85114085305E+02 -0.12846603929E+03  0.15487335670E+03  0.00000000000E+00 0.  1.
         21    1    1    2  505  504  0.17265512095E+02 -0.47376775774E+02  0.96377356794E+02  0.10877155737E+03  0.00000000000E+00 0.  1.
         21    1    1    2  506  502 -0.46077197415E+01  0.11136632710E+03 -0.53091887917E+03  0.54249289963E+03  0.00000000000E+00 0.  1.
<scales pt_clust_3="35.13828" pt_clust_4="14000.00000" pt_clust_5="30.24315" pt_clust_6="103.66818"></scales>
<clustering>
<clus scale="   35.138">  1  3  2 -1</clus>
<clus scale="   30.243">  1  5  2 -1</clus>
<clus scale="  103.668">  2  6  1 -1</clus>
<clus scale="   35.138">  1  3  2 -1</clus>
</clustering>
</event>
<event>
 6    0  0.4469832E+002  0.1884708E+03  0.7546771E-02  0.1159848E+00
         21   -1    0    0  505  501  0.00000000000E+00  0.00000000000E+00  0.33360592818E+02  0.33360592818E+02  0.00000000000E+00 0. -1.
         21   -1    0    0  506  502 -0.00000000000E+00 -0.00000000000E+00 -0.25740834232E+04  0.25740834232E+04  0.00000000000E+00 0. -1.
         21    1    1    2  503  501 -0.34591481695E+02 -0.15676670253E+02 -0.47503148674E+02  0.60818399601E+02  0.00000000000E+00 0. -1.
         21    1    1    2  504  502  0.92893394226E+02  0.19959760293E+03 -0.11008435654E+04  0.11226419470E+04  0.00000000000E+00 0. -1.
         21    1    1    2  505  504  0.16389411305E+02 -0.28115063797E+02 -0.15037385103E+02  0.35849582508E+02  0.00000000000E+00 0. -1.
         21    1    1    2  506  503 -0.74691323836E+02 -0.15580586888E+03 -0.13773387312E+04  0.13881340868E+04  0.00000000000E+00 0. -1.
<scales pt_clust_3="38.18669" pt_clust_4="188.47083" pt_clust_5="32.54335" pt_clust_6="14000.00000"></scales>
<clustering>
<clus scale="   32.543">  1  5  2 -1</clus>
<clus scale="   38.187">  1  3  2 -1</clus>
<clus scale="  188.471">  1  4  2 -1</clus>
<clus scale="   32.543">  1  3  2 -1</clus>
</clustering>
</event>
<event>
 6    0  0.4469832E+002  0.1227013E+03  0.7546771E-02  0.1238706E+00
         21   -1    0    0  506  501  0.00000000000E+00  0.00000000000E+00  0.16216025287E+03  0.16216025287E+03  0.00000000000E+00 0. -1.
         21   -1    0    0  503  502 -0.00000000000E+00 -0.00000000000E+00 -0.14452861753E+03  0.14452861753E+03  0.00000000000E+00 0.  1.
         21    1    1    2  503  504  0.57596617909E+02  0.56818143042E+01 -0.63282291034E+01  0.58221129256E+02  0.00000000000E+00 0. -1.
         21    1    1    2  504  505  0.45032418579E+02  0.32231302356E+02 -0.18597662038E+02  0.58417879180E+02  0.00000000000E+00 0.  1.
         21    1    1    2  505  501  0.10792800358E+02  0.30317211513E+02  0.47753896652E+02  0.57585176035E+02  0.00000000000E+00 0.  1.
         21    1    1    2  506  502 -0.11342183685E+03 -0.68230328173E+02 -0.51963701637E+01  0.13246468593E+03  0.00000000000E+00 0.  1.
<scales pt_clust_3="31.13691" pt_clust_4="31.13691" pt_clust_5="32.18102" pt_clust_6="118.50055"></scales>
<clustering>
<clus scale="   31.137">  3  4 -1 -1</clus>
<clus scale="   32.181">  1  5  2 -1</clus>
<clus scale="  118.501">  1  6  2 -1</clus>
<clus scale="   32.181">  1  3  2 -1</clus>
</clustering>
</event>
<event>
 6    0  0.4469832E+002  0.6876398E+02  0.7546771E-02  0.1364347E+00
         21   -1    0    0  503  501  0.00000000000E+00  0.00000000000E+00  0.41240952643E+03  0.41240952643E+03  0.00000000000E+00 0. -1.
         21   -1    0    0  504  502 -0.00000000000E+00 -0.00000000000E+00 -0.64111806712E+03  0.64111806712E+03  0.00000000000E+00 0.  1.
         21    1    1    2  503  506 -0.89737182020E+02 -0.12498864319E+02  0.18637426305E+02  0.92500470839E+02  0.00000000000E+00 0. -1.
         21    1    1    2  504  505  0.60359867247E+02  0.30433520384E+02 -0.52037393487E+03  0.52474617181E+03  0.00000000000E+00 0.  1.
         21    1    1    2  505  501  0.56992379897E+02 -0.38320792434E+02  0.34753060187E+03  0.35425151198E+03  0.00000000000E+00 0. -1.
         21    1    1    2  506  502 -0.27615065124E+02  0.20386136369E+02 -0.74502633994E+02  0.82029438922E+02  0.00000000000E+00 0. -1.
<scales pt_clust_3="68.76398" pt_clust_4="60.34925" pt_clust_5="14000.00000" pt_clust_6="34.32472"></scales>
<clustering>
<clus scale="   34.325">  2  6  1 -1</clus>
<clus scale="   60.349">  2  4  1 -1</clus>
<clus scale="   68.764">  2  3  1 -1</clus>
<clus scale="   68.764">  1  3  2 -1</clus>
</clustering>
</event>
<event>
 6    0  0.4469832E+002  0.1493064E+03  0.7546771E-02  0.1201328E+00
         21   -1    0    0  503  501  0.00000000000E+00  0.00000000000E+00  0.49653374368E+03  0.49653374368E+03  0.00000000000E+00 0. -1.
         21   -1    0    0  506  502 -0.00000000000E+00 -0.00000000000E+00 -0.45229897218E+03  0.45229897218E+03  0.00000000000E+00 0. -1.
         21    1    1    2  503  505 -0.66412071149E+02 -0.16030498077E+03  0.10298894129E+03  0.20177951354E+03  0.00000000000E+00 0. -1.
         21    1    1    2  504  501  0.93265636818E+02  0.10918216798E+03  0.31387851162E+03  0.34516509800E+03  0.00000000000E+00 0. -1.
         21    1    1    2  505  502  0.28863125565E+02 -0.10826274079E+02 -0.14274142132E+02  0.33971154844E+02  0.00000000000E+00 0. -1.
         21    1    1    2  506  504 -0.55716691234E+02  0.61949086874E+02 -0.35835853928E+03  0.36791694949E+03  0.00000000000E+00 0. -1.
<scales pt_clust_3="149.30643" pt_clust_4="14000.00000" pt_clust_5="30.82675" pt_clust_6="61.32035"></scales>
<clustering>
<clus scale="   30.827">  2  5  1 -1</clus>
<clus scale="   61.320">  2  6  1 -1</clus>
<clus scale="  149.306">  2  3  1 -1</clus>
<clus scale="  149.306">  1  3  2 -1</clus>
</clustering>
</event>
<event>
 6    0  0.4469832E+002  0.1713419E+03  0.7546771E-02  0.1176456E+00
         21   -1    0    0  503  501  0.00000000000E+00  0.00000000000E+00  0.12287997100E+04  0.12287997100E+04  0.00000000000E+00 0.  1.
         21   -1    0    0  505  502 -0.00000000000E+00 -0.00000000000E+00 -0.29717419688E+02  0.29717419688E+02  0.00000000000E+00 0.  1.
         21    1    1    2  503  506 -0.58687514470E+01 -0.33628091423E+02  0.21546480394E+03  0.21815217742E+03  0.00000000000E+00 0. -1.
         21    1    1    2  504  501 -0.95733005134E+02 -0.51840150003E+02  0.36005582895E+03  0.37615476786E+03  0.00000000000E+00 0.  1.
         21    1    1    2  505  504 -0.27066456315E+02 -0.37781901462E+02  0.84123709253E+02  0.96108603122E+02  0.00000000000E+00 0.  1.
         21    1    1    2  506  502  0.12866821290E+03  0.12325014289E+03  0.53943794816E+03  0.56810158128E+03  0.00000000000E+00 0.  1.
<scales pt_clust_3="34.13636" pt_clust_4="33.47846" pt_clust_5="33.47846" pt_clust_6="163.50116"></scales>
<clustering>
<clus scale="   33.478">  4  5 -1 -1</clus>
<clus scale="   34.136">  1  3  2 -1</clus>
<clus scale="  163.501">  1  6  2 -1</clus>
<clus scale="   34.136">  1  3  2 -1</clus>
</clustering>
</event>
<event>
 6    0  0.4469832E+002  0.1534631E+03  0.7546771E-02  0.1196281E+00
         21   -1    0    0  504  501  0.00000000000E+00  0.00000000000E+00  0.89151343904E+03  0.89151343904E+03  0.00000000000E+00 0. -1.
         21   -1    0    0  503  502 -0.00000000000E+00 -0.00000000000E+00 -0.36488622637E+02  0.36488622637E+02  0.00000000000E+00 0. -1.
         21    1    1    2  503  506 -0.70263921367E+02 -0.80329815977E+02  0.18780211325E+03  0.21600817513E+03  0.00000000000E+00 0. -1.
         21    1    1    2  504  502  0.21950721840E+02  0.14510649230E+03  0.41493997429E+03  0.44012828875E+03  0.00000000000E+00 0. -1.
         21    1    1    2  505  501  0.37992991254E+02 -0.22224650762E+02  0.19421199469E+03  0.19913739319E+03  0.00000000000E+00 0. -1.
         21    1    1    2  506  505  0.10320208273E+02 -0.42552025557E+02  0.58070734173E+02  0.72728204606E+02  0.00000000000E+00 0.  1.
<scales pt_clust_3="41.61954" pt_clust_4="139.02839" pt_clust_5="44.01593" pt_clust_6="41.61954"></scales>
<clustering>
<clus scale="   41.620">  3  6 -1 -1</clus>
<clus scale="   44.016">  1  5  2 -1</clus>
<clus scale="  139.028">  1  4  2 -1</clus>
<clus scale="   44.016">  1  3  2 -1</clus>
</clustering>
</event>
<event>
 6    0  0.4469832E+002  0.1139225E+03  0.7546771E-02  0.1253474E+00
         21   -1    0    0  505  501  0.00000000000E+00  0.00000000000E+00  0.91283134354E+02  0.91283134354E+02  0.00000000000E+00 0. -1.
         21   -1    0    0  504  502 -0.00000000000E+00 -0.00000000000E+00 -0.98744031059E+03  0.98744031059E+03  0.00000000000E+00 0. -1.
         21    1    1    2  503  506  0.16622841447E+02  0.67506913181E+02 -0.25032572274E+03  0.25980082688E+03  0.00000000000E+00 0. -1.
         21    1    1    2  504  501 -0.72683267208E+02 -0.69910254011E+02  0.50601949910E+02  0.11283110512E+03  0.00000000000E+00 0. -1.
         21    1    1    2  505  503  0.38773183312E+02  0.50569911510E+02 -0.44122383197E+03  0.44580168864E+03  0.00000000000E+00 0. -1.
         21    1    1    2  506  502  0.17287242448E+02 -0.48166570680E+02 -0.25520957144E+03  0.26028982431E+03  0.00000000000E+00 0. -1.
<scales pt_clust_3="49.03491" pt_clust_4="101.75991" pt_clust_5="49.03491" pt_clust_6="51.17487"></scales>
<clustering>
<clus scale="   49.035">  3  5 -1 -1</clus>
<clus scale="   51.175">  2  6  1 -1</clus>
<clus scale="  101.760">  1  4  2 -1</clus>
<clus scale="  101.760">  1  3  2 -1</clus>
</clustering>
</event>
<event>
 6    0  0.4469832E+002  0.1200983E+03  0.7546771E-02  0.1242935E+00
         21   -1    0    0  505  501  0.00000000000E+00  0.00000000000E+00  0.58364637399E+03  0.58364637399E+03  0.00000000000E+00 0. -1.
         21   -1    0    0  506  502 -0.00000000000E+00 -0.00000000000E+00 -0.18785198785E+04  0.18785198785E+04  0.00000000000E+00 0. -1.
         21    1    1    2  503  502 -0.27304937203E+02 -0.44265663291E+02 -0.91661666200E+02  0.10538913413E+03  0.00000000000E+00 0.  1.
         21    1    1    2  504  501 -0.94348789615E+02 -0.77101418455E+02  0.54370818318E+03  0.55719378253E+03  0.00000000000E+00 0. -1.
         21    1    1    2  505  503  0.28370398534E+02  0.10508918070E+03 -0.93618942432E+02  0.14357270561E+03  0.00000000000E+00 0.  1.
         21    1    1    2  506  504  0.93283328284E+02  0.16277901045E+02 -0.16533010790E+04  0.16560106302E+04  0.00000000000E+00 0. -1.
<scales pt_clust_3="52.00970" pt_clust_4="14000.00000" pt_clust_5="120.09828" pt_clust_6="72.31260"></scales>
<clustering>
<clus scale="   52.010">  2  3  1 -1</clus>
<clus scale="   72.313">  2  6  1 -1</clus>
<clus scale="  120.098">  2  5  1 -1</clus>
<clus scale="  120.098">  1  3  2 -1</clus>
</clustering>
</event>
<event>
 6    0  0.4469832E+002  0.9514218E+02  0.7546771E-02  0.1290856E+00
         21   -1    0    0  503  501  0.00000000000E+00  0.00000000000E+00  0.16567229968E+04  0.16567229968E+04  0.00000000000E+00 0. -1.
         21   -1    0    0  506  502 -0.00000000000E+00 -0.00000000000E+00 -0.92716762153E+02  0.92716762153E+02  0.00000000000E+00 0. -1.
         21    1    1    2  503  504  0.24617705927E+02 -0.65569019578E+02  0.14920903215E+04  0.14937331942E+04  0.00000000000E+00 0. -1.
         21    1    1    2  504  505  0.73370833342E+02  0.59365288347E+02  0.55954588098E+02  0.10971979117E+03  0.00000000000E+00 0. -1.
         21    1    1    2  505  502  0.13855322634E+01  0.34531544492E+02 -0.15634594061E+02  0.37931356371E+02  0.00000000000E+00 0. -1.
         21    1    1    2  506  501 -0.99374071533E+02 -0.28327813261E+02  0.31595919117E+02  0.10805541727E+03  0.00000000000E+00 0. -1.
<scales pt_clust_3="69.64155" pt_clust_4="95.14218" pt_clust_5="34.55933" pt_clust_6="14000.00000"></scales>
<clustering>
<clus scale="   34.559">  2  5  1 -1</clus>
<clus scale="   69.642">  1  3  2 -1</clus>
<clus scale="   95.142">  1  4  2 -1</clus>
<clus scale="   69.642">  1  3  2 -1</clus>
</clustering>
</event>
<event>
 6    0  0.4469832E+002  0.1612070E+03  0.7546771E-02  0.1187341E+00
         21   -1    0    0  504  501  0.00000000000E+00  0.00000000000E+00  0.77260061512E+03  0.77260061512E+03  0.00000000000E+00 0.  1.
         21   -1    0    0  505  502 -0.00000000000E+00 -0.00000000000E+00 -0.14192987875E+03  0.14192987875E+03  0.00000000000E+00 0.  1.
         21    1    1    2  503  506  0.28601195069E+02 -0.22073806932E+03  0.40690815536E+03  0.46380768699E+03  0.00000000000E+00 0.  1.
         21    1    1    2  504  502  0.75784505366E+01  0.11132382020E+03 -0.52682334444E+02  0.12339308821E+03  0.00000000000E+00 0.  1.
         21    1    1    2  505  503 -0.46024622084E+02  0.46728399226E+02  0.28708622652E+02  0.71596048402E+02  0.00000000000E+00 0.  1.
         21    1    1    2  506  501  0.98449764779E+01  0.62685849900E+02  0.24773629280E+03  0.25573367027E+03  0.00000000000E+00 0.  1.
<scales pt_clust_3="161.20699" pt_clust_4="14000.00000" pt_clust_5="69.39718" pt_clust_6="63.45423"></scales>
<clustering>
<clus scale="   63.454">  1  6  2 -1</clus>
<clus scale="   69.397">  2  5  1 -1</clus>
<clus scale="  161.207">  1  3  2 -1</clus>
<clus scale="   63.454">  1  3  2 -1</clus>
</clustering>
</event>
<event>
 6    0  0.4469832E+002  0.1504941E+03  0.7546771E-02  0.1199867E+00
         21   -1    0    0  504  501  0.00000000000E+00  0.00000000000E+00  0.18587138257E+04  0.18587138257E+04  0.00000000000E+00 0.  1.
         21   -1    0    0  505  502 -0.00000000000E+00 -0.00000000000E+00 -0.11462299469E+03  0.11462299469E+03  0.00000000000E+00 0.  1.
         21    1    1    2  503  502  0.89707225379E+01 -0.43679156396E+02  0.37667886686E+02  0.58371330751E+02  0.00000000000E+00 0.  1.
         21    1    1    2  504  503 -0.17642588512E+02  0.18820226682E+03  0.14204360524E+04  0.14329584547E+04  0.00000000000E+00 0.  1.
         21    1    1    2  505  506 -0.15969797151E+02 -0.10721682154E+03 -0.66185532927E+02  0.12700789743E+03  0.00000000000E+00 0.  1.
         21    1    1    2  506  501  0.24641663125E+02 -0.37306288884E+02  0.35217242483E+03  0.35499913741E+03  0.00000000000E+00 0.  1.
<scales pt_clust_3="44.59084" pt_clust_4="14000.00000" pt_clust_5="150.49406" pt_clust_6="45.27144"></scales>
<clustering>
<clus scale="   44.591">  2  3  1 -1</clus>
<clus scale="   45.271">  1  6  2 -1</clus>
<clus scale="  150.494">  2  5  1 -1</clus>
<clus scale="   45.271">  1  3  2 -1</clus>
</clustering>
</event>
<event>
 6    0  0.4469832E+002  0.1020477E+03  0.7546771E-02  0.1276048E+00
         21   -1    0    0  502  501  0.00000000000E+00  0.00000000000E+00  0.11409671171E+04  0.11409671171E+04  0.00000000000E+00 0.  1.
         21   -1    0    0  506  502 -0.00000000000E+00 -0.00000000000E+00 -0.52375997563E+02  0.52375997563E+02  0.00000000000E+00 0.  1.
         21    1    1    2  503  505 -0.45342739728E+02  0.49318153076E+02  0.67555606880E+03  0.67886983020E+03  0.00000000000E+00 0.  1.
         21    1    1    2  504  503 -0.10923774093E+02 -0.12487694239E+03  0.70146630559E+02  0.14364584700E+03  0.00000000000E+00 0.  1.
         21    1    1    2  505  501  0.17295826664E+02  0.56052257047E+02  0.31186246756E+03  0.31733137225E+03  0.00000000000E+00 0.  1.
         21    1    1    2  506  504  0.38970687156E+02  0.19506532267E+02  0.31025952645E+02  0.53496065239E+02  0.00000000000E+00 0. -1.
<scales pt_clust_3="14000.00000" pt_clust_4="102.04766" pt_clust_5="60.69873" pt_clust_6="43.58003"></scales>
<clustering>
<clus scale="   43.580">  2  6  1 -1</clus>
<clus scale="   60.699">  1  5  2 -1</clus>
<clus scale="  102.048">  2  4  1 -1</clus>
<clus scale="   60.699">  1  3  2 -1</clus>
</clustering>
</event>
<event>
 6    0  0.4469832E+002  0.8823142E+02  0.7546771E-02  0.1307192E+00
         21   -1    0    0  506  501  0.00000000000E+00  0.00000000000E+00  0.10126915927E+04  0.10126915927E+04  0.00000000000E+00 0.  1.
         21   -1    0    0  501  502 -0.00000000000E+00 -0.00000000000E+00 -0.24523575548E+02  0.24523575548E+02  0.00000000000E+00 0.  1.
         21    1    1    2  503  502  0.59982715131E+02 -0.98137689230E+01  0.12492247712E+03  0.13892394130E+03  0.00000000000E+00 0.  1.
         21    1    1    2  504  505 -0.57255969788E+02  0.68170865046E+02  0.32464212446E+03  0.33662742296E+03  0.00000000000E+00 0.  1.
         21    1    1    2  505  503 -0.74345149492E+01 -0.94921462205E+02  0.20502543372E+03  0.22605482625E+03  0.00000000000E+00 0.  1.
         21    1    1    2  506  504  0.47077696054E+01  0.36564366083E+02  0.33357798181E+03  0.33560897770E+03  0.00000000000E+00 0.  1.
<scales pt_clust_3="60.95844" pt_clust_4="14000.00000" pt_clust_5="88.23142" pt_clust_6="36.86619"></scales>
<clustering>
<clus scale="   36.866">  1  6  2 -1</clus>
<clus scale="   60.958">  2  3  1 -1</clus>
<clus scale="   88.231">  2  5  1 -1</clus>
<clus scale="   36.866">  1  3  2 -1</clus>
</clustering>
</event>
<event>
 6    0  0.4469832E+002  0.2039922E+03  0.7546771E-02  0.1146414E+00
         21   -1    0    0  505  501  0.00000000000E+00  0.00000000000E+00  0.60873520465E+03  0.60873520465E+03  0.00000000000E+00 0. -1.
         21   -1    0    0  506  502 -0.00000000000E+00 -0.00000000000E+00 -0.82566870082E+03  0.82566870082E+03  0.00000000000E+00 0. -1.
         21    1    1    2  503  501 -0.35865761661E+02 -0.20189210620E+03  0.57103284071E+03  0.60673328620E+03  0.00000000000E+00 0. -1.
         21    1    1    2  504  502  0.35517243664E+02  0.14053657107E+02 -0.18751424710E+03  0.19136502486E+03  0.00000000000E+00 0.  1.
         21    1    1    2  505  504  0.32993885258E+02  0.16998868043E+03 -0.50466483174E+03  0.53354600583E+03  0.00000000000E+00 0. -1.
         21    1    1    2  506  503 -0.32645367261E+02  0.17849768668E+02 -0.95787258040E+02  0.10275958859E+03  0.00000000000E+00 0. -1.
<scales pt_clust_3="203.99220" pt_clust_4="32.85131" pt_clust_5="14000.00000" pt_clust_6="37.20664"></scales>
<clustering>
<clus scale="   37.207">  2  6  1 -1</clus>
<clus scale="   32.851">  2  4  1 -1</clus>
<clus scale="  203.992">  1  3  2 -1</clus>
<clus scale="  203.992">  1  3  2 -1</clus>
</clustering>
</event>
<event>
 6    0  0.4469832E+002  0.1788163E+03  0.7546771E-02  0.1168954E+00
         21   -1    0    0  505  501  0.00000000000E+00  0.00000000000E+00  0.18983353094E+03  0.18983353094E+03  0.00000000000E+00 0. -1.
         21   -1    0    0  503  502 -0.00000000000E+00 -0.00000000000E+00 -0.82491684711E+03  0.82491684711E+03  0.00000000000E+00 0. -1.
         21    1    1    2  503  504  0.30827879801E+02 -0.30482453433E+02 -0.19037710726E+03  0.19525107198E+03  0.00000000000E+00 0. -1.
         21    1    1    2  504  506  0.13889446560E+03  0.76551424312E+01 -0.52710705020E+03  0.54515329601E+03  0.00000000000E+00 0. -1.
         21    1    1    2  505  502 -0.10072607058E+03  0.70523509818E+02  0.12914808793E+03  0.17832143827E+03  0.00000000000E+00 0. -1.
         21    1    1    2  506  501 -0.68996274818E+02 -0.47696198816E+02 -0.46747246641E+02  0.96024571797E+02  0.00000000000E+00 0. -1.
<scales pt_clust_3="35.69563" pt_clust_4="35.69563" pt_clust_5="166.99381" pt_clust_6="83.87737"></scales>
<clustering>
<clus scale="   35.696">  3  4 -1 -1</clus>
<clus scale="   83.877">  1  6  2 -1</clus>
<clus scale="  166.994">  1  5  2 -1</clus>
<clus scale="   83.877">  1  3  2 -1</clus>
</clustering>
</event>
<event>
 6    0  0.4469832E+002  0.8950639E+02  0.7546771E-02  0.1304051E+00
         21   -1    0    0  506  501  0.00000000000E+00  0.00000000000E+00  0.22391137505E+03  0.22391137505E+03  0.00000000000E+00 0.  1.
         21   -1    0    0  504  502 -0.00000000000E+00 -0.00000000000E+00 -0.50269815826E+03  0.50269815826E+03  0.00000000000E+00 0.  1.
         21    1    1    2  503  502  0.10132507015E+02 -0.10503665826E+03 -0.39592672809E+03  0.40974789968E+03  0.00000000000E+00 0.  1.
         21    1    1    2  504  501 -0.47357859556E+02  0.11793397756E+02 -0.62561566513E+02  0.79346081799E+02  0.00000000000E+00 0.  1.
         21    1    1    2  505  503  0.60203256415E+02  0.32145847975E+02  0.30684002034E+02  0.74828441156E+02  0.00000000000E+00 0.  1.
         21    1    1    2  506  505 -0.22977903874E+02  0.61097412534E+02  0.14901750935E+03  0.16268711067E+03  0.00000000000E+00 0.  1.
<scales pt_clust_3="14000.00000" pt_clust_4="48.80421" pt_clust_5="89.50639" pt_clust_6="65.71713"></scales>
<clustering>
<clus scale="   48.804">  2  4  1 -1</clus>
<clus scale="   65.717">  1  6  2 -1</clus>
<clus scale="   89.506">  1  5  2 -1</clus>
<clus scale="   65.717">  1  3  2 -1</clus>
</clustering>
</event>
<event>
 6    0  0.4469832E+002  0.9215398E+02  0.7546771E-02  0.1297718E+00
         21   -1    0    0  506  501  0.00000000000E+00  0.00000000000E+00  0.58028971060E+03  0.58028971060E+03  0.00000000000E+00 0.  1.
         21   -1    0    0  505  502 -0.00000000000E+00 -0.00000000000E+00 -0.93932423280E+02  0.93932423280E+02  0.00000000000E+00 0.  1.
         21    1    1    2  503  501  0.55082338533E+02  0.18797158144E+02  0.17635726350E+03  0.18571290091E+03  0.00000000000E+00 0.  1.
         21    1    1    2  504  502 -0.52314388329E+01 -0.65422278454E+02 -0.57657067318E+02  0.87360058849E+02  0.00000000000E+00 0.  1.
         21    1    1    2  505  503  0.12091958941E+02 -0.32956285708E+02  0.22823715105E+02  0.41871878509E+02  0.00000000000E+00 0. -1.
         21    1    1    2  506  504 -0.61942858641E+02  0.79581406018E+02  0.34483337603E+03  0.35927729562E+03  0.00000000000E+00 0.  1.
<scales pt_clust_3="58.27816" pt_clust_4="92.15398" pt_clust_5="35.10459" pt_clust_6="14000.00000"></scales>
<clustering>
<clus scale="   35.105">  2  5  1 -1</clus>
<clus scale="   58.278">  1  3  2 -1</clus>
<clus scale="   92.154">  2  4  1 -1</clus>
<clus scale="   58.278">  1  3  2 -1</clus>
</clustering>
</event>
<event>
 6    0  0.4469832E+002  0.1377122E+03  0.7546771E-02  0.1216441E+00
         21   -1    0    0  506  501  0.00000000000E+00  0.00000000000E+00  0.97240122946E+02  0.97240122946E+02  0.00000000000E+00 0. -1.
         21   -1    0    0  504  502 -0.00000000000E+00 -0.00000000000E+00 -0.13299088162E+04  0.13299088162E+04  0.00000000000E+00 0. -1.
         21    1    1    2  503  505 -0.27644710935E+02  0.52959366635E+02 -0.36821728297E+03  0.37303202548E+03  0.00000000000E+00 0. -1.
         21    1    1    2  504  503 -0.25370677437E+00  0.59958871648E+02 -0.16374707063E+03  0.17437956818E+03  0.00000000000E+00 0. -1.
         21    1    1    2  505  501 -0.22127346146E+02 -0.12542986020E+03  0.42861790547E+02  0.13438527585E+03  0.00000000000E+00 0. -1.
         21    1    1    2  506  502  0.50025763856E+02  0.12511621915E+02 -0.74356613022E+03  0.74535206966E+03  0.00000000000E+00 0. -1.
<scales pt_clust_3="54.27189" pt_clust_4="54.27189" pt_clust_5="125.77812" pt_clust_6="51.56663"></scales>
<clustering>
<clus scale="   51.567">  2  6  1 -1</clus>
<clus scale="   54.272">  3  4 -1 -1</clus>
<clus scale="  125.778">  1  5  2 -1</clus>
<clus scale="  125.778">  1  3  2 -1</clus>
</clustering>
</event>
<event>
 6    0  0.4469832E+002  0.8740523E+02  0.7546771E-02  0.1309260E+00
         21   -1    0    0  505  501  0.00000000000E+00  0.00000000000E+00  0.14320840718E+03  0.14320840718E+03  0.00000000000E+00 0.  1.
         21   -1    0    0  504  502 -0.00000000000E+00 -0.00000000000E+00 -0.55781661971E+03  0.55781661971E+03  0.00000000000E+00 0.  1.
         21    1    1    2  503  502  0.25851329915E+02 -0.14671822264E+03 -0.18140327691E+03  0.23473746396E+03  0.00000000000E+00 0.  1.
         21    1    1    2  504  506 -0.20804664031E+02  0.27839174235E+02 -0.19796123065E+03  0.20098881190E+03  0.00000000000E+00 0.  1.
         21    1    1    2  505  503 -0.13001597716E+02  0.62012911873E+02  0.99992684580E+02  0.11837727718E+03  0.00000000000E+00 0.  1.
         21    1    1    2  506  501  0.79549318323E+01  0.56866136530E+02 -0.13523638954E+03  0.14692147386E+03  0.00000000000E+00 0.  1.
<scales pt_clust_3="14000.00000" pt_clust_4="34.75419" pt_clust_5="64.17076" pt_clust_6="87.40523"></scales>
<clustering>
<clus scale="   34.754">  2  4  1 -1</clus>
<clus scale="   64.171">  1  5  2 -1</clus>
<clus scale="   87.405">  2  6  1 -1</clus>
<clus scale="   64.171">  1  3  2 -1</clus>
</clustering>
</event>
<event>
 6    0  0.4469832E+002  0.7147366E+02  0.7546771E-02  0.1355152E+00
         21   -1    0    0  504  501  0.00000000000E+00  0.00000000000E+00  0.51129936745E+03  0.51129936745E+03  0.00000000000E+00 0.  1.
         21   -1    0    0  506  502 -0.00000000000E+00 -0.00000000000E+00 -0.55254907921E+03  0.55254907921E+03  0.00000000000E+00 0.  1.
         21    1    1    2  503  501  0.63816160815E+02 -0.81694480808E+02  0.43677137954E+03  0.44890503290E+03  0.00000000000E+00 0.  1.
         21    1    1    2  504  505 -0.15752833531E+02  0.29379741981E+02  0.50058068905E+02  0.60142591111E+02  0.00000000000E+00 0. -1.
         21    1    1    2  505  502  0.20186971156E+00  0.81822849799E+02 -0.13641686835E+03  0.15907413828E+03  0.00000000000E+00 0. -1.
         21    1    1    2  506  503 -0.48265196996E+02 -0.29508110972E+02 -0.39166229186E+03  0.39572668437E+03  0.00000000000E+00 0.  1.
<scales pt_clust_3="14000.00000" pt_clust_4="33.33648" pt_clust_5="71.47366" pt_clust_6="56.56262"></scales>
<clustering>
<clus scale="   33.336">  1  4  2 -1</clus>
<clus scale="   56.563">  2  6  1 -1</clus>
<clus scale="   71.474">  2  5  1 -1</clus>
<clus scale="   33.336">  1  3  2 -1</clus>
</clustering>
</event>
<event>
 6    0  0.4469832E+002  0.2061584E+03  0.7546771E-02  0.1144645E+00
         21   -1    0    0  503  501  0.00000000000E+00  0.00000000000E+00  0.68835481951E+02  0.68835481951E+02  0.00000000000E+00 0.  1.
         21   -1    0    0  506  502 -0.00000000000E+00 -0.00000000000E+00 -0.32133830967E+04  0.32133830967E+04  0.00000000000E+00 0.  1.
         21    1    1    2  503  505 -0.28318847179E+02 -0.42753230824E+02 -0.91479881073E+02  0.10487308755E+03  0.00000000000E+00 0.  1.
         21    1    1    2  504  502  0.18008440477E+03  0.14533156120E+03 -0.22478895099E+04  0.22597696573E+04  0.00000000000E+00 0.  1.
         21    1    1    2  505  504 -0.16494791327E+03 -0.57745944725E+02 -0.84082907872E+03  0.85879913125E+03  0.00000000000E+00 0.  1.
         21    1    1    2  506  501  0.13182355681E+02 -0.44832385652E+02  0.35650854914E+02  0.58776702533E+02  0.00000000000E+00 0.  1.
<scales pt_clust_3="61.60612" pt_clust_4="206.15837" pt_clust_5="14000.00000" pt_clust_6="46.73026"></scales>
<clustering>
<clus scale="   46.730">  1  6  2 -1</clus>
<clus scale="   61.606">  1  3  2 -1</clus>
<clus scale="  206.158">  2  4  1 -1</clus>
<clus scale="   46.730">  1  3  2 -1</clus>
</clustering>
</event>
<event>
 6    0  0.4469832E+002  0.2544816E+03  0.7546771E-02  0.1110505E+00
         21   -1    0    0  503  501  0.00000000000E+00  0.00000000000E+00  0.12688005968E+03  0.12688005968E+03  0.00000000000E+00 0. -1.
         21   -1    0    0  501  502 -0.00000000000E+00 -0.00000000000E+00 -0.86123742295E+03  0.86123742295E+03  0.00000000000E+00 0. -1.
         21    1    1    2  503  504  0.22364988577E+02 -0.64152636291E+02 -0.14608612247E+02  0.69492193870E+02  0.00000000000E+00 0. -1.
         21    1    1    2  504  506 -0.33208313580E+02 -0.18354995653E+03 -0.35861666633E+02  0.18994588115E+03  0.00000000000E+00 0. -1.
         21    1    1    2  505  502 -0.14576444519E+02  0.87713224073E+02 -0.26744970217E+03  0.28184290944E+03  0.00000000000E+00 0. -1.
         21    1    1    2  506  505  0.25419769522E+02  0.15998936874E+03 -0.41643738222E+03  0.44683649818E+03  0.00000000000E+00 0. -1.
<scales pt_clust_3="34.59931" pt_clust_4="34.59931" pt_clust_5="31.41454" pt_clust_6="251.53953"></scales>
<clustering>
<clus scale="   31.415">  5  6 -1 -1</clus>
<clus scale="   34.599">  3  4 -1 -1</clus>
<clus scale="  251.540">  2  5  1 -1</clus>
<clus scale="  254.482">  1  3  2 -1</clus>
</clustering>
</event>
<event>
 6    0  0.4469832E+002  0.1634749E+03  0.7546771E-02  0.1184829E+00
         21   -1    0    0  505  501  0.00000000000E+00  0.00000000000E+00  0.16997701376E+04  0.16997701376E+04  0.00000000000E+00 0.  1.
         21   -1    0    0  506  502 -0.00000000000E+00 -0.00000000000E+00 -0.37362681863E+02  0.37362681863E+02  0.00000000000E+00 0.  1.
         21    1    1    2  503  502  0.49450508762E+02  0.66748687129E+02  0.40330236064E+03  0.41176878724E+03  0.00000000000E+00 0.  1.
         21    1    1    2  504  503 -0.12244442883E+02  0.55769318262E+02  0.33162559911E+03  0.33650509837E+03  0.00000000000E+00 0.  1.
         21    1    1    2  505  504  0.25753703232E+02  0.24501097749E+02  0.74647051556E+03  0.74731639058E+03  0.00000000000E+00 0.  1.
         21    1    1    2  506  501 -0.62959769111E+02 -0.14701910314E+03  0.18100898040E+03  0.24154254325E+03  0.00000000000E+00 0.  1.
<scales pt_clust_3="47.26110" pt_clust_4="47.26110" pt_clust_5="35.54655" pt_clust_6="152.72289"></scales>
<clustering>
<clus scale="   35.547">  1  5  2 -1</clus>
<clus scale="   47.261">  3  4 -1 -1</clus>
<clus scale="  152.723">  2  6  1 -1</clus>
<clus scale="   35.547">  1  3  2 -1</clus>
</clustering>
</event>
<event>
 6    0  0.4469832E+002  0.2327672E+03  0.7546771E-02  0.1124707E+00
         21   -1    0    0  506  501  0.00000000000E+00  0.00000000000E+00  0.83511066189E+03  0.83511066189E+03  0.00000000000E+00 0. -1.
         21   -1    0    0  503  502 -0.00000000000E+00 -0.00000000000E+00 -0.11666329081E+03  0.11666329081E+03  0.00000000000E+00 0. -1.
         21    1    1    2  503  505 -0.48095832605E+02 -0.24422519255E+02  0.79120521017E+02  0.95758683192E+02  0.00000000000E+00 0. -1.
         21    1    1    2  504  502  0.10567957669E+03  0.15505541703E+03  0.12720199017E+03  0.22669517327E+03  0.00000000000E+00 0. -1.
         21    1    1    2  505  501 -0.10817281607E+03 -0.21884754827E+03  0.25596770014E+03  0.35371608818E+03  0.00000000000E+00 0. -1.
         21    1    1    2  506  504  0.50589071982E+02  0.88214650499E+02  0.25615715975E+03  0.27560400806E+03  0.00000000000E+00 0. -1.
<scales pt_clust_3="36.84308" pt_clust_4="219.17418" pt_clust_5="36.84308" pt_clust_6="101.69109"></scales>
<clustering>
<clus scale="   36.843">  3  5 -1 -1</clus>
<clus scale="  101.691">  1  6  2 -1</clus>
<clus scale="  219.174">  2  4  1 -1</clus>
<clus scale="  101.691">  1  3  2 -1</clus>
</clustering>
</event>
<event>
 6    0  0.4469832E+002  0.1473186E+03  0.7546771E-02  0.1203807E+00
         21   -1    0    0  506  501  0.00000000000E+00  0.00000000000E+00  0.16177634480E+03  0.16177634480E+03  0.00000000000E+00 0.  1.
         21   -1    0    0  505  502 -0.00000000000E+00 -0.00000000000E+00 -0.68947720783E+03  0.68947720783E+03  0.00000000000E+00 0. -1.
         21    1    1    2  503  502 -0.26209015128E+02 -0.15985073817E+03 -0.51546585667E+03  0.54031862855E+03  0.00000000000E+00 0. -1.
         21    1    1    2  504  503 -0.22704243943E+02  0.22857387264E+02  0.69204628202E+02  0.76336252267E+02  0.00000000000E+00 0.  1.
         21    1    1    2  505  501  0.26307502619E+02  0.11696023812E+03 -0.13036105014E+03  0.17710388304E+03  0.00000000000E+00 0.  1.
         21    1    1    2  506  504  0.22605756452E+02  0.20033112787E+02  0.48921415577E+02  0.57494788762E+02  0.00000000000E+00 0.  1.
<scales pt_clust_3="147.31860" pt_clust_4="37.06266" pt_clust_5="14000.00000" pt_clust_6="30.20506"></scales>
<clustering>
<clus scale="   30.205">  1  6  2 -1</clus>
<clus scale="   37.063">  1  4  2 -1</clus>
<clus scale="  147.319">  2  3  1 -1</clus>
<clus scale="   30.205">  1  3  2 -1</clus>
</clustering>
</event>
<event>
 6    0  0.4469832E+002  0.2695764E+03  0.7546771E-02  0.1101522E+00
         21   -1    0    0  503  501  0.00000000000E+00  0.00000000000E+00  0.12241461605E+04  0.12241461605E+04  0.00000000000E+00 0. -1.
         21   -1    0    0  504  502 -0.00000000000E+00 -0.00000000000E+00 -0.15601339682E+03  0.15601339682E+03  0.00000000000E+00 0. -1.
         21    1    1    2  503  502  0.21672960728E+03  0.10447875260E+03 -0.36283603000E+02  0.24331878732E+03  0.00000000000E+00 0. -1.
         21    1    1    2  504  505 -0.53519231075E+02 -0.64108635296E+02  0.22766528444E+03  0.24249888032E+03  0.00000000000E+00 0. -1.
         21    1    1    2  505  506 -0.11609447149E+03 -0.31290988608E+02  0.48585516165E+03  0.50051202821E+03  0.00000000000E+00 0. -1.
         21    1    1    2  506  501 -0.47115904712E+02 -0.90791286965E+01  0.39089592056E+03  0.39382986144E+03  0.00000000000E+00 0. -1.
<scales pt_clust_3="240.59828" pt_clust_4="73.92971" pt_clust_5="73.92971" pt_clust_6="33.94607"></scales>
<clustering>
<clus scale="   33.946">  5  6 -1 -1</clus>
<clus scale="   73.930">  4  5 -1 -1</clus>
<clus scale="  240.598">  2  3  1 -1</clus>
<clus scale="  269.576">  1  3  2 -1</clus>
</clustering>
</event>
<event>
 6    0  0.4469832E+002  0.1180624E+03  0.7546771E-02  0.1246328E+00
         21   -1    0    0  504  501  0.00000000000E+00  0.00000000000E+00  0.46046781901E+03  0.46046781901E+03  0.00000000000E+00 0. -1.
         21   -1    0    0  505  502 -0.00000000000E+00 -0.00000000000E+00 -0.62867778314E+03  0.62867778314E+03  0.00000000000E+00 0. -1.
         21    1    1    2  503  506  0.59134453644E+02 -0.59232842441E+02  0.96439832598E+02  0.12769516257E+03  0.00000000000E+00 0. -1.
         21    1    1    2  504  502 -0.19877245794E+02  0.37426735915E+02 -0.22098504968E+02  0.47793403138E+02  0.00000000000E+00 0.  1.
         21    1    1    2  505  503 -0.48127227166E+02  0.68500098222E+02 -0.57336599069E+03  0.57944547002E+03  0.00000000000E+00 0. -1.
         21    1    1    2  506  501  0.88700193166E+01 -0.46693991696E+02  0.33081469893E+03  0.33421156642E+03  0.00000000000E+00 0. -1.
<scales pt_clust_3="14000.00000" pt_clust_4="42.37765" pt_clust_5="118.06237" pt_clust_6="47.41322"></scales>
<clustering>
<clus scale="   42.378">  2  4  1 -1</clus>
<clus scale="   47.413">  1  6  2 -1</clus>
<clus scale="  118.062">  2  5  1 -1</clus>
<clus scale="   47.413">  1  3  2 -1</clus>
</clustering>
</event>
<event>
 6    0  0.4469832E+002  0.1449436E+03  0.7546771E-02  0.1206828E+00
         21   -1    0    0  504  501  0.00000000000E+00  0.00000000000E+00  0.41455556688E+02  0.41455556688E+02  0.00000000000E+00 0. -1.
         21   -1    0    0  503  502 -0.00000000000E+00 -0.00000000000E+00 -0.10822108543E+04  0.10822108543E+04  0.00000000000E+00 0. -1.
         21    1    1    2  503  506  0.10280452057E+03  0.80927605390E+02 -0.36801816794E+03  0.39058343372E+03  0.00000000000E+00 0. -1.
         21    1    1    2  504  505  0.32142052536E+02 -0.71267462650E+01 -0.79686405982E+01  0.33873312306E+02  0.00000000000E+00 0. -1.
         21    1    1    2  505  502  0.27830711968E+02 -0.31641638778E+02 -0.21379582128E+03  0.21790914398E+03  0.00000000000E+00 0. -1.
         21    1    1    2  506  501 -0.16277728508E+03 -0.42159220346E+02 -0.45097266777E+03  0.48130052095E+03  0.00000000000E+00 0. -1.
<scales pt_clust_3="144.94357" pt_clust_4="32.92267" pt_clust_5="44.07969" pt_clust_6="14000.00000"></scales>
<clustering>
<clus scale="   32.923">  1  4  2 -1</clus>
<clus scale="   44.080">  2  5  1 -1</clus>
<clus scale="  144.944">  2  3  1 -1</clus>
<clus scale="   32.923">  1  3  2 -1</clus>
</clustering>
</event>
<event>
 6    0  0.4469832E+002  0.1351065E+03  0.7546771E-02  0.1220069E+00
         21   -1    0    0  503  501  0.00000000000E+00  0.00000000000E+00  0.35996238321E+02  0.35996238321E+02  0.00000000000E+00 0.  1.
         21   -1    0    0  506  502 -0.00000000000E+00 -0.00000000000E+00 -0.10799874748E+04  0.10799874748E+04  0.00000000000E+00 0.  1.
         21    1    1    2  503  505  0.38362369565E+02 -0.22414475256E+02 -0.28224318620E+02  0.52637365637E+02  0.00000000000E+00 0.  1.
         21    1    1    2  504  502  0.15688829123E+02 -0.55454368033E+02 -0.42317726129E+03  0.42708350562E+03  0.00000000000E+00 0.  1.
         21    1    1    2  505  504  0.38088584518E+02 -0.51142142700E+02 -0.26166908900E+03  0.26932688535E+03  0.00000000000E+00 0.  1.
         21    1    1    2  506  501 -0.92139783206E+02  0.12901098599E+03 -0.33092056761E+03  0.36693595656E+03  0.00000000000E+00 0.  1.
<scales pt_clust_3="44.43062" pt_clust_4="39.40499" pt_clust_5="39.40499" pt_clust_6="128.59118"></scales>
<clustering>
<clus scale="   39.405">  4  5 -1 -1</clus>
<clus scale="   44.431">  1  3  2 -1</clus>
<clus scale="  128.591">  1  6  2 -1</clus>
<clus scale="   44.431">  1  3  2 -1</clus>
</clustering>
</event>
<event>
 6    0  0.4469832E+002  0.1095331E+03  0.7546771E-02  0.1261437E+00
         21   -1    0    0  503  501  0.00000000000E+00  0.00000000000E+00  0.12243469501E+03  0.12243469501E+03  0.00000000000E+00 0. -1.
         21   -1    0    0  505  502 -0.00000000000E+00 -0.00000000000E+00 -0.29479586753E+03  0.29479586753E+03  0.00000000000E+00 0.  1.
         21    1    1    2  503  506  0.12857595602E+03  0.52294999904E+02  0.12744298905E+01  0.13880982549E+03  0.00000000000E+00 0.  1.
         21    1    1    2  504  501 -0.55909423767E+01 -0.48627771852E+02 -0.54643146318E+00  0.48951173830E+02  0.00000000000E+00 0.  1.
         21    1    1    2  505  504 -0.34722872608E+02 -0.10648471190E+02 -0.12190772493E+03  0.12720283495E+03  0.00000000000E+00 0. -1.
         21    1    1    2  506  502 -0.88262141032E+02  0.69812431390E+01 -0.51181446019E+02  0.10226672827E+03  0.00000000000E+00 0. -1.
<scales pt_clust_3="14000.00000" pt_clust_4="51.29127" pt_clust_5="36.31897" pt_clust_6="109.53312"></scales>
<clustering>
<clus scale="   36.319">  2  5  1 -1</clus>
<clus scale="   51.291">  1  4  2 -1</clus>
<clus scale="  109.533">  2  6  1 -1</clus>
<clus scale="   51.291">  1  3  2 -1</clus>
</clustering>
</event>
<event>
 6    0  0.4469832E+002  0.1040598E+03  0.7546771E-02  0.1271983E+00
         21   -1    0    0  504  501  0.00000000000E+00  0.00000000000E+00  0.15070844300E+03  0.15070844300E+03  0.00000000000E+00 0. -1.
         21   -1    0    0  505  502 -0.00000000000E+00 -0.00000000000E+00 -0.17928631317E+04  0.17928631317E+04  0.00000000000E+00 0.  1.
         21    1    1    2  503  501  0.43184975507E+02  0.34797961927E+02  0.36619433901E+02  0.66459184490E+02  0.00000000000E+00 0. -1.
         21    1    1    2  504  506 -0.22685439583E+02  0.70104581474E+02  0.79521362377E+02  0.10841092467E+03  0.00000000000E+00 0. -1.
         21    1    1    2  505  503 -0.34710150966E+02 -0.16928720172E+02 -0.88857096642E+02  0.96886323959E+02  0.00000000000E+00 0.  1.
         21    1    1    2  506  502  0.14210615042E+02 -0.87973823229E+02 -0.16694383884E+04  0.16718151416E+04  0.00000000000E+00 0.  1.
<scales pt_clust_3="55.12988" pt_clust_4="14000.00000" pt_clust_5="38.61834" pt_clust_6="104.05981"></scales>
<clustering>
<clus scale="   38.618">  2  5  1 -1</clus>
<clus scale="   55.130">  1  3  2 -1</clus>
<clus scale="  104.060">  2  6  1 -1</clus>
<clus scale="   55.130">  1  3  2 -1</clus>
</clustering>
</event>
<event>
 6    0  0.4469832E+002  0.1232188E+03  0.7546771E-02  0.1237879E+00
         21   -1    0    0  504  501  0.00000000000E+00  0.00000000000E+00  0.24591108457E+03  0.24591108457E+03  0.00000000000E+00 0.  1.
         21   -1    0    0  503  502 -0.00000000000E+00 -0.00000000000E+00 -0.54026459591E+03  0.54026459591E+03  0.00000000000E+00 0.  1.
         21    1    1    2  503  501 -0.94455901484E+02 -0.12649142359E+03  0.16540002330E+03  0.22864637604E+03  0.00000000000E+00 0.  1.
         21    1    1    2  504  505  0.21474859871E+02  0.37980853825E+02  0.37259721907E+01  0.43790384019E+02  0.00000000000E+00 0.  1.
         21    1    1    2  505  506  0.87685155554E+02  0.13689542372E+03 -0.40509559660E+03  0.43649912477E+03  0.00000000000E+00 0.  1.
         21    1    1    2  506  502 -0.14704113942E+02 -0.48384853953E+02 -0.58383910233E+02  0.77239795656E+02  0.00000000000E+00 0.  1.
<scales pt_clust_3="123.21883" pt_clust_4="43.63158" pt_clust_5="14000.00000" pt_clust_6="48.76425"></scales>
<clustering>
<clus scale="   43.632">  1  4  2 -1</clus>
<clus scale="   48.764">  2  6  1 -1</clus>
<clus scale="  123.219">  1  3  2 -1</clus>
<clus scale="   43.632">  1  3  2 -1</clus>
</clustering>
</event>
<event>
 6    0  0.4469832E+002  0.9541463E+02  0.7546771E-02  0.1290245E+00
         21   -1    0    0  503  501  0.00000000000E+00  0.00000000000E+00  0.37870009902E+04  0.37870009902E+04  0.00000000000E+00 0. -1.
         21   -1    0    0  504  502 -0.00000000000E+00 -0.00000000000E+00 -0.13950974239E+03  0.13950974239E+03  0.00000000000E+00 0.  1.
         21    1    1    2  503  505 -0.95202677178E+01  0.59616442753E+02  0.20056276765E+04  0.20065361029E+04  0.00000000000E+00 0. -1.
         21    1    1    2  504  501  0.20789321294E+02  0.61280437137E+02 -0.11418882906E+03  0.13125005347E+03  0.00000000000E+00 0.  1.
         21    1    1    2  505  506  0.11516171908E+02 -0.15428685960E+03  0.17372786506E+04  0.17441542842E+04  0.00000000000E+00 0.  1.
         21    1    1    2  506  502 -0.22785225485E+02  0.33389979709E+02  0.18773749776E+02  0.44570291967E+02  0.00000000000E+00 0. -1.
<scales pt_clust_3="60.50302" pt_clust_4="95.41463" pt_clust_5="14000.00000" pt_clust_6="40.42347"></scales>
<clustering>
<clus scale="   40.423">  2  6  1 -1</clus>
<clus scale="   60.503">  1  3  2 -1</clus>
<clus scale="   95.415">  2  4  1 -1</clus>
<clus scale="   60.503">  1  3  2 -1</clus>
</clustering>
</event>
<event>
 6    0  0.4469832E+002  0.1954504E+03  0.7546771E-02  0.1153635E+00
         21   -1    0    0  506  501  0.00000000000E+00  0.00000000000E+00  0.52215539020E+03  0.52215539020E+03  0.00000000000E+00 0.  1.
         21   -1    0    0  503  502 -0.00000000000E+00 -0.00000000000E+00 -0.26380980535E+04  0.26380980535E+04  0.00000000000E+00 0. -1.
         21    1    1    2  503  504 -0.15701284880E+03  0.10833903942E+02 -0.22045638886E+04  0.22101747322E+04  0.00000000000E+00 0. -1.
         21    1    1    2  504  505 -0.20469149305E+02  0.29997598741E+02 -0.37022741039E+03  0.37200427069E+03  0.00000000000E+00 0. -1.
         21    1    1    2  505  501 -0.46243728187E+02 -0.31227637916E+02 -0.11650682094E+02  0.57003387265E+02  0.00000000000E+00 0.  1.
         21    1    1    2  506  502  0.22372572630E+03 -0.96038647669E+01  0.47049931775E+03  0.52107105353E+03  0.00000000000E+00 0.  1.
<scales pt_clust_3="33.73158" pt_clust_4="33.73158" pt_clust_5="55.80007" pt_clust_6="182.40005"></scales>
<clustering>
<clus scale="   33.732">  3  4 -1 -1</clus>
<clus scale="   55.800">  1  5  2 -1</clus>
<clus scale="  182.400">  1  6  2 -1</clus>
<clus scale="   55.800">  1  3  2 -1</clus>
</clustering>
</event>
<event>
 6    0  0.4469832E+002  0.9376264E+02  0.7546771E-02  0.1293987E+00
         21   -1    0    0  506  501  0.00000000000E+00  0.00000000000E+00  0.74299450280E+02  0.74299450280E+02  0.00000000000E+00 0.  1.
         21   -1    0    0  501  502 -0.00000000000E+00 -0.00000000000E+00 -0.10707826804E+04  0.10707826804E+04  0.00000000000E+00 0. -1.
         21    1    1    2  503  502  0.38267630691E+02  0.25114199983E+02 -0.46295640436E+03  0.46521367880E+03  0.00000000000E+00 0.  1.
         21    1    1    2  504  505  0.23477611510E+02 -0.11466787162E+03 -0.12536813468E+02  0.11771614467E+03  0.00000000000E+00 0.  1.
         21    1    1    2  505  503 -0.37562856631E+02  0.69609946822E+02 -0.52466339872E+03  0.53059230569E+03  0.00000000000E+00 0. -1.
         21    1    1    2  506  504 -0.24182385570E+02  0.19943724816E+02  0.36733863908E+01  0.31560001568E+02  0.00000000000E+00 0.  1.
<scales pt_clust_3="45.59186" pt_clust_4="14000.00000" pt_clust_5="93.76264" pt_clust_6="31.34549"></scales>
<clustering>
<clus scale="   31.345">  1  6  2 -1</clus>
<clus scale="   45.592">  2  3  1 -1</clus>
<clus scale="   93.763">  2  5  1 -1</clus>
<clus scale="   31.345">  1  3  2 -1</clus>
</clustering>
</event>
<event>
 6    0  0.4469832E+002  0.1259238E+03  0.7546771E-02  0.1233633E+00
         21   -1    0    0  506  501  0.00000000000E+00  0.00000000000E+00  0.39787722810E+03  0.39787722810E+03  0.00000000000E+00 0. -1.
         21   -1    0    0  504  502 -0.00000000000E+00 -0.00000000000E+00 -0.27832048552E+04  0.27832048552E+04  0.00000000000E+00 0. -1.
         21    1    1    2  503  502 -0.24921492612E+02 -0.17937557799E+02 -0.18740023673E+03  0.18989914560E+03  0.00000000000E+00 0.  1.
         21    1    1    2  504  501  0.14221617111E+03 -0.14698276237E+02 -0.23873084632E+04  0.23915859126E+04  0.00000000000E+00 0. -1.
         21    1    1    2  505  503 -0.13471664865E+03  0.11225195713E+03 -0.16209432012E+03  0.23879624352E+03  0.00000000000E+00 0. -1.
         21    1    1    2  506  505  0.17421970158E+02 -0.79616123091E+02  0.35147539301E+03  0.36080078158E+03  0.00000000000E+00 0. -1.
<scales pt_clust_3="30.70565" pt_clust_4="14000.00000" pt_clust_5="125.92375" pt_clust_6="81.52195"></scales>
<clustering>
<clus scale="   30.706">  2  3  1 -1</clus>
<clus scale="   81.522">  1  6  2 -1</clus>
<clus scale="  125.924">  1  5  2 -1</clus>
<clus scale="   81.522">  1  3  2 -1</clus>
</clustering>
</event>
<event>
 6    0  0.4469832E+002  0.1057348E+03  0.7546771E-02  0.1268679E+00
         21   -1    0    0  505  501  0.00000000000E+00  0.00000000000E+00  0.51579834624E+02  0.51579834624E+02  0.00000000000E+00 0. -1.
         21   -1    0    0  503  502 -0.00000000000E+00 -0.00000000000E+00 -0.13947735398E+04  0.13947735398E+04  0.00000000000E+00 0. -1.
         21    1    1    2  503  506 -0.95371377510E+02  0.32707405184E+02 -0.49810093608E+03  0.50820273172E+03  0.00000000000E+00 0. -1.
         21    1    1    2  504  502  0.36168722018E+02 -0.41213749000E+02 -0.50256591086E+03  0.50554845892E+03  0.00000000000E+00 0.  1.
         21    1    1    2  505  504 -0.22798420495E+02 -0.97758871176E+02 -0.53090410795E+02  0.11355684299E+03  0.00000000000E+00 0. -1.
         21    1    1    2  506  501  0.82001075987E+02  0.10626521499E+03 -0.28943644748E+03  0.31904534084E+03  0.00000000000E+00 0. -1.
<scales pt_clust_3="75.53075" pt_clust_4="54.83384" pt_clust_5="14000.00000" pt_clust_6="105.73477"></scales>
<clustering>
<clus scale="   54.834">  2  4  1 -1</clus>
<clus scale="   75.531">  2  3  1 -1</clus>
<clus scale="  105.735">  2  6  1 -1</clus>
<clus scale="  105.735">  1  3  2 -1</clus>
</clustering>
</event>
<event>
 6    0  0.4469832E+002  0.1382425E+03  0.7546771E-02  0.1215714E+00
         21   -1    0    0  504  501  0.00000000000E+00  0.00000000000E+00  0.28762429780E+04  0.28762429780E+04  0.00000000000E+00 0. -1.
         21   -1    0    0  506  502 -0.00000000000E+00 -0.00000000000E+00 -0.10268814078E+03  0.10268814078E+03  0.00000000000E+00 0.  1.
         21    1    1    2  503  501 -0.57912452564E+02 -0.89002743408E+02  0.33582639041E+03  0.35221400454E+03  0.00000000000E+00 0.  1.
         21    1    1    2  504  505 -0.30075616193E+02  0.12583433680E+03  0.24348587429E+04  0.24382936494E+04  0.00000000000E+00 0. -1.
         21    1    1    2  505  502  0.11994698020E+03 -0.19995935970E+02 -0.43939416770E+02  0.12929728481E+03  0.00000000000E+00 0.  1.
         21    1    1    2  506  503 -0.31958911442E+02 -0.16835657427E+02  0.46809120656E+02  0.59126179973E+02  0.00000000000E+00 0. -1.
<scales pt_clust_3="34.56552" pt_clust_4="124.89515" pt_clust_5="121.60228" pt_clust_6="34.56552"></scales>
<clustering>
<clus scale="   34.566">  3  6 -1 -1</clus>
<clus scale="  121.602">  2  5  1 -1</clus>
<clus scale="  124.895">  1  4  2 -1</clus>
<clus scale="  124.895">  1  3  2 -1</clus>
</clustering>
</event>
<event>
 6    0  0.4469832E+002  0.9622222E+02  0.7546771E-02  0.1288447E+00
         21   -1    0    0  505  501  0.00000000000E+00  0.00000000000E+00  0.16379259238E+03  0.16379259238E+03  0.00000000000E+00 0.  1.
         21   -1    0    0  506  502 -0.00000000000E+00 -0.00000000000E+00 -0.24246918234E+03  0.24246918234E+03  0.00000000000E+00 0.  1.
         21    1    1    2  503  504  0.87586548744E+02  0.53162707494E+02 -0.79099269547E+02  0.12943867827E+03  0.00000000000E+00 0.  1.
         21    1    1    2  504  502  0.63698105633E+01  0.67848362734E+02 -0.77003902952E+01  0.68580396784E+02  0.00000000000E+00 0.  1.
         21    1    1    2  505  503 -0.65191657426E+02 -0.69803145636E+02  0.73381126151E+02  0.12044592568E+03  0.00000000000E+00 0.  1.
         21    1    1    2  506  501 -0.28764701881E+02 -0.51207924592E+02 -0.65258056261E+02  0.87796773986E+02  0.00000000000E+00 0.  1.
<scales pt_clust_3="96.22222" pt_clust_4="56.07915" pt_clust_5="14000.00000" pt_clust_6="58.73380"></scales>
<clustering>
<clus scale="   58.734">  2  6  1 -1</clus>
<clus scale="   56.079">  2  4  1 -1</clus>
<clus scale="   96.222">  2  3  1 -1</clus>
<clus scale="   96.222">  1  3  2 -1</clus>
</clustering>
</event>
<event>
 6    0  0.4469832E+002  0.1447406E+03  0.7546771E-02  0.1207089E+00
         21   -1    0    0  502  501  0.00000000000E+00  0.00000000000E+00  0.21788599591E+04  0.21788599591E+04  0.00000000000E+00 0.  1.
         21   -1    0    0  505  502 -0.00000000000E+00 -0.00000000000E+00 -0.60745900677E+02  0.60745900677E+02  0.00000000000E+00 0. -1.
         21    1    1    2  503  506 -0.58132964691E+02  0.99789319451E+02  0.88306612532E+03  0.89058583615E+03  0.00000000000E+00 0.  1.
         21    1    1    2  504  503  0.75442599770E+02 -0.19062532388E+03  0.16742865024E+03  0.26469218517E+03  0.00000000000E+00 0. -1.
         21    1    1    2  505  504  0.36002340641E+01  0.66292108338E+02  0.12833591250E+03  0.14449121686E+03  0.00000000000E+00 0. -1.
         21    1    1    2  506  501 -0.20909869144E+02  0.24543896096E+02  0.93928337041E+03  0.93983662165E+03  0.00000000000E+00 0.  1.
<scales pt_clust_3="14000.00000" pt_clust_4="144.74062" pt_clust_5="69.00595" pt_clust_6="32.24322"></scales>
<clustering>
<clus scale="   32.243">  1  6  2 -1</clus>
<clus scale="   69.006">  2  5  1 -1</clus>
<clus scale="  144.741">  2  4  1 -1</clus>
<clus scale="   32.243">  1  3  2 -1</clus>
</clustering>
</event>
<event>
 6    0  0.4469832E+002  0.1325832E+03  0.7546771E-02  0.1223672E+00
         21   -1    0    0  503  501  0.00000000000E+00  0.00000000000E+00  0.30530414802E+03  0.30530414802E+03  0.00000000000E+00 0.  1.
         21   -1    0    0  504  502 -0.00000000000E+00 -0.00000000000E+00 -0.92834711380E+03  0.92834711380E+03  0.00000000000E+00 0.  1.
         21    1    1    2  503  506 -0.53452040311E+02  0.11704867605E+03  0.26773499045E+03  0.29705140682E+03  0.00000000000E+00 0.  1.
         21    1    1    2  504  505  0.55128735934E+02 -0.84595060159E+02 -0.67234753143E+03  0.67988727356E+03  0.00000000000E+00 0.  1.
         21    1    1    2  505  501  0.26520228021E+02  0.14783860512E+02  0.11115514081E+01  0.30382899343E+02  0.00000000000E+00 0. -1.
         21    1    1    2  506  502 -0.28196923644E+02 -0.47237476400E+02 -0.21954197622E+03  0.22632968211E+03  0.00000000000E+00 0.  1.
<scales pt_clust_3="14000.00000" pt_clust_4="132.58321" pt_clust_5="30.36256" pt_clust_6="54.70532"></scales>
<clustering>
<clus scale="   30.363">  1  5  2 -1</clus>
<clus scale="   54.705">  2  6  1 -1</clus>
<clus scale="  132.583">  2  4  1 -1</clus>
<clus scale="   30.363">  1  3  2 -1</clus>
</clustering>
</event>
<event>
 6    0  0.6098587E+002  0.1392705E+03  0.7546771E-02  0.1214314E+00
         21   -1    0    0  504  501  0.00000000000E+00  0.00000000000E+00  0.68869306538E+03  0.68869306538E+03  0.00000000000E+00 0.  1.
         21   -1    0    0  506  502 -0.00000000000E+00 -0.00000000000E+00 -0.75901719968E+03  0.75901719968E+03  0.00000000000E+00 0. -1.
         21    1    1    2  503  502  0.65462220344E+01  0.15281154202E+03 -0.70342698046E+03  0.71986369351E+03  0.00000000000E+00 0. -1.
         21    1    1    2  504  505 -0.23046821777E+02 -0.24842592138E+02  0.54522093991E+03  0.54627299375E+03  0.00000000000E+00 0.  1.
         21    1    1    2  505  503  0.31717622769E+02 -0.71987230945E+02  0.29507655913E+01  0.78720239016E+02  0.00000000000E+00 0. -1.
         21    1    1    2  506  501 -0.15217023026E+02 -0.55981718939E+02  0.84931140655E+02  0.10285333878E+03  0.00000000000E+00 0. -1.
<scales pt_clust_3="139.27051" pt_clust_4="33.88673" pt_clust_5="14000.00000" pt_clust_6="78.41306"></scales>
<clustering>
<clus scale="   33.887">  1  4  2 -1</clus>
<clus scale="   78.413">  1  6  2 -1</clus>
<clus scale="  139.271">  2  3  1 -1</clus>
<clus scale="   33.887">  1  3  2 -1</clus>
</clustering>
</event>
<event>
 6    0  0.4469832E+002  0.2287940E+03  0.7546771E-02  0.1127491E+00
         21   -1    0    0  505  501  0.00000000000E+00  0.00000000000E+00  0.92988702968E+03  0.92988702968E+03  0.00000000000E+00 0.  1.
         21   -1    0    0  504  502 -0.00000000000E+00 -0.00000000000E+00 -0.65638631424E+03  0.65638631424E+03  0.00000000000E+00 0.  1.
         21    1    1    2  503  506  0.28009433629E+03  0.12660389068E+03  0.80026875581E+03  0.85726977311E+03  0.00000000000E+00 0.  1.
         21    1    1    2  504  501  0.34356679706E+02 -0.16658953823E+02 -0.22233649303E+01  0.38247163745E+02  0.00000000000E+00 0.  1.
         21    1    1    2  505  503 -0.73611294753E+02 -0.43457705603E+02  0.23323629380E+02  0.88606921732E+02  0.00000000000E+00 0.  1.
         21    1    1    2  506  502 -0.24083972124E+03 -0.66487231254E+02 -0.54786830483E+03  0.60214948533E+03  0.00000000000E+00 0.  1.
<scales pt_clust_3="228.79402" pt_clust_4="38.18249" pt_clust_5="84.41441" pt_clust_6="14000.00000"></scales>
<clustering>
<clus scale="   38.182">  2  4  1 -1</clus>
<clus scale="   84.414">  1  5  2 -1</clus>
<clus scale="  228.794">  1  3  2 -1</clus>
<clus scale="   84.414">  1  3  2 -1</clus>
</clustering>
</event>
<event>
 6    0  0.4469832E+002  0.7656627E+02  0.7546771E-02  0.1339088E+00
         21   -1    0    0  504  501  0.00000000000E+00  0.00000000000E+00  0.56399437054E+02  0.56399437054E+02  0.00000000000E+00 0.  1.
         21   -1    0    0  503  502 -0.00000000000E+00 -0.00000000000E+00 -0.64177264771E+03  0.64177264771E+03  0.00000000000E+00 0.  1.
         21    1    1    2  503  506 -0.86912702930E+02  0.69953069802E+02 -0.31584947522E+03  0.33497483622E+03  0.00000000000E+00 0.  1.
         21    1    1    2  504  505  0.20542972139E+01 -0.62467834577E+02 -0.44977530489E+02  0.77002783993E+02  0.00000000000E+00 0.  1.
         21    1    1    2  505  502  0.40833788849E+02 -0.46791561464E+01 -0.23685566470E+03  0.24039529678E+03  0.00000000000E+00 0.  1.
         21    1    1    2  506  501  0.44024616866E+02 -0.28060790787E+01  0.12309459742E+02  0.45799167778E+02  0.00000000000E+00 0.  1.
<scales pt_clust_3="14000.00000" pt_clust_4="76.56627" pt_clust_5="41.10101" pt_clust_6="45.81901"></scales>
<clustering>
<clus scale="   41.101">  2  5  1 -1</clus>
<clus scale="   45.819">  1  6  2 -1</clus>
<clus scale="   76.566">  1  4  2 -1</clus>
<clus scale="   45.819">  1  3  2 -1</clus>
</clustering>
</event>
<event>
 6    0  0.4469832E+002  0.1018204E+03  0.7546771E-02  0.1276514E+00
         21   -1    0    0  504  501  0.00000000000E+00  0.00000000000E+00  0.27795401237E+02  0.27795401237E+02  0.00000000000E+00 0.  1.
         21   -1    0    0  505  502 -0.00000000000E+00 -0.00000000000E+00 -0.16469696722E+04  0.16469696722E+04  0.00000000000E+00 0.  1.
         21    1    1    2  503  506 -0.75095124461E+02 -0.70449996247E+02 -0.23791979048E+03  0.25924564874E+03  0.00000000000E+00 0.  1.
         21    1    1    2  504  502 -0.39374212327E+01  0.98925566967E+02 -0.88639256535E+03  0.89190445172E+03  0.00000000000E+00 0.  1.
         21    1    1    2  505  503  0.33433440282E+02  0.11239995348E+02 -0.44167939586E+03  0.44308556866E+03  0.00000000000E+00 0.  1.
         21    1    1    2  506  501  0.45599105412E+02 -0.39715566068E+02 -0.53182519239E+02  0.80529404289E+02  0.00000000000E+00 0.  1.
<scales pt_clust_3="14000.00000" pt_clust_4="101.82038" pt_clust_5="35.27226" pt_clust_6="61.48262"></scales>
<clustering>
<clus scale="   35.272">  2  5  1 -1</clus>
<clus scale="   61.483">  1  6  2 -1</clus>
<clus scale="  101.820">  2  4  1 -1</clus>
<clus scale="   61.483">  1  3  2 -1</clus>
</clustering>
</event>
<event>
 6    0  0.4469832E+002  0.2009077E+03  0.7546771E-02  0.1148975E+00
         21   -1    0    0  506  501  0.00000000000E+00  0.00000000000E+00  0.37336347358E+03  0.37336347358E+03  0.00000000000E+00 0. -1.
         21   -1    0    0  503  502 -0.00000000000E+00 -0.00000000000E+00 -0.56081419476E+03  0.56081419476E+03  0.00000000000E+00 0. -1.
         21    1    1    2  503  504 -0.62088949718E+02 -0.32753098073E+02 -0.36166905831E+03  0.36841866247E+03  0.00000000000E+00 0. -1.
         21    1    1    2  504  501 -0.12931153312E+03 -0.73285010589E+02 -0.10958886424E+03  0.18466695574E+03  0.00000000000E+00 0. -1.
         21    1    1    2  505  502  0.16852156789E+03  0.13414890748E+03  0.26042637573E+03  0.33796056782E+03  0.00000000000E+00 0. -1.
         21    1    1    2  506  505  0.22878914946E+02 -0.28110798821E+02  0.23380825652E+02  0.43131482326E+02  0.00000000000E+00 0. -1.
<scales pt_clust_3="70.12855" pt_clust_4="14000.00000" pt_clust_5="200.90774" pt_clust_6="36.24447"></scales>
<clustering>
<clus scale="   36.244">  1  6  2 -1</clus>
<clus scale="   70.129">  2  3  1 -1</clus>
<clus scale="  200.908">  1  5  2 -1</clus>
<clus scale="   36.244">  1  3  2 -1</clus>
</clustering>
</event>
<event>
 6    0  0.4469832E+002  0.1062316E+03  0.7546771E-02  0.1267712E+00
         21   -1    0    0  505  501  0.00000000000E+00  0.00000000000E+00  0.35762385122E+03  0.35762385122E+03  0.00000000000E+00 0.  1.
         21   -1    0    0  503  502 -0.00000000000E+00 -0.00000000000E+00 -0.14138572848E+03  0.14138572848E+03  0.00000000000E+00 0.  1.
         21    1    1    2  503  501 -0.58632532971E+02 -0.49512451353E+02  0.17537040905E+02  0.78719785094E+02  0.00000000000E+00 0.  1.
         21    1    1    2  504  506  0.56376971256E+02 -0.35186867302E+01 -0.49222486393E+02  0.74923942842E+02  0.00000000000E+00 0.  1.
         21    1    1    2  505  504 -0.30938995280E+02  0.92533742754E+02  0.27160116065E+03  0.28859470793E+03  0.00000000000E+00 0.  1.
         21    1    1    2  506  502  0.33194556996E+02 -0.39502604671E+02 -0.23677592419E+02  0.56771143838E+02  0.00000000000E+00 0.  1.
<scales pt_clust_3="76.74149" pt_clust_4="44.37056" pt_clust_5="95.55034" pt_clust_6="44.37056"></scales>
<clustering>
<clus scale="   44.371">  4  6 -1 -1</clus>
<clus scale="   76.741">  2  3  1 -1</clus>
<clus scale="   95.550">  1  5  2 -1</clus>
<clus scale="   95.550">  1  3  2 -1</clus>
</clustering>
</event>
<event>
 6    0  0.4469832E+002  0.7557398E+02  0.7546771E-02  0.1342103E+00
         21   -1    0    0  505  501  0.00000000000E+00  0.00000000000E+00  0.12707761550E+03  0.12707761550E+03  0.00000000000E+00 0. -1.
         21   -1    0    0  503  502 -0.00000000000E+00 -0.00000000000E+00 -0.52451870241E+03  0.52451870241E+03  0.00000000000E+00 0.  1.
         21    1    1    2  503  506 -0.49740079346E+02 -0.37949077676E+01 -0.25189489389E+03  0.25678690462E+03  0.00000000000E+00 0.  1.
         21    1    1    2  504  501  0.24292709701E+02 -0.62777724893E+02  0.24738245017E+02  0.71715822898E+02  0.00000000000E+00 0. -1.
         21    1    1    2  505  502 -0.13762442234E+02 -0.27909110383E+02 -0.21078761660E+03  0.21307215344E+03  0.00000000000E+00 0. -1.
         21    1    1    2  506  504  0.39209811879E+02  0.94481743044E+02  0.40503178554E+02  0.11002143695E+03  0.00000000000E+00 0. -1.
<scales pt_clust_3="66.45204" pt_clust_4="14000.00000" pt_clust_5="31.11789" pt_clust_6="75.57398"></scales>
<clustering>
<clus scale="   31.118">  2  5  1 -1</clus>
<clus scale="   66.452">  2  3  1 -1</clus>
<clus scale="   75.574">  2  6  1 -1</clus>
<clus scale="   75.574">  1  3  2 -1</clus>
</clustering>
</event>
<event>
 6    0  0.4469832E+002  0.8266506E+02  0.7546771E-02  0.1321654E+00
         21   -1    0    0  506  501  0.00000000000E+00  0.00000000000E+00  0.16945725570E+02  0.16945725570E+02  0.00000000000E+00 0. -1.
         21   -1    0    0  504  502 -0.00000000000E+00 -0.00000000000E+00 -0.32480409915E+04  0.32480409915E+04  0.00000000000E+00 0.  1.
         21    1    1    2  503  502 -0.83721947977E+02  0.12364645479E+02 -0.16799264102E+04  0.16820567746E+04  0.00000000000E+00 0.  1.
         21    1    1    2  504  505  0.14259156227E+02 -0.61042109158E+02 -0.12537569555E+04  0.12553230525E+04  0.00000000000E+00 0.  1.
         21    1    1    2  505  501  0.57465083787E+02  0.79954303837E+02 -0.17613157142E+03  0.20178517539E+03  0.00000000000E+00 0. -1.
         21    1    1    2  506  503  0.11997707963E+02 -0.31276840158E+02 -0.12128032875E+03  0.12582171462E+03  0.00000000000E+00 0.  1.
<scales pt_clust_3="14000.00000" pt_clust_4="64.45667" pt_clust_5="82.66506" pt_clust_6="33.49904"></scales>
<clustering>
<clus scale="   33.499">  1  6  2 -1</clus>
<clus scale="   64.457">  2  4  1 -1</clus>
<clus scale="   82.665">  1  5  2 -1</clus>
<clus scale="   33.499">  1  3  2 -1</clus>
</clustering>
</event>
<event>
 6    0  0.4469832E+002  0.9108820E+02  0.7546771E-02  0.1300238E+00
         21   -1    0    0  504  501  0.00000000000E+00  0.00000000000E+00  0.19959553136E+03  0.19959553136E+03  0.00000000000E+00 0.  1.
         21   -1    0    0  503  502 -0.00000000000E+00 -0.00000000000E+00 -0.17214514168E+04  0.17214514168E+04  0.00000000000E+00 0. -1.
         21    1    1    2  503  506  0.79827777504E+01  0.53031226242E+02 -0.19771672816E+03  0.20486078271E+03  0.00000000000E+00 0. -1.
         21    1    1    2  504  505  0.12895505683E+02 -0.70437992825E+02  0.14501601780E+03  0.16173265075E+03  0.00000000000E+00 0.  1.
         21    1    1    2  505  502  0.56068316137E+02  0.19970520030E+02 -0.14759641412E+04  0.14771637092E+04  0.00000000000E+00 0. -1.
         21    1    1    2  506  501 -0.76946599570E+02 -0.25637534475E+01  0.68089660919E+01  0.77289805514E+02  0.00000000000E+00 0.  1.
<scales pt_clust_3="53.62868" pt_clust_4="71.32985" pt_clust_5="14000.00000" pt_clust_6="91.08820"></scales>
<clustering>
<clus scale="   53.629">  2  3  1 -1</clus>
<clus scale="   71.330">  1  4  2 -1</clus>
<clus scale="   91.088">  1  6  2 -1</clus>
<clus scale="   71.330">  1  3  2 -1</clus>
</clustering>
</event>
<event>
 6    0  0.4469832E+002  0.1402060E+03  0.7546771E-02  0.1213052E+00
         21   -1    0    0  504  501  0.00000000000E+00  0.00000000000E+00  0.80183150279E+03  0.80183150279E+03  0.00000000000E+00 0.  1.
         21   -1    0    0  505  502 -0.00000000000E+00 -0.00000000000E+00 -0.19157821510E+03  0.19157821510E+03  0.00000000000E+00 0.  1.
         21    1    1    2  503  501 -0.78122055770E+01 -0.13342486638E+03  0.59819109093E+03  0.61294029627E+03  0.00000000000E+00 0.  1.
         21    1    1    2  504  502 -0.80636498080E+01  0.18222197941E+03  0.13189950459E+03  0.22509409485E+03  0.00000000000E+00 0.  1.
         21    1    1    2  505  506 -0.15112377796E+02 -0.27684607048E+02 -0.11292457950E+03  0.11724667196E+03  0.00000000000E+00 0.  1.
         21    1    1    2  506  503  0.30988233181E+02 -0.21112505982E+02 -0.69127283240E+01  0.38128654807E+02  0.00000000000E+00 0. -1.
<scales pt_clust_3="14000.00000" pt_clust_4="140.20600" pt_clust_5="31.54079" pt_clust_6="39.50512"></scales>
<clustering>
<clus scale="   31.541">  2  5  1 -1</clus>
<clus scale="   39.505">  2  6  1 -1</clus>
<clus scale="  140.206">  2  4  1 -1</clus>
<clus scale="  140.206">  1  3  2 -1</clus>
</clustering>
</event>
<event>
 6    0  0.4469832E+002  0.8817308E+02  0.7546771E-02  0.1307337E+00
         21   -1    0    0  504  501  0.00000000000E+00  0.00000000000E+00  0.25964951653E+03  0.25964951653E+03  0.00000000000E+00 0. -1.
         21   -1    0    0  503  502 -0.00000000000E+00 -0.00000000000E+00 -0.40976042118E+03  0.40976042118E+03  0.00000000000E+00 0.  1.
         21    1    1    2  503  505 -0.61652206356E+02  0.71526099528E+02 -0.29987443611E+03  0.31439092686E+03  0.00000000000E+00 0.  1.
         21    1    1    2  504  502  0.96156055030E+02  0.31159967710E+02  0.19169784706E+03  0.21671408601E+03  0.00000000000E+00 0. -1.
         21    1    1    2  505  506  0.13473204107E+02 -0.73862348358E+02 -0.31248503876E+02  0.81324305889E+02  0.00000000000E+00 0.  1.
         21    1    1    2  506  501 -0.47977052781E+02 -0.28823718879E+02 -0.10685811717E+02  0.56980618948E+02  0.00000000000E+00 0.  1.
<scales pt_clust_3="14000.00000" pt_clust_4="55.08888" pt_clust_5="88.17308" pt_clust_6="55.96967"></scales>
<clustering>
<clus scale="   55.970">  1  6  2 -1</clus>
<clus scale="   55.089">  1  4  2 -1</clus>
<clus scale="   88.173">  1  5  2 -1</clus>
<clus scale="   55.970">  1  3  2 -1</clus>
</clustering>
</event>
<event>
 6    0  0.4469832E+002  0.1142674E+03  0.7546771E-02  0.1252865E+00
         21   -1    0    0  505  501  0.00000000000E+00  0.00000000000E+00  0.12975183068E+03  0.12975183068E+03  0.00000000000E+00 0. -1.
         21   -1    0    0  504  502 -0.00000000000E+00 -0.00000000000E+00 -0.82417688543E+03  0.82417688543E+03  0.00000000000E+00 0. -1.
         21    1    1    2  503  506  0.71507927377E+01 -0.87314164479E+02 -0.53547638615E+03  0.54259548218E+03  0.00000000000E+00 0. -1.
         21    1    1    2  504  501 -0.18380664524E+02  0.10100454284E+03  0.84638095931E+02  0.13305402581E+03  0.00000000000E+00 0. -1.
         21    1    1    2  505  503 -0.34127270763E+02  0.52144583449E+01 -0.52388322450E+01  0.34918570258E+02  0.00000000000E+00 0.  1.
         21    1    1    2  506  502  0.45357142550E+02 -0.18904836703E+02 -0.23834793229E+03  0.24336063786E+03  0.00000000000E+00 0. -1.
<scales pt_clust_3="114.26741" pt_clust_4="14000.00000" pt_clust_5="34.52334" pt_clust_6="48.40875"></scales>
<clustering>
<clus scale="   34.523">  1  5  2 -1</clus>
<clus scale="   48.409">  2  6  1 -1</clus>
<clus scale="  114.267">  2  3  1 -1</clus>
<clus scale="   34.523">  1  3  2 -1</clus>
</clustering>
</event>
<event>
 6    0  0.4469832E+002  0.9559588E+02  0.7546771E-02  0.1289840E+00
         21   -1    0    0  506  501  0.00000000000E+00  0.00000000000E+00  0.33306644726E+03  0.33306644726E+03  0.00000000000E+00 0. -1.
         21   -1    0    0  504  502 -0.00000000000E+00 -0.00000000000E+00 -0.86058771450E+03  0.86058771450E+03  0.00000000000E+00 0.  1.
         21    1    1    2  503  502  0.12664031720E+03 -0.75506101445E+02 -0.20406384206E+03  0.25175582006E+03  0.00000000000E+00 0.  1.
         21    1    1    2  504  505 -0.79021160732E+02  0.39942844540E+02 -0.59749267697E+03  0.60401761043E+03  0.00000000000E+00 0.  1.
         21    1    1    2  505  501 -0.33593346613E+01  0.40850963904E+02 -0.16324101022E+02  0.44119866902E+02  0.00000000000E+00 0.  1.
         21    1    1    2  506  503 -0.44259821803E+02 -0.52877069983E+01  0.29035935281E+03  0.29376086437E+03  0.00000000000E+00 0. -1.
<scales pt_clust_3="95.59588" pt_clust_4="14000.00000" pt_clust_5="40.98886" pt_clust_6="57.18820"></scales>
<clustering>
<clus scale="   40.989">  1  5  2 -1</clus>
<clus scale="   57.188">  1  6  2 -1</clus>
<clus scale="   95.596">  1  3  2 -1</clus>
<clus scale="   40.989">  1  3  2 -1</clus>
</clustering>
</event>
<event>
 6    0  0.4469832E+002  0.1047020E+03  0.7546771E-02  0.1270708E+00
         21   -1    0    0  505  501  0.00000000000E+00  0.00000000000E+00  0.18664529872E+03  0.18664529872E+03  0.00000000000E+00 0. -1.
         21   -1    0    0  506  502 -0.00000000000E+00 -0.00000000000E+00 -0.39287815371E+03  0.39287815371E+03  0.00000000000E+00 0. -1.
         21    1    1    2  503  501 -0.14457935103E+02 -0.30651943044E+02 -0.45225967033E+01  0.34191042406E+02  0.00000000000E+00 0.  1.
         21    1    1    2  504  502  0.24404911795E+01  0.99741077295E+02 -0.93697413763E+02  0.13687017149E+03  0.00000000000E+00 0.  1.
         21    1    1    2  505  504 -0.41401503964E+02 -0.70686015880E+02  0.13594527086E+03  0.15871897820E+03  0.00000000000E+00 0. -1.
         21    1    1    2  506  503  0.53418947888E+02  0.15968816295E+01 -0.24395811539E+03  0.24974326034E+03  0.00000000000E+00 0. -1.
<scales pt_clust_3="33.89061" pt_clust_4="14000.00000" pt_clust_5="104.70201" pt_clust_6="53.18652"></scales>
<clustering>
<clus scale="   33.891">  1  3  2 -1</clus>
<clus scale="   53.187">  2  6  1 -1</clus>
<clus scale="  104.702">  1  5  2 -1</clus>
<clus scale="   33.891">  1  3  2 -1</clus>
</clustering>
</event>
<event>
 6    0  0.4469832E+002  0.1347184E+03  0.7546771E-02  0.1220618E+00
         21   -1    0    0  504  501  0.00000000000E+00  0.00000000000E+00  0.84027977712E+03  0.84027977712E+03  0.00000000000E+00 0.  1.
         21   -1    0    0  506  502 -0.00000000000E+00 -0.00000000000E+00 -0.63088353811E+03  0.63088353811E+03  0.00000000000E+00 0. -1.
         21    1    1    2  503  505 -0.18414843848E+02 -0.71839035772E+02  0.61069210521E+01  0.74412687221E+02  0.00000000000E+00 0. -1.
         21    1    1    2  504  503  0.12701043910E+03 -0.50602326274E+02  0.77321542941E+03  0.78520974736E+03  0.00000000000E+00 0.  1.
         21    1    1    2  505  502 -0.33088071201E+02  0.63226637402E+02 -0.46051950139E+03  0.46601570713E+03  0.00000000000E+00 0. -1.
         21    1    1    2  506  501 -0.75507524054E+02  0.59214724645E+02 -0.10940661007E+03  0.14552517353E+03  0.00000000000E+00 0. -1.
<scales pt_clust_3="64.09909" pt_clust_4="14000.00000" pt_clust_5="71.36125" pt_clust_6="134.71838"></scales>
<clustering>
<clus scale="   71.361">  2  5  1 -1</clus>
<clus scale="   64.099">  2  3  1 -1</clus>
<clus scale="  134.718">  2  6  1 -1</clus>
<clus scale="  134.718">  1  3  2 -1</clus>
</clustering>
</event>
<event>
 6    0  0.4469832E+002  0.1405928E+03  0.7546771E-02  0.1212533E+00
         21   -1    0    0  506  501  0.00000000000E+00  0.00000000000E+00  0.36148488820E+03  0.36148488820E+03  0.00000000000E+00 0.  1.
         21   -1    0    0  504  502 -0.00000000000E+00 -0.00000000000E+00 -0.36760089603E+03  0.36760089603E+03  0.00000000000E+00 0.  1.
         21    1    1    2  503  501  0.61434253780E+02 -0.72671481940E+01  0.26480451225E+03  0.27193456692E+03  0.00000000000E+00 0.  1.
         21    1    1    2  504  503 -0.19122451871E+03  0.20380911002E+02 -0.23228029454E+03  0.30155651762E+03  0.00000000000E+00 0.  1.
         21    1    1    2  505  502  0.93683721706E+02 -0.30483040527E+02 -0.54399674933E+02  0.11253968236E+03  0.00000000000E+00 0.  1.
         21    1    1    2  506  505  0.36106543220E+02  0.17369277719E+02  0.15759449396E+02  0.43055017328E+02  0.00000000000E+00 0.  1.
<scales pt_clust_3="90.86641" pt_clust_4="14000.00000" pt_clust_5="140.59284" pt_clust_6="40.06712"></scales>
<clustering>
<clus scale="   40.067">  1  6  2 -1</clus>
<clus scale="   90.866">  1  3  2 -1</clus>
<clus scale="  140.593">  2  5  1 -1</clus>
<clus scale="   40.067">  1  3  2 -1</clus>
</clustering>
</event>
<event>
 6    0  0.4469832E+002  0.1359016E+03  0.7546771E-02  0.1218953E+00
         21   -1    0    0  502  501  0.00000000000E+00  0.00000000000E+00  0.11397274554E+04  0.11397274554E+04  0.00000000000E+00 0. -1.
         21   -1    0    0  504  502 -0.00000000000E+00 -0.00000000000E+00 -0.65011812853E+03  0.65011812853E+03  0.00000000000E+00 0. -1.
         21    1    1    2  503  501 -0.25634672660E+02 -0.82680310725E+02  0.10410735356E+04  0.10446661077E+04  0.00000000000E+00 0. -1.
         21    1    1    2  504  506  0.74842214095E+02  0.87289513932E+01 -0.37783727334E+03  0.38527724657E+03  0.00000000000E+00 0. -1.
         21    1    1    2  505  503 -0.10363262014E+03  0.43022516477E+02  0.53497720878E+02  0.12430874072E+03  0.00000000000E+00 0.  1.
         21    1    1    2  506  505  0.54425078707E+02  0.30928842854E+02 -0.22712465626E+03  0.23559348886E+03  0.00000000000E+00 0. -1.
<scales pt_clust_3="86.56310" pt_clust_4="31.82027" pt_clust_5="131.34106" pt_clust_6="31.82027"></scales>
<clustering>
<clus scale="   31.820">  4  6 -1 -1</clus>
<clus scale="   86.563">  1  3  2 -1</clus>
<clus scale="  131.341">  1  5  2 -1</clus>
<clus scale="   86.563">  1  3  2 -1</clus>
</clustering>
</event>
<event>
 6    0  0.4469832E+002  0.1090865E+03  0.7546771E-02  0.1262271E+00
         21   -1    0    0  504  501  0.00000000000E+00  0.00000000000E+00  0.13420995786E+02  0.13420995786E+02  0.00000000000E+00 0.  1.
         21   -1    0    0  503  502 -0.00000000000E+00 -0.00000000000E+00 -0.21689751138E+04  0.21689751138E+04  0.00000000000E+00 0. -1.
         21    1    1    2  503  505  0.60906740071E+01  0.36075992435E+02 -0.25719576722E+03  0.25978498074E+03  0.00000000000E+00 0. -1.
         21    1    1    2  504  502  0.82962069068E+02 -0.11919651381E+03 -0.92701835726E+03  0.93832486299E+03  0.00000000000E+00 0. -1.
         21    1    1    2  505  506 -0.52270598320E+01  0.33843208935E+02 -0.58132183943E+03  0.58232960250E+03  0.00000000000E+00 0. -1.
         21    1    1    2  506  501 -0.83825683243E+02  0.49277312436E+02 -0.39001815414E+03  0.40195666340E+03  0.00000000000E+00 0.  1.
<scales pt_clust_3="77.75085" pt_clust_4="109.08654" pt_clust_5="32.89027" pt_clust_6="14000.00000"></scales>
<clustering>
<clus scale="   32.890">  3  5 -1 -1</clus>
<clus scale="   77.751">  2  3  1 -1</clus>
<clus scale="  109.087">  2  4  1 -1</clus>
<clus scale="  109.087">  1  3  2 -1</clus>
</clustering>
</event>
<event>
 6    0  0.4469832E+002  0.1474881E+03  0.7546771E-02  0.1203594E+00
         21   -1    0    0  506  501  0.00000000000E+00  0.00000000000E+00  0.14859775921E+03  0.14859775921E+03  0.00000000000E+00 0. -1.
         21   -1    0    0  505  502 -0.00000000000E+00 -0.00000000000E+00 -0.68129509669E+03  0.68129509669E+03  0.00000000000E+00 0. -1.
         21    1    1    2  503  504 -0.12790041603E+03  0.12254814385E+03 -0.15473974004E+03  0.23520406274E+03  0.00000000000E+00 0. -1.
         21    1    1    2  504  501 -0.22535872723E+02 -0.10188221552E+03  0.54347663517E+02  0.11764998907E+03  0.00000000000E+00 0. -1.
         21    1    1    2  505  503  0.25837414561E+02  0.24200287025E+02 -0.24558440898E+03  0.24812280793E+03  0.00000000000E+00 0. -1.
         21    1    1    2  506  502  0.12459887419E+03 -0.44866215352E+02 -0.18672085198E+03  0.22891599615E+03  0.00000000000E+00 0. -1.
<scales pt_clust_3="147.48808" pt_clust_4="102.22721" pt_clust_5="35.40093" pt_clust_6="14000.00000"></scales>
<clustering>
<clus scale="   35.401">  2  5  1 -1</clus>
<clus scale="  102.227">  1  4  2 -1</clus>
<clus scale="  147.488">  1  3  2 -1</clus>
<clus scale="  102.227">  1  3  2 -1</clus>
</clustering>
</event>
<event>
 6    0  0.4469832E+002  0.1236622E+03  0.7546771E-02  0.1237175E+00
         21   -1    0    0  505  501  0.00000000000E+00  0.00000000000E+00  0.10919886489E+04  0.10919886489E+04  0.00000000000E+00 0.  1.
         21   -1    0    0  504  502 -0.00000000000E+00 -0.00000000000E+00 -0.18626594744E+03  0.18626594744E+03  0.00000000000E+00 0.  1.
         21    1    1    2  503  502  0.12694084132E+03  0.81589843982E+02  0.12814569501E+03  0.19797019721E+03  0.00000000000E+00 0.  1.
         21    1    1    2  504  506 -0.67180101033E+02 -0.23559919582E+02 -0.57186466105E+02  0.91315539154E+02  0.00000000000E+00 0.  1.
         21    1    1    2  505  503 -0.31074679182E+02 -0.24246327794E+02  0.90503275863E+03  0.90589061938E+03  0.00000000000E+00 0.  1.
         21    1    1    2  506  501 -0.28686061107E+02 -0.33783596606E+02 -0.70269286048E+02  0.83078240612E+02  0.00000000000E+00 0.  1.
<scales pt_clust_3="116.63067" pt_clust_4="32.43233" pt_clust_5="39.41472" pt_clust_6="32.43233"></scales>
<clustering>
<clus scale="   32.432">  4  6 -1 -1</clus>
<clus scale="   39.415">  1  5  2 -1</clus>
<clus scale="  116.631">  1  3  2 -1</clus>
<clus scale="   39.415">  1  3  2 -1</clus>
</clustering>
</event>
<event>
 6    0  0.4469832E+002  0.9237122E+02  0.7546771E-02  0.1297209E+00
         21   -1    0    0  505  501  0.00000000000E+00  0.00000000000E+00  0.14956303941E+04  0.14956303941E+04  0.00000000000E+00 0.  1.
         21   -1    0    0  504  502 -0.00000000000E+00 -0.00000000000E+00 -0.16253242198E+03  0.16253242198E+03  0.00000000000E+00 0. -1.
         21    1    1    2  503  501 -0.20034130411E+02  0.28454020617E+02  0.34264482662E+03  0.34440742570E+03  0.00000000000E+00 0. -1.
         21    1    1    2  504  503  0.24476803442E+02  0.11775972214E+03  0.15376701195E+03  0.19521977366E+03  0.00000000000E+00 0. -1.
         21    1    1    2  505  506 -0.38223168353E+02 -0.61157839200E+02  0.96125790410E+03  0.96395956870E+03  0.00000000000E+00 0.  1.
         21    1    1    2  506  502  0.33780495322E+02 -0.85055903559E+02 -0.12457177056E+03  0.15457604800E+03  0.00000000000E+00 0. -1.
<scales pt_clust_3="34.79939" pt_clust_4="92.37122" pt_clust_5="66.47097" pt_clust_6="14000.00000"></scales>
<clustering>
<clus scale="   34.799">  1  3  2 -1</clus>
<clus scale="   66.471">  1  5  2 -1</clus>
<clus scale="   92.371">  1  4  2 -1</clus>
<clus scale="   34.799">  1  3  2 -1</clus>
</clustering>
</event>
<event>
 6    0  0.4469832E+002  0.8844182E+02  0.7546771E-02  0.1306670E+00
         21   -1    0    0  505  501  0.00000000000E+00  0.00000000000E+00  0.68131854430E+02  0.68131854430E+02  0.00000000000E+00 0.  1.
         21   -1    0    0  503  502 -0.00000000000E+00 -0.00000000000E+00 -0.66389457335E+03  0.66389457335E+03  0.00000000000E+00 0. -1.
         21    1    1    2  503  504  0.33194953265E+02  0.49327433572E+01 -0.27878186007E+03  0.28079451986E+03  0.00000000000E+00 0.  1.
         21    1    1    2  504  506  0.58123616382E+02  0.23452381534E+02 -0.10998914116E+03  0.12659376032E+03  0.00000000000E+00 0. -1.
         21    1    1    2  505  502 -0.12704958926E+03 -0.11786278685E+02 -0.24093429653E+03  0.27263501195E+03  0.00000000000E+00 0. -1.
         21    1    1    2  506  501  0.35731019613E+02 -0.16598846207E+02  0.33942578842E+02  0.52003135640E+02  0.00000000000E+00 0.  1.
<scales pt_clust_3="33.55945" pt_clust_4="88.44182" pt_clust_5="14000.00000" pt_clust_6="40.05958"></scales>
<clustering>
<clus scale="   33.559">  2  3  1 -1</clus>
<clus scale="   40.060">  1  6  2 -1</clus>
<clus scale="   88.442">  1  4  2 -1</clus>
<clus scale="   40.060">  1  3  2 -1</clus>
</clustering>
</event>
<event>
 6    0  0.4469832E+002  0.1007847E+03  0.7546771E-02  0.1278655E+00
         21   -1    0    0  506  501  0.00000000000E+00  0.00000000000E+00  0.16377704549E+04  0.16377704549E+04  0.00000000000E+00 0. -1.
         21   -1    0    0  505  502 -0.00000000000E+00 -0.00000000000E+00 -0.32127046088E+03  0.32127046088E+03  0.00000000000E+00 0. -1.
         21    1    1    2  503  502 -0.87681737503E+01  0.61778427905E+02 -0.26224047877E+03  0.26956172527E+03  0.00000000000E+00 0. -1.
         21    1    1    2  504  501  0.42103219061E+02  0.24795451239E+01  0.46813978927E+02  0.63010934149E+02  0.00000000000E+00 0. -1.
         21    1    1    2  505  504 -0.60415185084E+02  0.14539734383E+02 -0.25242650415E+02  0.67071527973E+02  0.00000000000E+00 0. -1.
         21    1    1    2  506  503  0.27080139773E+02 -0.78797707411E+02  0.15571691443E+04  0.15593967284E+04  0.00000000000E+00 0. -1.
<scales pt_clust_3="100.78465" pt_clust_4="42.17617" pt_clust_5="61.60716" pt_clust_6="14000.00000"></scales>
<clustering>
<clus scale="   42.176">  1  4  2 -1</clus>
<clus scale="   61.607">  2  5  1 -1</clus>
<clus scale="  100.785">  2  3  1 -1</clus>
<clus scale="   42.176">  1  3  2 -1</clus>
</clustering>
</event>
<event>
 6    0  0.4469832E+002  0.1507542E+03  0.7546771E-02  0.1199549E+00
         21   -1    0    0  505  501  0.00000000000E+00  0.00000000000E+00  0.35445926654E+03  0.35445926654E+03  0.00000000000E+00 0.  1.
         21   -1    0    0  506  502 -0.00000000000E+00 -0.00000000000E+00 -0.57021518241E+03  0.57021518241E+03  0.00000000000E+00 0. -1.
         21    1    1    2  503  504  0.22815493787E+02  0.30107898951E+02 -0.57213320151E+02  0.68559436540E+02  0.00000000000E+00 0. -1.
         21    1    1    2  504  501 -0.43859965539E+02 -0.19752653454E+01  0.31081790073E+03  0.31390343367E+03  0.00000000000E+00 0.  1.
         21    1    1    2  505  502  0.28773476363E+02 -0.13757780751E+03 -0.15491986004E+03  0.20917870134E+03  0.00000000000E+00 0.  1.
         21    1    1    2  506  503 -0.77290046114E+01  0.10944517390E+03 -0.31444063641E+03  0.33303287740E+03  0.00000000000E+00 0. -1.
<scales pt_clust_3="34.45042" pt_clust_4="43.90442" pt_clust_5="138.85165" pt_clust_6="34.45042"></scales>
<clustering>
<clus scale="   34.450">  3  6 -1 -1</clus>
<clus scale="   43.904">  1  4  2 -1</clus>
<clus scale="  138.852">  1  5  2 -1</clus>
<clus scale="   43.904">  1  3  2 -1</clus>
</clustering>
</event>
<event>
 6    0  0.4469832E+002  0.1323527E+03  0.7546771E-02  0.1224006E+00
         21   -1    0    0  506  501  0.00000000000E+00  0.00000000000E+00  0.97505786593E+02  0.97505786593E+02  0.00000000000E+00 0. -1.
         21   -1    0    0  504  502 -0.00000000000E+00 -0.00000000000E+00 -0.47815934473E+03  0.47815934473E+03  0.00000000000E+00 0. -1.
         21    1    1    2  503  501  0.11652199669E+03 -0.13985997966E+02 -0.51909116835E+02  0.12832591423E+03  0.00000000000E+00 0. -1.
         21    1    1    2  504  503 -0.95519392469E+01  0.11700011351E+03 -0.22780544454E+03  0.25627248519E+03  0.00000000000E+00 0. -1.
         21    1    1    2  505  502 -0.36741746633E+02 -0.34396291941E+02 -0.10989900460E+00  0.50329642585E+02  0.00000000000E+00 0. -1.
         21    1    1    2  506  505 -0.70228310815E+02 -0.68617823598E+02 -0.10082909776E+03  0.14073708932E+03  0.00000000000E+00 0. -1.
<scales pt_clust_3="117.35836" pt_clust_4="115.12572" pt_clust_5="46.74779" pt_clust_6="46.74779"></scales>
<clustering>
<clus scale="   46.748">  5  6 -1 -1</clus>
<clus scale="  117.358">  1  3  2 -1</clus>
<clus scale="  115.126">  2  4  1 -1</clus>
<clus scale="  117.358">  1  3  2 -1</clus>
</clustering>
</event>
<event>
 6    0  0.4469832E+002  0.1080491E+03  0.7546771E-02  0.1264226E+00
         21   -1    0    0  504  501  0.00000000000E+00  0.00000000000E+00  0.13583284702E+04  0.13583284702E+04  0.00000000000E+00 0. -1.
         21   -1    0    0  505  502 -0.00000000000E+00 -0.00000000000E+00 -0.64358642752E+03  0.64358642752E+03  0.00000000000E+00 0.  1.
         21    1    1    2  503  502 -0.79479466509E+02 -0.16757301023E+02 -0.59034655479E+03  0.59590842206E+03  0.00000000000E+00 0.  1.
         21    1    1    2  504  503  0.48210891587E+02  0.14121984266E+03  0.11985307546E+04  0.12077844608E+04  0.00000000000E+00 0. -1.
         21    1    1    2  505  506  0.27096583328E+02 -0.83589784558E+02  0.42520700272E+01  0.87974752117E+02  0.00000000000E+00 0.  1.
         21    1    1    2  506  501  0.41719915944E+01 -0.40872757077E+02  0.10230577276E+03  0.11024726266E+03  0.00000000000E+00 0. -1.
<scales pt_clust_3="81.23651" pt_clust_4="108.04906" pt_clust_5="14000.00000" pt_clust_6="41.08513"></scales>
<clustering>
<clus scale="   41.085">  1  6  2 -1</clus>
<clus scale="   81.237">  2  3  1 -1</clus>
<clus scale="  108.049">  1  4  2 -1</clus>
<clus scale="   41.085">  1  3  2 -1</clus>
</clustering>
</event>
<event>
 6    0  0.4469832E+002  0.7942359E+02  0.7546771E-02  0.1330695E+00
         21   -1    0    0  505  501  0.00000000000E+00  0.00000000000E+00  0.39769509919E+03  0.39769509919E+03  0.00000000000E+00 0.  1.
         21   -1    0    0  506  502 -0.00000000000E+00 -0.00000000000E+00 -0.15867620478E+03  0.15867620478E+03  0.00000000000E+00 0.  1.
         21    1    1    2  503  501 -0.86590678395E+02  0.42828626399E+02 -0.55558504089E+02  0.11144049623E+03  0.00000000000E+00 0.  1.
         21    1    1    2  504  503 -0.28286178138E+01 -0.53251822738E+02 -0.41895874016E+02  0.67816089265E+02  0.00000000000E+00 0.  1.
         21    1    1    2  505  502  0.66230424233E+02  0.47176806497E+02  0.32075557791E+03  0.33090219238E+03  0.00000000000E+00 0.  1.
         21    1    1    2  506  504  0.23188871976E+02 -0.36753610158E+02  0.15717694606E+02  0.46212526082E+02  0.00000000000E+00 0.  1.
<scales pt_clust_3="14000.00000" pt_clust_4="67.57914" pt_clust_5="79.42359" pt_clust_6="43.45747"></scales>
<clustering>
<clus scale="   43.457">  2  6  1 -1</clus>
<clus scale="   67.579">  2  4  1 -1</clus>
<clus scale="   79.424">  1  5  2 -1</clus>
<clus scale="   79.424">  1  3  2 -1</clus>
</clustering>
</event>
<event>
 6    0  0.4469832E+002  0.1714493E+03  0.7546771E-02  0.1176345E+00
         21   -1    0    0  503  501  0.00000000000E+00  0.00000000000E+00  0.12023184822E+04  0.12023184822E+04  0.00000000000E+00 0. -1.
         21   -1    0    0  506  502 -0.00000000000E+00 -0.00000000000E+00 -0.74574087908E+02  0.74574087908E+02  0.00000000000E+00 0.  1.
         21    1    1    2  503  505  0.94635048226E+01  0.19064045279E+03  0.95794667046E+03  0.97677795000E+03  0.00000000000E+00 0. -1.
         21    1    1    2  504  502 -0.46862680698E+01 -0.11341817410E+03  0.34190760290E+02  0.11855231510E+03  0.00000000000E+00 0.  1.
         21    1    1    2  505  504  0.35706697040E+02 -0.40815245819E+02  0.28153668460E+02  0.61102222157E+02  0.00000000000E+00 0. -1.
         21    1    1    2  506  501 -0.40483933793E+02 -0.36407032866E+02  0.10745329509E+03  0.12046008287E+03  0.00000000000E+00 0. -1.
<scales pt_clust_3="160.48727" pt_clust_4="41.69323" pt_clust_5="41.69323" pt_clust_6="54.44650"></scales>
<clustering>
<clus scale="   41.693">  4  5 -1 -1</clus>
<clus scale="   54.446">  1  6  2 -1</clus>
<clus scale="  160.487">  1  3  2 -1</clus>
<clus scale="   54.446">  1  3  2 -1</clus>
</clustering>
</event>
<event>
 6    0  0.4469832E+002  0.1211803E+03  0.7546771E-02  0.1241163E+00
         21   -1    0    0  503  501  0.00000000000E+00  0.00000000000E+00  0.18836735321E+03  0.18836735321E+03  0.00000000000E+00 0. -1.
         21   -1    0    0  504  502 -0.00000000000E+00 -0.00000000000E+00 -0.63892667313E+03  0.63892667313E+03  0.00000000000E+00 0.  1.
         21    1    1    2  503  506  0.53742032544E+02  0.12049532789E+02  0.11529888106E+03  0.12777804692E+03  0.00000000000E+00 0. -1.
         21    1    1    2  504  505 -0.44044812183E+02  0.42710514372E+02 -0.42035765007E+03  0.42481135518E+03  0.00000000000E+00 0.  1.
         21    1    1    2  505  501 -0.42614470468E+02  0.33380243947E+02 -0.16922597826E+03  0.17767291717E+03  0.00000000000E+00 0.  1.
         21    1    1    2  506  502  0.32917250107E+02 -0.88140291108E+02  0.23725427347E+02  0.97031707055E+02  0.00000000000E+00 0. -1.
<scales pt_clust_3="55.07629" pt_clust_4="42.82690" pt_clust_5="42.82690" pt_clust_6="112.27578"></scales>
<clustering>
<clus scale="   42.827">  4  5 -1 -1</clus>
<clus scale="   55.076">  1  3  2 -1</clus>
<clus scale="  112.276">  1  6  2 -1</clus>
<clus scale="   55.076">  1  3  2 -1</clus>
</clustering>
</event>
<event>
 6    0  0.4469832E+002  0.1952845E+03  0.7546771E-02  0.1153780E+00
         21   -1    0    0  506  501  0.00000000000E+00  0.00000000000E+00  0.37547692760E+03  0.37547692760E+03  0.00000000000E+00 0. -1.
         21   -1    0    0  503  502 -0.00000000000E+00 -0.00000000000E+00 -0.15750381371E+03  0.15750381371E+03  0.00000000000E+00 0. -1.
         21    1    1    2  503  504 -0.56747353173E+02 -0.11519007568E+03  0.68494490353E+01  0.12859210932E+03  0.00000000000E+00 0. -1.
         21    1    1    2  504  505 -0.19713124085E+02 -0.50822726736E+02 -0.32745353074E+02  0.63590997492E+02  0.00000000000E+00 0. -1.
         21    1    1    2  505  501  0.16265916338E+02 -0.29384469714E+02  0.33251981188E+02  0.47262261347E+02  0.00000000000E+00 0. -1.
         21    1    1    2  506  502  0.60194560920E+02  0.19539727213E+03  0.21061703675E+03  0.29353537315E+03  0.00000000000E+00 0. -1.
<scales pt_clust_3="34.61282" pt_clust_4="34.61282" pt_clust_5="33.58611" pt_clust_6="187.82640"></scales>
<clustering>
<clus scale="   33.586">  1  5  2 -1</clus>
<clus scale="   34.613">  3  4 -1 -1</clus>
<clus scale="  187.826">  1  6  2 -1</clus>
<clus scale="   33.586">  1  3  2 -1</clus>
</clustering>
</event>
<event>
 6    0  0.4469832E+002  0.2043146E+03  0.7546771E-02  0.1146149E+00
         21   -1    0    0  506  501  0.00000000000E+00  0.00000000000E+00  0.26297978683E+03  0.26297978683E+03  0.00000000000E+00 0.  1.
         21   -1    0    0  503  502 -0.00000000000E+00 -0.00000000000E+00 -0.22185113960E+03  0.22185113960E+03  0.00000000000E+00 0.  1.
         21    1    1    2  503  505 -0.46262071043E+02 -0.20641043523E+01 -0.23206109278E+02  0.51797328616E+02  0.00000000000E+00 0.  1.
         21    1    1    2  504  501 -0.30866536272E+02 -0.51861738150E+02  0.42367733498E+02  0.73738780754E+02  0.00000000000E+00 0.  1.
         21    1    1    2  505  504 -0.10657560718E+03 -0.73161430385E+02  0.39654163905E+02  0.13521615162E+03  0.00000000000E+00 0.  1.
         21    1    1    2  506  502  0.18370421450E+03  0.12708727289E+03 -0.17687140901E+02  0.22407866545E+03  0.00000000000E+00 0.  1.
<scales pt_clust_3="46.30810" pt_clust_4="33.56712" pt_clust_5="33.56712" pt_clust_6="198.32048"></scales>
<clustering>
<clus scale="   33.567">  4  5 -1 -1</clus>
<clus scale="   46.308">  2  3  1 -1</clus>
<clus scale="  198.320">  2  6  1 -1</clus>
<clus scale="  204.315">  1  3  2 -1</clus>
</clustering>
</event>
<event>
 6    0  0.4469832E+002  0.1086646E+03  0.7546771E-02  0.1263063E+00
         21   -1    0    0  506  501  0.00000000000E+00  0.00000000000E+00  0.22335400181E+03  0.22335400181E+03  0.00000000000E+00 0.  1.
         21   -1    0    0  505  502 -0.00000000000E+00 -0.00000000000E+00 -0.26159322333E+03  0.26159322333E+03  0.00000000000E+00 0.  1.
         21    1    1    2  503  502  0.48646280599E+02 -0.70671639955E+01 -0.78844360550E+02  0.92913070198E+02  0.00000000000E+00 0.  1.
         21    1    1    2  504  503  0.51978618866E+02 -0.46821779664E+02 -0.37654699286E+02  0.79447669874E+02  0.00000000000E+00 0.  1.
         21    1    1    2  505  501 -0.46518766337E+02 -0.21107563350E+02 -0.99704530791E+02  0.11202909583E+03  0.00000000000E+00 0. -1.
         21    1    1    2  506  504 -0.54106133128E+02  0.74996507009E+02  0.17796436911E+03  0.20055738924E+03  0.00000000000E+00 0.  1.
<scales pt_clust_3="46.72316" pt_clust_4="46.72316" pt_clust_5="51.08351" pt_clust_6="93.28012"></scales>
<clustering>
<clus scale="   46.723">  3  4 -1 -1</clus>
<clus scale="   51.084">  2  5  1 -1</clus>
<clus scale="   93.280">  1  6  2 -1</clus>
<clus scale="   93.280">  1  3  2 -1</clus>
</clustering>
</event>
<event>
 6    0  0.4469832E+002  0.9726838E+02  0.7546771E-02  0.1286147E+00
         21   -1    0    0  504  501  0.00000000000E+00  0.00000000000E+00  0.14915252561E+03  0.14915252561E+03  0.00000000000E+00 0.  1.
         21   -1    0    0  503  502 -0.00000000000E+00 -0.00000000000E+00 -0.12383118431E+03  0.12383118431E+03  0.00000000000E+00 0.  1.
         21    1    1    2  503  506 -0.29488981424E+02 -0.36360507486E+02 -0.30710975853E+02  0.55989736273E+02  0.00000000000E+00 0.  1.
         21    1    1    2  504  505  0.10273187010E+03  0.53431253557E+01  0.46529339890E+02  0.11290423195E+03  0.00000000000E+00 0.  1.
         21    1    1    2  505  502 -0.42103690038E+02  0.51342007330E+02  0.42337380266E+01  0.66533051705E+02  0.00000000000E+00 0.  1.
         21    1    1    2  506  501 -0.31139198636E+02 -0.20324625200E+02  0.52692392360E+01  0.37556689995E+02  0.00000000000E+00 0.  1.
<scales pt_clust_3="31.06132" pt_clust_4="90.81005" pt_clust_5="66.39821" pt_clust_6="31.06132"></scales>
<clustering>
<clus scale="   31.061">  3  6 -1 -1</clus>
<clus scale="   66.398">  2  5  1 -1</clus>
<clus scale="   90.810">  1  4  2 -1</clus>
<clus scale="   90.810">  1  3  2 -1</clus>
</clustering>
</event>
<event>
 6    0  0.4469832E+002  0.6810276E+02  0.7546771E-02  0.1366666E+00
         21   -1    0    0  504  501  0.00000000000E+00  0.00000000000E+00  0.33623795604E+03  0.33623795604E+03  0.00000000000E+00 0. -1.
         21   -1    0    0  505  502 -0.00000000000E+00 -0.00000000000E+00 -0.64398082247E+03  0.64398082247E+03  0.00000000000E+00 0. -1.
         21    1    1    2  503  506  0.55189540463E+02  0.41403230925E+02  0.57753924717E+02  0.89975711877E+02  0.00000000000E+00 0. -1.
         21    1    1    2  504  503 -0.74004358012E+01 -0.73366891732E+02  0.24168931380E+03  0.25268793334E+03  0.00000000000E+00 0. -1.
         21    1    1    2  505  501  0.35263596704E+02 -0.18973382671E+02 -0.24856052671E+02  0.47131028600E+02  0.00000000000E+00 0.  1.
         21    1    1    2  506  502 -0.83052701366E+02  0.50937043478E+02 -0.58233005229E+03  0.59042410469E+03  0.00000000000E+00 0. -1.
<scales pt_clust_3="68.10276" pt_clust_4="14000.00000" pt_clust_5="40.04386" pt_clust_6="58.91018"></scales>
<clustering>
<clus scale="   40.044">  2  5  1 -1</clus>
<clus scale="   58.910">  2  6  1 -1</clus>
<clus scale="   68.103">  2  3  1 -1</clus>
<clus scale="   68.103">  1  3  2 -1</clus>
</clustering>
</event>
<event>
 6    0  0.4469832E+002  0.9875619E+02  0.7546771E-02  0.1282933E+00
         21   -1    0    0  503  501  0.00000000000E+00  0.00000000000E+00  0.46400123321E+03  0.46400123321E+03  0.00000000000E+00 0. -1.
         21   -1    0    0  505  502 -0.00000000000E+00 -0.00000000000E+00 -0.19227375641E+03  0.19227375641E+03  0.00000000000E+00 0. -1.
         21    1    1    2  503  502  0.59868568210E+01  0.32814566891E+02 -0.18323727264E+02  0.38057814384E+02  0.00000000000E+00 0.  1.
         21    1    1    2  504  506  0.59281554815E+02  0.11187183070E+03  0.19828110495E+03  0.23525519298E+03  0.00000000000E+00 0. -1.
         21    1    1    2  505  504  0.15807169420E+02 -0.10274708631E+03 -0.11615615948E+03  0.15588163373E+03  0.00000000000E+00 0. -1.
         21    1    1    2  506  501 -0.81075581056E+02 -0.41939311281E+02  0.20792625859E+03  0.22708034852E+03  0.00000000000E+00 0. -1.
<scales pt_clust_3="33.35623" pt_clust_4="98.75619" pt_clust_5="78.34820" pt_clust_6="14000.00000"></scales>
<clustering>
<clus scale="   33.356">  2  3  1 -1</clus>
<clus scale="   78.348">  2  5  1 -1</clus>
<clus scale="   98.756">  2  4  1 -1</clus>
<clus scale="   98.756">  1  3  2 -1</clus>
</clustering>
</event>
<event>
 6    0  0.4469832E+002  0.9342339E+02  0.7546771E-02  0.1294767E+00
         21   -1    0    0  505  501  0.00000000000E+00  0.00000000000E+00  0.26159521053E+03  0.26159521053E+03  0.00000000000E+00 0. -1.
         21   -1    0    0  504  502 -0.00000000000E+00 -0.00000000000E+00 -0.57895239953E+03  0.57895239953E+03  0.00000000000E+00 0. -1.
         21    1    1    2  503  501 -0.12490811986E+03 -0.10408851392E+02  0.11527493462E+03  0.17029002656E+03  0.00000000000E+00 0. -1.
         21    1    1    2  504  503  0.24142416490E+02  0.21559805790E+02 -0.48841073105E+02  0.58592934060E+02  0.00000000000E+00 0. -1.
         21    1    1    2  505  506  0.47914355348E+02 -0.44819479610E+02  0.10231075966E+03  0.12154037495E+03  0.00000000000E+00 0. -1.
         21    1    1    2  506  502  0.52851348026E+02  0.33668525213E+02 -0.48610181018E+03  0.49012427448E+03  0.00000000000E+00 0. -1.
<scales pt_clust_3="14000.00000" pt_clust_4="32.36791" pt_clust_5="65.66503" pt_clust_6="93.42339"></scales>
<clustering>
<clus scale="   32.368">  2  4  1 -1</clus>
<clus scale="   65.665">  1  5  2 -1</clus>
<clus scale="   93.423">  2  6  1 -1</clus>
<clus scale="   65.665">  1  3  2 -1</clus>
</clustering>
</event>
<event>
 6    0  0.4469832E+002  0.1017444E+03  0.7546771E-02  0.1276670E+00
         21   -1    0    0  505  501  0.00000000000E+00  0.00000000000E+00  0.30070609640E+02  0.30070609640E+02  0.00000000000E+00 0. -1.
         21   -1    0    0  506  502 -0.00000000000E+00 -0.00000000000E+00 -0.12413809793E+04  0.12413809793E+04  0.00000000000E+00 0. -1.
         21    1    1    2  503  504  0.30136915313E+02 -0.22106335901E+02 -0.68574503897E+03  0.68676282822E+03  0.00000000000E+00 0. -1.
         21    1    1    2  504  502  0.17986795650E+02  0.30717142579E+02 -0.14705150524E+03  0.15129842319E+03  0.00000000000E+00 0. -1.
         21    1    1    2  505  503  0.69961411493E+01 -0.10067727153E+03 -0.21910604998E+03  0.24123084407E+03  0.00000000000E+00 0. -1.
         21    1    1    2  506  501 -0.55119852112E+02  0.92066464848E+02 -0.15940777545E+03  0.19215949345E+03  0.00000000000E+00 0. -1.
<scales pt_clust_3="41.53327" pt_clust_4="35.59589" pt_clust_5="101.74439" pt_clust_6="14000.00000"></scales>
<clustering>
<clus scale="   35.596">  2  4  1 -1</clus>
<clus scale="   41.533">  2  3  1 -1</clus>
<clus scale="  101.744">  2  5  1 -1</clus>
<clus scale="  101.744">  1  3  2 -1</clus>
</clustering>
</event>
<event>
 6    0  0.4469832E+002  0.7598439E+02  0.7546771E-02  0.1340850E+00
         21   -1    0    0  506  501  0.00000000000E+00  0.00000000000E+00  0.70765656229E+03  0.70765656229E+03  0.00000000000E+00 0.  1.
         21   -1    0    0  504  502 -0.00000000000E+00 -0.00000000000E+00 -0.17392985785E+03  0.17392985785E+03  0.00000000000E+00 0.  1.
         21    1    1    2  503  505 -0.64065555887E+02 -0.75577962244E+01  0.50478384945E+03  0.50888923195E+03  0.00000000000E+00 0.  1.
         21    1    1    2  504  501  0.85327920369E+02 -0.24986196194E+01 -0.13281481868E+03  0.15788246627E+03  0.00000000000E+00 0.  1.
         21    1    1    2  505  502 -0.27287312109E+02  0.56281449808E+02  0.20121416670E+02  0.65704416925E+02  0.00000000000E+00 0.  1.
         21    1    1    2  506  503  0.60249476265E+01 -0.46225033964E+02  0.14163625700E+03  0.14911030500E+03  0.00000000000E+00 0.  1.
<scales pt_clust_3="75.98439" pt_clust_4="14000.00000" pt_clust_5="59.18325" pt_clust_6="46.61602"></scales>
<clustering>
<clus scale="   46.616">  1  6  2 -1</clus>
<clus scale="   59.183">  2  5  1 -1</clus>
<clus scale="   75.984">  1  3  2 -1</clus>
<clus scale="   46.616">  1  3  2 -1</clus>
</clustering>
</event>
<event>
 6    0  0.4469832E+002  0.9362027E+02  0.7546771E-02  0.1294314E+00
         21   -1    0    0  506  501  0.00000000000E+00  0.00000000000E+00  0.11585336654E+03  0.11585336654E+03  0.00000000000E+00 0.  1.
         21   -1    0    0  503  502 -0.00000000000E+00 -0.00000000000E+00 -0.95489421324E+03  0.95489421324E+03  0.00000000000E+00 0.  1.
         21    1    1    2  503  504  0.12969785922E+03  0.70444007324E+02 -0.31919906013E+03  0.35167020465E+03  0.00000000000E+00 0.  1.
         21    1    1    2  504  501 -0.57632236627E+02  0.90301745186E+01  0.83862546106E+02  0.10215647503E+03  0.00000000000E+00 0.  1.
         21    1    1    2  505  502 -0.27913053244E+02 -0.38997312584E+02 -0.43993768622E+03  0.44254389239E+03  0.00000000000E+00 0.  1.
         21    1    1    2  506  505 -0.44152569349E+02 -0.40476869259E+02 -0.16376664646E+03  0.17437700771E+03  0.00000000000E+00 0. -1.
<scales pt_clust_3="93.62027" pt_clust_4="58.72393" pt_clust_5="47.95757" pt_clust_6="14000.00000"></scales>
<clustering>
<clus scale="   47.958">  2  5  1 -1</clus>
<clus scale="   58.724">  1  4  2 -1</clus>
<clus scale="   93.620">  1  3  2 -1</clus>
<clus scale="   58.724">  1  3  2 -1</clus>
</clustering>
</event>
<event>
 6    0  0.4469832E+002  0.6946697E+02  0.7546771E-02  0.1361915E+00
         21   -1    0    0  506  501  0.00000000000E+00  0.00000000000E+00  0.16392748283E+04  0.16392748283E+04  0.00000000000E+00 0. -1.
         21   -1    0    0  505  502 -0.00000000000E+00 -0.00000000000E+00 -0.75560404488E+03  0.75560404488E+03  0.00000000000E+00 0. -1.
         21    1    1    2  503  504  0.19854947084E+01  0.11984955087E+03  0.77861719492E+02  0.14293461581E+03  0.00000000000E+00 0. -1.
         21    1    1    2  504  501  0.11639672325E+02 -0.47031807795E+02  0.15166079880E+04  0.15173817127E+04  0.00000000000E+00 0. -1.
         21    1    1    2  505  503 -0.25735219959E+02 -0.35918429213E+02 -0.31765577657E+02  0.54419546372E+02  0.00000000000E+00 0.  1.
         21    1    1    2  506  502  0.12110052925E+02 -0.36899313864E+02 -0.67903334634E+03  0.68014299834E+03  0.00000000000E+00 0. -1.
<scales pt_clust_3="69.46697" pt_clust_4="48.64782" pt_clust_5="14000.00000" pt_clust_6="38.83571"></scales>
<clustering>
<clus scale="   38.836">  2  6  1 -1</clus>
<clus scale="   48.648">  1  4  2 -1</clus>
<clus scale="   69.467">  1  3  2 -1</clus>
<clus scale="   48.648">  1  3  2 -1</clus>
</clustering>
</event>
<event>
 6    0  0.4469832E+002  0.6940422E+02  0.7546771E-02  0.1362131E+00
         21   -1    0    0  503  501  0.00000000000E+00  0.00000000000E+00  0.92519853966E+02  0.92519853966E+02  0.00000000000E+00 0. -1.
         21   -1    0    0  506  502 -0.00000000000E+00 -0.00000000000E+00 -0.75322265343E+03  0.75322265343E+03  0.00000000000E+00 0. -1.
         21    1    1    2  503  505 -0.95637495145E+01 -0.39876772913E+02  0.66136369484E+02  0.77818003644E+02  0.00000000000E+00 0. -1.
         21    1    1    2  504  501  0.69450952849E+02  0.53265122243E+02 -0.15836006173E+03  0.18093788230E+03  0.00000000000E+00 0. -1.
         21    1    1    2  505  502  0.67369410806E+01 -0.49408833828E+02 -0.93115155356E+02  0.10562694444E+03  0.00000000000E+00 0. -1.
         21    1    1    2  506  504 -0.66624144415E+02  0.36020484498E+02 -0.47536395186E+03  0.48135967701E+03  0.00000000000E+00 0. -1.
<scales pt_clust_3="41.00759" pt_clust_4="69.40422" pt_clust_5="61.67128" pt_clust_6="14000.00000"></scales>
<clustering>
<clus scale="   41.008">  1  3  2 -1</clus>
<clus scale="   61.671">  1  5  2 -1</clus>
<clus scale="   69.404">  1  4  2 -1</clus>
<clus scale="   41.008">  1  3  2 -1</clus>
</clustering>
</event>
<event>
 6    0  0.4469832E+002  0.7253931E+02  0.7546771E-02  0.1351665E+00
         21   -1    0    0  503  501  0.00000000000E+00  0.00000000000E+00  0.22362323866E+03  0.22362323866E+03  0.00000000000E+00 0.  1.
         21   -1    0    0  504  502 -0.00000000000E+00 -0.00000000000E+00 -0.10191853971E+04  0.10191853971E+04  0.00000000000E+00 0. -1.
         21    1    1    2  503  506  0.40158962240E+02 -0.31639791781E+02  0.20450911519E+03  0.21080274398E+03  0.00000000000E+00 0.  1.
         21    1    1    2  504  505  0.56455442929E+02  0.19126033855E+02 -0.35044814643E+03  0.35548125906E+03  0.00000000000E+00 0. -1.
         21    1    1    2  505  501 -0.10160902697E+02 -0.54316346328E+02 -0.84708807615E+02  0.10113897127E+03  0.00000000000E+00 0.  1.
         21    1    1    2  506  502 -0.86453502472E+02  0.66830104255E+02 -0.56491431961E+03  0.57538566147E+03  0.00000000000E+00 0. -1.
<scales pt_clust_3="51.12552" pt_clust_4="64.35720" pt_clust_5="14000.00000" pt_clust_6="72.53931"></scales>
<clustering>
<clus scale="   51.126">  1  3  2 -1</clus>
<clus scale="   64.357">  2  4  1 -1</clus>
<clus scale="   72.539">  2  6  1 -1</clus>
<clus scale="   51.126">  1  3  2 -1</clus>
</clustering>
</event>
<event>
 6    0  0.4469832E+002  0.1945309E+03  0.7546771E-02  0.1154437E+00
         21   -1    0    0  505  501  0.00000000000E+00  0.00000000000E+00  0.30261732068E+03  0.30261732068E+03  0.00000000000E+00 0. -1.
         21   -1    0    0  504  502 -0.00000000000E+00 -0.00000000000E+00 -0.36764329060E+03  0.36764329060E+03  0.00000000000E+00 0.  1.
         21    1    1    2  503  502 -0.49745325054E+02 -0.20807998701E+02 -0.16036815799E+03  0.16919076887E+03  0.00000000000E+00 0.  1.
         21    1    1    2  504  501 -0.33141028335E+02  0.14399229810E+01  0.84508933486E+02  0.90786347962E+02  0.00000000000E+00 0. -1.
         21    1    1    2  505  506  0.19415766479E+03  0.64253513724E+02  0.12906648018E+03  0.24183438368E+03  0.00000000000E+00 0. -1.
         21    1    1    2  506  503 -0.11127131140E+03 -0.44885438004E+02 -0.11823322560E+03  0.16844911078E+03  0.00000000000E+00 0.  1.
<scales pt_clust_3="52.06738" pt_clust_4="33.17229" pt_clust_5="178.05136" pt_clust_6="52.06738"></scales>
<clustering>
<clus scale="   33.172">  1  4  2 -1</clus>
<clus scale="   52.067">  3  6 -1 -1</clus>
<clus scale="  178.051">  1  5  2 -1</clus>
<clus scale="   33.172">  1  3  2 -1</clus>
</clustering>
</event>
<event>
 6    0  0.4469832E+002  0.8945886E+02  0.7546771E-02  0.1304167E+00
         21   -1    0    0  506  501  0.00000000000E+00  0.00000000000E+00  0.17559153495E+04  0.17559153495E+04  0.00000000000E+00 0.  1.
         21   -1    0    0  505  502 -0.00000000000E+00 -0.00000000000E+00 -0.16992485702E+02  0.16992485702E+02  0.00000000000E+00 0. -1.
         21    1    1    2  503  502 -0.27911525091E+02 -0.24499063022E+02  0.53705249699E+02  0.65295567744E+02  0.00000000000E+00 0.  1.
         21    1    1    2  504  503  0.66130920954E+01 -0.39207157896E+02  0.65519869579E+02  0.76640638873E+02  0.00000000000E+00 0. -1.
         21    1    1    2  505  501 -0.54793950476E+02  0.91569004516E+02  0.10743148354E+04  0.10796016048E+04  0.00000000000E+00 0.  1.
         21    1    1    2  506  504  0.76092383471E+02 -0.27862783599E+02  0.54538290914E+03  0.55137002377E+03  0.00000000000E+00 0.  1.
<scales pt_clust_3="36.40804" pt_clust_4="77.01466" pt_clust_5="89.45886" pt_clust_6="14000.00000"></scales>
<clustering>
<clus scale="   36.408">  3  4 -1 -1</clus>
<clus scale="   77.015">  2  3  1 -1</clus>
<clus scale="   89.459">  1  5  2 -1</clus>
<clus scale="   89.459">  1  3  2 -1</clus>
</clustering>
</event>
<event>
 6    0  0.4469832E+002  0.1517830E+03  0.7546771E-02  0.1198299E+00
         21   -1    0    0  506  501  0.00000000000E+00  0.00000000000E+00  0.28388258926E+04  0.28388258926E+04  0.00000000000E+00 0. -1.
         21   -1    0    0  505  502 -0.00000000000E+00 -0.00000000000E+00 -0.24620832709E+03  0.24620832709E+03  0.00000000000E+00 0. -1.
         21    1    1    2  503  502 -0.60873617430E+02  0.36035913738E+02  0.60180711085E+01  0.70995785494E+02  0.00000000000E+00 0. -1.
         21    1    1    2  504  501  0.18736118637E+03 -0.12139880574E+03  0.47765614776E+02  0.22830558064E+03  0.00000000000E+00 0. -1.
         21    1    1    2  505  504 -0.50610030784E+02  0.78005674406E+02 -0.10531214908E+03  0.14048811053E+03  0.00000000000E+00 0. -1.
         21    1    1    2  506  503 -0.75877538160E+02  0.73572176000E+01  0.26441460287E+04  0.26452447431E+04  0.00000000000E+00 0. -1.
<scales pt_clust_3="70.74026" pt_clust_4="14000.00000" pt_clust_5="151.78298" pt_clust_6="76.39811"></scales>
<clustering>
<clus scale="   70.740">  2  3  1 -1</clus>
<clus scale="   76.398">  1  6  2 -1</clus>
<clus scale="  151.783">  2  5  1 -1</clus>
<clus scale="   76.398">  1  3  2 -1</clus>
</clustering>
</event>
<event>
 6    0  0.4469832E+002  0.1310984E+03  0.7546771E-02  0.1225835E+00
         21   -1    0    0  505  501  0.00000000000E+00  0.00000000000E+00  0.84280456231E+02  0.84280456231E+02  0.00000000000E+00 0. -1.
         21   -1    0    0  504  502 -0.00000000000E+00 -0.00000000000E+00 -0.18273884919E+04  0.18273884919E+04  0.00000000000E+00 0. -1.
         21    1    1    2  503  501  0.16359417966E+02  0.71757681664E+02 -0.89120258295E+03  0.89423645603E+03  0.00000000000E+00 0.  1.
         21    1    1    2  504  503 -0.19444069926E+02  0.32810327330E+02 -0.69397708946E+03  0.69502430902E+03  0.00000000000E+00 0. -1.
         21    1    1    2  505  506 -0.40224704239E+02 -0.11724470769E+03  0.31324325352E+02  0.12784976211E+03  0.00000000000E+00 0. -1.
         21    1    1    2  506  502  0.43309356199E+02  0.12676698698E+02 -0.18925268862E+03  0.19455842098E+03  0.00000000000E+00 0.  1.
<scales pt_clust_3="32.28326" pt_clust_4="32.28326" pt_clust_5="123.18922" pt_clust_6="45.12648"></scales>
<clustering>
<clus scale="   32.283">  3  4 -1 -1</clus>
<clus scale="   45.126">  2  6  1 -1</clus>
<clus scale="  123.189">  1  5  2 -1</clus>
<clus scale="  123.189">  1  3  2 -1</clus>
</clustering>
</event>
<event>
 6    0  0.4469832E+002  0.7593730E+02  0.7546771E-02  0.1340993E+00
         21   -1    0    0  505  501  0.00000000000E+00  0.00000000000E+00  0.25137822336E+04  0.25137822336E+04  0.00000000000E+00 0. -1.
         21   -1    0    0  503  502 -0.00000000000E+00 -0.00000000000E+00 -0.40656012080E+02  0.40656012080E+02  0.00000000000E+00 0. -1.
         21    1    1    2  503  504  0.10638193990E+03  0.37471909856E+02  0.68145075199E+02  0.13177637284E+03  0.00000000000E+00 0. -1.
         21    1    1    2  504  501 -0.25030219973E+02  0.44962151727E+02  0.32573307534E+03  0.32977286633E+03  0.00000000000E+00 0. -1.
         21    1    1    2  505  506 -0.44603523524E+02 -0.67834752174E+02  0.20201602364E+04  0.20217908914E+04  0.00000000000E+00 0. -1.
         21    1    1    2  506  502 -0.36748196398E+02 -0.14599309409E+02  0.59087834610E+02  0.71098115113E+02  0.00000000000E+00 0. -1.
<scales pt_clust_3="75.93730" pt_clust_4="51.80858" pt_clust_5="14000.00000" pt_clust_6="39.54200"></scales>
<clustering>
<clus scale="   39.542">  2  6  1 -1</clus>
<clus scale="   51.809">  1  4  2 -1</clus>
<clus scale="   75.937">  2  3  1 -1</clus>
<clus scale="   51.809">  1  3  2 -1</clus>
</clustering>
</event>
<event>
 6    0  0.4469832E+002  0.8260598E+02  0.7546771E-02  0.1321815E+00
         21   -1    0    0  504  501  0.00000000000E+00  0.00000000000E+00  0.24990968227E+03  0.24990968227E+03  0.00000000000E+00 0. -1.
         21   -1    0    0  505  502 -0.00000000000E+00 -0.00000000000E+00 -0.99211097465E+02  0.99211097465E+02  0.00000000000E+00 0. -1.
         21    1    1    2  503  506 -0.39001113736E+02 -0.43035528790E+02 -0.21064077114E+02  0.61780571020E+02  0.00000000000E+00 0. -1.
         21    1    1    2  504  502  0.96274419210E+02  0.91969711610E+02  0.10716662267E+03  0.17091482283E+03  0.00000000000E+00 0. -1.
         21    1    1    2  505  503  0.33545591142E+01 -0.31619908470E+02  0.10918898674E+02  0.33619845728E+02  0.00000000000E+00 0. -1.
         21    1    1    2  506  501 -0.60627864588E+02 -0.17314274350E+02  0.53677140577E+02  0.82805540161E+02  0.00000000000E+00 0. -1.
<scales pt_clust_3="82.60598" pt_clust_4="14000.00000" pt_clust_5="31.79735" pt_clust_6="64.16683"></scales>
<clustering>
<clus scale="   31.797">  2  5  1 -1</clus>
<clus scale="   64.167">  1  6  2 -1</clus>
<clus scale="   82.606">  2  3  1 -1</clus>
<clus scale="   64.167">  1  3  2 -1</clus>
</clustering>
</event>
<event>
 6    0  0.4469832E+002  0.1536578E+03  0.7546771E-02  0.1196049E+00
         21   -1    0    0  506  501  0.00000000000E+00  0.00000000000E+00  0.94435535394E+03  0.94435535394E+03  0.00000000000E+00 0.  1.
         21   -1    0    0  503  502 -0.00000000000E+00 -0.00000000000E+00 -0.10882080932E+03  0.10882080932E+03  0.00000000000E+00 0.  1.
         21    1    1    2  503  504  0.11046838164E+03 -0.71430263147E+02 -0.21903903443E+02  0.13336163924E+03  0.00000000000E+00 0.  1.
         21    1    1    2  504  501  0.42312928710E+02 -0.23172280337E+02  0.31731532410E+03  0.32096160740E+03  0.00000000000E+00 0.  1.
         21    1    1    2  505  502 -0.65728199613E+01 -0.37619359722E+02  0.21045620325E+02  0.43604315417E+02  0.00000000000E+00 0.  1.
         21    1    1    2  506  505 -0.14620849039E+03  0.13222190321E+03  0.51907750364E+03  0.55524860120E+03  0.00000000000E+00 0.  1.
<scales pt_clust_3="153.65779" pt_clust_4="48.47719" pt_clust_5="38.18924" pt_clust_6="14000.00000"></scales>
<clustering>
<clus scale="   38.189">  2  5  1 -1</clus>
<clus scale="   48.477">  1  4  2 -1</clus>
<clus scale="  153.658">  2  3  1 -1</clus>
<clus scale="   48.477">  1  3  2 -1</clus>
</clustering>
</event>
<event>
 6    0  0.4469832E+002  0.1030637E+03  0.7546771E-02  0.1273982E+00
         21   -1    0    0  503  501  0.00000000000E+00  0.00000000000E+00  0.71558046810E+02  0.71558046810E+02  0.00000000000E+00 0. -1.
         21   -1    0    0  504  502 -0.00000000000E+00 -0.00000000000E+00 -0.17813059881E+04  0.17813059881E+04  0.00000000000E+00 0.  1.
         21    1    1    2  503  506  0.26017537762E+02  0.33427244489E+02  0.18714380108E+02  0.46308972869E+02  0.00000000000E+00 0. -1.
         21    1    1    2  504  501 -0.10125051638E+03 -0.10812886960E+03 -0.11450909777E+03  0.18723208320E+03  0.00000000000E+00 0. -1.
         21    1    1    2  505  502  0.49382292093E+02  0.95436706411E+01 -0.10214449291E+04  0.10226824706E+04  0.00000000000E+00 0.  1.
         21    1    1    2  506  505  0.25850686528E+02  0.65157954468E+02 -0.59250829447E+03  0.59664050821E+03  0.00000000000E+00 0.  1.
<scales pt_clust_3="42.35910" pt_clust_4="14000.00000" pt_clust_5="50.80330" pt_clust_6="103.06371"></scales>
<clustering>
<clus scale="   42.359">  1  3  2 -1</clus>
<clus scale="   50.803">  2  5  1 -1</clus>
<clus scale="  103.064">  2  6  1 -1</clus>
<clus scale="   42.359">  1  3  2 -1</clus>
</clustering>
</event>
<event>
 6    0  0.4469832E+002  0.2304499E+03  0.7546771E-02  0.1126323E+00
         21   -1    0    0  505  501  0.00000000000E+00  0.00000000000E+00  0.13998238315E+04  0.13998238315E+04  0.00000000000E+00 0.  1.
         21   -1    0    0  503  502 -0.00000000000E+00 -0.00000000000E+00 -0.17875105002E+03  0.17875105002E+03  0.00000000000E+00 0.  1.
         21    1    1    2  503  504 -0.10467369896E+03 -0.17732435307E+03  0.20195851072E+03  0.28842286577E+03  0.00000000000E+00 0.  1.
         21    1    1    2  504  501 -0.11157787978E+01 -0.37131842182E+02  0.98336026184E+03  0.98406169687E+03  0.00000000000E+00 0.  1.
         21    1    1    2  505  506  0.14244829580E+03  0.20896389202E+03 -0.23798569203E+01  0.25290925026E+03  0.00000000000E+00 0.  1.
         21    1    1    2  506  502 -0.36658818045E+02  0.54923032284E+01  0.38133865817E+02  0.53181068599E+02  0.00000000000E+00 0.  1.
<scales pt_clust_3="14000.00000" pt_clust_4="37.13969" pt_clust_5="230.44992" pt_clust_6="37.06797"></scales>
<clustering>
<clus scale="   37.068">  2  6  1 -1</clus>
<clus scale="   37.140">  1  4  2 -1</clus>
<clus scale="  230.450">  2  5  1 -1</clus>
<clus scale="   37.140">  1  3  2 -1</clus>
</clustering>
</event>
<event>
 6    0  0.4469832E+002  0.1473445E+03  0.7546771E-02  0.1203775E+00
         21   -1    0    0  502  501  0.00000000000E+00  0.00000000000E+00  0.23155072646E+03  0.23155072646E+03  0.00000000000E+00 0. -1.
         21   -1    0    0  505  502 -0.00000000000E+00 -0.00000000000E+00 -0.80172406466E+03  0.80172406466E+03  0.00000000000E+00 0.  1.
         21    1    1    2  503  504  0.52377764927E+02 -0.42306679004E+02 -0.78364595051E+02  0.10331648031E+03  0.00000000000E+00 0. -1.
         21    1    1    2  504  506  0.54128283497E+02 -0.25745445602E+02 -0.29449556102E+02  0.66783047236E+02  0.00000000000E+00 0. -1.
         21    1    1    2  505  503 -0.10554334260E+03  0.10324637951E+03 -0.65291174187E+03  0.66939745646E+03  0.00000000000E+00 0.  1.
         21    1    1    2  506  501 -0.96270582113E+00 -0.35194254900E+02  0.19055255481E+03  0.19377780711E+03  0.00000000000E+00 0. -1.
<scales pt_clust_3="34.47831" pt_clust_4="34.47831" pt_clust_5="142.74129" pt_clust_6="35.20742"></scales>
<clustering>
<clus scale="   34.478">  3  4 -1 -1</clus>
<clus scale="   35.207">  1  6  2 -1</clus>
<clus scale="  142.741">  2  5  1 -1</clus>
<clus scale="   35.207">  1  3  2 -1</clus>
</clustering>
</event>
<event>
 6    0  0.4469832E+002  0.9503347E+02  0.7546771E-02  0.1291101E+00
         21   -1    0    0  503  501  0.00000000000E+00  0.00000000000E+00  0.39750775492E+02  0.39750775492E+02  0.00000000000E+00 0.  1.
         21   -1    0    0  505  502 -0.00000000000E+00 -0.00000000000E+00 -0.68171673067E+03  0.68171673067E+03  0.00000000000E+00 0. -1.
         21    1    1    2  503  506  0.12406052640E+02 -0.36767947714E+02 -0.61949999168E+02  0.73099894105E+02  0.00000000000E+00 0.  1.
         21    1    1    2  504  501  0.48474602873E+02 -0.22661682369E+02 -0.34126645817E+02  0.63466266049E+02  0.00000000000E+00 0.  1.
         21    1    1    2  505  504  0.58170449765E+02  0.53726453207E+02 -0.12951485450E+03  0.15180392135E+03  0.00000000000E+00 0.  1.
         21    1    1    2  506  502 -0.11905110528E+03  0.57031768763E+01 -0.41637445570E+03  0.43309742467E+03  0.00000000000E+00 0. -1.
<scales pt_clust_3="38.80454" pt_clust_4="66.12394" pt_clust_5="14000.00000" pt_clust_6="95.03347"></scales>
<clustering>
<clus scale="   38.805">  1  3  2 -1</clus>
<clus scale="   66.124">  1  4  2 -1</clus>
<clus scale="   95.033">  2  6  1 -1</clus>
<clus scale="   38.805">  1  3  2 -1</clus>
</clustering>
</event>
<event>
 6    0  0.4469832E+002  0.1537199E+03  0.7546771E-02  0.1195975E+00
         21   -1    0    0  505  501  0.00000000000E+00  0.00000000000E+00  0.56729440956E+02  0.56729440956E+02  0.00000000000E+00 0.  1.
         21   -1    0    0  503  502 -0.00000000000E+00 -0.00000000000E+00 -0.14463006209E+04  0.14463006209E+04  0.00000000000E+00 0. -1.
         21    1    1    2  503  501 -0.44327371523E+02  0.18453316830E+02 -0.71134163998E+02  0.85822549810E+02  0.00000000000E+00 0.  1.
         21    1    1    2  504  502 -0.66139030819E+02  0.15494732626E+01 -0.41352708402E+03  0.41878565100E+03  0.00000000000E+00 0.  1.
         21    1    1    2  505  506  0.17422210854E+03  0.30301718932E+02 -0.13052844689E+03  0.21979356843E+03  0.00000000000E+00 0.  1.
         21    1    1    2  506  504 -0.63755706196E+02 -0.50304509024E+02 -0.77438148502E+03  0.77862829260E+03  0.00000000000E+00 0. -1.
<scales pt_clust_3="48.01501" pt_clust_4="53.42025" pt_clust_5="142.14825" pt_clust_6="53.42025"></scales>
<clustering>
<clus scale="   48.015">  1  3  2 -1</clus>
<clus scale="   53.420">  4  6 -1 -1</clus>
<clus scale="  142.148">  1  5  2 -1</clus>
<clus scale="   48.015">  1  3  2 -1</clus>
</clustering>
</event>
<event>
 6    0  0.4469832E+002  0.1229961E+03  0.7546771E-02  0.1238235E+00
         21   -1    0    0  506  501  0.00000000000E+00  0.00000000000E+00  0.22928328199E+03  0.22928328199E+03  0.00000000000E+00 0.  1.
         21   -1    0    0  503  502 -0.00000000000E+00 -0.00000000000E+00 -0.15809844903E+04  0.15809844903E+04  0.00000000000E+00 0. -1.
         21    1    1    2  503  501 -0.35704815788E+02  0.29914500476E+02 -0.62483793520E+03  0.62657174887E+03  0.00000000000E+00 0. -1.
         21    1    1    2  504  502  0.82977405138E+02  0.44485613302E+02 -0.81925576851E+03  0.82464794536E+03  0.00000000000E+00 0. -1.
         21    1    1    2  505  504 -0.12733587802E+03  0.23812513078E+02 -0.74550537631E+02  0.14946318701E+03  0.00000000000E+00 0. -1.
         21    1    1    2  506  505  0.80063288667E+02 -0.98212626855E+02  0.16694303305E+03  0.20958489104E+03  0.00000000000E+00 0.  1.
<scales pt_clust_3="46.58016" pt_clust_4="87.53413" pt_clust_5="122.99611" pt_clust_6="14000.00000"></scales>
<clustering>
<clus scale="   46.580">  2  3  1 -1</clus>
<clus scale="   87.534">  2  4  1 -1</clus>
<clus scale="  122.996">  2  5  1 -1</clus>
<clus scale="  122.996">  1  3  2 -1</clus>
</clustering>
</event>
<event>
 6    0  0.4469832E+002  0.2279891E+03  0.7546771E-02  0.1128063E+00
         21   -1    0    0  505  501  0.00000000000E+00  0.00000000000E+00  0.12109733325E+04  0.12109733325E+04  0.00000000000E+00 0. -1.
         21   -1    0    0  506  502 -0.00000000000E+00 -0.00000000000E+00 -0.64059677493E+02  0.64059677493E+02  0.00000000000E+00 0. -1.
         21    1    1    2  503  502  0.16209292127E+03  0.10218198967E+03  0.40586539787E+03  0.44882289974E+03  0.00000000000E+00 0. -1.
         21    1    1    2  504  501 -0.15482696857E+03 -0.76918688305E+02  0.22631644853E+03  0.28479292421E+03  0.00000000000E+00 0. -1.
         21    1    1    2  505  503  0.38549699395E+02  0.39799378807E+02  0.38685444105E+03  0.39080228817E+03  0.00000000000E+00 0.  1.
         21    1    1    2  506  504 -0.45815652099E+02 -0.65062680170E+02  0.12787736753E+03  0.15061489785E+03  0.00000000000E+00 0. -1.
<scales pt_clust_3="219.70091" pt_clust_4="41.32701" pt_clust_5="55.40821" pt_clust_6="41.32701"></scales>
<clustering>
<clus scale="   41.327">  4  6 -1 -1</clus>
<clus scale="   55.408">  1  5  2 -1</clus>
<clus scale="  219.701">  1  3  2 -1</clus>
<clus scale="   55.408">  1  3  2 -1</clus>
</clustering>
</event>
<event>
 6    0  0.4469832E+002  0.1210542E+03  0.7546771E-02  0.1241368E+00
         21   -1    0    0  505  501  0.00000000000E+00  0.00000000000E+00  0.18673725395E+04  0.18673725395E+04  0.00000000000E+00 0.  1.
         21   -1    0    0  506  502 -0.00000000000E+00 -0.00000000000E+00 -0.30111994997E+02  0.30111994997E+02  0.00000000000E+00 0. -1.
         21    1    1    2  503  502  0.37779328502E+02 -0.10766521278E+03  0.12753050920E+04  0.12803992164E+04  0.00000000000E+00 0.  1.
         21    1    1    2  504  501 -0.12031032553E+02  0.83622091748E+02  0.88660061929E+02  0.12246634866E+03  0.00000000000E+00 0. -1.
         21    1    1    2  505  503 -0.49954895320E+02 -0.33591787393E+01  0.44647583297E+03  0.44927435390E+03  0.00000000000E+00 0. -1.
         21    1    1    2  506  504  0.24206599372E+02  0.27402299770E+02  0.26819557573E+02  0.45344615493E+02  0.00000000000E+00 0. -1.
<scales pt_clust_3="110.92252" pt_clust_4="31.89323" pt_clust_5="50.06771" pt_clust_6="31.89323"></scales>
<clustering>
<clus scale="   31.893">  4  6 -1 -1</clus>
<clus scale="   50.068">  1  5  2 -1</clus>
<clus scale="  110.923">  1  3  2 -1</clus>
<clus scale="   50.068">  1  3  2 -1</clus>
</clustering>
</event>
<event>
 6    0  0.4469832E+002  0.1275646E+03  0.7546771E-02  0.1231115E+00
         21   -1    0    0  505  501  0.00000000000E+00  0.00000000000E+00  0.52645425592E+03  0.52645425592E+03  0.00000000000E+00 0. -1.
         21   -1    0    0  506  502 -0.00000000000E+00 -0.00000000000E+00 -0.38622818236E+03  0.38622818236E+03  0.00000000000E+00 0. -1.
         21    1    1    2  503  501 -0.53009295795E+02 -0.63588446563E+02  0.41363124009E+03  0.42183442101E+03  0.00000000000E+00 0. -1.
         21    1    1    2  504  502  0.77411944717E+02  0.54038295133E+02 -0.32347827757E+03  0.33697320752E+03  0.00000000000E+00 0. -1.
         21    1    1    2  505  504 -0.49985503063E+02 -0.17723817675E+02  0.86633280377E+02  0.10157760333E+03  0.00000000000E+00 0. -1.
         21    1    1    2  506  503  0.25582854141E+02  0.27273969105E+02 -0.36560169336E+02  0.52297206413E+02  0.00000000000E+00 0.  1.
<scales pt_clust_3="14000.00000" pt_clust_4="127.56459" pt_clust_5="52.30971" pt_clust_6="37.39454"></scales>
<clustering>
<clus scale="   37.395">  2  6  1 -1</clus>
<clus scale="   52.310">  1  5  2 -1</clus>
<clus scale="  127.565">  2  4  1 -1</clus>
<clus scale="   52.310">  1  3  2 -1</clus>
</clustering>
</event>
<event>
 6    0  0.4469832E+002  0.8990456E+02  0.7546771E-02  0.1303083E+00
         21   -1    0    0  503  501  0.00000000000E+00  0.00000000000E+00  0.74577488813E+02  0.74577488813E+02  0.00000000000E+00 0. -1.
         21   -1    0    0  506  502 -0.00000000000E+00 -0.00000000000E+00 -0.34244718487E+03  0.34244718487E+03  0.00000000000E+00 0. -1.
         21    1    1    2  503  504  0.30834379636E+02  0.33013881510E+02 -0.65024803634E+02  0.79176388069E+02  0.00000000000E+00 0. -1.
         21    1    1    2  504  502  0.36297055823E+02  0.93126167391E+01 -0.11498966293E+03  0.12094140595E+03  0.00000000000E+00 0. -1.
         21    1    1    2  505  501  0.37636680893E+02 -0.60562600299E+02  0.10474983691E+02  0.72069921514E+02  0.00000000000E+00 0. -1.
         21    1    1    2  506  505 -0.10476811635E+03  0.18236102050E+02 -0.98330213180E+02  0.14483695815E+03  0.00000000000E+00 0. -1.
<scales pt_clust_3="33.38681" pt_clust_4="33.38681" pt_clust_5="71.30462" pt_clust_6="82.09183"></scales>
<clustering>
<clus scale="   33.387">  3  4 -1 -1</clus>
<clus scale="   71.305">  1  5  2 -1</clus>
<clus scale="   82.092">  1  6  2 -1</clus>
<clus scale="   71.305">  1  3  2 -1</clus>
</clustering>
</event>
<event>
 6    0  0.4469832E+002  0.8633994E+02  0.7546771E-02  0.1311965E+00
         21   -1    0    0  506  501  0.00000000000E+00  0.00000000000E+00  0.12770159594E+03  0.12770159594E+03  0.00000000000E+00 0.  1.
         21   -1    0    0  505  502 -0.00000000000E+00 -0.00000000000E+00 -0.46010087532E+03  0.46010087532E+03  0.00000000000E+00 0. -1.
         21    1    1    2  503  501  0.36791041959E+02  0.49804783148E+02  0.75254997939E+02  0.97454665910E+02  0.00000000000E+00 0.  1.
         21    1    1    2  504  502 -0.71870172664E+02 -0.78566570854E+02 -0.23842996882E+03  0.26112617219E+03  0.00000000000E+00 0. -1.
         21    1    1    2  505  503  0.62224320785E+01  0.78081514165E+02 -0.14949046587E+03  0.16876860165E+03  0.00000000000E+00 0. -1.
         21    1    1    2  506  504  0.28856698626E+02 -0.49319726460E+02 -0.19733842634E+02  0.60453031510E+02  0.00000000000E+00 0.  1.
<scales pt_clust_3="60.85447" pt_clust_4="86.33994" pt_clust_5="14000.00000" pt_clust_6="57.14144"></scales>
<clustering>
<clus scale="   57.141">  1  6  2 -1</clus>
<clus scale="   60.854">  1  3  2 -1</clus>
<clus scale="   86.340">  1  4  2 -1</clus>
<clus scale="   57.141">  1  3  2 -1</clus>
</clustering>
</event>
<event>
 6    0  0.4469832E+002  0.8645730E+02  0.7546771E-02  0.1311665E+00
         21   -1    0    0  504  501  0.00000000000E+00  0.00000000000E+00  0.35693522270E+02  0.35693522270E+02  0.00000000000E+00 0. -1.
         21   -1    0    0  506  502 -0.00000000000E+00 -0.00000000000E+00 -0.21397610808E+04  0.21397610808E+04  0.00000000000E+00 0.  1.
         21    1    1    2  503  501  0.81660734862E+02  0.37998843260E+01 -0.38607618951E+03  0.39463621077E+03  0.00000000000E+00 0.  1.
         21    1    1    2  504  505 -0.69104006290E+02  0.58738443781E+02 -0.39130559857E+02  0.98776359408E+02  0.00000000000E+00 0. -1.
         21    1    1    2  505  502  0.19845488479E+02 -0.26405254723E+02 -0.12512262598E+04  0.12516621885E+04  0.00000000000E+00 0. -1.
         21    1    1    2  506  503 -0.32402217052E+02 -0.36133073384E+02 -0.42763454929E+03  0.43037984433E+03  0.00000000000E+00 0.  1.
<scales pt_clust_3="14000.00000" pt_clust_4="86.45730" pt_clust_5="33.03151" pt_clust_6="53.94845"></scales>
<clustering>
<clus scale="   33.032">  2  5  1 -1</clus>
<clus scale="   53.948">  2  6  1 -1</clus>
<clus scale="   86.457">  1  4  2 -1</clus>
<clus scale="   86.457">  1  3  2 -1</clus>
</clustering>
</event>
<event>
 6    0  0.4469832E+002  0.1048924E+03  0.7546771E-02  0.1270332E+00
         21   -1    0    0  505  501  0.00000000000E+00  0.00000000000E+00  0.21828218499E+04  0.21828218499E+04  0.00000000000E+00 0.  1.
         21   -1    0    0  504  502 -0.00000000000E+00 -0.00000000000E+00 -0.48313451541E+02  0.48313451541E+02  0.00000000000E+00 0. -1.
         21    1    1    2  503  502 -0.46644026202E+02  0.43788752544E+02  0.10937292255E+03  0.12671052134E+03  0.00000000000E+00 0. -1.
         21    1    1    2  504  506  0.39699424184E+02 -0.14113907679E+03  0.11226771901E+03  0.18466273042E+03  0.00000000000E+00 0. -1.
         21    1    1    2  505  503  0.16749445993E+02  0.12722285953E+03  0.13744519752E+04  0.13804290754E+04  0.00000000000E+00 0.  1.
         21    1    1    2  506  501 -0.98048439747E+01 -0.29872535288E+02  0.53841578152E+03  0.53933297425E+03  0.00000000000E+00 0.  1.
<scales pt_clust_3="63.05587" pt_clust_4="104.89239" pt_clust_5="14000.00000" pt_clust_6="31.44047"></scales>
<clustering>
<clus scale="   31.440">  1  6  2 -1</clus>
<clus scale="   63.056">  2  3  1 -1</clus>
<clus scale="  104.892">  2  4  1 -1</clus>
<clus scale="   31.440">  1  3  2 -1</clus>
</clustering>
</event>
<event>
 6    0  0.4469832E+002  0.4716529E+03  0.7546771E-02  0.1021455E+00
         21   -1    0    0  503  501  0.00000000000E+00  0.00000000000E+00  0.25258130645E+03  0.25258130645E+03  0.00000000000E+00 0.  1.
         21   -1    0    0  501  502 -0.00000000000E+00 -0.00000000000E+00 -0.15251017666E+04  0.15251017666E+04  0.00000000000E+00 0.  1.
         21    1    1    2  503  504 -0.44439103813E+02 -0.34094416899E+02 -0.40357869852E+02  0.69036373532E+02  0.00000000000E+00 0.  1.
         21    1    1    2  504  506 -0.42055726945E+03  0.13070020112E+03 -0.62516165245E+02  0.44481370300E+03  0.00000000000E+00 0.  1.
         21    1    1    2  505  502  0.20005480522E+03 -0.36583027597E+02 -0.57989564306E+03  0.61452355515E+03  0.00000000000E+00 0.  1.
         21    1    1    2  506  505  0.26494156804E+03 -0.60022756628E+02 -0.58975078203E+03  0.64930944140E+03  0.00000000000E+00 0.  1.
<scales pt_clust_3="56.01128" pt_clust_4="467.77101" pt_clust_5="52.25058" pt_clust_6="52.25058"></scales>
<clustering>
<clus scale="   52.251">  5  6 -1 -1</clus>
<clus scale="   56.011">  1  3  2 -1</clus>
<clus scale="  467.771">  1  4  2 -1</clus>
<clus scale="   56.011">  1  3  2 -1</clus>
</clustering>
</event>
<event>
 6    0  0.4469832E+002  0.1032130E+03  0.7546771E-02  0.1273681E+00
         21   -1    0    0  505  501  0.00000000000E+00  0.00000000000E+00  0.15946430211E+03  0.15946430211E+03  0.00000000000E+00 0.  1.
         21   -1    0    0  506  502 -0.00000000000E+00 -0.00000000000E+00 -0.28901191632E+03  0.28901191632E+03  0.00000000000E+00 0. -1.
         21    1    1    2  503  502  0.33925161953E+02  0.30662281292E+01 -0.11891364214E+03  0.12369629201E+03  0.00000000000E+00 0. -1.
         21    1    1    2  504  503  0.58950477269E+02 -0.57651723666E+02 -0.10218720787E+03  0.13130539008E+03  0.00000000000E+00 0. -1.
         21    1    1    2  505  504 -0.74506911379E+01 -0.40790577813E+02  0.13926303896E+02  0.43741581783E+02  0.00000000000E+00 0.  1.
         21    1    1    2  506  501 -0.85424948084E+02  0.95376073350E+02  0.77626931910E+02  0.14973295456E+03  0.00000000000E+00 0.  1.
<scales pt_clust_3="34.06345" pt_clust_4="103.21295" pt_clust_5="40.76002" pt_clust_6="14000.00000"></scales>
<clustering>
<clus scale="   34.063">  2  3  1 -1</clus>
<clus scale="   40.760">  1  5  2 -1</clus>
<clus scale="  103.213">  2  4  1 -1</clus>
<clus scale="   40.760">  1  3  2 -1</clus>
</clustering>
</event>
<event>
 6    0  0.4469832E+002  0.7579362E+02  0.7546771E-02  0.1341431E+00
         21   -1    0    0  504  501  0.00000000000E+00  0.00000000000E+00  0.53588275064E+03  0.53588275064E+03  0.00000000000E+00 0. -1.
         21   -1    0    0  503  502 -0.00000000000E+00 -0.00000000000E+00 -0.19924335675E+03  0.19924335675E+03  0.00000000000E+00 0.  1.
         21    1    1    2  503  501 -0.17007652835E+02  0.51344945093E+02  0.10570666790E+03  0.11874116085E+03  0.00000000000E+00 0.  1.
         21    1    1    2  504  506 -0.38072459088E+02  0.19132026586E+02  0.38357042958E+03  0.38592981361E+03  0.00000000000E+00 0. -1.
         21    1    1    2  505  502  0.70246701175E+02  0.15609781572E+02 -0.11416308019E+03  0.13494989139E+03  0.00000000000E+00 0.  1.
         21    1    1    2  506  505 -0.15166589251E+02 -0.86086753251E+02 -0.38474623409E+02  0.95505241538E+02  0.00000000000E+00 0.  1.
<scales pt_clust_3="75.79362" pt_clust_4="42.60923" pt_clust_5="69.71428" pt_clust_6="14000.00000"></scales>
<clustering>
<clus scale="   42.609">  1  4  2 -1</clus>
<clus scale="   69.714">  2  5  1 -1</clus>
<clus scale="   75.794">  1  3  2 -1</clus>
<clus scale="   42.609">  1  3  2 -1</clus>
</clustering>
</event>
<event>
 6    0  0.4469832E+002  0.3419273E+03  0.7546771E-02  0.1065978E+00
         21   -1    0    0  505  501  0.00000000000E+00  0.00000000000E+00  0.12514430822E+04  0.12514430822E+04  0.00000000000E+00 0. -1.
         21   -1    0    0  503  502 -0.00000000000E+00 -0.00000000000E+00 -0.73971484971E+03  0.73971484971E+03  0.00000000000E+00 0.  1.
         21    1    1    2  503  504  0.30139041989E+03 -0.11743409725E+03 -0.46091001158E+03  0.56308524326E+03  0.00000000000E+00 0.  1.
         21    1    1    2  504  501 -0.25584220182E+03  0.90584464438E+02  0.10709936752E+04  0.11048476048E+04  0.00000000000E+00 0. -1.
         21    1    1    2  505  506 -0.54660307286E+02  0.65707763155E+02  0.93839588796E+02  0.12692961734E+03  0.00000000000E+00 0. -1.
         21    1    1    2  506  502  0.91120892191E+01 -0.38858130338E+02 -0.19219501998E+03  0.19629546650E+03  0.00000000000E+00 0. -1.
<scales pt_clust_3="341.92733" pt_clust_4="14000.00000" pt_clust_5="84.38969" pt_clust_6="39.91221"></scales>
<clustering>
<clus scale="   39.912">  2  6  1 -1</clus>
<clus scale="   84.390">  1  5  2 -1</clus>
<clus scale="  341.927">  2  3  1 -1</clus>
<clus scale="   84.390">  1  3  2 -1</clus>
</clustering>
</event>
<event>
 6    0  0.4469832E+002  0.2257243E+03  0.7546771E-02  0.1129686E+00
         21   -1    0    0  504  501  0.00000000000E+00  0.00000000000E+00  0.25086343184E+03  0.25086343184E+03  0.00000000000E+00 0.  1.
         21   -1    0    0  503  502 -0.00000000000E+00 -0.00000000000E+00 -0.66434824065E+03  0.66434824065E+03  0.00000000000E+00 0.  1.
         21    1    1    2  503  501 -0.15374079273E+03  0.13803347135E+03 -0.17563261932E+03  0.27117575026E+03  0.00000000000E+00 0.  1.
         21    1    1    2  504  506 -0.24119953971E+02 -0.23502163922E+02  0.17186104496E+03  0.17512950255E+03  0.00000000000E+00 0.  1.
         21    1    1    2  505  502  0.54210024314E+02 -0.78687965014E+02 -0.21747513375E+03  0.23754148348E+03  0.00000000000E+00 0.  1.
         21    1    1    2  506  505  0.12365072239E+03 -0.35843342416E+02 -0.19223810070E+03  0.23136493620E+03  0.00000000000E+00 0.  1.
<scales pt_clust_3="209.03356" pt_clust_4="33.67676" pt_clust_5="74.87436" pt_clust_6="74.87436"></scales>
<clustering>
<clus scale="   33.677">  1  4  2 -1</clus>
<clus scale="   74.874">  5  6 -1 -1</clus>
<clus scale="  209.034">  1  3  2 -1</clus>
<clus scale="   33.677">  1  3  2 -1</clus>
</clustering>
</event>
<event>
 6    0  0.4469832E+002  0.1277823E+03  0.7546771E-02  0.1230784E+00
         21   -1    0    0  506  501  0.00000000000E+00  0.00000000000E+00  0.10125163752E+03  0.10125163752E+03  0.00000000000E+00 0.  1.
         21   -1    0    0  504  502 -0.00000000000E+00 -0.00000000000E+00 -0.39888032283E+03  0.39888032283E+03  0.00000000000E+00 0. -1.
         21    1    1    2  503  505 -0.32296263359E+02 -0.31540716000E+02 -0.55203589924E+02  0.71311301581E+02  0.00000000000E+00 0. -1.
         21    1    1    2  504  503 -0.50251772607E+02 -0.60767073984E+02 -0.26064207902E+03  0.27230896292E+03  0.00000000000E+00 0. -1.
         21    1    1    2  505  501  0.87113268582E+02  0.40792140532E+02 -0.11481062252E+02  0.96873810096E+02  0.00000000000E+00 0.  1.
         21    1    1    2  506  502 -0.45652326160E+01  0.51515649452E+02  0.29698045890E+02  0.59637885753E+02  0.00000000000E+00 0.  1.
<scales pt_clust_3="41.31428" pt_clust_4="41.31428" pt_clust_5="115.52844" pt_clust_6="51.71754"></scales>
<clustering>
<clus scale="   41.314">  3  4 -1 -1</clus>
<clus scale="   51.718">  1  6  2 -1</clus>
<clus scale="  115.528">  1  5  2 -1</clus>
<clus scale="   51.718">  1  3  2 -1</clus>
</clustering>
</event>
<event>
 6    0  0.4598344E+002  0.9648044E+02  0.7546771E-02  0.1287876E+00
         21   -1    0    0  505  501  0.00000000000E+00  0.00000000000E+00  0.29857146317E+03  0.29857146317E+03  0.00000000000E+00 0. -1.
         21   -1    0    0  503  502 -0.00000000000E+00 -0.00000000000E+00 -0.21499295614E+04  0.21499295614E+04  0.00000000000E+00 0.  1.
         21    1    1    2  503  506 -0.34740096649E+02 -0.66563103877E+01 -0.62938839862E+02  0.72197495430E+02  0.00000000000E+00 0.  1.
         21    1    1    2  504  502  0.12849363598E+03 -0.19165183167E+02 -0.14786319905E+04  0.14843282932E+04  0.00000000000E+00 0.  1.
         21    1    1    2  505  504 -0.40880032724E+02  0.93117152058E+02 -0.59014645501E+03  0.59884457035E+03  0.00000000000E+00 0.  1.
         21    1    1    2  506  501 -0.52873506611E+02 -0.67295658503E+02  0.28035918707E+03  0.29313066563E+03  0.00000000000E+00 0. -1.
<scales pt_clust_3="35.37203" pt_clust_4="96.48044" pt_clust_5="14000.00000" pt_clust_6="85.66410"></scales>
<clustering>
<clus scale="   35.372">  2  3  1 -1</clus>
<clus scale="   85.664">  1  6  2 -1</clus>
<clus scale="   96.480">  2  4  1 -1</clus>
<clus scale="   85.664">  1  3  2 -1</clus>
</clustering>
</event>
<event>
 6    0  0.4469832E+002  0.1097316E+03  0.7546771E-02  0.1261068E+00
         21   -1    0    0  506  501  0.00000000000E+00  0.00000000000E+00  0.16759910237E+03  0.16759910237E+03  0.00000000000E+00 0. -1.
         21   -1    0    0  505  502 -0.00000000000E+00 -0.00000000000E+00 -0.85921352788E+03  0.85921352788E+03  0.00000000000E+00 0. -1.
         21    1    1    2  503  502 -0.14538925264E+02 -0.34604248870E+02 -0.62369494778E+03  0.62482335286E+03  0.00000000000E+00 0. -1.
         21    1    1    2  504  501 -0.13925851557E+01 -0.99229555299E+02  0.84715529110E+02  0.13048051506E+03  0.00000000000E+00 0. -1.
         21    1    1    2  505  504  0.39298517493E+01  0.16957464273E+03 -0.75523625652E+02  0.18567396485E+03  0.00000000000E+00 0. -1.
         21    1    1    2  506  503  0.12001658670E+02 -0.35740838557E+02 -0.77111381188E+02  0.85834797490E+02  0.00000000000E+00 0.  1.
<scales pt_clust_3="37.53444" pt_clust_4="109.73158" pt_clust_5="14000.00000" pt_clust_6="48.24495"></scales>
<clustering>
<clus scale="   37.534">  2  3  1 -1</clus>
<clus scale="   48.245">  2  6  1 -1</clus>
<clus scale="  109.732">  1  4  2 -1</clus>
<clus scale="  109.732">  1  3  2 -1</clus>
</clustering>
</event>
<event>
 6    0  0.4469832E+002  0.9593749E+02  0.7546771E-02  0.1289078E+00
         21   -1    0    0  505  501  0.00000000000E+00  0.00000000000E+00  0.11097533988E+04  0.11097533988E+04  0.00000000000E+00 0.  1.
         21   -1    0    0  504  502 -0.00000000000E+00 -0.00000000000E+00 -0.28002440332E+04  0.28002440332E+04  0.00000000000E+00 0.  1.
         21    1    1    2  503  502  0.50342931827E+02 -0.98219531045E+02  0.31610656767E+03  0.33482062241E+03  0.00000000000E+00 0.  1.
         21    1    1    2  504  506  0.41541132735E+01  0.33701375319E+02 -0.12946229233E+04  0.12950681653E+04  0.00000000000E+00 0.  1.
         21    1    1    2  505  503 -0.12705814023E+02  0.92168083830E+02  0.78088522143E+03  0.78640836874E+03  0.00000000000E+00 0.  1.
         21    1    1    2  506  501 -0.41791231077E+02 -0.27649928104E+02 -0.14928595003E+04  0.14937002756E+04  0.00000000000E+00 0.  1.
<scales pt_clust_3="95.93749" pt_clust_4="33.95643" pt_clust_5="14000.00000" pt_clust_6="38.11143"></scales>
<clustering>
<clus scale="   33.956">  2  4  1 -1</clus>
<clus scale="   38.111">  2  6  1 -1</clus>
<clus scale="   95.937">  2  3  1 -1</clus>
<clus scale="   95.937">  1  3  2 -1</clus>
</clustering>
</event>
<event>
 6    0  0.4469832E+002  0.1052431E+03  0.7546771E-02  0.1269641E+00
         21   -1    0    0  505  501  0.00000000000E+00  0.00000000000E+00  0.84736250943E+03  0.84736250943E+03  0.00000000000E+00 0. -1.
         21   -1    0    0  506  502 -0.00000000000E+00 -0.00000000000E+00 -0.32816272275E+03  0.32816272275E+03  0.00000000000E+00 0.  1.
         21    1    1    2  503  502  0.10866721782E+03  0.19776380341E+02 -0.20717438957E+03  0.23477840007E+03  0.00000000000E+00 0.  1.
         21    1    1    2  504  501 -0.14072825259E+03  0.91485476654E+01  0.19253794145E+03  0.23866083864E+03  0.00000000000E+00 0.  1.
         21    1    1    2  505  503  0.96267977704E+02 -0.24156489223E+02  0.60094535499E+03  0.60908651207E+03  0.00000000000E+00 0. -1.
         21    1    1    2  506  504 -0.64206942928E+02 -0.47684387836E+01 -0.67109120191E+02  0.92999481404E+02  0.00000000000E+00 0.  1.
<scales pt_clust_3="53.77289" pt_clust_4="105.24312" pt_clust_5="14000.00000" pt_clust_6="64.38377"></scales>
<clustering>
<clus scale="   64.384">  2  6  1 -1</clus>
<clus scale="   53.773">  2  3  1 -1</clus>
<clus scale="  105.243">  2  4  1 -1</clus>
<clus scale="  105.243">  1  3  2 -1</clus>
</clustering>
</event>
<event>
 6    0  0.4469832E+002  0.1306371E+03  0.7546771E-02  0.1226513E+00
         21   -1    0    0  505  501  0.00000000000E+00  0.00000000000E+00  0.12830074449E+04  0.12830074449E+04  0.00000000000E+00 0. -1.
         21   -1    0    0  504  502 -0.00000000000E+00 -0.00000000000E+00 -0.13233686753E+04  0.13233686753E+04  0.00000000000E+00 0. -1.
         21    1    1    2  503  501 -0.35302344396E+02 -0.12348172894E+03  0.11754136291E+04  0.11824090630E+04  0.00000000000E+00 0. -1.
         21    1    1    2  504  503 -0.33665461757E+02 -0.14896895401E+02 -0.22544977639E+03  0.22843572943E+03  0.00000000000E+00 0. -1.
         21    1    1    2  505  506  0.11198425527E+03  0.17030631500E+03 -0.66925367158E-01  0.20382521640E+03  0.00000000000E+00 0. -1.
         21    1    1    2  506  502 -0.43016449122E+02 -0.31927690661E+02 -0.99025815778E+03  0.99170611139E+03  0.00000000000E+00 0. -1.
<scales pt_clust_3="14000.00000" pt_clust_4="36.81414" pt_clust_5="130.63714" pt_clust_6="86.33940"></scales>
<clustering>
<clus scale="   36.814">  2  4  1 -1</clus>
<clus scale="   86.339">  2  6  1 -1</clus>
<clus scale="  130.637">  2  5  1 -1</clus>
<clus scale="  130.637">  1  3  2 -1</clus>
</clustering>
</event>
<event>
 6    0  0.4469832E+002  0.1456635E+03  0.7546771E-02  0.1205905E+00
         21   -1    0    0  505  501  0.00000000000E+00  0.00000000000E+00  0.35932144439E+03  0.35932144439E+03  0.00000000000E+00 0.  1.
         21   -1    0    0  506  502 -0.00000000000E+00 -0.00000000000E+00 -0.13019838488E+04  0.13019838488E+04  0.00000000000E+00 0. -1.
         21    1    1    2  503  502 -0.56205552621E+02  0.32956699242E+02 -0.32549791289E+03  0.33195496602E+03  0.00000000000E+00 0. -1.
         21    1    1    2  504  503 -0.81030554851E+02  0.55822091425E+02 -0.28916025245E+03  0.30544346172E+03  0.00000000000E+00 0. -1.
         21    1    1    2  505  504  0.36552747875E+02 -0.11244035165E+02  0.34090007926E+03  0.34303847560E+03  0.00000000000E+00 0.  1.
         21    1    1    2  506  501  0.10068335960E+03 -0.77534755502E+02 -0.66890431836E+03  0.68086838988E+03  0.00000000000E+00 0. -1.
<scales pt_clust_3="34.10580" pt_clust_4="34.10580" pt_clust_5="38.24306" pt_clust_6="139.50331"></scales>
<clustering>
<clus scale="   34.106">  3  4 -1 -1</clus>
<clus scale="   38.243">  1  5  2 -1</clus>
<clus scale="  139.503">  2  6  1 -1</clus>
<clus scale="   38.243">  1  3  2 -1</clus>
</clustering>
</event>
<event>
 6    0  0.4469832E+002  0.6707143E+02  0.7546771E-02  0.1370345E+00
         21   -1    0    0  506  501  0.00000000000E+00  0.00000000000E+00  0.33164335380E+03  0.33164335380E+03  0.00000000000E+00 0.  1.
         21   -1    0    0  505  502 -0.00000000000E+00 -0.00000000000E+00 -0.52711133529E+03  0.52711133529E+03  0.00000000000E+00 0.  1.
         21    1    1    2  503  502  0.26420152059E+02 -0.35779621320E+02 -0.17220434733E+03  0.17785539907E+03  0.00000000000E+00 0.  1.
         21    1    1    2  504  501  0.41382683803E+02 -0.62684676903E+02  0.18476050290E+02  0.77351533090E+02  0.00000000000E+00 0.  1.
         21    1    1    2  505  504 -0.32971800052E+02  0.98477330386E+02 -0.31314515908E+03  0.32991637554E+03  0.00000000000E+00 0.  1.
         21    1    1    2  506  503 -0.34831035810E+02 -0.13032163143E-01  0.27140547463E+03  0.27363138140E+03  0.00000000000E+00 0.  1.
<scales pt_clust_3="43.50938" pt_clust_4="67.07143" pt_clust_5="14000.00000" pt_clust_6="34.83104"></scales>
<clustering>
<clus scale="   34.831">  1  6  2 -1</clus>
<clus scale="   43.509">  2  3  1 -1</clus>
<clus scale="   67.071">  1  4  2 -1</clus>
<clus scale="   34.831">  1  3  2 -1</clus>
</clustering>
</event>
<event>
 6    0  0.4469832E+002  0.1201873E+03  0.7546771E-02  0.1242788E+00
         21   -1    0    0  504  501  0.00000000000E+00  0.00000000000E+00  0.35607885468E+03  0.35607885468E+03  0.00000000000E+00 0.  1.
         21   -1    0    0  506  502 -0.00000000000E+00 -0.00000000000E+00 -0.26763576575E+03  0.26763576575E+03  0.00000000000E+00 0. -1.
         21    1    1    2  503  505  0.18615475976E+03  0.73933920418E+02  0.13391958662E+03  0.24094454725E+03  0.00000000000E+00 0.  1.
         21    1    1    2  504  503 -0.10617828194E+03  0.15869002648E+02  0.12504721267E+03  0.16481037042E+03  0.00000000000E+00 0.  1.
         21    1    1    2  505  502 -0.24106114097E+02 -0.18599968751E+02 -0.72810040100E+01  0.31306175011E+02  0.00000000000E+00 0.  1.
         21    1    1    2  506  501 -0.55870363720E+02 -0.71202954315E+02 -0.16324270635E+03  0.18665352775E+03  0.00000000000E+00 0. -1.
<scales pt_clust_3="120.18732" pt_clust_4="109.06033" pt_clust_5="30.44772" pt_clust_6="14000.00000"></scales>
<clustering>
<clus scale="   30.448">  2  5  1 -1</clus>
<clus scale="  109.060">  1  4  2 -1</clus>
<clus scale="  120.187">  1  3  2 -1</clus>
<clus scale="  109.060">  1  3  2 -1</clus>
</clustering>
</event>
<event>
 6    0  0.4469832E+002  0.1757632E+03  0.7546771E-02  0.1171968E+00
         21   -1    0    0  505  501  0.00000000000E+00  0.00000000000E+00  0.57132299874E+02  0.57132299874E+02  0.00000000000E+00 0.  1.
         21   -1    0    0  503  502 -0.00000000000E+00 -0.00000000000E+00 -0.11868975320E+04  0.11868975320E+04  0.00000000000E+00 0.  1.
         21    1    1    2  503  501 -0.53387972683E+02  0.31117757138E+02 -0.95133957631E+02  0.11344188085E+03  0.00000000000E+00 0.  1.
         21    1    1    2  504  502  0.23945991269E+02  0.11283140425E+03 -0.56194754113E+03  0.57366312002E+03  0.00000000000E+00 0.  1.
         21    1    1    2  505  506 -0.20695956289E+02 -0.17577738392E+03 -0.15980871897E+03  0.23846349398E+03  0.00000000000E+00 0.  1.
         21    1    1    2  506  504  0.50137937702E+02  0.31828222531E+02 -0.31287501437E+03  0.31846133700E+03  0.00000000000E+00 0.  1.
<scales pt_clust_3="61.79474" pt_clust_4="46.26186" pt_clust_5="163.51143" pt_clust_6="46.26186"></scales>
<clustering>
<clus scale="   46.262">  4  6 -1 -1</clus>
<clus scale="   61.795">  1  3  2 -1</clus>
<clus scale="  163.511">  1  5  2 -1</clus>
<clus scale="   61.795">  1  3  2 -1</clus>
</clustering>
</event>
<event>
 6    0  0.4469832E+002  0.1338610E+03  0.7546771E-02  0.1221837E+00
         21   -1    0    0  506  501  0.00000000000E+00  0.00000000000E+00  0.23786951780E+03  0.23786951780E+03  0.00000000000E+00 0. -1.
         21   -1    0    0  504  502 -0.00000000000E+00 -0.00000000000E+00 -0.81773276993E+03  0.81773276993E+03  0.00000000000E+00 0.  1.
         21    1    1    2  503  505 -0.33753232767E+02 -0.11621316046E+03  0.19648232614E+02  0.12260029539E+03  0.00000000000E+00 0. -1.
         21    1    1    2  504  503 -0.26128498155E+02  0.81623101578E+02 -0.56670612263E+03  0.57314994422E+03  0.00000000000E+00 0.  1.
         21    1    1    2  505  501  0.11322067646E+03 -0.16154482896E+02  0.13480653272E+03  0.17678430405E+03  0.00000000000E+00 0. -1.
         21    1    1    2  506  502 -0.53338945533E+02  0.50744541774E+02 -0.16761189483E+03  0.18306774407E+03  0.00000000000E+00 0.  1.
<scales pt_clust_3="133.86104" pt_clust_4="14000.00000" pt_clust_5="112.41654" pt_clust_6="73.62100"></scales>
<clustering>
<clus scale="   73.621">  2  6  1 -1</clus>
<clus scale="  112.417">  1  5  2 -1</clus>
<clus scale="  133.861">  1  3  2 -1</clus>
<clus scale="  112.417">  1  3  2 -1</clus>
</clustering>
</event>
<event>
 6    0  0.4469832E+002  0.1041892E+03  0.7546771E-02  0.1271725E+00
         21   -1    0    0  506  501  0.00000000000E+00  0.00000000000E+00  0.39018569650E+03  0.39018569650E+03  0.00000000000E+00 0. -1.
         21   -1    0    0  503  502 -0.00000000000E+00 -0.00000000000E+00 -0.11973306308E+03  0.11973306308E+03  0.00000000000E+00 0. -1.
         21    1    1    2  503  505  0.47852686559E+02  0.27503374182E+02 -0.38927688236E+02  0.67540211087E+02  0.00000000000E+00 0. -1.
         21    1    1    2  504  501  0.30656719652E+02 -0.11997278393E+02  0.14729894293E+03  0.15093292463E+03  0.00000000000E+00 0. -1.
         21    1    1    2  505  504  0.34993786449E+02 -0.86507314383E+02  0.18505703296E+02  0.95134334424E+02  0.00000000000E+00 0. -1.
         21    1    1    2  506  502 -0.11350319266E+03  0.71001218594E+02  0.14357567544E+03  0.19631128944E+03  0.00000000000E+00 0. -1.
<scales pt_clust_3="56.43658" pt_clust_4="32.92065" pt_clust_5="14000.00000" pt_clust_6="104.18916"></scales>
<clustering>
<clus scale="   32.921">  1  4  2 -1</clus>
<clus scale="   56.437">  2  3  1 -1</clus>
<clus scale="  104.189">  1  6  2 -1</clus>
<clus scale="   32.921">  1  3  2 -1</clus>
</clustering>
</event>
<event>
 6    0  0.4469832E+002  0.1152100E+03  0.7546771E-02  0.1251215E+00
         21   -1    0    0  504  501  0.00000000000E+00  0.00000000000E+00  0.67059764992E+02  0.67059764992E+02  0.00000000000E+00 0. -1.
         21   -1    0    0  505  502 -0.00000000000E+00 -0.00000000000E+00 -0.59442090416E+03  0.59442090416E+03  0.00000000000E+00 0. -1.
         21    1    1    2  503  506  0.12618894582E+03  0.25966641490E+02 -0.36045517100E+03  0.38278694703E+03  0.00000000000E+00 0. -1.
         21    1    1    2  504  502 -0.29661432924E+02 -0.10901718676E+02 -0.39717444139E+02  0.50755526223E+02  0.00000000000E+00 0. -1.
         21    1    1    2  505  503 -0.19828905924E+02  0.32030472876E+02 -0.13252625420E+03  0.13777643033E+03  0.00000000000E+00 0. -1.
         21    1    1    2  506  501 -0.76698606971E+02 -0.47095395691E+02  0.53377301708E+01  0.90161765566E+02  0.00000000000E+00 0. -1.
<scales pt_clust_3="115.20998" pt_clust_4="31.60139" pt_clust_5="37.96499" pt_clust_6="14000.00000"></scales>
<clustering>
<clus scale="   31.601">  1  4  2 -1</clus>
<clus scale="   37.965">  2  5  1 -1</clus>
<clus scale="  115.210">  2  3  1 -1</clus>
<clus scale="   31.601">  1  3  2 -1</clus>
</clustering>
</event>
<event>
 6    0  0.4469832E+002  0.1053878E+03  0.7546771E-02  0.1269358E+00
         21   -1    0    0  504  501  0.00000000000E+00  0.00000000000E+00  0.18788643765E+03  0.18788643765E+03  0.00000000000E+00 0.  1.
         21   -1    0    0  503  502 -0.00000000000E+00 -0.00000000000E+00 -0.10235599854E+04  0.10235599854E+04  0.00000000000E+00 0.  1.
         21    1    1    2  503  506  0.57769886721E+02  0.67948851668E+01 -0.40083530664E+03  0.40503391627E+03  0.00000000000E+00 0.  1.
         21    1    1    2  504  502  0.44335586654E+02  0.12107907372E+02  0.30071018215E+02  0.54922780350E+02  0.00000000000E+00 0.  1.
         21    1    1    2  505  501 -0.13913354261E+03 -0.34383956340E+02  0.10657252955E+03  0.17860040086E+03  0.00000000000E+00 0.  1.
         21    1    1    2  506  505  0.37028069230E+02  0.15481163801E+02 -0.57148178889E+03  0.57288932559E+03  0.00000000000E+00 0.  1.
<scales pt_clust_3="31.63492" pt_clust_4="45.95917" pt_clust_5="98.26557" pt_clust_6="31.63492"></scales>
<clustering>
<clus scale="   31.635">  3  6 -1 -1</clus>
<clus scale="   45.959">  1  4  2 -1</clus>
<clus scale="   98.266">  1  5  2 -1</clus>
<clus scale="   45.959">  1  3  2 -1</clus>
</clustering>
</event>
<event>
 6    0  0.4469832E+002  0.9875867E+02  0.7546771E-02  0.1282928E+00
         21   -1    0    0  504  501  0.00000000000E+00  0.00000000000E+00  0.64274858023E+02  0.64274858023E+02  0.00000000000E+00 0.  1.
         21   -1    0    0  505  502 -0.00000000000E+00 -0.00000000000E+00 -0.50723099621E+03  0.50723099621E+03  0.00000000000E+00 0.  1.
         21    1    1    2  503  502  0.10704061477E+02 -0.30683645446E+02 -0.74384464575E+02  0.81173342916E+02  0.00000000000E+00 0. -1.
         21    1    1    2  504  503 -0.27554388742E+02 -0.96076982153E+02 -0.35080875044E+01  0.10001168690E+03  0.00000000000E+00 0.  1.
         21    1    1    2  505  506 -0.17757773444E+02  0.39689533331E+02 -0.13789933292E+03  0.14459192092E+03  0.00000000000E+00 0.  1.
         21    1    1    2  506  501  0.34608100709E+02  0.87071094268E+02 -0.22716425319E+03  0.24572890351E+03  0.00000000000E+00 0.  1.
<scales pt_clust_3="32.49712" pt_clust_4="98.75867" pt_clust_5="32.84397" pt_clust_6="14000.00000"></scales>
<clustering>
<clus scale="   32.497">  2  3  1 -1</clus>
<clus scale="   32.844">  2  5  1 -1</clus>
<clus scale="   98.759">  1  4  2 -1</clus>
<clus scale="   98.759">  1  3  2 -1</clus>
</clustering>
</event>
<event>
 6    0  0.4469832E+002  0.1002137E+03  0.7546771E-02  0.1279847E+00
         21   -1    0    0  505  501  0.00000000000E+00  0.00000000000E+00  0.29401024949E+03  0.29401024949E+03  0.00000000000E+00 0. -1.
         21   -1    0    0  506  502 -0.00000000000E+00 -0.00000000000E+00 -0.11406592329E+04  0.11406592329E+04  0.00000000000E+00 0.  1.
         21    1    1    2  503  502 -0.52460723664E+02  0.96851308059E+02 -0.10876261699E+04  0.10931893655E+04  0.00000000000E+00 0.  1.
         21    1    1    2  504  501  0.25340276379E+02 -0.69932707065E+02  0.18724651741E+03  0.20147945654E+03  0.00000000000E+00 0. -1.
         21    1    1    2  505  503  0.49624483232E+02  0.58571027215E+00  0.81144881331E+02  0.95117948668E+02  0.00000000000E+00 0. -1.
         21    1    1    2  506  504 -0.22504035947E+02 -0.27504311266E+02 -0.27414212196E+02  0.44882711621E+02  0.00000000000E+00 0. -1.
<scales pt_clust_3="100.21371" pt_clust_4="14000.00000" pt_clust_5="49.48385" pt_clust_6="35.53757"></scales>
<clustering>
<clus scale="   35.538">  2  6  1 -1</clus>
<clus scale="   49.484">  1  5  2 -1</clus>
<clus scale="  100.214">  2  3  1 -1</clus>
<clus scale="   49.484">  1  3  2 -1</clus>
</clustering>
</event>
<event>
 6    0  0.4469832E+002  0.1394771E+03  0.7546771E-02  0.1214034E+00
         21   -1    0    0  505  501  0.00000000000E+00  0.00000000000E+00  0.46636874199E+03  0.46636874199E+03  0.00000000000E+00 0. -1.
         21   -1    0    0  506  502 -0.00000000000E+00 -0.00000000000E+00 -0.22490328814E+03  0.22490328814E+03  0.00000000000E+00 0. -1.
         21    1    1    2  503  501  0.12934743523E+03 -0.14690159578E+02  0.29782948608E+03  0.32503686339E+03  0.00000000000E+00 0. -1.
         21    1    1    2  504  503 -0.18059569587E+03  0.30441149595E+02  0.68286781297E+02  0.19545985126E+03  0.00000000000E+00 0. -1.
         21    1    1    2  505  502  0.60260540038E+02  0.19484012177E+02 -0.11783033634E+03  0.13377199849E+03  0.00000000000E+00 0. -1.
         21    1    1    2  506  504 -0.90122793984E+01 -0.35235002194E+02 -0.68204771752E+01  0.37003316993E+02  0.00000000000E+00 0. -1.
<scales pt_clust_3="139.47713" pt_clust_4="14000.00000" pt_clust_5="54.72588" pt_clust_6="36.36931"></scales>
<clustering>
<clus scale="   36.369">  2  6  1 -1</clus>
<clus scale="   54.726">  2  5  1 -1</clus>
<clus scale="  139.477">  1  3  2 -1</clus>
<clus scale="  139.477">  1  3  2 -1</clus>
</clustering>
</event>
<event>
 6    0  0.4469832E+002  0.1142555E+03  0.7546771E-02  0.1252886E+00
         21   -1    0    0  505  501  0.00000000000E+00  0.00000000000E+00  0.32089292112E+04  0.32089292112E+04  0.00000000000E+00 0. -1.
         21   -1    0    0  506  502 -0.00000000000E+00 -0.00000000000E+00 -0.17584594459E+03  0.17584594459E+03  0.00000000000E+00 0.  1.
         21    1    1    2  503  502  0.59622166552E+02  0.71958140417E+02 -0.14725723807E+03  0.17440605173E+03  0.00000000000E+00 0.  1.
         21    1    1    2  504  501 -0.76951641600E+02 -0.11303194275E+03  0.30206133051E+04  0.30237067507E+04  0.00000000000E+00 0. -1.
         21    1    1    2  505  503  0.35599507596E+02  0.62476100585E+01  0.13602379765E+03  0.14074384925E+03  0.00000000000E+00 0.  1.
         21    1    1    2  506  504 -0.18270032549E+02  0.34826192275E+02  0.23703401924E+02  0.45918504118E+02  0.00000000000E+00 0.  1.
<scales pt_clust_3="114.25547" pt_clust_4="14000.00000" pt_clust_5="36.14357" pt_clust_6="39.20474"></scales>
<clustering>
<clus scale="   36.144">  1  5  2 -1</clus>
<clus scale="   39.205">  2  6  1 -1</clus>
<clus scale="  114.255">  2  3  1 -1</clus>
<clus scale="   36.144">  1  3  2 -1</clus>
</clustering>
</event>
<event>
 6    0  0.4469832E+002  0.1531035E+03  0.7546771E-02  0.1196710E+00
         21   -1    0    0  506  501  0.00000000000E+00  0.00000000000E+00  0.58138954143E+03  0.58138954143E+03  0.00000000000E+00 0.  1.
         21   -1    0    0  503  502 -0.00000000000E+00 -0.00000000000E+00 -0.60285223031E+03  0.60285223031E+03  0.00000000000E+00 0. -1.
         21    1    1    2  503  504  0.72673918240E+02 -0.10607145873E+02 -0.35820910993E+03  0.36566073945E+03  0.00000000000E+00 0. -1.
         21    1    1    2  504  505  0.95684135106E+02  0.21737601036E+02 -0.18412651152E+03  0.20863975953E+03  0.00000000000E+00 0. -1.
         21    1    1    2  505  501 -0.15986685497E+03  0.21436156150E+02  0.10445603270E+03  0.19216654984E+03  0.00000000000E+00 0.  1.
         21    1    1    2  506  502 -0.84911983715E+01 -0.32566611313E+02  0.41641689986E+03  0.41777472293E+03  0.00000000000E+00 0.  1.
<scales pt_clust_3="73.36397" pt_clust_4="153.10352" pt_clust_5="14000.00000" pt_clust_6="33.65538"></scales>
<clustering>
<clus scale="   33.655">  1  6  2 -1</clus>
<clus scale="   73.364">  2  3  1 -1</clus>
<clus scale="  153.104">  2  4  1 -1</clus>
<clus scale="   33.655">  1  3  2 -1</clus>
</clustering>
</event>
<event>
 6    0  0.4469832E+002  0.1609035E+03  0.7546771E-02  0.1187680E+00
         21   -1    0    0  506  501  0.00000000000E+00  0.00000000000E+00  0.29788945887E+02  0.29788945887E+02  0.00000000000E+00 0.  1.
         21   -1    0    0  503  502 -0.00000000000E+00 -0.00000000000E+00 -0.26151923353E+04  0.26151923353E+04  0.00000000000E+00 0.  1.
         21    1    1    2  503  504  0.84027743234E+02 -0.57113905604E+02 -0.18616877568E+04  0.18644580885E+04  0.00000000000E+00 0.  1.
         21    1    1    2  504  505  0.38288848273E+02 -0.26482686259E+02 -0.37176155912E+03  0.37466521777E+03  0.00000000000E+00 0.  1.
         21    1    1    2  505  501 -0.15195315372E+03  0.68242904537E+02 -0.26845644124E+03  0.31593625272E+03  0.00000000000E+00 0.  1.
         21    1    1    2  506  502  0.29636562208E+02  0.15353687325E+02 -0.83497632304E+02  0.89921722261E+02  0.00000000000E+00 0.  1.
<scales pt_clust_3="39.83992" pt_clust_4="39.83992" pt_clust_5="149.87439" pt_clust_6="33.37756"></scales>
<clustering>
<clus scale="   33.378">  1  6  2 -1</clus>
<clus scale="   39.840">  3  4 -1 -1</clus>
<clus scale="  149.874">  1  5  2 -1</clus>
<clus scale="   33.378">  1  3  2 -1</clus>
</clustering>
</event>
<event>
 6    0  0.4469832E+002  0.2100324E+03  0.7546771E-02  0.1141540E+00
         21   -1    0    0  506  501  0.00000000000E+00  0.00000000000E+00  0.73051870117E+03  0.73051870117E+03  0.00000000000E+00 0. -1.
         21   -1    0    0  504  502 -0.00000000000E+00 -0.00000000000E+00 -0.14460048672E+03  0.14460048672E+03  0.00000000000E+00 0. -1.
         21    1    1    2  503  502 -0.23349071830E+02 -0.23893643456E+02  0.18528849909E+02  0.38202141718E+02  0.00000000000E+00 0.  1.
         21    1    1    2  504  505  0.89634093718E+02 -0.18817525575E+03 -0.19151582715E+01  0.20844151569E+03  0.00000000000E+00 0. -1.
         21    1    1    2  505  501  0.27093723230E+01  0.19491986167E+03  0.40649649861E+03  0.45082202315E+03  0.00000000000E+00 0. -1.
         21    1    1    2  506  503 -0.68994394211E+02  0.17149037536E+02  0.16280802420E+03  0.17765350733E+03  0.00000000000E+00 0. -1.
<scales pt_clust_3="33.40786" pt_clust_4="14000.00000" pt_clust_5="210.03240" pt_clust_6="72.04183"></scales>
<clustering>
<clus scale="   33.408">  2  3  1 -1</clus>
<clus scale="   72.042">  1  6  2 -1</clus>
<clus scale="  210.032">  1  5  2 -1</clus>
<clus scale="   72.042">  1  3  2 -1</clus>
</clustering>
</event>
<event>
 6    0  0.4469832E+002  0.1752153E+03  0.7546771E-02  0.1172516E+00
         21   -1    0    0  504  501  0.00000000000E+00  0.00000000000E+00  0.28683479630E+04  0.28683479630E+04  0.00000000000E+00 0. -1.
         21   -1    0    0  503  502 -0.00000000000E+00 -0.00000000000E+00 -0.21153193192E+02  0.21153193192E+02  0.00000000000E+00 0. -1.
         21    1    1    2  503  505  0.49548549613E+01 -0.69478756153E+02  0.26078371905E+03  0.26992590885E+03  0.00000000000E+00 0. -1.
         21    1    1    2  504  506 -0.35101425849E+02  0.24435764168E+01  0.57382431082E+03  0.57490209675E+03  0.00000000000E+00 0. -1.
         21    1    1    2  505  501 -0.47081590714E+02 -0.82558475269E+02  0.17289856555E+03  0.19729797767E+03  0.00000000000E+00 0. -1.
         21    1    1    2  506  502  0.77228161601E+02  0.14959365501E+03  0.18396881744E+04  0.18473751729E+04  0.00000000000E+00 0. -1.
<scales pt_clust_3="61.87415" pt_clust_4="35.18638" pt_clust_5="61.87415" pt_clust_6="159.28761"></scales>
<clustering>
<clus scale="   35.186">  1  4  2 -1</clus>
<clus scale="   61.874">  3  5 -1 -1</clus>
<clus scale="  159.288">  1  6  2 -1</clus>
<clus scale="   35.186">  1  3  2 -1</clus>
</clustering>
</event>
<event>
 6    0  0.4469832E+002  0.1650929E+03  0.7546771E-02  0.1183064E+00
         21   -1    0    0  505  501  0.00000000000E+00  0.00000000000E+00  0.47639419748E+03  0.47639419748E+03  0.00000000000E+00 0.  1.
         21   -1    0    0  504  502 -0.00000000000E+00 -0.00000000000E+00 -0.44266451671E+03  0.44266451671E+03  0.00000000000E+00 0.  1.
         21    1    1    2  503  506 -0.10806965322E+03  0.77792306191E+02 -0.12980591187E+03  0.18595770381E+03  0.00000000000E+00 0.  1.
         21    1    1    2  504  501  0.20355417910E+02  0.29320296146E+02 -0.15974764433E+03  0.16368669058E+03  0.00000000000E+00 0.  1.
         21    1    1    2  505  503  0.12150394801E+03 -0.11667582816E+03  0.42747246303E+03  0.45946617385E+03  0.00000000000E+00 0.  1.
         21    1    1    2  506  502 -0.33789712698E+02  0.95632258181E+01 -0.10418922606E+03  0.10994814595E+03  0.00000000000E+00 0. -1.
<scales pt_clust_3="14000.00000" pt_clust_4="34.17221" pt_clust_5="165.09291" pt_clust_6="35.11695"></scales>
<clustering>
<clus scale="   35.117">  2  6  1 -1</clus>
<clus scale="   34.172">  2  4  1 -1</clus>
<clus scale="  165.093">  1  5  2 -1</clus>
<clus scale="  165.093">  1  3  2 -1</clus>
</clustering>
</event>
<event>
 6    0  0.4469832E+002  0.7893329E+02  0.7546771E-02  0.1332106E+00
         21   -1    0    0  504  501  0.00000000000E+00  0.00000000000E+00  0.18535665607E+03  0.18535665607E+03  0.00000000000E+00 0.  1.
         21   -1    0    0  501  502 -0.00000000000E+00 -0.00000000000E+00 -0.53756469604E+03  0.53756469604E+03  0.00000000000E+00 0.  1.
         21    1    1    2  503  505 -0.61950659489E+02  0.30734010381E+02 -0.26889816122E+03  0.27764849129E+03  0.00000000000E+00 0.  1.
         21    1    1    2  504  506  0.49558924726E+01  0.40511510488E+02  0.22344723763E+02  0.46529883218E+02  0.00000000000E+00 0.  1.
         21    1    1    2  505  502  0.30081711818E+02  0.42048539658E+02 -0.22567195688E+03  0.23151851157E+03  0.00000000000E+00 0.  1.
         21    1    1    2  506  503  0.26913055198E+02 -0.11329406053E+03  0.12001735438E+03  0.16722446604E+03  0.00000000000E+00 0.  1.
<scales pt_clust_3="78.93329" pt_clust_4="40.81352" pt_clust_5="52.39638" pt_clust_6="14000.00000"></scales>
<clustering>
<clus scale="   40.814">  1  4  2 -1</clus>
<clus scale="   52.396">  2  5  1 -1</clus>
<clus scale="   78.933">  2  3  1 -1</clus>
<clus scale="   40.814">  1  3  2 -1</clus>
</clustering>
</event>
<event>
 6    0  0.4469832E+002  0.1225863E+03  0.7546771E-02  0.1238890E+00
         21   -1    0    0  504  501  0.00000000000E+00  0.00000000000E+00  0.94197776746E+02  0.94197776746E+02  0.00000000000E+00 0. -1.
         21   -1    0    0  505  502 -0.00000000000E+00 -0.00000000000E+00 -0.79196021947E+03  0.79196021947E+03  0.00000000000E+00 0.  1.
         21    1    1    2  503  502  0.26325656908E+02  0.50112699156E+02 -0.30779715018E+03  0.31295911632E+03  0.00000000000E+00 0.  1.
         21    1    1    2  504  506 -0.12737505743E+03 -0.42007135199E+02 -0.40526369382E+01  0.13418430806E+03  0.00000000000E+00 0. -1.
         21    1    1    2  505  501  0.10874000507E+03 -0.64509981740E+02 -0.14926778762E+03  0.19561901459E+03  0.00000000000E+00 0.  1.
         21    1    1    2  506  503 -0.76906045467E+01  0.56404417783E+02 -0.23664486799E+03  0.24339555725E+03  0.00000000000E+00 0.  1.
<scales pt_clust_3="37.58028" pt_clust_4="122.58635" pt_clust_5="14000.00000" pt_clust_6="114.51381"></scales>
<clustering>
<clus scale="   37.580">  3  6 -1 -1</clus>
<clus scale="  114.514">  2  3  1 -1</clus>
<clus scale="  122.586">  1  4  2 -1</clus>
<clus scale="  122.586">  1  3  2 -1</clus>
</clustering>
</event>
<event>
 6    0  0.4469832E+002  0.1375759E+03  0.7546771E-02  0.1216628E+00
         21   -1    0    0  504  501  0.00000000000E+00  0.00000000000E+00  0.30184701704E+04  0.30184701704E+04  0.00000000000E+00 0.  1.
         21   -1    0    0  506  502 -0.00000000000E+00 -0.00000000000E+00 -0.36006592161E+02  0.36006592161E+02  0.00000000000E+00 0. -1.
         21    1    1    2  503  502  0.41513502856E+02 -0.19122426916E+02  0.18877560302E+03  0.19422993185E+03  0.00000000000E+00 0. -1.
         21    1    1    2  504  503 -0.16456077950E+01  0.14117886634E+03  0.25683307909E+04  0.25722086291E+04  0.00000000000E+00 0.  1.
         21    1    1    2  505  501  0.24913082316E+02 -0.93677794306E+02  0.77391251681E+02  0.12403869015E+03  0.00000000000E+00 0. -1.
         21    1    1    2  506  505 -0.64780977377E+02 -0.28378645117E+02  0.14796593269E+03  0.16399951148E+03  0.00000000000E+00 0. -1.
<scales pt_clust_3="45.70600" pt_clust_4="137.57594" pt_clust_5="14000.00000" pt_clust_6="63.94480"></scales>
<clustering>
<clus scale="   45.706">  2  3  1 -1</clus>
<clus scale="   63.945">  2  6  1 -1</clus>
<clus scale="  137.576">  1  4  2 -1</clus>
<clus scale="  137.576">  1  3  2 -1</clus>
</clustering>
</event>
<event>
 6    0  0.4469832E+002  0.6505738E+02  0.7546771E-02  0.1377756E+00
         21   -1    0    0  505  501  0.00000000000E+00  0.00000000000E+00  0.35386269309E+02  0.35386269309E+02  0.00000000000E+00 0.  1.
         21   -1    0    0  504  502 -0.00000000000E+00 -0.00000000000E+00 -0.10425186265E+04  0.10425186265E+04  0.00000000000E+00 0. -1.
         21    1    1    2  503  501  0.47196281254E+02  0.28777767830E+02 -0.23063662460E+02  0.59896422360E+02  0.00000000000E+00 0.  1.
         21    1    1    2  504  503  0.42656681412E+02  0.42781438111E+02 -0.61554722101E+03  0.61850483038E+03  0.00000000000E+00 0. -1.
         21    1    1    2  505  506 -0.61909694572E+02 -0.86199448294E+02 -0.18490621975E+03  0.21319818309E+03  0.00000000000E+00 0.  1.
         21    1    1    2  506  502 -0.27943268095E+02  0.14640242354E+02 -0.18361525398E+03  0.18630545999E+03  0.00000000000E+00 0. -1.
<scales pt_clust_3="54.50828" pt_clust_4="65.05738" pt_clust_5="14000.00000" pt_clust_6="31.54620"></scales>
<clustering>
<clus scale="   31.546">  2  6  1 -1</clus>
<clus scale="   54.508">  1  3  2 -1</clus>
<clus scale="   65.057">  2  4  1 -1</clus>
<clus scale="   54.508">  1  3  2 -1</clus>
</clustering>
</event>
<event>
 6    0  0.4469832E+002  0.1007398E+03  0.7546771E-02  0.1278748E+00
         21   -1    0    0  503  501  0.00000000000E+00  0.00000000000E+00  0.17935808371E+03  0.17935808371E+03  0.00000000000E+00 0. -1.
         21   -1    0    0  505  502 -0.00000000000E+00 -0.00000000000E+00 -0.57021622483E+03  0.57021622483E+03  0.00000000000E+00 0. -1.
         21    1    1    2  503  506  0.28726180415E+02  0.97614424581E+02  0.23263419668E+02  0.10437890602E+03  0.00000000000E+00 0. -1.
         21    1    1    2  504  501  0.42474081615E+02 -0.19767914978E+02  0.10162139220E+03  0.11190051575E+03  0.00000000000E+00 0. -1.
         21    1    1    2  505  504 -0.29765143235E+02 -0.17784162337E+02 -0.44387056685E+02  0.56324514938E+02  0.00000000000E+00 0. -1.
         21    1    1    2  506  502 -0.41435118795E+02 -0.60062347266E+02 -0.47135589631E+03  0.47697037184E+03  0.00000000000E+00 0. -1.
<scales pt_clust_3="14000.00000" pt_clust_4="46.65714" pt_clust_5="34.67334" pt_clust_6="100.73984"></scales>
<clustering>
<clus scale="   34.673">  2  5  1 -1</clus>
<clus scale="   46.657">  1  4  2 -1</clus>
<clus scale="  100.740">  2  6  1 -1</clus>
<clus scale="   46.657">  1  3  2 -1</clus>
</clustering>
</event>
<event>
 6    0  0.4469832E+002  0.2102467E+03  0.7546771E-02  0.1141371E+00
         21   -1    0    0  503  501  0.00000000000E+00  0.00000000000E+00  0.11003963342E+04  0.11003963342E+04  0.00000000000E+00 0. -1.
         21   -1    0    0  505  502 -0.00000000000E+00 -0.00000000000E+00 -0.83251203239E+02  0.83251203239E+02  0.00000000000E+00 0. -1.
         21    1    1    2  503  506 -0.66995509608E+01 -0.35790471124E+02  0.43209222896E+03  0.43362372644E+03  0.00000000000E+00 0. -1.
         21    1    1    2  504  502 -0.86355248709E+02 -0.91005340688E+02  0.75095659468E+02  0.14621408648E+03  0.00000000000E+00 0. -1.
         21    1    1    2  505  501  0.16854673183E+03  0.14602344351E+03  0.46016654434E+03  0.51135515583E+03  0.00000000000E+00 0. -1.
         21    1    1    2  506  504 -0.75491932161E+02 -0.19227631699E+02  0.49790698166E+02  0.92454568660E+02  0.00000000000E+00 0. -1.
<scales pt_clust_3="36.41211" pt_clust_4="42.91442" pt_clust_5="202.93682" pt_clust_6="42.91442"></scales>
<clustering>
<clus scale="   36.412">  1  3  2 -1</clus>
<clus scale="   42.914">  4  6 -1 -1</clus>
<clus scale="  202.937">  1  5  2 -1</clus>
<clus scale="   36.412">  1  3  2 -1</clus>
</clustering>
</event>
<event>
 6    0  0.4469832E+002  0.8736786E+02  0.7546771E-02  0.1309354E+00
         21   -1    0    0  506  501  0.00000000000E+00  0.00000000000E+00  0.94578164372E+03  0.94578164372E+03  0.00000000000E+00 0. -1.
         21   -1    0    0  503  502 -0.00000000000E+00 -0.00000000000E+00 -0.17898722302E+03  0.17898722302E+03  0.00000000000E+00 0.  1.
         21    1    1    2  503  505 -0.41741474276E+02  0.11151198776E+02 -0.62481998594E+02  0.75965123953E+02  0.00000000000E+00 0.  1.
         21    1    1    2  504  502 -0.58987530342E+01 -0.84005747742E+02 -0.77761327102E+02  0.11462366655E+03  0.00000000000E+00 0.  1.
         21    1    1    2  505  501  0.72477954529E+02  0.12000070996E+03  0.82168407660E+03  0.83355740415E+03  0.00000000000E+00 0. -1.
         21    1    1    2  506  504 -0.24837727219E+02 -0.47146160992E+02  0.85353669792E+02  0.10062267208E+03  0.00000000000E+00 0. -1.
<scales pt_clust_3="43.20532" pt_clust_4="14000.00000" pt_clust_5="87.36786" pt_clust_6="54.03510"></scales>
<clustering>
<clus scale="   43.205">  2  3  1 -1</clus>
<clus scale="   54.035">  1  6  2 -1</clus>
<clus scale="   87.368">  1  5  2 -1</clus>
<clus scale="   54.035">  1  3  2 -1</clus>
</clustering>
</event>
<event>
 6    0  0.4469832E+002  0.1033420E+03  0.7546771E-02  0.1273421E+00
         21   -1    0    0  506  501  0.00000000000E+00  0.00000000000E+00  0.10564772599E+03  0.10564772599E+03  0.00000000000E+00 0. -1.
         21   -1    0    0  505  502 -0.00000000000E+00 -0.00000000000E+00 -0.29236773168E+04  0.29236773168E+04  0.00000000000E+00 0. -1.
         21    1    1    2  503  504 -0.15874431141E+01 -0.33110738734E+02 -0.75131937752E+03  0.75205029621E+03  0.00000000000E+00 0. -1.
         21    1    1    2  504  501 -0.12468009195E+03  0.13161970619E+03 -0.18892485263E+03  0.26184245707E+03  0.00000000000E+00 0. -1.
         21    1    1    2  505  503  0.55315449575E+02 -0.38816630486E+02 -0.19145100376E+04  0.19157022769E+04  0.00000000000E+00 0. -1.
         21    1    1    2  506  502  0.70952085485E+02 -0.59692336970E+02  0.36724676874E+02  0.99730012630E+02  0.00000000000E+00 0. -1.
<scales pt_clust_3="32.82915" pt_clust_4="92.10047" pt_clust_5="32.82915" pt_clust_6="92.72202"></scales>
<clustering>
<clus scale="   32.829">  3  5 -1 -1</clus>
<clus scale="   92.722">  1  6  2 -1</clus>
<clus scale="   92.100">  1  4  2 -1</clus>
<clus scale="   92.722">  1  3  2 -1</clus>
</clustering>
</event>
<event>
 6    0  0.4469832E+002  0.1753835E+03  0.7546771E-02  0.1172347E+00
         21   -1    0    0  504  501  0.00000000000E+00  0.00000000000E+00  0.16902884110E+04  0.16902884110E+04  0.00000000000E+00 0.  1.
         21   -1    0    0  506  502 -0.00000000000E+00 -0.00000000000E+00 -0.18530384915E+04  0.18530384915E+04  0.00000000000E+00 0.  1.
         21    1    1    2  503  502 -0.59171617068E+02  0.45879081543E+02 -0.92898700411E+03  0.93199947650E+03  0.00000000000E+00 0.  1.
         21    1    1    2  504  505  0.19666410804E+03  0.46030806075E+01  0.15665856969E+04  0.15788884398E+04  0.00000000000E+00 0.  1.
         21    1    1    2  505  503 -0.96101967640E+02 -0.21842186430E+02 -0.90814175438E+03  0.91347365334E+03  0.00000000000E+00 0.  1.
         21    1    1    2  506  501 -0.41390523338E+02 -0.28639975721E+02  0.10779298112E+03  0.11896533281E+03  0.00000000000E+00 0.  1.
<scales pt_clust_3="67.72775" pt_clust_4="157.21972" pt_clust_5="67.72775" pt_clust_6="50.33313"></scales>
<clustering>
<clus scale="   50.333">  1  6  2 -1</clus>
<clus scale="   67.728">  3  5 -1 -1</clus>
<clus scale="  157.220">  1  4  2 -1</clus>
<clus scale="   50.333">  1  3  2 -1</clus>
</clustering>
</event>
<event>
 6    0  0.4469832E+002  0.1602835E+03  0.7546771E-02  0.1188377E+00
         21   -1    0    0  505  501  0.00000000000E+00  0.00000000000E+00  0.78950401663E+02  0.78950401663E+02  0.00000000000E+00 0. -1.
         21   -1    0    0  506  502 -0.00000000000E+00 -0.00000000000E+00 -0.27839743648E+04  0.27839743648E+04  0.00000000000E+00 0.  1.
         21    1    1    2  503  502  0.15484639459E+03  0.24662128976E+02 -0.18534807636E+04  0.18601012251E+04  0.00000000000E+00 0.  1.
         21    1    1    2  504  501  0.13496365421E+03  0.40538796453E+02 -0.23114744340E+03  0.27071705260E+03  0.00000000000E+00 0.  1.
         21    1    1    2  505  503 -0.27436037698E+03 -0.95344794252E+02 -0.32949100175E+03  0.43923634467E+03  0.00000000000E+00 0. -1.
         21    1    1    2  506  504 -0.15449671814E+02  0.30143868823E+02 -0.29090475439E+03  0.29287014411E+03  0.00000000000E+00 0. -1.
<scales pt_clust_3="14000.00000" pt_clust_4="140.34383" pt_clust_5="160.28354" pt_clust_6="33.87248"></scales>
<clustering>
<clus scale="   33.872">  2  6  1 -1</clus>
<clus scale="  140.344">  1  4  2 -1</clus>
<clus scale="  160.284">  1  5  2 -1</clus>
<clus scale="  140.344">  1  3  2 -1</clus>
</clustering>
</event>
<event>
 6    0  0.4469832E+002  0.2008961E+03  0.7546771E-02  0.1148985E+00
         21   -1    0    0  505  501  0.00000000000E+00  0.00000000000E+00  0.31700523115E+04  0.31700523115E+04  0.00000000000E+00 0. -1.
         21   -1    0    0  506  502 -0.00000000000E+00 -0.00000000000E+00 -0.37557121122E+03  0.37557121122E+03  0.00000000000E+00 0. -1.
         21    1    1    2  503  501  0.12074058685E+03  0.40915102786E+02  0.27950479624E+04  0.27979537965E+04  0.00000000000E+00 0. -1.
         21    1    1    2  504  502 -0.12671170984E+02  0.52226069638E+02 -0.11174397242E+03  0.12399530755E+03  0.00000000000E+00 0. -1.
         21    1    1    2  505  504 -0.95105127134E+02  0.11194192412E+03 -0.20159788031E+03  0.24943473080E+03  0.00000000000E+00 0. -1.
         21    1    1    2  506  503 -0.12964288731E+02 -0.20508309654E+03  0.31277499055E+03  0.37423968788E+03  0.00000000000E+00 0.  1.
<scales pt_clust_3="127.48465" pt_clust_4="31.43000" pt_clust_5="31.43000" pt_clust_6="194.05988"></scales>
<clustering>
<clus scale="   31.430">  4  5 -1 -1</clus>
<clus scale="  127.485">  1  3  2 -1</clus>
<clus scale="  194.060">  1  6  2 -1</clus>
<clus scale="  127.485">  1  3  2 -1</clus>
</clustering>
</event>
<event>
 6    0  0.4469832E+002  0.8802396E+02  0.7546771E-02  0.1307709E+00
         21   -1    0    0  504  501  0.00000000000E+00  0.00000000000E+00  0.28749567360E+02  0.28749567360E+02  0.00000000000E+00 0.  1.
         21   -1    0    0  505  502 -0.00000000000E+00 -0.00000000000E+00 -0.91093246932E+03  0.91093246932E+03  0.00000000000E+00 0.  1.
         21    1    1    2  503  501 -0.11582289197E+02  0.30344087634E+02 -0.76456754180E+02  0.83069539165E+02  0.00000000000E+00 0.  1.
         21    1    1    2  504  506  0.37314943223E+02  0.41186618564E+02 -0.11459350230E+03  0.12735938640E+03  0.00000000000E+00 0.  1.
         21    1    1    2  505  503 -0.93172445533E+02 -0.13261987404E+02 -0.57608656529E+03  0.58372314981E+03  0.00000000000E+00 0.  1.
         21    1    1    2  506  502  0.67439791507E+02 -0.58268718794E+02 -0.11504608019E+03  0.14552996130E+03  0.00000000000E+00 0.  1.
<scales pt_clust_3="32.47943" pt_clust_4="59.71053" pt_clust_5="14000.00000" pt_clust_6="88.02396"></scales>
<clustering>
<clus scale="   32.479">  1  3  2 -1</clus>
<clus scale="   59.711">  1  4  2 -1</clus>
<clus scale="   88.024">  1  6  2 -1</clus>
<clus scale="   32.479">  1  3  2 -1</clus>
</clustering>
</event>
<event>
 6    0  0.4469832E+002  0.1091671E+03  0.7546771E-02  0.1262120E+00
         21   -1    0    0  505  501  0.00000000000E+00  0.00000000000E+00  0.19151280434E+04  0.19151280434E+04  0.00000000000E+00 0. -1.
         21   -1    0    0  506  502 -0.00000000000E+00 -0.00000000000E+00 -0.36841207105E+03  0.36841207105E+03  0.00000000000E+00 0.  1.
         21    1    1    2  503  504  0.11477303881E+02 -0.64816582406E+02 -0.21271171548E+03  0.22266385374E+03  0.00000000000E+00 0.  1.
         21    1    1    2  504  502 -0.24345166730E+02 -0.35760965735E+02 -0.13891649243E+03  0.14549682361E+03  0.00000000000E+00 0.  1.
         21    1    1    2  505  503  0.26535809623E+02 -0.23091083526E+02  0.41631466859E+02  0.54502535387E+02  0.00000000000E+00 0. -1.
         21    1    1    2  506  501 -0.13667946775E+02  0.12366863167E+03  0.18567127134E+04  0.18608769017E+04  0.00000000000E+00 0. -1.
<scales pt_clust_3="32.61412" pt_clust_4="32.61412" pt_clust_5="35.17595" pt_clust_6="101.48394"></scales>
<clustering>
<clus scale="   32.614">  3  4 -1 -1</clus>
<clus scale="   35.176">  1  5  2 -1</clus>
<clus scale="  101.484">  1  6  2 -1</clus>
<clus scale="   35.176">  1  3  2 -1</clus>
</clustering>
</event>
<event>
 6    0  0.4469832E+002  0.1074786E+03  0.7546771E-02  0.1265312E+00
         21   -1    0    0  505  501  0.00000000000E+00  0.00000000000E+00  0.54399661472E+02  0.54399661472E+02  0.00000000000E+00 0.  1.
         21   -1    0    0  504  502 -0.00000000000E+00 -0.00000000000E+00 -0.75274590150E+03  0.75274590150E+03  0.00000000000E+00 0.  1.
         21    1    1    2  503  502  0.22204373412E+02 -0.65939575054E+02 -0.14750767915E+03  0.16309376801E+03  0.00000000000E+00 0.  1.
         21    1    1    2  504  501  0.93993681389E+02  0.10680684965E+03 -0.10410546224E+03  0.17629651880E+03  0.00000000000E+00 0.  1.
         21    1    1    2  505  506 -0.40045301520E+02 -0.86343045808E+01 -0.62532862841E+02  0.74756513593E+02  0.00000000000E+00 0.  1.
         21    1    1    2  506  503 -0.76152753280E+02 -0.32232970015E+02 -0.38420023580E+03  0.39299876257E+03  0.00000000000E+00 0.  1.
<scales pt_clust_3="69.14865" pt_clust_4="14000.00000" pt_clust_5="40.96556" pt_clust_6="107.47857"></scales>
<clustering>
<clus scale="   40.966">  1  5  2 -1</clus>
<clus scale="   69.149">  2  3  1 -1</clus>
<clus scale="  107.479">  2  6  1 -1</clus>
<clus scale="   40.966">  1  3  2 -1</clus>
</clustering>
</event>
<event>
 6    0  0.4469832E+002  0.1097888E+03  0.7546771E-02  0.1260961E+00
         21   -1    0    0  506  501  0.00000000000E+00  0.00000000000E+00  0.25979719754E+04  0.25979719754E+04  0.00000000000E+00 0.  1.
         21   -1    0    0  503  502 -0.00000000000E+00 -0.00000000000E+00 -0.10657130450E+02  0.10657130450E+02  0.00000000000E+00 0.  1.
         21    1    1    2  503  505 -0.33209490192E+02 -0.10588223386E+01  0.25283396653E+03  0.25500785473E+03  0.00000000000E+00 0. -1.
         21    1    1    2  504  502  0.86254865755E+02  0.68676353464E+02  0.67959737082E+03  0.68848306429E+03  0.00000000000E+00 0.  1.
         21    1    1    2  505  501 -0.47604018242E+02 -0.11267106759E+03  0.82533508129E+03  0.83434939230E+03  0.00000000000E+00 0.  1.
         21    1    1    2  506  504 -0.54413573203E+01  0.45053536461E+02  0.82954842633E+03  0.83078879455E+03  0.00000000000E+00 0.  1.
<scales pt_clust_3="33.22637" pt_clust_4="109.78883" pt_clust_5="14000.00000" pt_clust_6="45.62131"></scales>
<clustering>
<clus scale="   33.226">  2  3  1 -1</clus>
<clus scale="   45.621">  1  6  2 -1</clus>
<clus scale="  109.789">  2  4  1 -1</clus>
<clus scale="   45.621">  1  3  2 -1</clus>
</clustering>
</event>
<event>
 6    0  0.4469832E+002  0.1564512E+03  0.7546771E-02  0.1192763E+00
         21   -1    0    0  503  501  0.00000000000E+00  0.00000000000E+00  0.13783121825E+04  0.13783121825E+04  0.00000000000E+00 0. -1.
         21   -1    0    0  501  502 -0.00000000000E+00 -0.00000000000E+00 -0.18674006969E+03  0.18674006969E+03  0.00000000000E+00 0. -1.
         21    1    1    2  503  504  0.16266708521E+02  0.33112237300E+02  0.31007137659E+03  0.31225836201E+03  0.00000000000E+00 0. -1.
         21    1    1    2  504  506  0.13143934531E+03 -0.70476358665E+02  0.10277174417E+04  0.10384827194E+04  0.00000000000E+00 0. -1.
         21    1    1    2  505  502 -0.66755579329E+02 -0.80035424037E+00 -0.70360318948E+02  0.96992383314E+02  0.00000000000E+00 0. -1.
         21    1    1    2  506  505 -0.80950474500E+02  0.38164475605E+02 -0.75856386491E+02  0.11731878746E+03  0.00000000000E+00 0. -1.
<scales pt_clust_3="36.89209" pt_clust_4="152.11894" pt_clust_5="31.57844" pt_clust_6="31.57844"></scales>
<clustering>
<clus scale="   31.578">  5  6 -1 -1</clus>
<clus scale="   36.892">  1  3  2 -1</clus>
<clus scale="  152.119">  1  4  2 -1</clus>
<clus scale="   36.892">  1  3  2 -1</clus>
</clustering>
</event>
<event>
 6    0  0.4469832E+002  0.1065953E+03  0.7546771E-02  0.1267008E+00
         21   -1    0    0  503  501  0.00000000000E+00  0.00000000000E+00  0.34103800312E+03  0.34103800312E+03  0.00000000000E+00 0. -1.
         21   -1    0    0  504  502 -0.00000000000E+00 -0.00000000000E+00 -0.32036262007E+03  0.32036262007E+03  0.00000000000E+00 0.  1.
         21    1    1    2  503  502 -0.28083876570E+02 -0.24897029192E+02  0.16002779065E+02  0.40800185338E+02  0.00000000000E+00 0. -1.
         21    1    1    2  504  505 -0.65037836587E+02 -0.85967734873E+02 -0.27774336973E+03  0.29792910407E+03  0.00000000000E+00 0.  1.
         21    1    1    2  505  506  0.65005937923E+02  0.64577205971E+02  0.11696823322E+03  0.14858517785E+03  0.00000000000E+00 0. -1.
         21    1    1    2  506  501  0.28115775234E+02  0.46287558094E+02  0.16544774049E+03  0.17408615593E+03  0.00000000000E+00 0. -1.
<scales pt_clust_3="37.53087" pt_clust_4="106.59526" pt_clust_5="14000.00000" pt_clust_6="35.20330"></scales>
<clustering>
<clus scale="   37.531">  1  3  2 -1</clus>
<clus scale="   35.203">  1  6  2 -1</clus>
<clus scale="  106.595">  2  4  1 -1</clus>
<clus scale="   37.531">  1  3  2 -1</clus>
</clustering>
</event>
<event>
 6    0  0.4469832E+002  0.7598521E+02  0.7546771E-02  0.1340847E+00
         21   -1    0    0  504  501  0.00000000000E+00  0.00000000000E+00  0.22851082471E+03  0.22851082471E+03  0.00000000000E+00 0. -1.
         21   -1    0    0  505  502 -0.00000000000E+00 -0.00000000000E+00 -0.57767957832E+03  0.57767957832E+03  0.00000000000E+00 0.  1.
         21    1    1    2  503  501 -0.30771159244E+02 -0.29346315319E+02  0.16238011707E+02  0.45516409000E+02  0.00000000000E+00 0.  1.
         21    1    1    2  504  506 -0.10152812583E+02  0.89494402613E+02  0.17017800805E+03  0.19254319548E+03  0.00000000000E+00 0. -1.
         21    1    1    2  505  503  0.10113565241E+02 -0.11348067780E+03 -0.23327078269E+03  0.25960625280E+03  0.00000000000E+00 0.  1.
         21    1    1    2  506  502  0.30810406586E+02  0.53332590502E+02 -0.30231399068E+03  0.30852454575E+03  0.00000000000E+00 0.  1.
<scales pt_clust_3="42.52141" pt_clust_4="14000.00000" pt_clust_5="75.98521" pt_clust_6="60.95176"></scales>
<clustering>
<clus scale="   42.521">  1  3  2 -1</clus>
<clus scale="   60.952">  2  6  1 -1</clus>
<clus scale="   75.985">  2  5  1 -1</clus>
<clus scale="   42.521">  1  3  2 -1</clus>
</clustering>
</event>
<event>
 6    0  0.4469832E+002  0.1660161E+03  0.7546771E-02  0.1182067E+00
         21   -1    0    0  505  501  0.00000000000E+00  0.00000000000E+00  0.28230375902E+03  0.28230375902E+03  0.00000000000E+00 0. -1.
         21   -1    0    0  504  502 -0.00000000000E+00 -0.00000000000E+00 -0.97558894210E+02  0.97558894210E+02  0.00000000000E+00 0. -1.
         21    1    1    2  503  502  0.82041003684E+02  0.51181740435E+02  0.17218087845E+02  0.98217917859E+02  0.00000000000E+00 0. -1.
         21    1    1    2  504  506 -0.13187631356E+03 -0.26999731937E+02  0.10156320720E+03  0.16862808976E+03  0.00000000000E+00 0. -1.
         21    1    1    2  505  503  0.60143164083E+02  0.54119422788E+01  0.45098896901E+02  0.75368427122E+02  0.00000000000E+00 0. -1.
         21    1    1    2  506  501 -0.10307854211E+02 -0.29593950777E+02  0.20864672865E+02  0.37648218481E+02  0.00000000000E+00 0. -1.
<scales pt_clust_3="162.01485" pt_clust_4="31.05310" pt_clust_5="42.03656" pt_clust_6="31.05310"></scales>
<clustering>
<clus scale="   31.053">  4  6 -1 -1</clus>
<clus scale="   42.037">  3  5 -1 -1</clus>
<clus scale="  162.015">  2  3  1 -1</clus>
<clus scale="  166.016">  1  3  2 -1</clus>
</clustering>
</event>
<event>
 6    0  0.4469832E+002  0.3830959E+03  0.7546771E-02  0.1049795E+00
         21   -1    0    0  505  501  0.00000000000E+00  0.00000000000E+00  0.22445303074E+04  0.22445303074E+04  0.00000000000E+00 0.  1.
         21   -1    0    0  504  502 -0.00000000000E+00 -0.00000000000E+00 -0.32574173264E+03  0.32574173264E+03  0.00000000000E+00 0.  1.
         21    1    1    2  503  502  0.52465690985E+02  0.46039052982E+02 -0.15072720345E+03  0.16610518652E+03  0.00000000000E+00 0. -1.
         21    1    1    2  504  501 -0.35132250908E+02  0.39478625859E+01 -0.50804938341E+02  0.61895092153E+02  0.00000000000E+00 0.  1.
         21    1    1    2  505  506  0.35189760996E+03 -0.15297050666E+03  0.18067065804E+04  0.18470031325E+04  0.00000000000E+00 0.  1.
         21    1    1    2  506  503 -0.36923105004E+03  0.10298359109E+03  0.31361413617E+03  0.49526862888E+03  0.00000000000E+00 0.  1.
<scales pt_clust_3="57.88244" pt_clust_4="35.35337" pt_clust_5="383.09589" pt_clust_6="14000.00000"></scales>
<clustering>
<clus scale="   35.353">  2  4  1 -1</clus>
<clus scale="   57.882">  2  3  1 -1</clus>
<clus scale="  383.096">  1  5  2 -1</clus>
<clus scale="  383.096">  1  3  2 -1</clus>
</clustering>
</event>
<event>
 6    0  0.4469832E+002  0.2102419E+03  0.7546771E-02  0.1141375E+00
         21   -1    0    0  504  501  0.00000000000E+00  0.00000000000E+00  0.20340076081E+04  0.20340076081E+04  0.00000000000E+00 0. -1.
         21   -1    0    0  503  502 -0.00000000000E+00 -0.00000000000E+00 -0.19756714918E+03  0.19756714918E+03  0.00000000000E+00 0. -1.
         21    1    1    2  503  506  0.20285134793E+03  0.10007659101E+03 -0.30138281908E+02  0.22819357893E+03  0.00000000000E+00 0. -1.
         21    1    1    2  504  505 -0.12024014459E+03  0.31023640363E+02  0.65816208321E+02  0.14054156649E+03  0.00000000000E+00 0. -1.
         21    1    1    2  505  502 -0.75926251034E+02 -0.58119804024E+01  0.21453867971E+02  0.79112850810E+02  0.00000000000E+00 0. -1.
         21    1    1    2  506  501 -0.66849523082E+01 -0.12528825098E+03  0.17793086645E+04  0.17837267611E+04  0.00000000000E+00 0. -1.
<scales pt_clust_3="206.60717" pt_clust_4="30.48111" pt_clust_5="30.48111" pt_clust_6="125.46647"></scales>
<clustering>
<clus scale="   30.481">  4  5 -1 -1</clus>
<clus scale="  125.466">  1  6  2 -1</clus>
<clus scale="  206.607">  2  3  1 -1</clus>
<clus scale="  125.466">  1  3  2 -1</clus>
</clustering>
</event>
<event>
 6    0  0.4469832E+002  0.1985560E+03  0.7546771E-02  0.1150963E+00
         21   -1    0    0  503  501  0.00000000000E+00  0.00000000000E+00  0.85631502034E+03  0.85631502034E+03  0.00000000000E+00 0. -1.
         21   -1    0    0  505  502 -0.00000000000E+00 -0.00000000000E+00 -0.28253058924E+03  0.28253058924E+03  0.00000000000E+00 0. -1.
         21    1    1    2  503  504 -0.10666526933E+03  0.11736597857E+03  0.76730901173E+02  0.17618139459E+03  0.00000000000E+00 0. -1.
         21    1    1    2  504  506  0.42389137496E+02 -0.87103229724E+02 -0.62857272102E+02  0.11547661349E+03  0.00000000000E+00 0. -1.
         21    1    1    2  505  501  0.42253244454E+02  0.86721712844E+02  0.67485259697E+03  0.68171256390E+03  0.00000000000E+00 0. -1.
         21    1    1    2  506  502  0.22022887378E+02 -0.11698446169E+03 -0.11494179494E+03  0.16547503760E+03  0.00000000000E+00 0. -1.
<scales pt_clust_3="194.68916" pt_clust_4="35.17717" pt_clust_5="96.46757" pt_clust_6="35.17717"></scales>
<clustering>
<clus scale="   35.177">  4  6 -1 -1</clus>
<clus scale="   96.468">  1  5  2 -1</clus>
<clus scale="  194.689">  1  3  2 -1</clus>
<clus scale="   96.468">  1  3  2 -1</clus>
</clustering>
</event>
<event>
 6    0  0.4469832E+002  0.9439744E+02  0.7546771E-02  0.1292539E+00
         21   -1    0    0  506  501  0.00000000000E+00  0.00000000000E+00  0.18852615894E+03  0.18852615894E+03  0.00000000000E+00 0.  1.
         21   -1    0    0  505  502 -0.00000000000E+00 -0.00000000000E+00 -0.28281414936E+03  0.28281414936E+03  0.00000000000E+00 0.  1.
         21    1    1    2  503  502 -0.64184711303E+02  0.50943489756E+02 -0.13047155023E+03  0.15407057387E+03  0.00000000000E+00 0.  1.
         21    1    1    2  504  501 -0.30326893144E+02  0.12066640023E+02  0.91188971495E+02  0.96854286283E+02  0.00000000000E+00 0.  1.
         21    1    1    2  505  504 -0.17347880861E+02  0.50870869513E+02 -0.11498580293E+02  0.54963730624E+02  0.00000000000E+00 0.  1.
         21    1    1    2  506  503  0.11185948531E+03 -0.11388099929E+03 -0.43506831386E+02  0.16545171752E+03  0.00000000000E+00 0.  1.
<scales pt_clust_3="14000.00000" pt_clust_4="32.63931" pt_clust_5="58.90182" pt_clust_6="94.39744"></scales>
<clustering>
<clus scale="   32.639">  1  4  2 -1</clus>
<clus scale="   58.902">  1  5  2 -1</clus>
<clus scale="   94.397">  1  6  2 -1</clus>
<clus scale="   32.639">  1  3  2 -1</clus>
</clustering>
</event>
<event>
 6    0  0.4469832E+002  0.8406682E+02  0.7546771E-02  0.1317891E+00
         21   -1    0    0  506  501  0.00000000000E+00  0.00000000000E+00  0.25966638282E+03  0.25966638282E+03  0.00000000000E+00 0.  1.
         21   -1    0    0  503  502 -0.00000000000E+00 -0.00000000000E+00 -0.20237625877E+03  0.20237625877E+03  0.00000000000E+00 0.  1.
         21    1    1    2  503  505 -0.10311925026E+03 -0.10956259738E+02 -0.37943025444E+02  0.11042324294E+03  0.00000000000E+00 0.  1.
         21    1    1    2  504  502  0.80389570923E+01  0.57260346567E+02 -0.93074840156E+02  0.10957325399E+03  0.00000000000E+00 0.  1.
         21    1    1    2  505  501  0.55764945457E+02  0.19666234863E+02  0.13827773505E+03  0.15039023222E+03  0.00000000000E+00 0.  1.
         21    1    1    2  506  504  0.39315347707E+02 -0.65970321692E+02  0.50030254603E+02  0.91655912439E+02  0.00000000000E+00 0.  1.
<scales pt_clust_3="14000.00000" pt_clust_4="57.82190" pt_clust_5="60.80469" pt_clust_6="84.06682"></scales>
<clustering>
<clus scale="   57.822">  2  4  1 -1</clus>
<clus scale="   60.805">  1  5  2 -1</clus>
<clus scale="   84.067">  1  6  2 -1</clus>
<clus scale="   60.805">  1  3  2 -1</clus>
</clustering>
</event>
<event>
 6    0  0.4469832E+002  0.7009678E+02  0.7546771E-02  0.1359764E+00
         21   -1    0    0  503  501  0.00000000000E+00  0.00000000000E+00  0.12594210276E+04  0.12594210276E+04  0.00000000000E+00 0. -1.
         21   -1    0    0  505  502 -0.00000000000E+00 -0.00000000000E+00 -0.82280337963E+02  0.82280337963E+02  0.00000000000E+00 0.  1.
         21    1    1    2  503  506 -0.17026721439E+02 -0.66239054545E+02  0.88890855198E+03  0.89153571738E+03  0.00000000000E+00 0. -1.
         21    1    1    2  504  501 -0.48671196660E+02  0.91449155030E+02  0.30684052531E+03  0.32385635907E+03  0.00000000000E+00 0. -1.
         21    1    1    2  505  504  0.33381641235E+02 -0.36601403091E+02 -0.56554092324E+02  0.75182192296E+02  0.00000000000E+00 0.  1.
         21    1    1    2  506  502  0.32316276864E+02  0.11391302607E+02  0.37945704682E+02  0.51127096820E+02  0.00000000000E+00 0. -1.
<scales pt_clust_3="14000.00000" pt_clust_4="70.09678" pt_clust_5="67.04530" pt_clust_6="34.26519"></scales>
<clustering>
<clus scale="   34.265">  2  6  1 -1</clus>
<clus scale="   67.045">  2  5  1 -1</clus>
<clus scale="   70.097">  2  4  1 -1</clus>
<clus scale="   70.097">  1  3  2 -1</clus>
</clustering>
</event>
<event>
 6    0  0.4469832E+002  0.9216722E+02  0.7546771E-02  0.1297687E+00
         21   -1    0    0  506  501  0.00000000000E+00  0.00000000000E+00  0.13146304947E+03  0.13146304947E+03  0.00000000000E+00 0.  1.
         21   -1    0    0  501  502 -0.00000000000E+00 -0.00000000000E+00 -0.16618710594E+03  0.16618710594E+03  0.00000000000E+00 0.  1.
         21    1    1    2  503  505 -0.96730645008E+02  0.35124728638E+02  0.19896921899E+02  0.10481627615E+03  0.00000000000E+00 0.  1.
         21    1    1    2  504  502 -0.22085592612E+02  0.21862716183E+02 -0.32448389207E+02  0.44929385953E+02  0.00000000000E+00 0.  1.
         21    1    1    2  505  504  0.95391375355E+02 -0.32713066428E+02 -0.41472884595E+02  0.10903971462E+03  0.00000000000E+00 0.  1.
         21    1    1    2  506  503  0.23424862266E+02 -0.24274378393E+02  0.19300295438E+02  0.38864778689E+02  0.00000000000E+00 0.  1.
<scales pt_clust_3="14000.00000" pt_clust_4="31.07655" pt_clust_5="92.16722" pt_clust_6="31.35014"></scales>
<clustering>
<clus scale="   31.077">  2  4  1 -1</clus>
<clus scale="   31.350">  1  6  2 -1</clus>
<clus scale="   92.167">  2  5  1 -1</clus>
<clus scale="   31.350">  1  3  2 -1</clus>
</clustering>
</event>
<event>
 6    0  0.4469832E+002  0.1069312E+03  0.7546771E-02  0.1266361E+00
         21   -1    0    0  502  501  0.00000000000E+00  0.00000000000E+00  0.95474288329E+03  0.95474288329E+03  0.00000000000E+00 0.  1.
         21   -1    0    0  506  502 -0.00000000000E+00 -0.00000000000E+00 -0.10043456952E+03  0.10043456952E+03  0.00000000000E+00 0. -1.
         21    1    1    2  503  505  0.75989190912E+02 -0.15200874387E+01 -0.36663172726E+01  0.76092770246E+02  0.00000000000E+00 0. -1.
         21    1    1    2  504  501 -0.55892095349E+02 -0.29265825331E+02  0.83566515979E+03  0.83804336054E+03  0.00000000000E+00 0.  1.
         21    1    1    2  505  504 -0.58487499506E+02  0.60957154127E+02  0.33617659026E+02  0.90921445414E+02  0.00000000000E+00 0. -1.
         21    1    1    2  506  503  0.38390403942E+02 -0.30171241357E+02 -0.11308187777E+02  0.50119876603E+02  0.00000000000E+00 0. -1.
<scales pt_clust_3="32.24417" pt_clust_4="63.09053" pt_clust_5="99.07527" pt_clust_6="32.24417"></scales>
<clustering>
<clus scale="   32.244">  3  6 -1 -1</clus>
<clus scale="   63.091">  1  4  2 -1</clus>
<clus scale="   99.075">  1  5  2 -1</clus>
<clus scale="   63.091">  1  3  2 -1</clus>
</clustering>
</event>
